/home/tahminaafroz
cn016.cluster.local
tahminaafroz
Sat May 10 22:07:21 CDT 2025
 Entering Gaussian System, Link 0=g16
 Initial command:
 /home/apps/g16/l1.exe "/tmp/3-5-diF-ph-opt-freq-thf/Gau-356074.inp" -scrdir="/tmp/3-5-diF-ph-opt-freq-thf/"
 Entering Link 1 = /home/apps/g16/l1.exe PID=    356075.
  
 Copyright (c) 1988-2019, Gaussian, Inc.  All Rights Reserved.
  
 This is part of the Gaussian(R) 16 program.  It is based on
 the Gaussian(R) 09 system (copyright 2009, Gaussian, Inc.),
 the Gaussian(R) 03 system (copyright 2003, Gaussian, Inc.),
 the Gaussian(R) 98 system (copyright 1998, Gaussian, Inc.),
 the Gaussian(R) 94 system (copyright 1995, Gaussian, Inc.),
 the Gaussian 92(TM) system (copyright 1992, Gaussian, Inc.),
 the Gaussian 90(TM) system (copyright 1990, Gaussian, Inc.),
 the Gaussian 88(TM) system (copyright 1988, Gaussian, Inc.),
 the Gaussian 86(TM) system (copyright 1986, Carnegie Mellon
 University), and the Gaussian 82(TM) system (copyright 1983,
 Carnegie Mellon University). Gaussian is a federally registered
 trademark of Gaussian, Inc.
  
 This software contains proprietary and confidential information,
 including trade secrets, belonging to Gaussian, Inc.
  
 This software is provided under written license and may be
 used, copied, transmitted, or stored only in accord with that
 written license.
  
 The following legend is applicable only to US Government
 contracts under FAR:
  
                    RESTRICTED RIGHTS LEGEND
  
 Use, reproduction and disclosure by the US Government is
 subject to restrictions as set forth in subparagraphs (a)
 and (c) of the Commercial Computer Software - Restricted
 Rights clause in FAR 52.227-19.
  
 Gaussian, Inc.
 340 Quinnipiac St., Bldg. 40, Wallingford CT 06492
  
  
 ---------------------------------------------------------------
 Warning -- This program may not be used in any manner that
 competes with the business of Gaussian, Inc. or will provide
 assistance to any competitor of Gaussian, Inc.  The licensee
 of this program is prohibited from giving any competitor of
 Gaussian, Inc. access to this program.  By using this program,
 the user acknowledges that Gaussian, Inc. is engaged in the
 business of creating and licensing software in the field of
 computational chemistry and represents and warrants to the
 licensee that it is not a competitor of Gaussian, Inc. and that
 it will not use this program in any manner prohibited above.
 ---------------------------------------------------------------
  

 Cite this work as:
 Gaussian 16, Revision C.01,
 M. J. Frisch, G. W. Trucks, H. B. Schlegel, G. E. Scuseria, 
 M. A. Robb, J. R. Cheeseman, G. Scalmani, V. Barone, 
 G. A. Petersson, H. Nakatsuji, X. Li, M. Caricato, A. V. Marenich, 
 J. Bloino, B. G. Janesko, R. Gomperts, B. Mennucci, H. P. Hratchian, 
 J. V. Ortiz, A. F. Izmaylov, J. L. Sonnenberg, D. Williams-Young, 
 F. Ding, F. Lipparini, F. Egidi, J. Goings, B. Peng, A. Petrone, 
 T. Henderson, D. Ranasinghe, V. G. Zakrzewski, J. Gao, N. Rega, 
 G. Zheng, W. Liang, M. Hada, M. Ehara, K. Toyota, R. Fukuda, 
 J. Hasegawa, M. Ishida, T. Nakajima, Y. Honda, O. Kitao, H. Nakai, 
 T. Vreven, K. Throssell, J. A. Montgomery, Jr., J. E. Peralta, 
 F. Ogliaro, M. J. Bearpark, J. J. Heyd, E. N. Brothers, K. N. Kudin, 
 V. N. Staroverov, T. A. Keith, R. Kobayashi, J. Normand, 
 K. Raghavachari, A. P. Rendell, J. C. Burant, S. S. Iyengar, 
 J. Tomasi, M. Cossi, J. M. Millam, M. Klene, C. Adamo, R. Cammi, 
 J. W. Ochterski, R. L. Martin, K. Morokuma, O. Farkas, 
 J. B. Foresman, and D. J. Fox, Gaussian, Inc., Wallingford CT, 2019.
 
 ******************************************
 Gaussian 16:  AS64L-G16RevC.01  3-Jul-2019
                10-May-2025 
 ******************************************
 %mem=20GB
 %nprocshared=32
 Will use up to   32 processors via shared memory.
 %chk=3-5-diF-ph-opt-freq-thf.chk
 ----------------------------------------------------------------------
 # opt=(calcfc,tight) freq 6-311+g(d,p) scrf=(smd,solvent=thf) nosymm s
 cf=(qc,fermi,xqc) geom=connectivity int=ultrafine m062x
 ----------------------------------------------------------------------
 1/7=10,10=4,18=20,19=15,26=6,38=1,57=2/1,3;
 2/9=110,12=2,15=1,17=6,18=5,40=1/2;
 3/5=4,6=6,7=111,11=2,25=1,30=1,70=32201,71=2,72=20,74=-55,75=-5,140=1/1,2,3;
 4//1;
 5/5=2,22=13,38=5,53=20/2;
 8/6=4,10=90,11=11/1;
 11/6=1,8=1,9=11,15=111,16=1,31=1/1,2,10;
 10/6=1,13=1,31=1/2;
 6/7=2,8=2,9=2,10=2,28=1/1;
 7/10=1,25=1,30=1/1,2,3,16;
 1/7=10,10=4,18=20,19=15,26=6/3(2);
 2/9=110,15=1/2;
 99//99;
 2/9=110,15=1/2;
 3/5=4,6=6,7=111,11=2,25=1,30=1,70=32205,71=1,72=20,74=-55,75=-5/1,2,3;
 4/5=5,16=3,69=1/1;
 5/5=2,22=13,38=5,53=20/2;
 7/30=1/1,2,3,16;
 1/7=10,18=20,19=15,26=6/3(-5);
 2/9=110,15=1/2;
 6/7=2,8=2,9=2,10=2,19=2,28=1/1;
 99/9=1/99;
 -----------------------
 3-5-diF-ph-opt-freq-thf
 -----------------------
 Symbolic Z-matrix:
 Charge =  0 Multiplicity = 2
 C                     6.23714   7.00139   5.19451 
 C                     5.12018   6.16836   5.31712 
 H                     5.14306   5.22619   5.85439 
 C                     3.92572   6.55314   4.7369 
 C                     3.77272   7.73251   4.03172 
 C                     4.89529   8.53458   3.92906 
 C                     6.11409   8.20351   4.48886 
 H                     6.95607   8.8756    4.37472 
 H                     2.82676   8.01185   3.58517 
 F                     2.85397   5.74598   4.86143 
 F                     4.783     9.69234   3.2491 
 

 GradGradGradGradGradGradGradGradGradGradGradGradGradGradGradGradGradGrad
 Berny optimization.
 Initialization pass.
                           ----------------------------
                           !    Initial Parameters    !
                           ! (Angstroms and Degrees)  !
 --------------------------                            --------------------------
 ! Name  Definition              Value          Derivative Info.                !
 --------------------------------------------------------------------------------
 ! R1    R(1,2)                  1.3988         calculate D2E/DX2 analytically  !
 ! R2    R(1,7)                  1.3994         calculate D2E/DX2 analytically  !
 ! R3    R(2,3)                  1.0848         calculate D2E/DX2 analytically  !
 ! R4    R(2,4)                  1.3826         calculate D2E/DX2 analytically  !
 ! R5    R(4,5)                  1.3826         calculate D2E/DX2 analytically  !
 ! R6    R(4,10)                 1.3475         calculate D2E/DX2 analytically  !
 ! R7    R(5,6)                  1.3835         calculate D2E/DX2 analytically  !
 ! R8    R(5,9)                  1.0827         calculate D2E/DX2 analytically  !
 ! R9    R(6,7)                  1.3815         calculate D2E/DX2 analytically  !
 ! R10   R(6,11)                 1.3474         calculate D2E/DX2 analytically  !
 ! R11   R(7,8)                  1.0834         calculate D2E/DX2 analytically  !
 ! A1    A(2,1,7)              119.0512         calculate D2E/DX2 analytically  !
 ! A2    A(1,2,3)              122.9425         calculate D2E/DX2 analytically  !
 ! A3    A(1,2,4)              119.1672         calculate D2E/DX2 analytically  !
 ! A4    A(3,2,4)              117.8898         calculate D2E/DX2 analytically  !
 ! A5    A(2,4,5)              123.1652         calculate D2E/DX2 analytically  !
 ! A6    A(2,4,10)             118.7947         calculate D2E/DX2 analytically  !
 ! A7    A(5,4,10)             118.0401         calculate D2E/DX2 analytically  !
 ! A8    A(4,5,6)              116.2692         calculate D2E/DX2 analytically  !
 ! A9    A(4,5,9)              121.8107         calculate D2E/DX2 analytically  !
 ! A10   A(6,5,9)              121.9201         calculate D2E/DX2 analytically  !
 ! A11   A(5,6,7)              123.1518         calculate D2E/DX2 analytically  !
 ! A12   A(5,6,11)             117.9046         calculate D2E/DX2 analytically  !
 ! A13   A(7,6,11)             118.9437         calculate D2E/DX2 analytically  !
 ! A14   A(1,7,6)              119.1953         calculate D2E/DX2 analytically  !
 ! A15   A(1,7,8)              121.1798         calculate D2E/DX2 analytically  !
 ! A16   A(6,7,8)              119.6249         calculate D2E/DX2 analytically  !
 ! D1    D(7,1,2,3)           -179.6478         calculate D2E/DX2 analytically  !
 ! D2    D(7,1,2,4)              0.0935         calculate D2E/DX2 analytically  !
 ! D3    D(2,1,7,6)             -0.1746         calculate D2E/DX2 analytically  !
 ! D4    D(2,1,7,8)            179.8534         calculate D2E/DX2 analytically  !
 ! D5    D(1,2,4,5)              0.0287         calculate D2E/DX2 analytically  !
 ! D6    D(1,2,4,10)          -179.8971         calculate D2E/DX2 analytically  !
 ! D7    D(3,2,4,5)            179.783          calculate D2E/DX2 analytically  !
 ! D8    D(3,2,4,10)            -0.1428         calculate D2E/DX2 analytically  !
 ! D9    D(2,4,5,6)             -0.0653         calculate D2E/DX2 analytically  !
 ! D10   D(2,4,5,9)            179.936          calculate D2E/DX2 analytically  !
 ! D11   D(10,4,5,6)           179.8611         calculate D2E/DX2 analytically  !
 ! D12   D(10,4,5,9)            -0.1377         calculate D2E/DX2 analytically  !
 ! D13   D(4,5,6,7)             -0.0215         calculate D2E/DX2 analytically  !
 ! D14   D(4,5,6,11)          -179.9736         calculate D2E/DX2 analytically  !
 ! D15   D(9,5,6,7)            179.9772         calculate D2E/DX2 analytically  !
 ! D16   D(9,5,6,11)             0.0252         calculate D2E/DX2 analytically  !
 ! D17   D(5,6,7,1)              0.1416         calculate D2E/DX2 analytically  !
 ! D18   D(5,6,7,8)           -179.886          calculate D2E/DX2 analytically  !
 ! D19   D(11,6,7,1)          -179.9068         calculate D2E/DX2 analytically  !
 ! D20   D(11,6,7,8)             0.0655         calculate D2E/DX2 analytically  !
 --------------------------------------------------------------------------------
 Trust Radius=3.00D-01 FncErr=5.00D-06 GrdErr=5.00D-06 EigMax=2.50D+02 EigMin=1.00D-04
 Number of steps in this run=     57 maximum allowed number of steps=    100.
 GradGradGradGradGradGradGradGradGradGradGradGradGradGradGradGradGradGrad

                          Input orientation:                          
 ---------------------------------------------------------------------
 Center     Atomic      Atomic             Coordinates (Angstroms)
 Number     Number       Type             X           Y           Z
 ---------------------------------------------------------------------
      1          6           0        6.237135    7.001386    5.194515
      2          6           0        5.120182    6.168361    5.317119
      3          1           0        5.143056    5.226188    5.854385
      4          6           0        3.925720    6.553142    4.736901
      5          6           0        3.772723    7.732507    4.031720
      6          6           0        4.895285    8.534581    3.929061
      7          6           0        6.114088    8.203515    4.488861
      8          1           0        6.956071    8.875598    4.374718
      9          1           0        2.826758    8.011850    3.585165
     10          9           0        2.853974    5.745984    4.861432
     11          9           0        4.783001    9.692341    3.249099
 ---------------------------------------------------------------------
                    Distance matrix (angstroms):
                    1          2          3          4          5
     1  C    0.000000
     2  C    1.398766   0.000000
     3  H    2.187182   1.084835   0.000000
     4  C    2.398536   1.382552   2.119312   0.000000
     5  C    2.821340   2.431964   3.388444   1.382603   0.000000
     6  C    2.398462   2.752504   3.835848   2.349205   1.383476
     7  C    1.399358   2.411579   3.416436   2.752128   2.431628
     8  H    2.168319   3.404077   4.335278   3.835102   3.399707
     9  H    3.904064   3.414368   4.274869   2.159176   1.082725
    10  F    3.623915   2.349841   2.548733   1.347461   2.340683
    11  F    3.624967   4.099858   5.183018   3.578136   2.339681
                    6          7          8          9         10
     6  C    0.000000
     7  C    1.381471   0.000000
     8  H    2.135823   1.083356   0.000000
     9  H    2.161091   3.414665   4.291932   0.000000
    10  F    3.579461   4.099587   5.182526   2.600720   0.000000
    11  F    1.347355   2.350618   2.579985   2.600745   4.679156
                   11
    11  F    0.000000
 Symmetry turned off by external request.
 Stoichiometry    C6H3F2(2)
 Framework group  C1[X(C6H3F2)]
 Deg. of freedom    27
 Full point group                 C1      NOp   1
 Rotational constants (GHZ):           3.9889503           1.7704164           1.2261951
 Standard basis: 6-311+G(d,p) (5D, 7F)
   194 basis functions,   312 primitive gaussians,   202 cartesian basis functions
    29 alpha electrons       28 beta electrons
       nuclear repulsion energy       331.7770375161 Hartrees.
 NAtoms=   11 NActive=   11 NUniq=   11 SFac= 1.00D+00 NAtFMM=   60 NAOKFM=F Big=F
 Integral buffers will be    131072 words long.
 Raffenetti 2 integral format.
 Two-electron integral symmetry is turned off.
 Force inversion solution in PCM.
 ------------------------------------------------------------------------------
 Polarizable Continuum Model (PCM)
 =================================
 Model                : PCM.
 Atomic radii         : SMD-Coulomb.
 Polarization charges : Total charges.
 Charge compensation  : None.
 Solution method      : Matrix inversion.
 Cavity type          : VdW (van der Waals Surface) (Alpha=1.000).
 Cavity algorithm     : GePol (No added spheres)
                        Default sphere list used, NSphG=   11.
                        Lebedev-Laikov grids with approx.  5.0 points / Ang**2.
                        Smoothing algorithm: York/Karplus (Gamma=1.0000).
                        Polarization charges: spherical gaussians, with
                                              point-specific exponents (IZeta= 3).
                        Self-potential: point-specific (ISelfS= 7).
                        Self-field    : sphere-specific E.n sum rule (ISelfD= 2).
 1st derivatives      : Analytical E(r).r(x)/FMM algorithm (CHGder, D1EAlg=3).
                        Cavity 1st derivative terms included.
 2nd derivatives      : Analytical E(r).r(xy)/FMM algorithm (CHGder, D2EAlg=3).
                        Cavity 2nd derivative terms included.
 Solvent              : TetraHydroFuran, Eps=   7.425700 Eps(inf)=   1.974025
 ------------------------------------------------------------------------------
 Spheres list:
 ISph  on   Nord     Re0    Alpha      Xe            Ye            Ze
    1   C      1    1.8500  1.000      6.237135      7.001386      5.194515
    2   C      2    1.8500  1.000      5.120182      6.168361      5.317119
    3   H      3    1.2000  1.000      5.143056      5.226188      5.854385
    4   C      4    1.8500  1.000      3.925720      6.553142      4.736901
    5   C      5    1.8500  1.000      3.772723      7.732507      4.031720
    6   C      6    1.8500  1.000      4.895285      8.534581      3.929061
    7   C      7    1.8500  1.000      6.114088      8.203515      4.488861
    8   H      8    1.2000  1.000      6.956071      8.875598      4.374718
    9   H      9    1.2000  1.000      2.826758      8.011850      3.585165
   10   F     10    1.7300  1.000      2.853974      5.745984      4.861432
   11   F     11    1.7300  1.000      4.783001      9.692341      3.249099
 ------------------------------------------------------------------------------
 ------------------------------------------------------------------------------
 Atomic radii for non-electrostatic terms: SMD-CDS.
 ------------------------------------------------------------------------------
 Nuclear repulsion after PCM non-electrostatic terms =      331.7762643638 Hartrees.
 One-electron integrals computed using PRISM.
 NBasis=   194 RedAO= T EigKep=  4.17D-06  NBF=   194
 NBsUse=   194 1.00D-06 EigRej= -1.00D+00 NBFU=   194
 ExpMin= 4.38D-02 ExpMax= 1.14D+04 ExpMxC= 1.72D+03 IAcc=3 IRadAn=         5 AccDes= 0.00D+00
 Harris functional with IExCor= 1009 and IRadAn=       5 diagonalized for initial guess.
 HarFok:  IExCor= 1009 AccDes= 0.00D+00 IRadAn=         5 IDoV= 1 UseB2=F ITyADJ=14
 ICtDFT=  3500011 ScaDFX=  1.000000  1.000000  1.000000  1.000000
 FoFCou: FMM=F IPFlag=           0 FMFlag=      100000 FMFlg1=           0
         NFxFlg=           0 DoJE=T BraDBF=F KetDBF=T FulRan=T
         wScrn=  0.000000 ICntrl=       500 IOpCl=  0 I1Cent=   200000004 NGrid=           0
         NMat0=    1 NMatS0=      1 NMatT0=    0 NMatD0=    1 NMtDS0=    0 NMtDT0=    0
 Symmetry not used in FoFCou.
 Initial guess <Sx>= 0.0000 <Sy>= 0.0000 <Sz>= 0.5000 <S**2>= 0.7500 S= 0.5000
 Keep R1 and R2 ints in memory in canonical form, NReq=390789408.
 Requested convergence on RMS density matrix=1.00D-08 within 128 cycles.
 Requested convergence on MAX density matrix=1.00D-06.
 Requested convergence on             energy=1.00D-06.
 Level shift goal  0.100 maximum shift  0.100.
 No special actions if energy rises.
 Dynamic level shift is on during FON iterations.
 Inv3:  Mode=1 IEnd=     3257292.
 Iteration    1 A*A^-1 deviation from unit magnitude is 3.33D-15 for   1024.
 Iteration    1 A*A^-1 deviation from orthogonality  is 1.92D-15 for   1009    894.
 Iteration    1 A^-1*A deviation from unit magnitude is 3.11D-15 for   1037.
 Iteration    1 A^-1*A deviation from orthogonality  is 2.18D-15 for    555    527.
 Error on total polarization charges =  0.02523
 SCF Done:  E(UM062X) =  -429.996637880     A.U. after   15 cycles
            NFock= 15  Conv=0.69D-08     -V/T= 2.0033
 <Sx>= 0.0000 <Sy>= 0.0000 <Sz>= 0.5000 <S**2>= 0.7640 S= 0.5070
 <L.S>=  0.00000000000    
 SMD-CDS (non-electrostatic) energy       (kcal/mol) =      -0.49
 (included in total energy above)
 Annihilation of the first spin contaminant:
 S**2 before annihilation     0.7640,   after     0.7501
 DoSCS=F DFT=T ScalE2(SS,OS)=  1.000000  1.000000
 Range of M.O.s used for correlation:     1   194
 NBasis=   194 NAE=    29 NBE=    28 NFC=     0 NFV=     0
 NROrb=    194 NOA=    29 NOB=    28 NVA=   165 NVB=   166

 **** Warning!!: The largest alpha MO coefficient is  0.15608644D+03


 **** Warning!!: The largest beta MO coefficient is  0.12537870D+03

 Symmetrizing basis deriv contribution to polar:
 IMax=3 JMax=2 DiffMx= 0.00D+00
 G2DrvN: will do    12 centers at a time, making    1 passes.
 Calling FoFCou, ICntrl=  3107 FMM=F I1Cent=   0 AccDes= 0.00D+00.
 NEqPCM:  Using equilibrium solvation (IEInf=0, Eps=   7.4257, EpsInf=   1.9740)
 G2PCM: DoFxE=T DoFxN=T DoGrad=T DoDP/DQ/DG/TGxP=FFFF NFrqRd=   0 IEInf=0 SqF1=F DoCFld=F IF1Alg=4.
 End of G2Drv F.D. properties file   721 does not exist.
 End of G2Drv F.D. properties file   722 does not exist.
 End of G2Drv F.D. properties file   788 does not exist.
          IDoAtm=11111111111
 NEqPCM:  Using equilibrium solvation (IEInf=0, Eps=   7.4257, EpsInf=   1.9740)
          Differentiating once with respect to nuclear coordinates.
 Keep R1 and R2 ints in memory in canonical form, NReq=390688490.
          There are    36 degrees of freedom in the 1st order CPHF.  IDoFFX=6 NUNeed=     0.
     30 vectors produced by pass  0 Test12= 2.62D-14 2.78D-09 XBig12= 2.39D-01 1.05D-01.
 AX will form    30 AO Fock derivatives at one time.
     30 vectors produced by pass  1 Test12= 2.62D-14 2.78D-09 XBig12= 2.80D-02 5.51D-02.
     30 vectors produced by pass  2 Test12= 2.62D-14 2.78D-09 XBig12= 9.24D-04 9.56D-03.
     30 vectors produced by pass  3 Test12= 2.62D-14 2.78D-09 XBig12= 2.01D-05 1.60D-03.
     30 vectors produced by pass  4 Test12= 2.62D-14 2.78D-09 XBig12= 4.46D-07 1.63D-04.
     30 vectors produced by pass  5 Test12= 2.62D-14 2.78D-09 XBig12= 4.38D-09 1.32D-05.
     30 vectors produced by pass  6 Test12= 2.62D-14 2.78D-09 XBig12= 4.44D-11 1.15D-06.
     26 vectors produced by pass  7 Test12= 2.62D-14 2.78D-09 XBig12= 3.84D-13 7.58D-08.
      4 vectors produced by pass  8 Test12= 2.62D-14 2.78D-09 XBig12= 2.24D-15 6.72D-09.
 InvSVY:  IOpt=1 It=  1 EMax= 1.78D-15
 Solved reduced A of dimension   240 with    30 vectors.
 End of Minotr F.D. properties file   721 does not exist.
 End of Minotr F.D. properties file   722 does not exist.
 End of Minotr F.D. properties file   788 does not exist.

 **********************************************************************

            Population analysis using the SCF Density.

 **********************************************************************

 Alpha  occ. eigenvalues --  -25.26841 -25.26835 -10.65174 -10.65131 -10.60439
 Alpha  occ. eigenvalues --  -10.56579 -10.56569 -10.56405  -1.38884  -1.38837
 Alpha  occ. eigenvalues --   -0.99513  -0.87346  -0.87067  -0.73176  -0.73122
 Alpha  occ. eigenvalues --   -0.65460  -0.62235  -0.59295  -0.58860  -0.58153
 Alpha  occ. eigenvalues --   -0.57786  -0.54036  -0.48839  -0.48492  -0.46034
 Alpha  occ. eigenvalues --   -0.45078  -0.34892  -0.33449  -0.31812
 Alpha virt. eigenvalues --   -0.00417   0.01483   0.02166   0.03427   0.03767
 Alpha virt. eigenvalues --    0.05259   0.05330   0.06115   0.07834   0.09411
 Alpha virt. eigenvalues --    0.09471   0.09755   0.11307   0.13487   0.13745
 Alpha virt. eigenvalues --    0.14685   0.14868   0.15105   0.15239   0.15488
 Alpha virt. eigenvalues --    0.17101   0.18685   0.19567   0.20910   0.21090
 Alpha virt. eigenvalues --    0.22301   0.23210   0.23827   0.25147   0.25510
 Alpha virt. eigenvalues --    0.26231   0.26516   0.29787   0.31592   0.32510
 Alpha virt. eigenvalues --    0.35178   0.36524   0.37128   0.38232   0.41156
 Alpha virt. eigenvalues --    0.42962   0.43550   0.44121   0.46941   0.48042
 Alpha virt. eigenvalues --    0.53143   0.53682   0.58517   0.58874   0.58975
 Alpha virt. eigenvalues --    0.59405   0.59550   0.62215   0.63926   0.64704
 Alpha virt. eigenvalues --    0.66926   0.69146   0.70935   0.71219   0.76135
 Alpha virt. eigenvalues --    0.77879   0.78348   0.80889   0.84269   0.86907
 Alpha virt. eigenvalues --    0.88499   0.92988   0.94246   0.94548   0.96050
 Alpha virt. eigenvalues --    0.98480   1.02625   1.04530   1.07121   1.13073
 Alpha virt. eigenvalues --    1.13814   1.20320   1.23983   1.24763   1.35921
 Alpha virt. eigenvalues --    1.45811   1.46321   1.46748   1.48256   1.49191
 Alpha virt. eigenvalues --    1.51374   1.57070   1.58008   1.59045   1.59663
 Alpha virt. eigenvalues --    1.63371   1.64143   1.65482   1.67861   1.69309
 Alpha virt. eigenvalues --    1.79111   1.85332   1.88146   1.91980   1.92415
 Alpha virt. eigenvalues --    1.93558   1.98701   1.98856   1.99521   2.01711
 Alpha virt. eigenvalues --    2.04337   2.06755   2.09921   2.11366   2.17044
 Alpha virt. eigenvalues --    2.25409   2.31118   2.33256   2.46358   2.48236
 Alpha virt. eigenvalues --    2.54521   2.59971   2.67304   2.68544   2.71667
 Alpha virt. eigenvalues --    2.74430   2.74744   2.77365   2.78599   2.79823
 Alpha virt. eigenvalues --    2.91519   2.91785   3.01346   3.10599   3.17249
 Alpha virt. eigenvalues --    3.18073   3.24555   3.38833   3.39997   3.61535
 Alpha virt. eigenvalues --    3.67901   3.68392   3.83122   3.87134   3.87179
 Alpha virt. eigenvalues --    3.92124   3.93337   4.06677   4.06913   4.12278
 Alpha virt. eigenvalues --    4.14554   4.20096   4.21641   4.81372   4.91671
 Alpha virt. eigenvalues --    4.93482   6.44055   6.45709   6.57125   6.57458
 Alpha virt. eigenvalues --    6.82751   6.89953  23.53339  23.93932  23.94088
 Alpha virt. eigenvalues --   24.13305  24.14015  24.22506  66.91495  66.93066
  Beta  occ. eigenvalues --  -25.26812 -25.26807 -10.65079 -10.65035 -10.59337
  Beta  occ. eigenvalues --  -10.56580 -10.56571 -10.56439  -1.38784  -1.38738
  Beta  occ. eigenvalues --   -0.98802  -0.86672  -0.86115  -0.72830  -0.71848
  Beta  occ. eigenvalues --   -0.64126  -0.61852  -0.59003  -0.58752  -0.57679
  Beta  occ. eigenvalues --   -0.57533  -0.53755  -0.47852  -0.47373  -0.45606
  Beta  occ. eigenvalues --   -0.44289  -0.32170  -0.31934
  Beta virt. eigenvalues --   -0.07959   0.01099   0.01489   0.02319   0.03470
  Beta virt. eigenvalues --    0.03856   0.05308   0.05434   0.06338   0.08782
  Beta virt. eigenvalues --    0.09154   0.09486   0.10297   0.10987   0.13487
  Beta virt. eigenvalues --    0.13808   0.14586   0.14742   0.15106   0.15271
  Beta virt. eigenvalues --    0.15837   0.17484   0.19289   0.19790   0.20655
  Beta virt. eigenvalues --    0.21812   0.22342   0.23485   0.23853   0.25375
  Beta virt. eigenvalues --    0.25405   0.25869   0.27283   0.29936   0.31810
  Beta virt. eigenvalues --    0.32685   0.35278   0.36542   0.37484   0.38251
  Beta virt. eigenvalues --    0.41332   0.42970   0.43884   0.43931   0.46602
  Beta virt. eigenvalues --    0.47306   0.53242   0.53997   0.55152   0.58875
  Beta virt. eigenvalues --    0.59157   0.59210   0.59523   0.62346   0.63952
  Beta virt. eigenvalues --    0.64711   0.66116   0.69834   0.70621   0.71317
  Beta virt. eigenvalues --    0.76761   0.77700   0.77830   0.81626   0.84344
  Beta virt. eigenvalues --    0.86366   0.87322   0.93139   0.93964   0.94825
  Beta virt. eigenvalues --    0.96082   0.98943   1.03098   1.04503   1.08095
  Beta virt. eigenvalues --    1.13125   1.14055   1.19667   1.25121   1.25700
  Beta virt. eigenvalues --    1.36601   1.45914   1.46730   1.47263   1.48649
  Beta virt. eigenvalues --    1.49368   1.52594   1.57182   1.58152   1.59257
  Beta virt. eigenvalues --    1.59776   1.63425   1.64329   1.66311   1.68354
  Beta virt. eigenvalues --    1.69376   1.80136   1.85989   1.88978   1.92444
  Beta virt. eigenvalues --    1.92633   1.93569   1.98296   1.98848   1.99811
  Beta virt. eigenvalues --    2.01735   2.04679   2.06885   2.09971   2.11413
  Beta virt. eigenvalues --    2.17406   2.26361   2.31712   2.33525   2.46417
  Beta virt. eigenvalues --    2.48440   2.54373   2.60664   2.67419   2.68934
  Beta virt. eigenvalues --    2.72126   2.74353   2.74661   2.77520   2.78744
  Beta virt. eigenvalues --    2.80557   2.91218   2.91814   3.03231   3.10718
  Beta virt. eigenvalues --    3.17720   3.18687   3.24627   3.39400   3.40238
  Beta virt. eigenvalues --    3.62147   3.67827   3.68577   3.83435   3.87169
  Beta virt. eigenvalues --    3.87213   3.92143   3.93362   4.06739   4.06973
  Beta virt. eigenvalues --    4.12189   4.15027   4.20144   4.21686   4.81647
  Beta virt. eigenvalues --    4.91728   4.93537   6.44124   6.45780   6.57184
  Beta virt. eigenvalues --    6.57517   6.82823   6.90024  23.53542  23.93986
  Beta virt. eigenvalues --   23.94845  24.13470  24.13997  24.22569  66.91473
  Beta virt. eigenvalues --   66.93045
          Condensed to atoms (all electrons):
               1          2          3          4          5          6
     1  C    5.435964   0.157745   0.052868   0.329806  -0.686931   0.333803
     2  C    0.157745   7.304831   0.371561  -0.498114  -0.761379  -0.655452
     3  H    0.052868   0.371561   0.434321  -0.031708  -0.039281   0.013799
     4  C    0.329806  -0.498114  -0.031708   6.713640  -0.703354   0.462487
     5  C   -0.686931  -0.761379  -0.039281  -0.703354   9.513881  -0.679003
     6  C    0.333803  -0.655452   0.013799   0.462487  -0.679003   6.712885
     7  C    0.156793   0.558109  -0.015986  -0.660267  -0.745723  -0.518061
     8  H    0.049096  -0.016594   0.000007   0.014293  -0.039167  -0.027831
     9  H    0.013031  -0.040087   0.000016   0.018921   0.395732   0.019386
    10  F    0.009204  -0.249271  -0.004977   0.516950  -0.259314   0.006377
    11  F    0.008440  -0.012681   0.000079   0.005587  -0.257048   0.513757
               7          8          9         10         11
     1  C    0.156793   0.049096   0.013031   0.009204   0.008440
     2  C    0.558109  -0.016594  -0.040087  -0.249271  -0.012681
     3  H   -0.015986   0.000007   0.000016  -0.004977   0.000079
     4  C   -0.660267   0.014293   0.018921   0.516950   0.005587
     5  C   -0.745723  -0.039167   0.395732  -0.259314  -0.257048
     6  C   -0.518061  -0.027831   0.019386   0.006377   0.513757
     7  C    7.311388   0.371038  -0.039658  -0.013005  -0.248269
     8  H    0.371038   0.434163   0.000018   0.000079  -0.005013
     9  H   -0.039658   0.000018   0.418220  -0.004729  -0.004797
    10  F   -0.013005   0.000079  -0.004729   9.199131  -0.000591
    11  F   -0.248269  -0.005013  -0.004797  -0.000591   9.200195
          Atomic-Atomic Spin Densities.
               1          2          3          4          5          6
     1  C    1.083690  -0.102853   0.007498   0.003808  -0.049102   0.002077
     2  C   -0.102853   0.071217   0.002146  -0.034767   0.047844  -0.031509
     3  H    0.007498   0.002146   0.022022  -0.007705  -0.003995   0.002432
     4  C    0.003808  -0.034767  -0.007705   0.107956  -0.012103   0.003939
     5  C   -0.049102   0.047844  -0.003995  -0.012103  -0.046219  -0.011678
     6  C    0.002077  -0.031509   0.002432   0.003939  -0.011678   0.105884
     7  C   -0.100481   0.113339  -0.009106  -0.032711   0.047765  -0.032461
     8  H    0.007249  -0.009415   0.000094   0.002539  -0.004059  -0.008099
     9  H   -0.000393  -0.000090  -0.000014  -0.000954   0.002591  -0.000927
    10  F    0.012938  -0.012950   0.002842  -0.012921  -0.002915   0.003352
    11  F    0.012915  -0.006069   0.000043   0.003389  -0.002984  -0.013080
               7          8          9         10         11
     1  C   -0.100481   0.007249  -0.000393   0.012938   0.012915
     2  C    0.113339  -0.009415  -0.000090  -0.012950  -0.006069
     3  H   -0.009106   0.000094  -0.000014   0.002842   0.000043
     4  C   -0.032711   0.002539  -0.000954  -0.012921   0.003389
     5  C    0.047765  -0.004059   0.002591  -0.002915  -0.002984
     6  C   -0.032461  -0.008099  -0.000927   0.003352  -0.013080
     7  C    0.068439   0.002645  -0.000066  -0.005990  -0.012519
     8  H    0.002645   0.022332  -0.000014   0.000044   0.002748
     9  H   -0.000066  -0.000014   0.003186  -0.000221  -0.000222
    10  F   -0.005990   0.000044  -0.000221   0.018823   0.000097
    11  F   -0.012519   0.002748  -0.000222   0.000097   0.018753
 Mulliken charges and spin densities:
               1          2
     1  C    0.140181   0.877343
     2  C   -0.158668   0.036892
     3  H    0.219300   0.016257
     4  C   -0.168241   0.020470
     5  C    0.261587  -0.034855
     6  C   -0.182147   0.019928
     7  C   -0.156360   0.038854
     8  H    0.219912   0.016065
     9  H    0.223946   0.002876
    10  F   -0.199853   0.003099
    11  F   -0.199657   0.003071
 Sum of Mulliken charges =   0.00000   1.00000
 Mulliken charges and spin densities with hydrogens summed into heavy atoms:
               1          2
     1  C    0.140181   0.877343
     2  C    0.060632   0.053149
     4  C   -0.168241   0.020470
     5  C    0.485533  -0.031979
     6  C   -0.182147   0.019928
     7  C    0.063552   0.054918
    10  F   -0.199853   0.003099
    11  F   -0.199657   0.003071
 APT charges:
               1
     1  C    1.148158
     2  C   -1.469363
     3  H   -0.084873
     4  C    0.068023
     5  C   -0.611327
     6  C   -0.340763
     7  C   -0.159131
     8  H    1.993454
     9  H   -0.188936
    10  F   -0.345367
    11  F   -0.009875
 Sum of APT charges =   0.00000
 APT charges with hydrogens summed into heavy atoms:
               1
     1  C    1.148158
     2  C   -1.554236
     4  C    0.068023
     5  C   -0.800263
     6  C   -0.340763
     7  C    1.834323
    10  F   -0.345367
    11  F   -0.009875
 Electronic spatial extent (au):  <R**2>=          20601.7089
 Charge=              0.0000 electrons
 Dipole moment (field-independent basis, Debye):
    X=              0.8643    Y=             -0.2605    Z=              0.4161  Tot=              0.9940
 Quadrupole moment (field-independent basis, Debye-Ang):
   XX=            -34.8873   YY=            -51.0152   ZZ=            -42.1364
   XY=              3.7318   XZ=              7.7468   YZ=              1.8163
 Traceless Quadrupole moment (field-independent basis, Debye-Ang):
   XX=              7.7924   YY=             -8.3356   ZZ=              0.5432
   XY=              3.7318   XZ=              7.7468   YZ=              1.8163
 Octapole moment (field-independent basis, Debye-Ang**2):
  XXX=           -550.0509  YYY=          -1106.8129  ZZZ=           -592.1742  XYY=           -208.0595
  XXY=           -266.3775  XXZ=           -134.0864  XZZ=           -167.5985  YZZ=           -325.4255
  YYZ=           -198.6417  XYZ=             43.4428
 Hexadecapole moment (field-independent basis, Debye-Ang**3):
 XXXX=          -5726.5007 YYYY=         -16895.3897 ZZZZ=          -5557.6058 XXXY=          -4095.7945
 XXXZ=          -2375.5550 YYYX=          -5027.6043 YYYZ=          -4515.8558 ZZZX=          -2663.2141
 ZZZY=          -4416.3565 XXYY=          -3160.7286 XXZZ=          -1644.0049 YYZZ=          -3484.3182
 XXYZ=          -1014.5959 YYXZ=           -710.3381 ZZXY=          -1369.6693
 N-N= 3.317762643638D+02 E-N=-1.674324392306D+03  KE= 4.285617026356D+02
  Exact polarizability:       0.000       0.000       0.000       0.000       0.000       0.000
 Approx polarizability:      94.647       7.318      89.130      10.126     -20.525      62.810
                          Isotropic Fermi Contact Couplings
        Atom                 a.u.       MegaHertz       Gauss      10(-4) cm-1
     1  C(13)              0.57379     645.05276     230.17086     215.16644
     2  C(13)              0.02435      27.37728       9.76890       9.13208
     3  H(1)               0.01035      46.25394      16.50456      15.42865
     4  C(13)              0.06566      73.81908      26.34048      24.62339
     5  C(13)             -0.00767      -8.61713      -3.07481      -2.87436
     6  C(13)              0.06448      72.48337      25.86387      24.17785
     7  C(13)              0.02423      27.23386       9.71772       9.08424
     8  H(1)               0.01051      46.98374      16.76497      15.67209
     9  H(1)               0.00058       2.60634       0.93001       0.86938
    10  F(19)              0.00549      23.09514       8.24092       7.70371
    11  F(19)              0.00553      23.28707       8.30941       7.76773
 --------------------------------------------------------
       Center         ----  Spin Dipole Couplings  ----
                      3XX-RR        3YY-RR        3ZZ-RR
 --------------------------------------------------------
     1   Atom        0.576571     -0.409502     -0.167068
     2   Atom        0.084389     -0.008607     -0.075782
     3   Atom        0.002501      0.007726     -0.010228
     4   Atom        0.014088     -0.017858      0.003770
     5   Atom        0.026882      0.005870     -0.032752
     6   Atom        0.023289     -0.023385      0.000096
     7   Atom       -0.001388      0.043440     -0.042052
     8   Atom       -0.010199      0.015863     -0.005663
     9   Atom        0.000537      0.000764     -0.001301
    10   Atom        0.045286     -0.031647     -0.013639
    11   Atom       -0.006627     -0.000204      0.006831
 --------------------------------------------------------
                        XY            XZ            YZ
 --------------------------------------------------------
     1   Atom       -0.348447      0.482920     -0.080134
     2   Atom        0.056933      0.025448     -0.035882
     3   Atom        0.016255     -0.004550     -0.006335
     4   Atom       -0.022898      0.017086      0.003107
     5   Atom        0.007135      0.022175     -0.033620
     6   Atom       -0.014064      0.014739      0.009096
     7   Atom       -0.018335      0.041472     -0.086996
     8   Atom        0.005850     -0.002461     -0.014074
     9   Atom        0.000738      0.000440     -0.001453
    10   Atom        0.008856      0.011453      0.015749
    11   Atom       -0.036411      0.020711     -0.015521
 --------------------------------------------------------


 ---------------------------------------------------------------------------------
              Anisotropic Spin Dipole Couplings in Principal Axis System
 ---------------------------------------------------------------------------------

       Atom             a.u.   MegaHertz   Gauss  10(-4) cm-1        Axes

              Baa    -0.5461   -73.277   -26.147   -24.443  0.4102  0.8446 -0.3440
     1 C(13)  Bbb    -0.3605   -48.382   -17.264   -16.139 -0.2600  0.4699  0.8436
              Bcc     0.9066   121.659    43.411    40.581  0.8742 -0.2565  0.4123
 
              Baa    -0.1036   -13.908    -4.963    -4.639 -0.2571  0.4723  0.8431
     2 C(13)  Bbb    -0.0081    -1.085    -0.387    -0.362 -0.3307  0.7767 -0.5360
              Bcc     0.1117    14.993     5.350     5.001  0.9080  0.4166  0.0435
 
              Baa    -0.0124    -6.617    -2.361    -2.207 -0.2666  0.4786  0.8366
     3 H(1)   Bbb    -0.0110    -5.855    -2.089    -1.953  0.7305 -0.4658  0.4994
              Bcc     0.0234    12.472     4.450     4.160  0.6287  0.7443 -0.2254
 
              Baa    -0.0332    -4.451    -1.588    -1.485  0.5017  0.8113 -0.3003
     4 C(13)  Bbb     0.0003     0.034     0.012     0.011 -0.2592  0.4722  0.8426
              Bcc     0.0329     4.417     1.576     1.473  0.8253 -0.3449  0.4471
 
              Baa    -0.0583    -7.825    -2.792    -2.610 -0.2589  0.4706  0.8435
     5 C(13)  Bbb     0.0231     3.094     1.104     1.032  0.4151  0.8427 -0.3427
              Bcc     0.0353     4.731     1.688     1.578  0.8721 -0.2614  0.4136
 
              Baa    -0.0326    -4.376    -1.562    -1.460  0.3193  0.8660 -0.3847
     6 C(13)  Bbb     0.0007     0.089     0.032     0.030 -0.2577  0.4700  0.8442
              Bcc     0.0320     4.287     1.530     1.430  0.9119 -0.1704  0.3733
 
              Baa    -0.1031   -13.836    -4.937    -4.615 -0.2597  0.4687  0.8443
     7 C(13)  Bbb    -0.0074    -0.998    -0.356    -0.333  0.9091  0.4134  0.0502
              Bcc     0.1105    14.834     5.293     4.948 -0.3255  0.7806 -0.5335
 
              Baa    -0.0127    -6.789    -2.423    -2.265 -0.2655  0.4690  0.8423
     8 H(1)   Bbb    -0.0113    -6.012    -2.145    -2.005  0.9467 -0.0383  0.3197
              Bcc     0.0240    12.801     4.568     4.270  0.1822  0.8824 -0.4339
 
              Baa    -0.0022    -1.198    -0.428    -0.400 -0.2582  0.4705  0.8438
     9 H(1)   Bbb     0.0005     0.285     0.102     0.095  0.8792 -0.2476  0.4071
              Bcc     0.0017     0.914     0.326     0.305  0.4004  0.8470 -0.3497
 
              Baa    -0.0408   -20.506    -7.317    -6.840 -0.0238  0.8694 -0.4935
    10 F(19)  Bbb    -0.0083    -4.186    -1.494    -1.396 -0.2580  0.4716  0.8432
              Bcc     0.0492    24.692     8.811     8.236  0.9659  0.1474  0.2131
 
              Baa    -0.0406   -20.372    -7.269    -6.795  0.7599  0.6383 -0.1231
    11 F(19)  Bbb    -0.0081    -4.080    -1.456    -1.361 -0.2578  0.4697  0.8444
              Bcc     0.0487    24.452     8.725     8.156 -0.5967  0.6099 -0.5214
 

 ---------------------------------------------------------------------------------

 D2PCM: PCM CHGder 2nd derivatives, FixD1E=F FixD2E=F DoIter=F DoCFld=F I1PDM=0
 Calling FoFJK, ICntrl=    100127 FMM=F ISym2X=0 I1Cent= 0 IOpClX= 1 NMat=1 NMatS=1 NMatT=0.
 -------------------------------------------------------------------
 Center     Atomic                   Forces (Hartrees/Bohr)
 Number     Number              X              Y              Z
 -------------------------------------------------------------------
      1        6          -0.046101879    0.012548010   -0.020905424
      2        6           0.021505224   -0.008535700    0.011537873
      3        1           0.001495507   -0.000041960    0.000302529
      4        6          -0.001079418    0.005364307   -0.003298835
      5        6          -0.000383403    0.000281052   -0.000327018
      6        6          -0.005661234   -0.002613971   -0.000246523
      7        6           0.024970702   -0.007733662    0.011762978
      8        1          -0.000051466    0.001795863   -0.001047966
      9        1           0.000307464    0.000067208    0.000051502
     10        9           0.002966943    0.000471584    0.000633239
     11        9           0.002031561   -0.001602730    0.001537646
 -------------------------------------------------------------------
 Cartesian Forces:  Max     0.046101879 RMS     0.011435437
 FormGI is forming the generalized inverse of G from B-inverse, IUseBI=4.

 GradGradGradGradGradGradGradGradGradGradGradGradGradGradGradGradGradGrad
 Berny optimization.
 Internal  Forces:  Max     0.028447715 RMS     0.006883946
 Search for a local minimum.
 Step number   1 out of a maximum of   57
 All quantities printed in internal units (Hartrees-Bohrs-Radians)
 Mixed Optimization -- RFO/linear search
 Second derivative matrix not updated -- analytic derivatives used.
 ITU=  0
     Eigenvalues ---    0.01687   0.01979   0.01999   0.02423   0.02648
     Eigenvalues ---    0.02664   0.03448   0.03610   0.09752   0.10439
     Eigenvalues ---    0.10644   0.16823   0.18054   0.19033   0.19358
     Eigenvalues ---    0.23231   0.28361   0.35874   0.36328   0.36853
     Eigenvalues ---    0.37621   0.38727   0.41998   0.45339   0.48877
     Eigenvalues ---    0.49532   0.53934
 RFO step:  Lambda=-9.07726339D-03 EMin= 1.68704315D-02
 Linear search not attempted -- first point.
 Iteration  1 RMS(Cart)=  0.02901268 RMS(Int)=  0.00126990
 Iteration  2 RMS(Cart)=  0.00184590 RMS(Int)=  0.00043797
 Iteration  3 RMS(Cart)=  0.00000073 RMS(Int)=  0.00043797
 Variable       Old X    -DE/DX   Delta X   Delta X   Delta X     New X
                                 (Linear)    (Quad)   (Total)
    R1        2.64328  -0.01976   0.00000  -0.05252  -0.05190   2.59139
    R2        2.64440  -0.01898   0.00000  -0.05308  -0.05246   2.59194
    R3        2.05004   0.00022   0.00000  -0.00306  -0.00306   2.04698
    R4        2.61264   0.00163   0.00000   0.01137   0.01135   2.62400
    R5        2.61274   0.00275   0.00000   0.00366   0.00307   2.61581
    R6        2.54633  -0.00258   0.00000  -0.00497  -0.00497   2.54136
    R7        2.61439   0.00211   0.00000   0.00196   0.00136   2.61575
    R8        2.04605  -0.00027   0.00000  -0.00081  -0.00081   2.04524
    R9        2.61060   0.00155   0.00000   0.01305   0.01303   2.62363
   R10        2.54613  -0.00232   0.00000  -0.00465  -0.00465   2.54148
   R11        2.04725   0.00119   0.00000  -0.00018  -0.00018   2.04706
    A1        2.07783   0.02845   0.00000   0.12826   0.12988   2.20772
    A2        2.14575   0.00561   0.00000   0.02263   0.02236   2.16811
    A3        2.07986  -0.01432   0.00000  -0.07463  -0.07409   2.00577
    A4        2.05756   0.00871   0.00000   0.05201   0.05174   2.10930
    A5        2.14964  -0.00018   0.00000   0.00319   0.00251   2.15215
    A6        2.07336  -0.00204   0.00000  -0.00365  -0.00330   2.07006
    A7        2.06019   0.00221   0.00000   0.00045   0.00079   2.06098
    A8        2.02928   0.00054   0.00000   0.01480   0.01348   2.04276
    A9        2.12600  -0.00011   0.00000  -0.00678  -0.00612   2.11988
   A10        2.12791  -0.00043   0.00000  -0.00802  -0.00736   2.12055
   A11        2.14940  -0.00043   0.00000   0.00316   0.00247   2.15187
   A12        2.05782   0.00264   0.00000   0.00260   0.00295   2.06077
   A13        2.07596  -0.00221   0.00000  -0.00576  -0.00542   2.07054
   A14        2.08035  -0.01405   0.00000  -0.07478  -0.07425   2.00610
   A15        2.11499   0.00879   0.00000   0.04949   0.04922   2.16421
   A16        2.08785   0.00527   0.00000   0.02529   0.02503   2.11288
    D1       -3.13545  -0.00011   0.00000  -0.00360  -0.00363  -3.13907
    D2        0.00163  -0.00002   0.00000  -0.00104  -0.00107   0.00057
    D3       -0.00305   0.00005   0.00000   0.00175   0.00176  -0.00128
    D4        3.13903   0.00001   0.00000   0.00081   0.00085   3.13989
    D5        0.00050   0.00001   0.00000   0.00008   0.00003   0.00053
    D6       -3.13980  -0.00002   0.00000  -0.00048  -0.00051  -3.14031
    D7        3.13781   0.00009   0.00000   0.00246   0.00244   3.14024
    D8       -0.00249   0.00006   0.00000   0.00190   0.00190  -0.00060
    D9       -0.00114   0.00002   0.00000   0.00038   0.00037  -0.00077
   D10        3.14048   0.00000   0.00000   0.00016   0.00018   3.14066
   D11        3.13917   0.00005   0.00000   0.00093   0.00090   3.14007
   D12       -0.00240   0.00002   0.00000   0.00071   0.00071  -0.00169
   D13       -0.00038   0.00000   0.00000   0.00030   0.00034  -0.00004
   D14       -3.14113  -0.00002   0.00000  -0.00005   0.00000  -3.14113
   D15        3.14119   0.00002   0.00000   0.00052   0.00053  -3.14146
   D16        0.00044   0.00001   0.00000   0.00017   0.00019   0.00063
   D17        0.00247  -0.00007   0.00000  -0.00155  -0.00149   0.00098
   D18       -3.13960  -0.00003   0.00000  -0.00062  -0.00060  -3.14020
   D19       -3.13997  -0.00005   0.00000  -0.00119  -0.00115  -3.14111
   D20        0.00114  -0.00001   0.00000  -0.00027  -0.00025   0.00089
         Item               Value     Threshold  Converged?
 Maximum Force            0.028448     0.000015     NO 
 RMS     Force            0.006884     0.000010     NO 
 Maximum Displacement     0.145738     0.000060     NO 
 RMS     Displacement     0.028887     0.000040     NO 
 Predicted change in Energy=-4.721395D-03
 GradGradGradGradGradGradGradGradGradGradGradGradGradGradGradGradGradGrad

                          Input orientation:                          
 ---------------------------------------------------------------------
 Center     Atomic      Atomic             Coordinates (Angstroms)
 Number     Number       Type             X           Y           Z
 ---------------------------------------------------------------------
      1          6           0        6.160014    7.020994    5.161531
      2          6           0        5.114470    6.149283    5.327159
      3          1           0        5.180732    5.214722    5.870815
      4          6           0        3.921479    6.547959    4.739003
      5          6           0        3.779310    7.731133    4.034752
      6          6           0        4.898670    8.538383    3.928083
      7          6           0        6.127799    8.214623    4.486632
      8          1           0        6.980498    8.874451    4.381841
      9          1           0        2.834733    8.012179    3.587370
     10          9           0        2.846604    5.748427    4.857181
     11          9           0        4.783683    9.693300    3.248610
 ---------------------------------------------------------------------
                    Distance matrix (angstroms):
                    1          2          3          4          5
     1  C    0.000000
     2  C    1.371303   0.000000
     3  H    2.173636   1.083216   0.000000
     4  C    2.326656   1.388559   2.155050   0.000000
     5  C    2.727944   2.440331   3.415763   1.384226   0.000000
     6  C    2.326984   2.777009   3.860115   2.360991   1.384196
     7  C    1.371597   2.449275   3.436903   2.776563   2.439950
     8  H    2.171731   3.435437   4.341638   3.859757   3.416907
     9  H    3.810239   3.419714   4.306228   2.156667   1.082295
    10  F    3.562406   2.350485   2.600086   1.344832   2.340395
    11  F    3.562973   4.121874   5.204928   3.585783   2.340275
                    6          7          8          9         10
     6  C    0.000000
     7  C    1.388364   0.000000
     8  H    2.157046   1.083260   0.000000
     9  H    2.157037   3.419639   4.308371   0.000000
    10  F    3.585813   4.121367   5.204523   2.595599   0.000000
    11  F    1.344894   2.350709   2.603982   2.596023   4.679936
                   11
    11  F    0.000000
 Symmetry turned off by external request.
 Stoichiometry    C6H3F2(2)
 Framework group  C1[X(C6H3F2)]
 Deg. of freedom    27
 Full point group                 C1      NOp   1
 Rotational constants (GHZ):           4.0890384           1.7609780           1.2308868
 Standard basis: 6-311+G(d,p) (5D, 7F)
   194 basis functions,   312 primitive gaussians,   202 cartesian basis functions
    29 alpha electrons       28 beta electrons
       nuclear repulsion energy       332.6999740867 Hartrees.
 NAtoms=   11 NActive=   11 NUniq=   11 SFac= 1.00D+00 NAtFMM=   60 NAOKFM=F Big=F
 Integral buffers will be    131072 words long.
 Raffenetti 2 integral format.
 Two-electron integral symmetry is turned off.
 ------------------------------------------------------------------------------
 Polarizable Continuum Model (PCM)
 =================================
 Model                : PCM.
 Atomic radii         : SMD-Coulomb.
 Polarization charges : Total charges.
 Charge compensation  : None.
 Solution method      : Matrix inversion.
 Cavity type          : VdW (van der Waals Surface) (Alpha=1.000).
 Cavity algorithm     : GePol (No added spheres)
                        Default sphere list used, NSphG=   11.
                        Lebedev-Laikov grids with approx.  5.0 points / Ang**2.
                        Smoothing algorithm: York/Karplus (Gamma=1.0000).
                        Polarization charges: spherical gaussians, with
                                              point-specific exponents (IZeta= 3).
                        Self-potential: point-specific (ISelfS= 7).
                        Self-field    : sphere-specific E.n sum rule (ISelfD= 2).
 1st derivatives      : Analytical E(r).r(x)/FMM algorithm (CHGder, D1EAlg=3).
                        Cavity 1st derivative terms included.
 Solvent              : TetraHydroFuran, Eps=   7.425700 Eps(inf)=   1.974025
 ------------------------------------------------------------------------------
 Spheres list:
 ISph  on   Nord     Re0    Alpha      Xe            Ye            Ze
    1   C      1    1.8500  1.000      6.160014      7.020994      5.161531
    2   C      2    1.8500  1.000      5.114470      6.149283      5.327159
    3   H      3    1.2000  1.000      5.180732      5.214722      5.870815
    4   C      4    1.8500  1.000      3.921479      6.547959      4.739003
    5   C      5    1.8500  1.000      3.779310      7.731133      4.034752
    6   C      6    1.8500  1.000      4.898670      8.538383      3.928083
    7   C      7    1.8500  1.000      6.127799      8.214623      4.486632
    8   H      8    1.2000  1.000      6.980498      8.874451      4.381841
    9   H      9    1.2000  1.000      2.834733      8.012179      3.587370
   10   F     10    1.7300  1.000      2.846604      5.748427      4.857181
   11   F     11    1.7300  1.000      4.783683      9.693300      3.248610
 ------------------------------------------------------------------------------
 ------------------------------------------------------------------------------
 Atomic radii for non-electrostatic terms: SMD-CDS.
 ------------------------------------------------------------------------------
 Nuclear repulsion after PCM non-electrostatic terms =      332.6991293014 Hartrees.
 One-electron integrals computed using PRISM.
 NBasis=   194 RedAO= T EigKep=  4.64D-06  NBF=   194
 NBsUse=   194 1.00D-06 EigRej= -1.00D+00 NBFU=   194
 Initial guess from the checkpoint file:  "3-5-diF-ph-opt-freq-thf.chk"
 B after Tr=    -0.020105    0.013886   -0.015950
         Rot=    1.000000   -0.000116    0.000453    0.000546 Ang=  -0.08 deg.
 Initial guess <Sx>= 0.0000 <Sy>= 0.0000 <Sz>= 0.5000 <S**2>= 0.7637 S= 0.5068
 ExpMin= 4.38D-02 ExpMax= 1.14D+04 ExpMxC= 1.72D+03 IAcc=3 IRadAn=         5 AccDes= 0.00D+00
 Harris functional with IExCor= 1009 and IRadAn=       5 diagonalized for initial guess.
 HarFok:  IExCor= 1009 AccDes= 0.00D+00 IRadAn=         5 IDoV= 1 UseB2=F ITyADJ=14
 ICtDFT=  3500011 ScaDFX=  1.000000  1.000000  1.000000  1.000000
 FoFCou: FMM=F IPFlag=           0 FMFlag=      100000 FMFlg1=           0
         NFxFlg=           0 DoJE=T BraDBF=F KetDBF=T FulRan=T
         wScrn=  0.000000 ICntrl=       500 IOpCl=  0 I1Cent=   200000004 NGrid=           0
         NMat0=    1 NMatS0=      1 NMatT0=    0 NMatD0=    1 NMtDS0=    0 NMtDT0=    0
 Symmetry not used in FoFCou.
 Keep R1 and R2 ints in memory in canonical form, NReq=390789408.
 Requested convergence on RMS density matrix=1.00D-08 within 128 cycles.
 Requested convergence on MAX density matrix=1.00D-06.
 Requested convergence on             energy=1.00D-06.
 Level shift goal  0.100 maximum shift  0.100.
 No special actions if energy rises.
 Dynamic level shift is on during FON iterations.
 Inv3:  Mode=1 IEnd=     3257292.
 Iteration    1 A*A^-1 deviation from unit magnitude is 4.44D-15 for   1038.
 Iteration    1 A*A^-1 deviation from orthogonality  is 2.79D-15 for    440     94.
 Iteration    1 A^-1*A deviation from unit magnitude is 4.66D-15 for   1038.
 Iteration    1 A^-1*A deviation from orthogonality  is 4.39D-15 for    566    528.
 Error on total polarization charges =  0.02521
 SCF Done:  E(UM062X) =  -430.001361930     A.U. after   14 cycles
            NFock= 14  Conv=0.64D-08     -V/T= 2.0031
 <Sx>= 0.0000 <Sy>= 0.0000 <Sz>= 0.5000 <S**2>= 0.7623 S= 0.5061
 <L.S>=  0.00000000000    
 SMD-CDS (non-electrostatic) energy       (kcal/mol) =      -0.53
 (included in total energy above)
 Annihilation of the first spin contaminant:
 S**2 before annihilation     0.7623,   after     0.7501
 D1PCM: PCM CHGder 1st derivatives, ID1Alg=3 FixD1E=F DoIter=F DoCFld=F I1PDM=0.
 Calling FoFJK, ICntrl=      2127 FMM=F ISym2X=0 I1Cent= 0 IOpClX= 1 NMat=1 NMatS=1 NMatT=0.
 -------------------------------------------------------------------
 Center     Atomic                   Forces (Hartrees/Bohr)
 Number     Number              X              Y              Z
 -------------------------------------------------------------------
      1        6          -0.001185268    0.000347711   -0.000492424
      2        6           0.000108253   -0.002014405    0.001216846
      3        1           0.000110891   -0.000148963    0.000056205
      4        6          -0.000439567   -0.000038598   -0.000104273
      5        6          -0.000359217    0.000117059   -0.000191480
      6        6          -0.000304991    0.000370159   -0.000277259
      7        6           0.002197043    0.001023969    0.000038072
      8        1          -0.000024316    0.000275313   -0.000176845
      9        1           0.000029083    0.000003022    0.000005138
     10        9          -0.000108490   -0.000017429   -0.000023035
     11        9          -0.000023419    0.000082162   -0.000050946
 -------------------------------------------------------------------
 Cartesian Forces:  Max     0.002197043 RMS     0.000652641

 GradGradGradGradGradGradGradGradGradGradGradGradGradGradGradGradGradGrad
 Berny optimization.
 Using GEDIIS/GDIIS optimizer.
 FormGI is forming the generalized inverse of G from B-inverse, IUseBI=4.
 Internal  Forces:  Max     0.001591313 RMS     0.000496211
 Search for a local minimum.
 Step number   2 out of a maximum of   57
 All quantities printed in internal units (Hartrees-Bohrs-Radians)
 Mixed Optimization -- En-DIIS/RFO-DIIS
 Update second derivatives using D2CorX and points    1    2
 DE= -4.72D-03 DEPred=-4.72D-03 R= 1.00D+00
 TightC=F SS=  1.41D+00  RLast= 2.01D-01 DXNew= 5.0454D-01 6.0208D-01
 Trust test= 1.00D+00 RLast= 2.01D-01 DXMaxT set to 5.05D-01
 ITU=  1  0
 Use linear search instead of GDIIS.
     Eigenvalues ---    0.01687   0.01979   0.01997   0.02421   0.02644
     Eigenvalues ---    0.02663   0.03447   0.03609   0.09751   0.10434
     Eigenvalues ---    0.10639   0.16821   0.18059   0.18496   0.19357
     Eigenvalues ---    0.23204   0.28356   0.35875   0.36359   0.36863
     Eigenvalues ---    0.37621   0.39057   0.42544   0.45334   0.48877
     Eigenvalues ---    0.49525   0.54270
 RFO step:  Lambda=-2.81432899D-05 EMin= 1.68699048D-02
 Quartic linear search produced a step of  0.04356.
 Iteration  1 RMS(Cart)=  0.00265068 RMS(Int)=  0.00002132
 Iteration  2 RMS(Cart)=  0.00000692 RMS(Int)=  0.00002059
 Iteration  3 RMS(Cart)=  0.00000000 RMS(Int)=  0.00002059
 Variable       Old X    -DE/DX   Delta X   Delta X   Delta X     New X
                                 (Linear)    (Quad)   (Total)
    R1        2.59139   0.00108  -0.00226   0.00444   0.00221   2.59359
    R2        2.59194   0.00103  -0.00229   0.00394   0.00168   2.59362
    R3        2.04698   0.00016  -0.00013   0.00020   0.00006   2.04704
    R4        2.62400   0.00073   0.00049   0.00122   0.00171   2.62571
    R5        2.61581   0.00087   0.00013   0.00120   0.00131   2.61711
    R6        2.54136   0.00009  -0.00022   0.00031   0.00010   2.54146
    R7        2.61575   0.00084   0.00006   0.00106   0.00109   2.61684
    R8        2.04524  -0.00003  -0.00004  -0.00001  -0.00004   2.04520
    R9        2.62363   0.00076   0.00057   0.00155   0.00211   2.62574
   R10        2.54148   0.00010  -0.00020   0.00031   0.00010   2.54159
   R11        2.04706   0.00017  -0.00001   0.00011   0.00010   2.04717
    A1        2.20772   0.00159   0.00566   0.00265   0.00839   2.21610
    A2        2.16811   0.00043   0.00097  -0.00014   0.00082   2.16893
    A3        2.00577  -0.00108  -0.00323  -0.00235  -0.00555   2.00022
    A4        2.10930   0.00064   0.00225   0.00249   0.00473   2.11403
    A5        2.15215   0.00000   0.00011   0.00002   0.00010   2.15225
    A6        2.07006   0.00006  -0.00014   0.00095   0.00083   2.07088
    A7        2.06098  -0.00006   0.00003  -0.00098  -0.00093   2.06006
    A8        2.04276   0.00055   0.00059   0.00200   0.00253   2.04529
    A9        2.11988  -0.00027  -0.00027  -0.00106  -0.00130   2.11858
   A10        2.12055  -0.00028  -0.00032  -0.00094  -0.00123   2.11932
   A11        2.15187   0.00001   0.00011   0.00020   0.00027   2.15214
   A12        2.06077  -0.00004   0.00013  -0.00086  -0.00072   2.06005
   A13        2.07054   0.00002  -0.00024   0.00067   0.00045   2.07099
   A14        2.00610  -0.00108  -0.00323  -0.00253  -0.00574   2.00036
   A15        2.16421   0.00084   0.00214   0.00258   0.00471   2.16892
   A16        2.11288   0.00024   0.00109  -0.00005   0.00102   2.11390
    D1       -3.13907  -0.00004  -0.00016  -0.00176  -0.00192  -3.14099
    D2        0.00057  -0.00001  -0.00005  -0.00049  -0.00054   0.00003
    D3       -0.00128   0.00002   0.00008   0.00074   0.00082  -0.00046
    D4        3.13989   0.00001   0.00004   0.00051   0.00055   3.14044
    D5        0.00053   0.00000   0.00000   0.00002   0.00002   0.00055
    D6       -3.14031  -0.00001  -0.00002  -0.00023  -0.00025  -3.14056
    D7        3.14024   0.00003   0.00011   0.00124   0.00134   3.14159
    D8       -0.00060   0.00002   0.00008   0.00100   0.00108   0.00048
    D9       -0.00077   0.00001   0.00002   0.00012   0.00014  -0.00063
   D10        3.14066   0.00000   0.00001  -0.00001   0.00000   3.14065
   D11        3.14007   0.00001   0.00004   0.00037   0.00040   3.14047
   D12       -0.00169   0.00001   0.00003   0.00023   0.00026  -0.00143
   D13       -0.00004   0.00000   0.00001   0.00016   0.00018   0.00014
   D14       -3.14113   0.00000   0.00000  -0.00006  -0.00006  -3.14119
   D15       -3.14146   0.00001   0.00002   0.00030   0.00032  -3.14114
   D16        0.00063   0.00000   0.00001   0.00007   0.00008   0.00071
   D17        0.00098  -0.00002  -0.00006  -0.00056  -0.00062   0.00036
   D18       -3.14020  -0.00001  -0.00003  -0.00034  -0.00036  -3.14057
   D19       -3.14111  -0.00001  -0.00005  -0.00033  -0.00038  -3.14149
   D20        0.00089   0.00000  -0.00001  -0.00011  -0.00012   0.00077
         Item               Value     Threshold  Converged?
 Maximum Force            0.001591     0.000015     NO 
 RMS     Force            0.000496     0.000010     NO 
 Maximum Displacement     0.006832     0.000060     NO 
 RMS     Displacement     0.002648     0.000040     NO 
 Predicted change in Energy=-2.230429D-05
 GradGradGradGradGradGradGradGradGradGradGradGradGradGradGradGradGradGrad

                          Input orientation:                          
 ---------------------------------------------------------------------
 Center     Atomic      Atomic             Coordinates (Angstroms)
 Number     Number       Type             X           Y           Z
 ---------------------------------------------------------------------
      1          6           0        6.156398    7.021909    5.160645
      2          6           0        5.113214    6.146091    5.329124
      3          1           0        5.183035    5.211569    5.872467
      4          6           0        3.920499    6.546779    4.739641
      5          6           0        3.780300    7.730944    4.035301
      6          6           0        4.899391    8.539443    3.927809
      7          6           0        6.130234    8.216883    4.486057
      8          1           0        6.982911    8.876759    4.380806
      9          1           0        2.835889    8.012087    3.587687
     10          9           0        2.843920    5.749144    4.855710
     11          9           0        4.782203    9.693846    3.247729
 ---------------------------------------------------------------------
                    Distance matrix (angstroms):
                    1          2          3          4          5
     1  C    0.000000
     2  C    1.372471   0.000000
     3  H    2.175192   1.083249   0.000000
     4  C    2.324272   1.389464   2.158722   0.000000
     5  C    2.723045   2.441802   3.419078   1.384918   0.000000
     6  C    2.324405   2.781643   3.864828   2.363897   1.384771
     7  C    1.372485   2.456272   3.442562   2.781454   2.441620
     8  H    2.175256   3.442618   4.347209   3.864704   3.418916
     9  H    3.805316   3.420636   4.309549   2.156502   1.082271
    10  F    3.561661   2.351889   2.606576   1.344884   2.340386
    11  F    3.561868   4.126541   5.209676   3.587808   2.340313
                    6          7          8          9         10
     6  C    0.000000
     7  C    1.389482   0.000000
     8  H    2.158713   1.083315   0.000000
     9  H    2.156809   3.420777   4.309812   0.000000
    10  F    3.587719   4.126286   5.209486   2.594004   0.000000
    11  F    1.344949   2.352034   2.606648   2.594614   4.680087
                   11
    11  F    0.000000
 Symmetry turned off by external request.
 Stoichiometry    C6H3F2(2)
 Framework group  C1[X(C6H3F2)]
 Deg. of freedom    27
 Full point group                 C1      NOp   1
 Rotational constants (GHZ):           4.0875387           1.7589793           1.2297742
 Standard basis: 6-311+G(d,p) (5D, 7F)
   194 basis functions,   312 primitive gaussians,   202 cartesian basis functions
    29 alpha electrons       28 beta electrons
       nuclear repulsion energy       332.5544314414 Hartrees.
 NAtoms=   11 NActive=   11 NUniq=   11 SFac= 1.00D+00 NAtFMM=   60 NAOKFM=F Big=F
 Integral buffers will be    131072 words long.
 Raffenetti 2 integral format.
 Two-electron integral symmetry is turned off.
 ------------------------------------------------------------------------------
 Polarizable Continuum Model (PCM)
 =================================
 Model                : PCM.
 Atomic radii         : SMD-Coulomb.
 Polarization charges : Total charges.
 Charge compensation  : None.
 Solution method      : Matrix inversion.
 Cavity type          : VdW (van der Waals Surface) (Alpha=1.000).
 Cavity algorithm     : GePol (No added spheres)
                        Default sphere list used, NSphG=   11.
                        Lebedev-Laikov grids with approx.  5.0 points / Ang**2.
                        Smoothing algorithm: York/Karplus (Gamma=1.0000).
                        Polarization charges: spherical gaussians, with
                                              point-specific exponents (IZeta= 3).
                        Self-potential: point-specific (ISelfS= 7).
                        Self-field    : sphere-specific E.n sum rule (ISelfD= 2).
 1st derivatives      : Analytical E(r).r(x)/FMM algorithm (CHGder, D1EAlg=3).
                        Cavity 1st derivative terms included.
 Solvent              : TetraHydroFuran, Eps=   7.425700 Eps(inf)=   1.974025
 ------------------------------------------------------------------------------
 Spheres list:
 ISph  on   Nord     Re0    Alpha      Xe            Ye            Ze
    1   C      1    1.8500  1.000      6.156398      7.021909      5.160645
    2   C      2    1.8500  1.000      5.113214      6.146091      5.329124
    3   H      3    1.2000  1.000      5.183035      5.211569      5.872467
    4   C      4    1.8500  1.000      3.920499      6.546779      4.739641
    5   C      5    1.8500  1.000      3.780300      7.730944      4.035301
    6   C      6    1.8500  1.000      4.899391      8.539443      3.927809
    7   C      7    1.8500  1.000      6.130234      8.216883      4.486057
    8   H      8    1.2000  1.000      6.982911      8.876759      4.380806
    9   H      9    1.2000  1.000      2.835889      8.012087      3.587687
   10   F     10    1.7300  1.000      2.843920      5.749144      4.855710
   11   F     11    1.7300  1.000      4.782203      9.693846      3.247729
 ------------------------------------------------------------------------------
 ------------------------------------------------------------------------------
 Atomic radii for non-electrostatic terms: SMD-CDS.
 ------------------------------------------------------------------------------
 Nuclear repulsion after PCM non-electrostatic terms =      332.5535919201 Hartrees.
 One-electron integrals computed using PRISM.
 NBasis=   194 RedAO= T EigKep=  4.73D-06  NBF=   194
 NBsUse=   194 1.00D-06 EigRej= -1.00D+00 NBFU=   194
 Initial guess from the checkpoint file:  "3-5-diF-ph-opt-freq-thf.chk"
 B after Tr=    -0.001436    0.001227   -0.001933
         Rot=    1.000000    0.000010    0.000104    0.000064 Ang=   0.01 deg.
 Initial guess <Sx>= 0.0000 <Sy>= 0.0000 <Sz>= 0.5000 <S**2>= 0.7623 S= 0.5061
 Keep R1 and R2 ints in memory in canonical form, NReq=390789408.
 Requested convergence on RMS density matrix=1.00D-08 within 128 cycles.
 Requested convergence on MAX density matrix=1.00D-06.
 Requested convergence on             energy=1.00D-06.
 Level shift goal  0.100 maximum shift  0.100.
 No special actions if energy rises.
 Dynamic level shift is on during FON iterations.
 Inv3:  Mode=1 IEnd=     3238563.
 Iteration    1 A*A^-1 deviation from unit magnitude is 5.11D-15 for   1028.
 Iteration    1 A*A^-1 deviation from orthogonality  is 1.89D-15 for   1028   1014.
 Iteration    1 A^-1*A deviation from unit magnitude is 5.33D-15 for   1028.
 Iteration    1 A^-1*A deviation from orthogonality  is 1.94D-15 for    593    527.
 Error on total polarization charges =  0.02523
 SCF Done:  E(UM062X) =  -430.001384376     A.U. after   12 cycles
            NFock= 12  Conv=0.31D-08     -V/T= 2.0031
 <Sx>= 0.0000 <Sy>= 0.0000 <Sz>= 0.5000 <S**2>= 0.7623 S= 0.5061
 <L.S>=  0.00000000000    
 SMD-CDS (non-electrostatic) energy       (kcal/mol) =      -0.53
 (included in total energy above)
 Annihilation of the first spin contaminant:
 S**2 before annihilation     0.7623,   after     0.7501
 D1PCM: PCM CHGder 1st derivatives, ID1Alg=3 FixD1E=F DoIter=F DoCFld=F I1PDM=0.
 Calling FoFJK, ICntrl=      2127 FMM=F ISym2X=0 I1Cent= 0 IOpClX= 1 NMat=1 NMatS=1 NMatT=0.
 -------------------------------------------------------------------
 Center     Atomic                   Forces (Hartrees/Bohr)
 Number     Number              X              Y              Z
 -------------------------------------------------------------------
      1        6          -0.000171492    0.000014196   -0.000059666
      2        6           0.000191012    0.000107787   -0.000000421
      3        1          -0.000003882   -0.000018696    0.000009327
      4        6          -0.000047528   -0.000040025    0.000007907
      5        6          -0.000035693    0.000017794   -0.000017930
      6        6           0.000000059    0.000063040   -0.000037648
      7        6           0.000080662   -0.000179914    0.000125313
      8        1           0.000008341    0.000012821   -0.000010426
      9        1           0.000003654    0.000006948   -0.000001459
     10        9          -0.000024311    0.000004601   -0.000005717
     11        9          -0.000000822    0.000011447   -0.000009280
 -------------------------------------------------------------------
 Cartesian Forces:  Max     0.000191012 RMS     0.000067150

 GradGradGradGradGradGradGradGradGradGradGradGradGradGradGradGradGradGrad
 Berny optimization.
 Using GEDIIS/GDIIS optimizer.
 FormGI is forming the generalized inverse of G from B-inverse, IUseBI=4.
 Internal  Forces:  Max     0.000161115 RMS     0.000037966
 Search for a local minimum.
 Step number   3 out of a maximum of   57
 All quantities printed in internal units (Hartrees-Bohrs-Radians)
 Mixed Optimization -- En-DIIS/RFO-DIIS
 Swapping is turned off.
 Update second derivatives using D2CorX and points    1    2    3
 DE= -2.24D-05 DEPred=-2.23D-05 R= 1.01D+00
 TightC=F SS=  1.41D+00  RLast= 1.48D-02 DXNew= 8.4853D-01 4.4433D-02
 Trust test= 1.01D+00 RLast= 1.48D-02 DXMaxT set to 5.05D-01
 ITU=  1  1  0
     Eigenvalues ---    0.01687   0.01979   0.01997   0.02420   0.02644
     Eigenvalues ---    0.02663   0.03447   0.03609   0.09746   0.10401
     Eigenvalues ---    0.10661   0.16822   0.17780   0.18212   0.19357
     Eigenvalues ---    0.23216   0.28355   0.35871   0.36307   0.36862
     Eigenvalues ---    0.37622   0.39124   0.43405   0.45335   0.48878
     Eigenvalues ---    0.49729   0.54114
 En-DIIS/RFO-DIIS/Sim-DIIS IScMMF=       -3 using points:     3    2
 RFO step:  Lambda=-1.91178766D-07.
 DidBck=F Rises=F RFO-DIIS coefs:    1.01945   -0.01945
 Iteration  1 RMS(Cart)=  0.00010402 RMS(Int)=  0.00000003
 Iteration  2 RMS(Cart)=  0.00000002 RMS(Int)=  0.00000003
 Variable       Old X    -DE/DX   Delta X   Delta X   Delta X     New X
                                 (Linear)    (Quad)   (Total)
    R1        2.59359  -0.00016   0.00004  -0.00045  -0.00041   2.59318
    R2        2.59362  -0.00013   0.00003  -0.00037  -0.00034   2.59328
    R3        2.04704   0.00002   0.00000   0.00006   0.00006   2.04711
    R4        2.62571   0.00006   0.00003   0.00013   0.00016   2.62587
    R5        2.61711   0.00005   0.00003   0.00009   0.00012   2.61723
    R6        2.54146   0.00002   0.00000   0.00000   0.00000   2.54146
    R7        2.61684   0.00004   0.00002   0.00010   0.00012   2.61696
    R8        2.04520   0.00000   0.00000   0.00000   0.00000   2.04520
    R9        2.62574   0.00007   0.00004   0.00014   0.00018   2.62592
   R10        2.54159   0.00002   0.00000  -0.00001   0.00000   2.54158
   R11        2.04717   0.00002   0.00000   0.00005   0.00005   2.04722
    A1        2.21610   0.00007   0.00016   0.00015   0.00031   2.21642
    A2        2.16893  -0.00001   0.00002   0.00000   0.00002   2.16895
    A3        2.00022   0.00001  -0.00011   0.00007  -0.00003   2.00019
    A4        2.11403   0.00000   0.00009  -0.00008   0.00002   2.11405
    A5        2.15225  -0.00003   0.00000  -0.00013  -0.00013   2.15212
    A6        2.07088   0.00003   0.00002   0.00012   0.00014   2.07102
    A7        2.06006   0.00000  -0.00002   0.00001  -0.00001   2.06005
    A8        2.04529  -0.00002   0.00005  -0.00001   0.00004   2.04533
    A9        2.11858   0.00001  -0.00003   0.00000  -0.00002   2.11855
   A10        2.11932   0.00001  -0.00002   0.00001  -0.00001   2.11931
   A11        2.15214  -0.00004   0.00001  -0.00013  -0.00013   2.15202
   A12        2.06005   0.00001  -0.00001   0.00002   0.00000   2.06005
   A13        2.07099   0.00003   0.00001   0.00012   0.00013   2.07112
   A14        2.00036   0.00001  -0.00011   0.00005  -0.00006   2.00031
   A15        2.16892   0.00002   0.00009   0.00016   0.00026   2.16918
   A16        2.11390  -0.00002   0.00002  -0.00022  -0.00020   2.11370
    D1       -3.14099   0.00000  -0.00004  -0.00002  -0.00006  -3.14105
    D2        0.00003   0.00000  -0.00001  -0.00002  -0.00003   0.00000
    D3       -0.00046   0.00000   0.00002   0.00000   0.00002  -0.00045
    D4        3.14044   0.00000   0.00001   0.00006   0.00007   3.14051
    D5        0.00055   0.00000   0.00000   0.00001   0.00001   0.00055
    D6       -3.14056   0.00000   0.00000   0.00002   0.00001  -3.14055
    D7        3.14159   0.00000   0.00003   0.00001   0.00004  -3.14156
    D8        0.00048   0.00000   0.00002   0.00002   0.00004   0.00052
    D9       -0.00063   0.00000   0.00000   0.00002   0.00002  -0.00061
   D10        3.14065   0.00000   0.00000  -0.00001  -0.00001   3.14064
   D11        3.14047   0.00000   0.00001   0.00001   0.00002   3.14049
   D12       -0.00143   0.00000   0.00001  -0.00002  -0.00001  -0.00144
   D13        0.00014   0.00000   0.00000  -0.00004  -0.00003   0.00011
   D14       -3.14119   0.00000   0.00000  -0.00004  -0.00004  -3.14123
   D15       -3.14114   0.00000   0.00001  -0.00001   0.00000  -3.14114
   D16        0.00071   0.00000   0.00000  -0.00001   0.00000   0.00071
   D17        0.00036   0.00000  -0.00001   0.00003   0.00002   0.00038
   D18       -3.14057   0.00000  -0.00001  -0.00003  -0.00004  -3.14060
   D19       -3.14149   0.00000  -0.00001   0.00003   0.00002  -3.14147
   D20        0.00077   0.00000   0.00000  -0.00003  -0.00003   0.00073
         Item               Value     Threshold  Converged?
 Maximum Force            0.000161     0.000015     NO 
 RMS     Force            0.000038     0.000010     NO 
 Maximum Displacement     0.000392     0.000060     NO 
 RMS     Displacement     0.000104     0.000040     NO 
 Predicted change in Energy=-9.558953D-08
 GradGradGradGradGradGradGradGradGradGradGradGradGradGradGradGradGradGrad

                          Input orientation:                          
 ---------------------------------------------------------------------
 Center     Atomic      Atomic             Coordinates (Angstroms)
 Number     Number       Type             X           Y           Z
 ---------------------------------------------------------------------
      1          6           0        6.156192    7.021935    5.160606
      2          6           0        5.113288    6.146133    5.329133
      3          1           0        5.183242    5.211583    5.872480
      4          6           0        3.920441    6.546729    4.739656
      5          6           0        3.780274    7.730963    4.035301
      6          6           0        4.899414    8.539500    3.927789
      7          6           0        6.130271    8.216784    4.486150
      8          1           0        6.982935    8.876709    4.380816
      9          1           0        2.835870    8.012106    3.587674
     10          9           0        2.843838    5.749124    4.855689
     11          9           0        4.782227    9.693884    3.247682
 ---------------------------------------------------------------------
                    Distance matrix (angstroms):
                    1          2          3          4          5
     1  C    0.000000
     2  C    1.372254   0.000000
     3  H    2.175034   1.083283   0.000000
     4  C    2.324135   1.389549   2.158836   0.000000
     5  C    2.722870   2.441847   3.419185   1.384981   0.000000
     6  C    2.324292   2.781675   3.864895   2.364033   1.384834
     7  C    1.372307   2.456109   3.442384   2.781492   2.441675
     8  H    2.175262   3.442519   4.347080   3.864769   3.418940
     9  H    3.805141   3.420698   4.309690   2.156545   1.082271
    10  F    3.561560   2.352056   2.606842   1.344883   2.340434
    11  F    3.561794   4.126571   5.209742   3.587931   2.340366
                    6          7          8          9         10
     6  C    0.000000
     7  C    1.389576   0.000000
     8  H    2.158704   1.083343   0.000000
     9  H    2.156858   3.420853   4.309845   0.000000
    10  F    3.587839   4.126324   5.209550   2.594034   0.000000
    11  F    1.344947   2.352202   2.606700   2.594663   4.680189
                   11
    11  F    0.000000
 Symmetry turned off by external request.
 Stoichiometry    C6H3F2(2)
 Framework group  C1[X(C6H3F2)]
 Deg. of freedom    27
 Full point group                 C1      NOp   1
 Rotational constants (GHZ):           4.0875313           1.7589328           1.2297507
 Standard basis: 6-311+G(d,p) (5D, 7F)
   194 basis functions,   312 primitive gaussians,   202 cartesian basis functions
    29 alpha electrons       28 beta electrons
       nuclear repulsion energy       332.5531349528 Hartrees.
 NAtoms=   11 NActive=   11 NUniq=   11 SFac= 1.00D+00 NAtFMM=   60 NAOKFM=F Big=F
 Integral buffers will be    131072 words long.
 Raffenetti 2 integral format.
 Two-electron integral symmetry is turned off.
 ------------------------------------------------------------------------------
 Polarizable Continuum Model (PCM)
 =================================
 Model                : PCM.
 Atomic radii         : SMD-Coulomb.
 Polarization charges : Total charges.
 Charge compensation  : None.
 Solution method      : Matrix inversion.
 Cavity type          : VdW (van der Waals Surface) (Alpha=1.000).
 Cavity algorithm     : GePol (No added spheres)
                        Default sphere list used, NSphG=   11.
                        Lebedev-Laikov grids with approx.  5.0 points / Ang**2.
                        Smoothing algorithm: York/Karplus (Gamma=1.0000).
                        Polarization charges: spherical gaussians, with
                                              point-specific exponents (IZeta= 3).
                        Self-potential: point-specific (ISelfS= 7).
                        Self-field    : sphere-specific E.n sum rule (ISelfD= 2).
 1st derivatives      : Analytical E(r).r(x)/FMM algorithm (CHGder, D1EAlg=3).
                        Cavity 1st derivative terms included.
 Solvent              : TetraHydroFuran, Eps=   7.425700 Eps(inf)=   1.974025
 ------------------------------------------------------------------------------
 Spheres list:
 ISph  on   Nord     Re0    Alpha      Xe            Ye            Ze
    1   C      1    1.8500  1.000      6.156192      7.021935      5.160606
    2   C      2    1.8500  1.000      5.113288      6.146133      5.329133
    3   H      3    1.2000  1.000      5.183242      5.211583      5.872480
    4   C      4    1.8500  1.000      3.920441      6.546729      4.739656
    5   C      5    1.8500  1.000      3.780274      7.730963      4.035301
    6   C      6    1.8500  1.000      4.899414      8.539500      3.927789
    7   C      7    1.8500  1.000      6.130271      8.216784      4.486150
    8   H      8    1.2000  1.000      6.982935      8.876709      4.380816
    9   H      9    1.2000  1.000      2.835870      8.012106      3.587674
   10   F     10    1.7300  1.000      2.843838      5.749124      4.855689
   11   F     11    1.7300  1.000      4.782227      9.693884      3.247682
 ------------------------------------------------------------------------------
 ------------------------------------------------------------------------------
 Atomic radii for non-electrostatic terms: SMD-CDS.
 ------------------------------------------------------------------------------
 Nuclear repulsion after PCM non-electrostatic terms =      332.5522951736 Hartrees.
 One-electron integrals computed using PRISM.
 NBasis=   194 RedAO= T EigKep=  4.73D-06  NBF=   194
 NBsUse=   194 1.00D-06 EigRej= -1.00D+00 NBFU=   194
[...]
    A7        2.06005   0.00000   0.00000   0.00000   0.00000   2.06005
    A8        2.04533   0.00000   0.00000   0.00000   0.00000   2.04532
    A9        2.11855   0.00000   0.00000   0.00000   0.00000   2.11855
   A10        2.11931   0.00000   0.00000   0.00000   0.00000   2.11931
   A11        2.15202   0.00000   0.00000   0.00000   0.00000   2.15202
   A12        2.06006   0.00000   0.00000   0.00000   0.00000   2.06006
   A13        2.07111   0.00000   0.00000   0.00000   0.00000   2.07111
   A14        2.00031   0.00000   0.00000   0.00000   0.00000   2.00031
   A15        2.16917   0.00000   0.00000   0.00000   0.00000   2.16917
   A16        2.11370   0.00000   0.00000   0.00000   0.00000   2.11370
    D1       -3.14104   0.00000   0.00000   0.00000   0.00000  -3.14104
    D2        0.00000   0.00000   0.00000   0.00000   0.00000   0.00000
    D3       -0.00045   0.00000   0.00000   0.00000   0.00000  -0.00045
    D4        3.14051   0.00000   0.00000   0.00000   0.00000   3.14051
    D5        0.00055   0.00000   0.00000   0.00000   0.00000   0.00055
    D6       -3.14054   0.00000   0.00000   0.00000   0.00000  -3.14054
    D7       -3.14157   0.00000   0.00000   0.00000   0.00000  -3.14157
    D8        0.00052   0.00000   0.00000   0.00000   0.00000   0.00052
    D9       -0.00061   0.00000   0.00000   0.00000   0.00000  -0.00061
   D10        3.14064   0.00000   0.00000   0.00000   0.00000   3.14064
   D11        3.14049   0.00000   0.00000   0.00000   0.00000   3.14049
   D12       -0.00144   0.00000   0.00000   0.00000   0.00000  -0.00144
   D13        0.00011   0.00000   0.00000   0.00000   0.00000   0.00011
   D14       -3.14123   0.00000   0.00000   0.00000   0.00000  -3.14123
   D15       -3.14114   0.00000   0.00000   0.00000   0.00000  -3.14114
   D16        0.00071   0.00000   0.00000   0.00000   0.00000   0.00071
   D17        0.00038   0.00000   0.00000   0.00000   0.00000   0.00038
   D18       -3.14060   0.00000   0.00000   0.00000   0.00000  -3.14060
   D19       -3.14147   0.00000   0.00000   0.00000   0.00000  -3.14147
   D20        0.00074   0.00000   0.00000   0.00000   0.00000   0.00074
         Item               Value     Threshold  Converged?
 Maximum Force            0.000000     0.000015     YES
 RMS     Force            0.000000     0.000010     YES
 Maximum Displacement     0.000001     0.000060     YES
 RMS     Displacement     0.000000     0.000040     YES
 Predicted change in Energy=-5.399609D-13
 Optimization completed.
    -- Stationary point found.
                           ----------------------------
                           !   Optimized Parameters   !
                           ! (Angstroms and Degrees)  !
 --------------------------                            --------------------------
 ! Name  Definition              Value          Derivative Info.                !
 --------------------------------------------------------------------------------
 ! R1    R(1,2)                  1.3723         -DE/DX =    0.0                 !
 ! R2    R(1,7)                  1.3723         -DE/DX =    0.0                 !
 ! R3    R(2,3)                  1.0833         -DE/DX =    0.0                 !
 ! R4    R(2,4)                  1.3895         -DE/DX =    0.0                 !
 ! R5    R(4,5)                  1.385          -DE/DX =    0.0                 !
 ! R6    R(4,10)                 1.3449         -DE/DX =    0.0                 !
 ! R7    R(5,6)                  1.3848         -DE/DX =    0.0                 !
 ! R8    R(5,9)                  1.0823         -DE/DX =    0.0                 !
 ! R9    R(6,7)                  1.3896         -DE/DX =    0.0                 !
 ! R10   R(6,11)                 1.3449         -DE/DX =    0.0                 !
 ! R11   R(7,8)                  1.0833         -DE/DX =    0.0                 !
 ! A1    A(2,1,7)              126.99           -DE/DX =    0.0                 !
 ! A2    A(1,2,3)              124.2718         -DE/DX =    0.0                 !
 ! A3    A(1,2,4)              114.6025         -DE/DX =    0.0                 !
 ! A4    A(3,2,4)              121.1257         -DE/DX =    0.0                 !
 ! A5    A(2,4,5)              123.3077         -DE/DX =    0.0                 !
 ! A6    A(2,4,10)             118.6603         -DE/DX =    0.0                 !
 ! A7    A(5,4,10)             118.032          -DE/DX =    0.0                 !
 ! A8    A(4,5,6)              117.1885         -DE/DX =    0.0                 !
 ! A9    A(4,5,9)              121.3842         -DE/DX =    0.0                 !
 ! A10   A(6,5,9)              121.4273         -DE/DX =    0.0                 !
 ! A11   A(5,6,7)              123.3017         -DE/DX =    0.0                 !
 ! A12   A(5,6,11)             118.0325         -DE/DX =    0.0                 !
 ! A13   A(7,6,11)             118.6658         -DE/DX =    0.0                 !
 ! A14   A(1,7,6)              114.6096         -DE/DX =    0.0                 !
 ! A15   A(1,7,8)              124.2842         -DE/DX =    0.0                 !
 ! A16   A(6,7,8)              121.1062         -DE/DX =    0.0                 !
 ! D1    D(7,1,2,3)           -179.9685         -DE/DX =    0.0                 !
 ! D2    D(7,1,2,4)              0.0003         -DE/DX =    0.0                 !
 ! D3    D(2,1,7,6)             -0.0257         -DE/DX =    0.0                 !
 ! D4    D(2,1,7,8)            179.9379         -DE/DX =    0.0                 !
 ! D5    D(1,2,4,5)              0.0317         -DE/DX =    0.0                 !
 ! D6    D(1,2,4,10)          -179.94           -DE/DX =    0.0                 !
 ! D7    D(3,2,4,5)           -179.9985         -DE/DX =    0.0                 !
 ! D8    D(3,2,4,10)             0.0299         -DE/DX =    0.0                 !
 ! D9    D(2,4,5,6)             -0.035          -DE/DX =    0.0                 !
 ! D10   D(2,4,5,9)            179.9456         -DE/DX =    0.0                 !
 ! D11   D(10,4,5,6)           179.9368         -DE/DX =    0.0                 !
 ! D12   D(10,4,5,9)            -0.0826         -DE/DX =    0.0                 !
 ! D13   D(4,5,6,7)              0.0063         -DE/DX =    0.0                 !
 ! D14   D(4,5,6,11)          -179.979          -DE/DX =    0.0                 !
 ! D15   D(9,5,6,7)           -179.9743         -DE/DX =    0.0                 !
 ! D16   D(9,5,6,11)             0.0404         -DE/DX =    0.0                 !
 ! D17   D(5,6,7,1)              0.0218         -DE/DX =    0.0                 !
 ! D18   D(5,6,7,8)           -179.943          -DE/DX =    0.0                 !
 ! D19   D(11,6,7,1)          -179.9931         -DE/DX =    0.0                 !
 ! D20   D(11,6,7,8)             0.0421         -DE/DX =    0.0                 !
 --------------------------------------------------------------------------------
 GradGradGradGradGradGradGradGradGradGradGradGradGradGradGradGradGradGrad


 ----------------------------------------------------------------------

 Electric dipole moment (input orientation):
 (Debye = 10**-18 statcoulomb cm , SI units = C m)
                  (au)            (Debye)         (10**-30 SI)
   Tot        0.402657D+00      0.102345D+01      0.341387D+01
   x          0.351214D+00      0.892698D+00      0.297772D+01
   y         -0.105314D+00     -0.267683D+00     -0.892893D+00
   z          0.166404D+00      0.422957D+00      0.141083D+01

 Dipole polarizability, Alpha (input orientation).
 (esu units = cm**3 , SI units = C**2 m**2 J**-1)
 Alpha(0;0):
               (au)            (10**-24 esu)      (10**-40 SI)
   iso        0.826188D+02      0.122428D+02      0.136220D+02
   aniso      0.514477D+02      0.762376D+01      0.848258D+01
   xx         0.939447D+02      0.139212D+02      0.154894D+02
   yx         0.838663D+01      0.124277D+01      0.138277D+01
   yy         0.908058D+02      0.134560D+02      0.149719D+02
   zx         0.923887D+01      0.136906D+01      0.152328D+01
   zy        -0.209419D+02     -0.310328D+01     -0.345286D+01
   zz         0.631058D+02      0.935131D+01      0.104047D+02

 ----------------------------------------------------------------------

 Dipole orientation:
     6         -0.99336477         17.05581459         10.70685369
     6         -2.44818022         15.24604452          9.55228323
     1         -3.56783910         13.85537173         10.55379933
     6         -2.39501029         15.31120630          6.92776567
     6         -0.99506720         17.04987337          5.56134266
     6          0.40515270         18.79207728          6.92242802
     6          0.46020647         18.86320176          9.54680622
     1          1.57902275         20.25796089         10.54380293
     1         -0.99540821         17.04611179          3.51615049
     9         -3.76883150         13.60584805          5.63804212
     9          1.77607240         20.49606277          5.62757718

 Electric dipole moment (dipole orientation):
 (Debye = 10**-18 statcoulomb cm , SI units = C m)
                  (au)            (Debye)         (10**-30 SI)
   Tot        0.402657D+00      0.102345D+01      0.341387D+01
   x          0.000000D+00      0.000000D+00      0.000000D+00
   y          0.000000D+00      0.000000D+00      0.000000D+00
   z          0.402657D+00      0.102345D+01      0.341387D+01

 Dipole polarizability, Alpha (dipole orientation).
 (esu units = cm**3 , SI units = C**2 m**2 J**-1)
 Alpha(0;0):
               (au)            (10**-24 esu)      (10**-40 SI)
   iso        0.826188D+02      0.122428D+02      0.136220D+02
   aniso      0.514477D+02      0.762376D+01      0.848258D+01
   xx         0.701070D+02      0.103888D+02      0.115591D+02
   yx         0.267690D+02      0.396676D+01      0.441362D+01
   yy         0.819250D+02      0.121400D+02      0.135076D+02
   zx        -0.238139D-01     -0.352885D-02     -0.392638D-02
   zy        -0.241547D-01     -0.357936D-02     -0.398258D-02
   zz         0.958243D+02      0.141997D+02      0.157993D+02

 ----------------------------------------------------------------------
 Unable to Open any file for archive entry.
 1\1\GINC-CN016\Freq\UM062X\6-311+G(d,p)\C6H3F2(2)\TAHMINAAFROZ\10-May-
 2025\0\\#N Geom=AllCheck Guess=TCheck SCRF=Check GenChk UM062X/6-311+G
 (d,p) Freq\\3-5-diF-ph-opt-freq-thf\\0,2\C,6.1562123346,7.0219331728,5
 .1606106943\C,5.1132860361,6.1461266757,5.3291346816\H,5.1832251216,5.
 2115772234,5.8724807355\C,3.9204428611,6.5467293745,4.7396555602\C,3.7
 802744696,7.7309632477,4.0353014532\C,4.8994123576,8.5394994926,3.9277
 883944\C,6.1302725054,8.216789412,4.4861469833\H,6.9829305452,8.876719
 3508,4.3808105455\H,2.8358701273,8.0121058682,3.5876747848\F,2.8438401
 862,5.7491253749,4.8556895423\F,4.7822264554,9.6938838073,3.247682625\
 \Version=AS64L-G16RevC.01\HF=-430.0013845\S2=0.762316\S2-1=0.\S2A=0.75
 0069\RMSD=2.228e-09\RMSF=4.200e-06\ZeroPoint=0.0714467\Thermal=0.07731
 76\ETot=-429.9240668\HTot=-429.9231227\GTot=-429.960648\Dipole=0.35121
 43,-0.1053144,0.166404\DipoleDeriv=0.039077,0.1826324,-0.0563412,0.180
 9845,0.2978084,-0.1701117,-0.0568237,-0.1688935,-0.0318043,-0.4748184,
 -0.1937082,0.0093349,0.0453405,-0.2129064,0.0489454,-0.1229687,-0.0259
 787,-0.1741015,0.1539955,-0.0168581,-0.015927,-0.0199685,0.1139916,0.0
 617581,-0.0142197,0.0634011,0.1972375,1.4604788,0.6609866,0.0397048,0.
 5927861,0.9913251,-0.3035746,0.0807783,-0.2814104,0.3031094,-0.2910816
 ,-0.1288791,0.0436867,-0.1304461,-0.4743647,0.1173212,0.0446142,0.1197
 189,-0.2442146,0.6993976,-0.0685385,0.2160907,0.0020906,1.450319,-0.73
 97927,0.1763409,-0.7639144,0.6038102,-0.2808643,0.2105324,-0.1596527,-
 0.0274526,-0.3333892,0.0924426,-0.0266705,0.1646756,-0.2520324,0.12411
 01,-0.045499,-0.0086369,-0.0413271,0.1316805,0.045957,-0.0103821,0.045
 1009,0.2075687,0.10924,-0.0043688,-0.0388482,-0.0042389,0.1529391,0.04
 99193,-0.0384661,0.0497788,0.2048997,-1.2264574,-0.7066021,0.0726055,-
 0.6856484,-0.782276,0.1265753,0.0567066,0.1172159,-0.2280764,-0.313077
 2,0.1103024,-0.1020166,0.08788,-1.3351274,0.6705603,-0.0889092,0.68030
 57,-0.5863963\Polar=93.9446759,8.3866338,90.8058457,9.2388706,-20.9419
 486,63.105766\Quadrupole=5.7341294,-6.1024077,0.3682783,3.0523453,5.73
 7714,1.2675128\PG=C01 [X(C6H3F2)]\NImag=0\\0.38653365,0.15435900,0.532
 89930,0.00890828,-0.20743995,0.19481912,-0.24436139,-0.12111421,0.0076
 7956,0.59437175,-0.15105856,-0.20478688,0.04066454,0.08218126,0.632975
 17,0.02438289,0.04982428,-0.06932042,0.10145320,-0.26457571,0.29256936
 ,0.00551661,-0.01840676,0.01271932,-0.05196660,0.01365028,-0.01448678,
 0.04944266,-0.00089159,-0.01245668,0.00532216,0.01886972,-0.26526652,0
 .13691761,-0.01472691,0.27810827,0.00295509,-0.00008007,-0.00148957,-0
 .01742137,0.13534195,-0.11129498,0.01722515,-0.14814521,0.10884894,-0.
 06431870,-0.05956042,0.01157677,-0.24395446,0.09898055,-0.10987513,0.0
 0204935,-0.00197241,-0.00028178,0.63146694,0.00685038,0.05536358,-0.02
 490675,0.02116630,-0.13464648,0.04520778,0.02276032,-0.00266378,0.0120
 5878,0.04524305,0.57099074,-0.02568041,-0.04537839,0.02433533,-0.06642
 532,0.06910805,-0.12394616,-0.01406016,0.00447521,-0.00039752,0.122034
 92,-0.22125211,0.31106492,-0.01778248,-0.02733945,0.00991139,0.0264919
 2,0.02536184,-0.00824065,-0.00396812,0.00037777,-0.00284417,-0.1263535
 6,0.06361123,-0.05535963,0.72928016,-0.02741173,-0.05825875,0.02418452
 ,0.07177603,0.00463837,0.02344478,0.00036320,0.00174865,0.00169709,-0.
 00621805,-0.26120078,0.10941263,0.05226866,0.57845404,0.00987738,0.024
 14356,-0.01020152,-0.03415527,0.00921039,-0.00833949,-0.00282827,0.001
 70983,0.00277208,-0.01661064,0.13084064,-0.13990774,0.15906885,-0.2421
 9109,0.29958916,0.03660684,0.09445501,-0.04378531,-0.08224341,-0.01593
 306,-0.01697375,-0.00185083,-0.00036013,-0.00030288,0.05615021,-0.0776
 2652,0.06270077,-0.28142384,-0.07099886,-0.02773577,0.66828578,0.02818
 609,-0.00609479,0.01588973,-0.01717300,0.00153431,-0.00489065,-0.00026
 089,0.00026702,-0.00032848,-0.01259092,-0.04685488,0.01849151,-0.14087
 230,-0.16844068,0.01612230,0.07793005,0.54910913,-0.00656034,0.0364397
 8,-0.01508795,-0.01627320,-0.00462950,-0.00048927,-0.00036601,-0.00035
 835,-0.00008689,0.02631127,-0.00151786,0.00198890,0.01117030,0.0375606
 1,-0.07950164,0.11578200,-0.19887926,0.29635863,-0.09809314,-0.0240976
 0,-0.00179088,0.04302510,-0.01836285,0.02213816,-0.00290602,-0.0019002
 2,-0.00149946,-0.02394620,0.03468528,-0.02736034,-0.04587414,-0.037528
 06,0.00467046,-0.29155617,0.05752170,-0.10168333,0.65663119,0.00573667
 ,-0.29396331,0.13861685,-0.05135868,-0.03260689,0.00491026,-0.00409142
 ,0.00089027,0.00126325,0.03350566,-0.03400741,0.03041041,0.00888786,0.
 04876207,-0.02044812,-0.02030920,-0.10577706,0.01642339,0.13649698,0.5
 9588792,-0.01846678,0.12944729,-0.12688291,0.04055074,0.01502482,0.008
 45847,-0.00027243,0.00194227,0.00424065,-0.02665498,0.03072445,-0.0233
 3710,-0.02134725,-0.03470984,0.02007806,-0.05815251,0.04041075,-0.1056
 0641,0.09079601,-0.22720362,0.26835475,0.00690969,0.00031720,0.0027000
 6,0.00131124,0.00175373,-0.00224738,0.00036229,0.00016085,-0.00001277,
 -0.00037576,0.00092285,-0.00057305,-0.00270465,0.00145693,-0.00306427,
 -0.01593570,-0.01756872,0.00292616,-0.23616760,-0.14102433,0.01537822,
 0.24493328,-0.01722304,-0.01331649,0.00076925,-0.00042470,-0.00168458,
 0.00381994,-0.00067754,-0.00018257,-0.00004318,0.00101295,-0.00062396,
 0.00055750,0.00146326,0.00096529,0.00246898,0.00717609,0.00832610,0.00
 113669,-0.14616199,-0.15364147,0.02403272,0.15495926,0.15965130,0.0124
 8800,0.00616751,-0.00202874,-0.00101460,0.00451155,0.00258201,0.000454
 09,0.00021326,0.00013215,-0.00063364,0.00052477,-0.00067018,-0.0030437
 0,0.00246766,0.00227985,-0.01087447,-0.00648688,0.00670438,0.01823717,
 0.02560075,-0.03884345,-0.01756001,-0.02997885,0.03194286,0.00040838,-
 0.00080409,0.00084626,0.00153230,-0.00095691,-0.00042843,0.00021155,-0
 .00011826,0.00004134,0.00217357,-0.00123430,0.00009514,-0.28115059,0.0
 6446436,-0.11286451,-0.01421536,0.00826139,-0.01022519,-0.00183902,-0.
 00333699,-0.00013759,-0.00050880,0.00034938,-0.00043885,0.29175375,-0.
 00078449,-0.00147340,0.00008910,-0.00043710,-0.00302639,0.00415102,0.0
 0097706,0.00000022,0.00045932,0.02261583,-0.00098430,0.00978224,0.0645
 2198,-0.07076571,0.04228152,-0.01560864,0.00902997,-0.00756356,-0.0038
 7147,-0.00099934,0.00196156,-0.00074494,0.00044424,-0.00031197,-0.0692
 6558,0.06559314,0.00084704,0.00009943,-0.00068229,-0.00072515,0.003984
 04,0.00219920,-0.00056727,0.00012483,0.00004667,-0.01318591,0.00242211
 ,-0.00135038,-0.11290495,0.04235852,-0.08886664,0.00307269,-0.00026299
 ,0.00515465,0.00018501,0.00211537,0.00352165,0.00017067,0.00002057,0.0
 0033307,0.12137282,-0.04561759,0.08496713,-0.00417094,0.00564578,-0.00
 647258,-0.04924079,-0.03620756,0.00261108,0.00284557,0.00041172,0.0020
 1227,-0.22599414,-0.11880669,0.01038070,-0.00615156,-0.01430578,0.0040
 0433,-0.00000897,0.00269358,-0.00381706,-0.00062096,-0.00424527,0.0026
 2494,0.00014289,-0.00008307,0.00023112,0.00026812,0.00086193,0.0009562
 8,0.28277056,-0.00076073,0.00007626,0.00333966,-0.00418467,0.00701394,
 -0.00047988,0.00040297,-0.00042172,-0.00200463,-0.11773310,-0.15279795
 ,0.02539906,-0.04732847,-0.03314677,0.00817719,0.00843024,0.00318385,0
 .00492795,-0.00433782,-0.00069906,-0.00176185,0.00004948,0.00004600,-0
 .00024262,0.00079744,0.00139391,-0.00296416,0.16686171,0.17967850,-0.0
 0284748,0.00531844,0.00266900,-0.01527197,-0.01033087,0.00946463,0.001
 97437,-0.00202125,-0.00250537,0.00988058,0.02517585,-0.05398187,0.0223
 2023,0.01817250,0.00409209,-0.00695400,0.00324012,0.00345570,0.0026457
 2,-0.00173984,0.00032678,0.00014755,-0.00028900,-0.00022252,0.00100145
 ,-0.00289317,-0.00244571,-0.01418573,-0.03611159,0.03962703,-0.0072485
 1,-0.00345446,-0.00229285,0.00503435,0.00059128,0.00166680,0.00026353,
 0.00014945,0.00012859,-0.00689725,0.00242808,-0.00575263,0.00963685,-0
 .03386671,0.01963771,-0.07380854,0.01387303,-0.01726459,0.00134697,0.0
 3973872,-0.02431836,0.00203313,-0.00039059,0.00215486,0.00136609,0.001
 73542,0.00077876,0.00016022,-0.00219704,0.00128927,0.06811318,0.002998
 00,0.00201116,0.00347088,0.00069904,-0.00414405,0.00167056,0.00000970,
 -0.00002317,-0.00021882,-0.00328314,0.00742521,-0.00100612,-0.00095238
 ,-0.04275574,0.02768481,0.01284502,-0.24428296,0.11646012,0.00755605,-
 0.02384573,0.02013146,-0.00028232,0.00001614,-0.00246516,0.00184355,0.
 00078766,-0.00228013,-0.00282635,-0.00432695,0.00147879,-0.01860719,0.
 30913844,-0.00590367,0.00145812,0.00386996,0.00160337,0.00169076,-0.00
 188336,0.00020799,-0.00018036,-0.00026616,-0.00256146,0.00072234,0.006
 20180,0.00126959,0.01760260,-0.00199419,-0.01677676,0.11669386,-0.1128
 9011,-0.00633853,0.03005131,-0.01031049,0.00213481,-0.00249463,-0.0022
 0943,0.00073756,-0.00233846,-0.00287736,0.00165465,0.00172087,-0.00047
 976,0.02397244,-0.16492640,0.12283908\\0.00000242,0.00000573,-0.000001
 31,0.00000504,0.00000111,0.00000006,0.00000923,0.00000171,0.00000019,0
 .00000335,-0.00000318,0.00000096,-0.00000159,-0.00000370,0.00000075,-0
 .00000436,0.00000038,-0.00000037,-0.00000300,0.00000448,-0.00000113,-0
 .00000529,0.00000794,-0.00000219,-0.00000288,-0.00000725,0.00000154,0.
 00000635,-0.00000694,0.00000202,-0.00000928,-0.00000027,-0.00000052\\\
 @
 The archive entry for this job was punched.


 GOD GAVE US TWO ENDS... ONE TO SIT ON...    
 AND THE OTHER TO THINK WITH...              
 YOUR SUCCESS DEPENDS UPON WHICH END YOU     
 USE THE MOST...                             
                                             
 IT'S A CASE OF HEADS YOU WIN TAILS YOU LOSE.
          SOURCE UNKNOWN(IT'S JUST AS WELL.) 
 Job cpu time:       0 days  0 hours 28 minutes 57.7 seconds.
 Elapsed time:       0 days  0 hours  0 minutes 57.1 seconds.
 File lengths (MBytes):  RWF=    108 Int=      0 D2E=      0 Chk=     11 Scr=      1
 Normal termination of Gaussian 16 at Sat May 10 22:09:57 2025.
