/home/tahminaafroz
cn013.cluster.local
tahminaafroz
Tue May  6 17:31:12 CDT 2025
 Entering Gaussian System, Link 0=g16
 Initial command:
 /home/apps/g16/l1.exe "/tmp/4-cf3-ph-opt-freq-thf-2/Gau-763241.inp" -scrdir="/tmp/4-cf3-ph-opt-freq-thf-2/"
 Entering Link 1 = /home/apps/g16/l1.exe PID=    763242.
  
 Copyright (c) 1988-2019, Gaussian, Inc.  All Rights Reserved.
  
 This is part of the Gaussian(R) 16 program.  It is based on
 the Gaussian(R) 09 system (copyright 2009, Gaussian, Inc.),
 the Gaussian(R) 03 system (copyright 2003, Gaussian, Inc.),
 the Gaussian(R) 98 system (copyright 1998, Gaussian, Inc.),
 the Gaussian(R) 94 system (copyright 1995, Gaussian, Inc.),
 the Gaussian 92(TM) system (copyright 1992, Gaussian, Inc.),
 the Gaussian 90(TM) system (copyright 1990, Gaussian, Inc.),
 the Gaussian 88(TM) system (copyright 1988, Gaussian, Inc.),
 the Gaussian 86(TM) system (copyright 1986, Carnegie Mellon
 University), and the Gaussian 82(TM) system (copyright 1983,
 Carnegie Mellon University). Gaussian is a federally registered
 trademark of Gaussian, Inc.
  
 This software contains proprietary and confidential information,
 including trade secrets, belonging to Gaussian, Inc.
  
 This software is provided under written license and may be
 used, copied, transmitted, or stored only in accord with that
 written license.
  
 The following legend is applicable only to US Government
 contracts under FAR:
  
                    RESTRICTED RIGHTS LEGEND
  
 Use, reproduction and disclosure by the US Government is
 subject to restrictions as set forth in subparagraphs (a)
 and (c) of the Commercial Computer Software - Restricted
 Rights clause in FAR 52.227-19.
  
 Gaussian, Inc.
 340 Quinnipiac St., Bldg. 40, Wallingford CT 06492
  
  
 ---------------------------------------------------------------
 Warning -- This program may not be used in any manner that
 competes with the business of Gaussian, Inc. or will provide
 assistance to any competitor of Gaussian, Inc.  The licensee
 of this program is prohibited from giving any competitor of
 Gaussian, Inc. access to this program.  By using this program,
 the user acknowledges that Gaussian, Inc. is engaged in the
 business of creating and licensing software in the field of
 computational chemistry and represents and warrants to the
 licensee that it is not a competitor of Gaussian, Inc. and that
 it will not use this program in any manner prohibited above.
 ---------------------------------------------------------------
  

 Cite this work as:
 Gaussian 16, Revision C.01,
 M. J. Frisch, G. W. Trucks, H. B. Schlegel, G. E. Scuseria, 
 M. A. Robb, J. R. Cheeseman, G. Scalmani, V. Barone, 
 G. A. Petersson, H. Nakatsuji, X. Li, M. Caricato, A. V. Marenich, 
 J. Bloino, B. G. Janesko, R. Gomperts, B. Mennucci, H. P. Hratchian, 
 J. V. Ortiz, A. F. Izmaylov, J. L. Sonnenberg, D. Williams-Young, 
 F. Ding, F. Lipparini, F. Egidi, J. Goings, B. Peng, A. Petrone, 
 T. Henderson, D. Ranasinghe, V. G. Zakrzewski, J. Gao, N. Rega, 
 G. Zheng, W. Liang, M. Hada, M. Ehara, K. Toyota, R. Fukuda, 
 J. Hasegawa, M. Ishida, T. Nakajima, Y. Honda, O. Kitao, H. Nakai, 
 T. Vreven, K. Throssell, J. A. Montgomery, Jr., J. E. Peralta, 
 F. Ogliaro, M. J. Bearpark, J. J. Heyd, E. N. Brothers, K. N. Kudin, 
 V. N. Staroverov, T. A. Keith, R. Kobayashi, J. Normand, 
 K. Raghavachari, A. P. Rendell, J. C. Burant, S. S. Iyengar, 
 J. Tomasi, M. Cossi, J. M. Millam, M. Klene, C. Adamo, R. Cammi, 
 J. W. Ochterski, R. L. Martin, K. Morokuma, O. Farkas, 
 J. B. Foresman, and D. J. Fox, Gaussian, Inc., Wallingford CT, 2019.
 
 ******************************************
 Gaussian 16:  AS64L-G16RevC.01  3-Jul-2019
                 6-May-2025 
 ******************************************
 %mem=20GB
 %nprocshared=32
 Will use up to   32 processors via shared memory.
 %chk=4-cf3-ph-opt-freq-thf-2.chk
 ----------------------------------------------------------------------
 # opt=(calcfc,tight) freq 6-311+g(d,p) scrf=(smd,solvent=thf) nosymm s
 cf=(qc,fermi,xqc) geom=connectivity int=ultrafine m062x
 ----------------------------------------------------------------------
 1/7=10,10=4,18=20,19=15,26=6,38=1,57=2/1,3;
 2/9=110,12=2,15=1,17=6,18=5,40=1/2;
 3/5=4,6=6,7=111,11=2,25=1,30=1,70=32201,71=2,72=20,74=-55,75=-5,140=1/1,2,3;
 4//1;
 5/5=2,22=13,38=5,53=20/2;
 8/6=4,10=90,11=11/1;
 11/6=1,8=1,9=11,15=111,16=1,31=1/1,2,10;
 10/6=1,13=1,31=1/2;
 6/7=2,8=2,9=2,10=2,28=1/1;
 7/10=1,25=1,30=1/1,2,3,16;
 1/7=10,10=4,18=20,19=15,26=6/3(2);
 2/9=110,15=1/2;
 99//99;
 2/9=110,15=1/2;
 3/5=4,6=6,7=111,11=2,25=1,30=1,70=32205,71=1,72=20,74=-55,75=-5/1,2,3;
 4/5=5,16=3,69=1/1;
 5/5=2,22=13,38=5,53=20/2;
 7/30=1/1,2,3,16;
 1/7=10,18=20,19=15,26=6/3(-5);
 2/9=110,15=1/2;
 6/7=2,8=2,9=2,10=2,19=2,28=1/1;
 99/9=1/99;
 -----------------------
 4-cf3-ph-opt-freq-thf-2
 -----------------------
 Symbolic Z-matrix:
 Charge =  0 Multiplicity = 2
 C                     6.23971   6.99949   5.17514 
 C                     5.11582   6.17255   5.29042 
 H                     5.17577   5.21659   5.80211 
 C                     3.88905   6.54654   4.75744 
 H                     3.02558   5.8986    4.85475 
 C                     3.77949   7.76824   4.09942 
 C                     4.87887   8.60882   3.96332 
 H                     4.78294   9.55701   3.44825 
 C                     6.09891   8.21885   4.50252 
 H                     6.95743   8.873     4.40247 
 C                     2.46355   8.14699   3.48822 
 F                     2.34935   9.46721   3.28414 
 F                     1.42239   7.7773    4.2526 
 F                     2.27759   7.55815   2.28963 
 

 GradGradGradGradGradGradGradGradGradGradGradGradGradGradGradGradGradGrad
 Berny optimization.
 Initialization pass.
                           ----------------------------
                           !    Initial Parameters    !
                           ! (Angstroms and Degrees)  !
 --------------------------                            --------------------------
 ! Name  Definition              Value          Derivative Info.                !
 --------------------------------------------------------------------------------
 ! R1    R(1,2)                  1.4001         calculate D2E/DX2 analytically  !
 ! R2    R(1,9)                  1.3997         calculate D2E/DX2 analytically  !
 ! R3    R(2,3)                  1.0859         calculate D2E/DX2 analytically  !
 ! R4    R(2,4)                  1.3889         calculate D2E/DX2 analytically  !
 ! R5    R(4,5)                  1.0839         calculate D2E/DX2 analytically  !
 ! R6    R(4,6)                  1.392          calculate D2E/DX2 analytically  !
 ! R7    R(6,7)                  1.3906         calculate D2E/DX2 analytically  !
 ! R8    R(6,11)                 1.4996         calculate D2E/DX2 analytically  !
 ! R9    R(7,8)                  1.0833         calculate D2E/DX2 analytically  !
 ! R10   R(7,9)                  1.3897         calculate D2E/DX2 analytically  !
 ! R11   R(9,10)                 1.084          calculate D2E/DX2 analytically  !
 ! R12   R(11,12)                1.3408         calculate D2E/DX2 analytically  !
 ! R13   R(11,13)                1.3435         calculate D2E/DX2 analytically  !
 ! R14   R(11,14)                1.3483         calculate D2E/DX2 analytically  !
 ! A1    A(2,1,9)              118.2527         calculate D2E/DX2 analytically  !
 ! A2    A(1,2,3)              120.9587         calculate D2E/DX2 analytically  !
 ! A3    A(1,2,4)              121.2254         calculate D2E/DX2 analytically  !
 ! A4    A(3,2,4)              117.8159         calculate D2E/DX2 analytically  !
 ! A5    A(2,4,5)              120.5464         calculate D2E/DX2 analytically  !
 ! A6    A(2,4,6)              119.1619         calculate D2E/DX2 analytically  !
 ! A7    A(5,4,6)              120.2913         calculate D2E/DX2 analytically  !
 ! A8    A(4,6,7)              120.9694         calculate D2E/DX2 analytically  !
 ! A9    A(4,6,11)             118.9095         calculate D2E/DX2 analytically  !
 ! A10   A(7,6,11)             120.0801         calculate D2E/DX2 analytically  !
 ! A11   A(6,7,8)              120.3713         calculate D2E/DX2 analytically  !
 ! A12   A(6,7,9)              119.1085         calculate D2E/DX2 analytically  !
 ! A13   A(8,7,9)              120.5194         calculate D2E/DX2 analytically  !
 ! A14   A(1,9,7)              121.2806         calculate D2E/DX2 analytically  !
 ! A15   A(1,9,10)             119.3676         calculate D2E/DX2 analytically  !
 ! A16   A(7,9,10)             119.3516         calculate D2E/DX2 analytically  !
 ! A17   A(6,11,12)            112.6741         calculate D2E/DX2 analytically  !
 ! A18   A(6,11,13)            112.2515         calculate D2E/DX2 analytically  !
 ! A19   A(6,11,14)            111.9041         calculate D2E/DX2 analytically  !
 ! A20   A(12,11,13)           106.9503         calculate D2E/DX2 analytically  !
 ! A21   A(12,11,14)           106.4378         calculate D2E/DX2 analytically  !
 ! A22   A(13,11,14)           106.1834         calculate D2E/DX2 analytically  !
 ! D1    D(9,1,2,3)            179.919          calculate D2E/DX2 analytically  !
 ! D2    D(9,1,2,4)             -0.1742         calculate D2E/DX2 analytically  !
 ! D3    D(2,1,9,7)              0.1823         calculate D2E/DX2 analytically  !
 ! D4    D(2,1,9,10)          -179.9827         calculate D2E/DX2 analytically  !
 ! D5    D(1,2,4,5)           -179.8815         calculate D2E/DX2 analytically  !
 ! D6    D(1,2,4,6)             -0.1141         calculate D2E/DX2 analytically  !
 ! D7    D(3,2,4,5)              0.0282         calculate D2E/DX2 analytically  !
 ! D8    D(3,2,4,6)            179.7956         calculate D2E/DX2 analytically  !
 ! D9    D(2,4,6,7)              0.4053         calculate D2E/DX2 analytically  !
 ! D10   D(2,4,6,11)           178.0776         calculate D2E/DX2 analytically  !
 ! D11   D(5,4,6,7)           -179.8268         calculate D2E/DX2 analytically  !
 ! D12   D(5,4,6,11)            -2.1544         calculate D2E/DX2 analytically  !
 ! D13   D(4,6,7,8)            179.9244         calculate D2E/DX2 analytically  !
 ! D14   D(4,6,7,9)             -0.3972         calculate D2E/DX2 analytically  !
 ! D15   D(11,6,7,8)             2.279          calculate D2E/DX2 analytically  !
 ! D16   D(11,6,7,9)          -178.0426         calculate D2E/DX2 analytically  !
 ! D17   D(4,6,11,12)          159.4913         calculate D2E/DX2 analytically  !
 ! D18   D(4,6,11,13)           38.6731         calculate D2E/DX2 analytically  !
 ! D19   D(4,6,11,14)          -80.6068         calculate D2E/DX2 analytically  !
 ! D20   D(7,6,11,12)          -22.8151         calculate D2E/DX2 analytically  !
 ! D21   D(7,6,11,13)         -143.6333         calculate D2E/DX2 analytically  !
 ! D22   D(7,6,11,14)           97.0868         calculate D2E/DX2 analytically  !
 ! D23   D(6,7,9,1)              0.0983         calculate D2E/DX2 analytically  !
 ! D24   D(6,7,9,10)          -179.7367         calculate D2E/DX2 analytically  !
 ! D25   D(8,7,9,1)            179.7762         calculate D2E/DX2 analytically  !
 ! D26   D(8,7,9,10)            -0.0588         calculate D2E/DX2 analytically  !
 --------------------------------------------------------------------------------
 Trust Radius=3.00D-01 FncErr=5.00D-06 GrdErr=5.00D-06 EigMax=2.50D+02 EigMin=1.00D-04
 Number of steps in this run=     72 maximum allowed number of steps=    100.
 GradGradGradGradGradGradGradGradGradGradGradGradGradGradGradGradGradGrad

                          Input orientation:                          
 ---------------------------------------------------------------------
 Center     Atomic      Atomic             Coordinates (Angstroms)
 Number     Number       Type             X           Y           Z
 ---------------------------------------------------------------------
      1          6           0        6.239710    6.999487    5.175141
      2          6           0        5.115823    6.172546    5.290418
      3          1           0        5.175770    5.216589    5.802111
      4          6           0        3.889050    6.546535    4.757437
      5          1           0        3.025579    5.898598    4.854747
      6          6           0        3.779491    7.768240    4.099415
      7          6           0        4.878873    8.608819    3.963319
      8          1           0        4.782939    9.557011    3.448248
      9          6           0        6.098905    8.218851    4.502518
     10          1           0        6.957433    8.872998    4.402467
     11          6           0        2.463552    8.146993    3.488217
     12          9           0        2.349345    9.467214    3.284139
     13          9           0        1.422392    7.777302    4.252596
     14          9           0        2.277587    7.558154    2.289626
 ---------------------------------------------------------------------
                    Distance matrix (angstroms):
                    1          2          3          4          5
     1  C    0.000000
     2  C    1.400086   0.000000
     3  H    2.168821   1.085945   0.000000
     4  C    2.430071   1.388852   2.125029   0.000000
     5  H    3.412513   2.152667   2.446621   1.083916   0.000000
     6  C    2.792999   2.398022   3.370414   1.391962   2.152782
     7  C    2.431119   2.784378   3.869952   2.421443   3.402152
     8  H    3.412517   3.867687   4.953206   3.402349   4.295409
     9  C    1.399677   2.403040   3.399220   2.782999   3.866907
    10  H    2.149929   3.387097   4.301471   3.866964   4.950867
    11  C    4.292068   3.765755   4.614921   2.490869   2.690457
    12  F    4.980011   4.746935   5.691808   3.615476   3.957161
    13  F    4.966149   4.158575   4.800635   2.802508   2.542110
    14  F    4.933227   4.356632   5.120541   3.116132   3.145388
                    6          7          8          9         10
     6  C    0.000000
     7  C    1.390588   0.000000
     8  H    2.151889   1.083314   0.000000
     9  C    2.396920   1.389708   2.152655   0.000000
    10  H    3.378113   2.140807   2.471200   1.083969   0.000000
    11  C    1.499571   2.504552   2.714646   3.774886   4.643049
    12  F    2.365693   2.756200   2.440773   4.135463   4.778936
    13  F    2.362089   3.566842   3.886852   4.703956   5.644439
    14  F    2.361184   3.266777   3.408023   4.464962   5.300365
                   11         12         13         14
    11  C    0.000000
    12  F    1.340774   0.000000
    13  F    1.343488   2.157071   0.000000
    14  F    1.348308   2.153768   2.152356   0.000000
 Symmetry turned off by external request.
 Stoichiometry    C7H4F3(2)
 Framework group  C1[X(C7H4F3)]
 Deg. of freedom    36
 Full point group                 C1      NOp   1
 Rotational constants (GHZ):           2.8611746           0.9763224           0.8335425
 Standard basis: 6-311+G(d,p) (5D, 7F)
   244 basis functions,   392 primitive gaussians,   254 cartesian basis functions
    37 alpha electrons       36 beta electrons
       nuclear repulsion energy       516.2293016477 Hartrees.
 NAtoms=   14 NActive=   14 NUniq=   14 SFac= 1.00D+00 NAtFMM=   60 NAOKFM=F Big=F
 Integral buffers will be    131072 words long.
 Raffenetti 2 integral format.
 Two-electron integral symmetry is turned off.
 Force inversion solution in PCM.
 ------------------------------------------------------------------------------
 Polarizable Continuum Model (PCM)
 =================================
 Model                : PCM.
 Atomic radii         : SMD-Coulomb.
 Polarization charges : Total charges.
 Charge compensation  : None.
 Solution method      : Matrix inversion.
 Cavity type          : VdW (van der Waals Surface) (Alpha=1.000).
 Cavity algorithm     : GePol (No added spheres)
                        Default sphere list used, NSphG=   14.
                        Lebedev-Laikov grids with approx.  5.0 points / Ang**2.
                        Smoothing algorithm: York/Karplus (Gamma=1.0000).
                        Polarization charges: spherical gaussians, with
                                              point-specific exponents (IZeta= 3).
                        Self-potential: point-specific (ISelfS= 7).
                        Self-field    : sphere-specific E.n sum rule (ISelfD= 2).
 1st derivatives      : Analytical E(r).r(x)/FMM algorithm (CHGder, D1EAlg=3).
                        Cavity 1st derivative terms included.
 2nd derivatives      : Analytical E(r).r(xy)/FMM algorithm (CHGder, D2EAlg=3).
                        Cavity 2nd derivative terms included.
 Solvent              : TetraHydroFuran, Eps=   7.425700 Eps(inf)=   1.974025
 ------------------------------------------------------------------------------
 Spheres list:
 ISph  on   Nord     Re0    Alpha      Xe            Ye            Ze
    1   C      1    1.8500  1.000      6.239710      6.999487      5.175141
    2   C      2    1.8500  1.000      5.115823      6.172546      5.290418
    3   H      3    1.2000  1.000      5.175770      5.216589      5.802111
    4   C      4    1.8500  1.000      3.889050      6.546535      4.757437
    5   H      5    1.2000  1.000      3.025579      5.898598      4.854747
    6   C      6    1.8500  1.000      3.779491      7.768240      4.099415
    7   C      7    1.8500  1.000      4.878873      8.608819      3.963319
    8   H      8    1.2000  1.000      4.782939      9.557011      3.448248
    9   C      9    1.8500  1.000      6.098905      8.218851      4.502518
   10   H     10    1.2000  1.000      6.957433      8.872998      4.402467
   11   C     11    1.8500  1.000      2.463552      8.146993      3.488217
   12   F     12    1.7300  1.000      2.349345      9.467214      3.284139
   13   F     13    1.7300  1.000      1.422392      7.777302      4.252596
   14   F     14    1.7300  1.000      2.277587      7.558154      2.289626
 ------------------------------------------------------------------------------
 ------------------------------------------------------------------------------
 Atomic radii for non-electrostatic terms: SMD-CDS.
 ------------------------------------------------------------------------------
 Nuclear repulsion after PCM non-electrostatic terms =      516.2283703496 Hartrees.
 One-electron integrals computed using PRISM.
 NBasis=   244 RedAO= T EigKep=  3.13D-06  NBF=   244
 NBsUse=   244 1.00D-06 EigRej= -1.00D+00 NBFU=   244
 ExpMin= 4.38D-02 ExpMax= 1.14D+04 ExpMxC= 1.72D+03 IAcc=3 IRadAn=         5 AccDes= 0.00D+00
 Harris functional with IExCor= 1009 and IRadAn=       5 diagonalized for initial guess.
 HarFok:  IExCor= 1009 AccDes= 0.00D+00 IRadAn=         5 IDoV= 1 UseB2=F ITyADJ=14
 ICtDFT=  3500011 ScaDFX=  1.000000  1.000000  1.000000  1.000000
 FoFCou: FMM=F IPFlag=           0 FMFlag=      100000 FMFlg1=           0
         NFxFlg=           0 DoJE=T BraDBF=F KetDBF=T FulRan=T
         wScrn=  0.000000 ICntrl=       500 IOpCl=  0 I1Cent=   200000004 NGrid=           0
         NMat0=    1 NMatS0=      1 NMatT0=    0 NMatD0=    1 NMtDS0=    0 NMtDT0=    0
 Symmetry not used in FoFCou.
 Initial guess <Sx>= 0.0000 <Sy>= 0.0000 <Sz>= 0.5000 <S**2>= 0.7500 S= 0.5000
 Requested convergence on RMS density matrix=1.00D-08 within 128 cycles.
 Requested convergence on MAX density matrix=1.00D-06.
 Requested convergence on             energy=1.00D-06.
 Level shift goal  0.100 maximum shift  0.100.
 No special actions if energy rises.
 Dynamic level shift is on during FON iterations.
 Inv3:  Mode=1 IEnd=     4575675.
 Iteration    1 A*A^-1 deviation from unit magnitude is 3.55D-15 for   1230.
 Iteration    1 A*A^-1 deviation from orthogonality  is 1.84D-15 for   1118    820.
 Iteration    1 A^-1*A deviation from unit magnitude is 3.77D-15 for   1230.
 Iteration    1 A^-1*A deviation from orthogonality  is 1.87D-15 for   1214    783.
 Error on total polarization charges =  0.02798
 SCF Done:  E(UM062X) =  -568.568181671     A.U. after   16 cycles
            NFock= 16  Conv=0.62D-08     -V/T= 2.0032
 <Sx>= 0.0000 <Sy>= 0.0000 <Sz>= 0.5000 <S**2>= 0.7641 S= 0.5070
 <L.S>=  0.00000000000    
 SMD-CDS (non-electrostatic) energy       (kcal/mol) =      -0.58
 (included in total energy above)
 Annihilation of the first spin contaminant:
 S**2 before annihilation     0.7641,   after     0.7501
 DoSCS=F DFT=T ScalE2(SS,OS)=  1.000000  1.000000
 Range of M.O.s used for correlation:     1   244
 NBasis=   244 NAE=    37 NBE=    36 NFC=     0 NFV=     0
 NROrb=    244 NOA=    37 NOB=    36 NVA=   207 NVB=   208

 **** Warning!!: The largest alpha MO coefficient is  0.14197421D+03


 **** Warning!!: The largest beta MO coefficient is  0.14683980D+03

 Symmetrizing basis deriv contribution to polar:
 IMax=3 JMax=2 DiffMx= 0.00D+00
 G2DrvN: will do    15 centers at a time, making    1 passes.
 Calling FoFCou, ICntrl=  3107 FMM=F I1Cent=   0 AccDes= 0.00D+00.
 NEqPCM:  Using equilibrium solvation (IEInf=0, Eps=   7.4257, EpsInf=   1.9740)
 G2PCM: DoFxE=T DoFxN=T DoGrad=T DoDP/DQ/DG/TGxP=FFFF NFrqRd=   0 IEInf=0 SqF1=F DoCFld=F IF1Alg=4.
 End of G2Drv F.D. properties file   721 does not exist.
 End of G2Drv F.D. properties file   722 does not exist.
 End of G2Drv F.D. properties file   788 does not exist.
          IDoAtm=11111111111111
 NEqPCM:  Using equilibrium solvation (IEInf=0, Eps=   7.4257, EpsInf=   1.9740)
          Differentiating once with respect to nuclear coordinates.
 Keep R1 and R2 ints in memory in canonical form, NReq=928064136.
          There are    45 degrees of freedom in the 1st order CPHF.  IDoFFX=6 NUNeed=     0.
     39 vectors produced by pass  0 Test12= 3.37D-14 2.22D-09 XBig12= 4.43D-01 1.87D-01.
 AX will form    39 AO Fock derivatives at one time.
     39 vectors produced by pass  1 Test12= 3.37D-14 2.22D-09 XBig12= 2.72D-02 5.47D-02.
     39 vectors produced by pass  2 Test12= 3.37D-14 2.22D-09 XBig12= 1.12D-03 6.92D-03.
     39 vectors produced by pass  3 Test12= 3.37D-14 2.22D-09 XBig12= 1.50D-05 1.38D-03.
     39 vectors produced by pass  4 Test12= 3.37D-14 2.22D-09 XBig12= 2.18D-07 1.16D-04.
     39 vectors produced by pass  5 Test12= 3.37D-14 2.22D-09 XBig12= 2.97D-09 9.50D-06.
     39 vectors produced by pass  6 Test12= 3.37D-14 2.22D-09 XBig12= 3.15D-11 6.69D-07.
     27 vectors produced by pass  7 Test12= 3.37D-14 2.22D-09 XBig12= 2.30D-13 4.05D-08.
      4 vectors produced by pass  8 Test12= 3.37D-14 2.22D-09 XBig12= 1.40D-15 3.31D-09.
 InvSVY:  IOpt=1 It=  1 EMax= 1.78D-15
 Solved reduced A of dimension   304 with    39 vectors.
 End of Minotr F.D. properties file   721 does not exist.
 End of Minotr F.D. properties file   722 does not exist.
 End of Minotr F.D. properties file   788 does not exist.

 **********************************************************************

            Population analysis using the SCF Density.

 **********************************************************************

 Alpha  occ. eigenvalues --  -25.28457 -25.28299 -25.27998 -10.80788 -10.59485
 Alpha  occ. eigenvalues --  -10.57843 -10.56977 -10.56940 -10.56534 -10.56511
 Alpha  occ. eigenvalues --   -1.47605  -1.38332  -1.37867  -0.99320  -0.89848
 Alpha  occ. eigenvalues --   -0.86803  -0.81288  -0.72706  -0.72304  -0.69947
 Alpha  occ. eigenvalues --   -0.68850  -0.66160  -0.58405  -0.58272  -0.56484
 Alpha  occ. eigenvalues --   -0.55024  -0.53972  -0.53606  -0.52949  -0.51969
 Alpha  occ. eigenvalues --   -0.50431  -0.46573  -0.46333  -0.42411  -0.33957
 Alpha  occ. eigenvalues --   -0.33884  -0.32902
 Alpha virt. eigenvalues --   -0.01309   0.00267   0.01699   0.03191   0.03624
 Alpha virt. eigenvalues --    0.04824   0.05367   0.05636   0.06874   0.08264
 Alpha virt. eigenvalues --    0.08287   0.08455   0.09279   0.11462   0.12493
 Alpha virt. eigenvalues --    0.13695   0.13899   0.14202   0.14745   0.15048
 Alpha virt. eigenvalues --    0.15275   0.17482   0.18626   0.18851   0.18924
 Alpha virt. eigenvalues --    0.19298   0.20547   0.21528   0.22334   0.23168
 Alpha virt. eigenvalues --    0.24319   0.24720   0.24828   0.25170   0.26033
 Alpha virt. eigenvalues --    0.27157   0.27539   0.28039   0.29024   0.29234
 Alpha virt. eigenvalues --    0.29900   0.33343   0.34638   0.34944   0.36493
 Alpha virt. eigenvalues --    0.37729   0.37904   0.38718   0.40456   0.41242
 Alpha virt. eigenvalues --    0.42394   0.45093   0.45445   0.47496   0.49570
 Alpha virt. eigenvalues --    0.50409   0.53016   0.53733   0.55556   0.56718
 Alpha virt. eigenvalues --    0.57946   0.60100   0.60566   0.61685   0.63989
 Alpha virt. eigenvalues --    0.64565   0.66239   0.66942   0.67836   0.68902
 Alpha virt. eigenvalues --    0.69437   0.72122   0.73259   0.75639   0.76192
 Alpha virt. eigenvalues --    0.78555   0.79986   0.83288   0.86650   0.87284
 Alpha virt. eigenvalues --    0.89039   0.91154   0.91358   0.92906   0.95700
 Alpha virt. eigenvalues --    1.02505   1.05070   1.05658   1.06544   1.07731
 Alpha virt. eigenvalues --    1.12146   1.14193   1.18076   1.21153   1.22466
 Alpha virt. eigenvalues --    1.36310   1.38348   1.41746   1.44195   1.45122
 Alpha virt. eigenvalues --    1.46423   1.48739   1.51258   1.51445   1.53069
 Alpha virt. eigenvalues --    1.53726   1.54558   1.55488   1.56433   1.58975
 Alpha virt. eigenvalues --    1.60091   1.60560   1.66672   1.67847   1.69617
 Alpha virt. eigenvalues --    1.72286   1.74870   1.75951   1.80332   1.80428
 Alpha virt. eigenvalues --    1.84752   1.87244   1.91437   1.92592   1.93606
 Alpha virt. eigenvalues --    1.95726   1.96372   1.98394   2.00713   2.04458
 Alpha virt. eigenvalues --    2.05803   2.08164   2.10297   2.10719   2.17094
 Alpha virt. eigenvalues --    2.22026   2.28712   2.31765   2.35954   2.41497
 Alpha virt. eigenvalues --    2.43932   2.48684   2.54255   2.62466   2.70054
 Alpha virt. eigenvalues --    2.70174   2.72350   2.73453   2.74206   2.77716
 Alpha virt. eigenvalues --    2.78259   2.83035   2.84080   2.91521   2.94894
 Alpha virt. eigenvalues --    2.95695   2.99087   3.00599   3.05723   3.11762
 Alpha virt. eigenvalues --    3.12913   3.20912   3.37819   3.43103   3.52672
 Alpha virt. eigenvalues --    3.54537   3.61191   3.75123   3.80465   3.83921
 Alpha virt. eigenvalues --    3.84541   3.85096   3.85737   3.87059   3.87882
 Alpha virt. eigenvalues --    4.00531   4.01024   4.03141   4.04593   4.16079
 Alpha virt. eigenvalues --    4.16695   4.22171   4.27264   4.29750   4.76387
 Alpha virt. eigenvalues --    4.81933   4.98198   5.00521   6.44526   6.47642
 Alpha virt. eigenvalues --    6.50560   6.51570   6.52623   6.55098   6.60946
 Alpha virt. eigenvalues --    6.86960   6.89067  23.54881  23.67514  23.95973
 Alpha virt. eigenvalues --   24.01251  24.10674  24.16091  24.22620  66.88826
 Alpha virt. eigenvalues --   66.90377  66.95369
  Beta  occ. eigenvalues --  -25.28458 -25.28302 -25.28004 -10.80782 -10.58404
  Beta  occ. eigenvalues --  -10.57880 -10.56902 -10.56864 -10.56529 -10.56507
  Beta  occ. eigenvalues --   -1.47612  -1.38338  -1.37882  -0.98792  -0.88922
  Beta  occ. eigenvalues --   -0.86451  -0.80577  -0.72042  -0.71591  -0.69973
  Beta  occ. eigenvalues --   -0.68607  -0.65861  -0.58324  -0.58245  -0.55051
  Beta  occ. eigenvalues --   -0.54619  -0.53935  -0.52997  -0.52508  -0.51965
  Beta  occ. eigenvalues --   -0.50050  -0.45829  -0.45457  -0.41825  -0.32982
  Beta  occ. eigenvalues --   -0.32407
  Beta virt. eigenvalues --   -0.07286  -0.00041   0.00224   0.01687   0.03235
  Beta virt. eigenvalues --    0.03799   0.04806   0.05355   0.06356   0.07038
  Beta virt. eigenvalues --    0.08149   0.08477   0.08941   0.09329   0.11724
  Beta virt. eigenvalues --    0.12525   0.13676   0.13792   0.13861   0.14920
  Beta virt. eigenvalues --    0.15297   0.15392   0.17486   0.18565   0.18918
  Beta virt. eigenvalues --    0.19175   0.19783   0.21021   0.21634   0.22125
  Beta virt. eigenvalues --    0.23123   0.23862   0.24783   0.24900   0.25795
  Beta virt. eigenvalues --    0.26283   0.27175   0.27586   0.27915   0.29198
  Beta virt. eigenvalues --    0.29288   0.29887   0.33417   0.35020   0.35851
  Beta virt. eigenvalues --    0.36522   0.37731   0.38023   0.39034   0.40495
  Beta virt. eigenvalues --    0.41280   0.42609   0.45050   0.45275   0.46992
  Beta virt. eigenvalues --    0.48119   0.49774   0.52725   0.53719   0.55746
  Beta virt. eigenvalues --    0.57083   0.57876   0.58399   0.60093   0.62055
  Beta virt. eigenvalues --    0.64031   0.64765   0.66189   0.66907   0.67978
  Beta virt. eigenvalues --    0.69070   0.70082   0.72150   0.72915   0.75685
  Beta virt. eigenvalues --    0.76530   0.78327   0.79801   0.83157   0.85941
  Beta virt. eigenvalues --    0.87346   0.88383   0.91387   0.92119   0.92877
  Beta virt. eigenvalues --    0.95247   1.02597   1.05175   1.05797   1.07024
  Beta virt. eigenvalues --    1.08035   1.12184   1.14463   1.18548   1.21213
  Beta virt. eigenvalues --    1.24220   1.36298   1.38269   1.41769   1.44178
  Beta virt. eigenvalues --    1.45153   1.46439   1.48895   1.51376   1.52893
  Beta virt. eigenvalues --    1.53266   1.53792   1.54798   1.56065   1.56500
  Beta virt. eigenvalues --    1.59333   1.60466   1.60869   1.67376   1.68102
  Beta virt. eigenvalues --    1.69718   1.72351   1.75372   1.76107   1.80398
  Beta virt. eigenvalues --    1.80872   1.84872   1.87405   1.91309   1.93457
  Beta virt. eigenvalues --    1.93903   1.96130   1.96692   1.98831   2.01197
  Beta virt. eigenvalues --    2.04551   2.06008   2.08201   2.10258   2.10753
  Beta virt. eigenvalues --    2.17084   2.22039   2.28889   2.32517   2.36234
  Beta virt. eigenvalues --    2.41964   2.44095   2.49197   2.54140   2.62581
  Beta virt. eigenvalues --    2.70374   2.70594   2.72487   2.73792   2.74362
  Beta virt. eigenvalues --    2.77854   2.78411   2.83351   2.83991   2.91775
  Beta virt. eigenvalues --    2.94860   2.95712   3.00332   3.00899   3.05768
  Beta virt. eigenvalues --    3.12014   3.13317   3.21427   3.38241   3.43321
  Beta virt. eigenvalues --    3.52845   3.54989   3.61730   3.75574   3.80461
  Beta virt. eigenvalues --    3.83924   3.84536   3.85187   3.85740   3.87057
  Beta virt. eigenvalues --    3.87896   4.00558   4.01017   4.03194   4.04588
  Beta virt. eigenvalues --    4.16041   4.17109   4.22166   4.27258   4.29746
  Beta virt. eigenvalues --    4.76311   4.82243   4.98194   5.00516   6.44515
  Beta virt. eigenvalues --    6.47633   6.50553   6.51563   6.52612   6.55091
  Beta virt. eigenvalues --    6.60932   6.86952   6.89059  23.54992  23.67650
  Beta virt. eigenvalues --   23.96558  24.01261  24.10939  24.16074  24.22688
  Beta virt. eigenvalues --   66.88829  66.90378  66.95371
          Condensed to atoms (all electrons):
               1          2          3          4          5          6
     1  C    5.875517   0.319421   0.017682   0.088229  -0.006352  -1.466420
     2  C    0.319421   8.360791   0.334699  -0.860750  -0.025416  -0.071143
     3  H    0.017682   0.334699   0.450865  -0.000834  -0.005175  -0.001148
     4  C    0.088229  -0.860750  -0.000834  18.799935   0.380730  -1.917553
     5  H   -0.006352  -0.025416  -0.005175   0.380730   0.431976  -0.031730
     6  C   -1.466420  -0.071143  -0.001148  -1.917553  -0.031730  15.172379
     7  C    0.514258  -1.727850   0.005243  -9.166107  -0.013099  -3.754755
     8  H   -0.008236  -0.007527   0.000037  -0.008129  -0.000110  -0.008610
     9  C    0.219463   0.817842  -0.021062  -1.227682  -0.008211  -0.246213
    10  H    0.018500  -0.025772  -0.000035   0.009963   0.000037  -0.000541
    11  C    0.132586  -0.769804   0.008719  -0.047221   0.059324  -1.583364
    12  F   -0.005126   0.024719   0.000012   0.043743   0.000470  -0.071231
    13  F   -0.009881   0.080364   0.000010  -0.164355   0.003293  -0.009704
    14  F   -0.014949  -0.000459   0.000013  -0.216778  -0.000494   0.291115
               7          8          9         10         11         12
     1  C    0.514258  -0.008236   0.219463   0.018500   0.132586  -0.005126
     2  C   -1.727850  -0.007527   0.817842  -0.025772  -0.769804   0.024719
     3  H    0.005243   0.000037  -0.021062  -0.000035   0.008719   0.000012
     4  C   -9.166107  -0.008129  -1.227682   0.009963  -0.047221   0.043743
     5  H   -0.013099  -0.000110  -0.008211   0.000037   0.059324   0.000470
     6  C   -3.754755  -0.008610  -0.246213  -0.000541  -1.583364  -0.071231
     7  C   20.298881   0.360500  -1.122226   0.004167   0.981399  -0.137659
     8  H    0.360500   0.431707  -0.018989  -0.004934   0.045277   0.005846
     9  C   -1.122226  -0.018989   8.055327   0.327588  -0.413857   0.087582
    10  H    0.004167  -0.004934   0.327588   0.450919   0.008990   0.000014
    11  C    0.981399   0.045277  -0.413857   0.008990   6.669420   0.215996
    12  F   -0.137659   0.005846   0.087582   0.000014   0.215996   9.041992
    13  F    0.013101   0.000443   0.028710   0.000015   0.223420  -0.023108
    14  F   -0.118898  -0.000089   0.006138   0.000020   0.220621  -0.042385
              13         14
     1  C   -0.009881  -0.014949
     2  C    0.080364  -0.000459
     3  H    0.000010   0.000013
     4  C   -0.164355  -0.216778
     5  H    0.003293  -0.000494
     6  C   -0.009704   0.291115
     7  C    0.013101  -0.118898
     8  H    0.000443  -0.000089
     9  C    0.028710   0.006138
    10  H    0.000015   0.000020
    11  C    0.223420   0.220621
    12  F   -0.023108  -0.042385
    13  F    9.022135  -0.047331
    14  F   -0.047331   9.004165
          Atomic-Atomic Spin Densities.
               1          2          3          4          5          6
     1  C    1.120853  -0.176303   0.008372   0.118712   0.002293  -0.149506
     2  C   -0.176303   0.227169  -0.006258  -0.207304  -0.007725   0.153213
     3  H    0.008372  -0.006258   0.022160   0.008920   0.000804  -0.014113
     4  C    0.118712  -0.207304   0.008920   0.364073   0.006388  -0.138278
     5  H    0.002293  -0.007725   0.000804   0.006388   0.002112  -0.001385
     6  C   -0.149506   0.153213  -0.014113  -0.138278  -0.001385   0.147503
     7  C    0.173541  -0.201849   0.008507   0.078099   0.002452  -0.200273
     8  H    0.002682  -0.001976   0.000008   0.001178   0.000016  -0.004430
     9  C   -0.170996   0.206632  -0.011068  -0.143688  -0.001837   0.170525
    10  H    0.009138  -0.010928   0.000123   0.006565   0.000008  -0.017597
    11  C   -0.075482   0.084920  -0.003027  -0.085778  -0.000840   0.016216
    12  F   -0.000938   0.001180  -0.000003  -0.001003   0.000032   0.001396
    13  F   -0.000738   0.001351  -0.000015  -0.002725   0.000094   0.001713
    14  F   -0.001031   0.002058  -0.000007  -0.002689   0.000004   0.005025
               7          8          9         10         11         12
     1  C    0.173541   0.002682  -0.170996   0.009138  -0.075482  -0.000938
     2  C   -0.201849  -0.001976   0.206632  -0.010928   0.084920   0.001180
     3  H    0.008507   0.000008  -0.011068   0.000123  -0.003027  -0.000003
     4  C    0.078099   0.001178  -0.143688   0.006565  -0.085778  -0.001003
     5  H    0.002452   0.000016  -0.001837   0.000008  -0.000840   0.000032
     6  C   -0.200273  -0.004430   0.170525  -0.017597   0.016216   0.001396
     7  C    0.508195   0.010116  -0.262343   0.011530  -0.112097  -0.003186
     8  H    0.010116   0.002108  -0.007306   0.000802  -0.000988   0.000168
     9  C   -0.262343  -0.007306   0.205617  -0.004934   0.083966   0.001682
    10  H    0.011530   0.000802  -0.004934   0.022511  -0.002918  -0.000016
    11  C   -0.112097  -0.000988   0.083966  -0.002918   0.083482   0.001296
    12  F   -0.003186   0.000168   0.001682  -0.000016   0.001296  -0.000669
    13  F   -0.000324   0.000024   0.000964  -0.000002   0.000769  -0.000315
    14  F   -0.003411   0.000023   0.001787  -0.000004   0.002412   0.000266
              13         14
     1  C   -0.000738  -0.001031
     2  C    0.001351   0.002058
     3  H   -0.000015  -0.000007
     4  C   -0.002725  -0.002689
     5  H    0.000094   0.000004
     6  C    0.001713   0.005025
     7  C   -0.000324  -0.003411
     8  H    0.000024   0.000023
     9  C    0.000964   0.001787
    10  H   -0.000002  -0.000004
    11  C    0.000769   0.002412
    12  F   -0.000315   0.000266
    13  F   -0.001773   0.000705
    14  F    0.000705  -0.005423
 Mulliken charges and spin densities:
               1          2
     1  C    0.325310   0.860596
     2  C   -0.449115   0.064181
     3  H    0.210974   0.014405
     4  C    0.286808   0.002469
     5  H    0.214756   0.002416
     6  C   -0.301080  -0.029995
     7  C   -0.136955   0.008956
     8  H    0.212814   0.002426
     9  C   -0.484409   0.069003
    10  H    0.211067   0.014278
    11  C    0.248494  -0.008069
    12  F   -0.140864  -0.000109
    13  F   -0.117110  -0.000272
    14  F   -0.080690  -0.000284
 Sum of Mulliken charges =   0.00000   1.00000
 Mulliken charges and spin densities with hydrogens summed into heavy atoms:
               1          2
     1  C    0.325310   0.860596
     2  C   -0.238142   0.078586
     4  C    0.501565   0.004885
     6  C   -0.301080  -0.029995
     7  C    0.075859   0.011382
     9  C   -0.273342   0.083281
    11  C    0.248494  -0.008069
    12  F   -0.140864  -0.000109
    13  F   -0.117110  -0.000272
    14  F   -0.080690  -0.000284
 APT charges:
               1
     1  C    1.134359
     2  C   -0.923926
     3  H   -0.124444
     4  C   -0.709113
     5  H   -0.803562
     6  C   -1.660060
     7  C    0.701462
     8  H    1.298355
     9  C   -0.981221
    10  H    1.936335
    11  C    0.600506
    12  F    0.477234
    13  F   -0.353625
    14  F   -0.592302
 Sum of APT charges =   0.00000
 APT charges with hydrogens summed into heavy atoms:
               1
     1  C    1.134359
     2  C   -1.048370
     4  C   -1.512674
     6  C   -1.660060
     7  C    1.999817
     9  C    0.955115
    11  C    0.600506
    12  F    0.477234
    13  F   -0.353625
    14  F   -0.592302
 Electronic spatial extent (au):  <R**2>=          24853.4338
 Charge=              0.0000 electrons
 Dipole moment (field-independent basis, Debye):
    X=              2.2614    Y=             -0.6117    Z=              1.0678  Tot=              2.5746
 Quadrupole moment (field-independent basis, Debye-Ang):
   XX=            -40.3319   YY=            -60.7209   ZZ=            -50.2039
   XY=             19.1173   XZ=             11.8632   YZ=              2.2268
 Traceless Quadrupole moment (field-independent basis, Debye-Ang):
   XX=             10.0870   YY=            -10.3020   ZZ=              0.2150
   XY=             19.1173   XZ=             11.8632   YZ=              2.2268
 Octapole moment (field-independent basis, Debye-Ang**2):
  XXX=           -565.3033  YYY=          -1302.8182  ZZZ=           -678.1345  XYY=            -35.5973
  XXY=           -282.7778  XXZ=           -161.9082  XZZ=           -171.2446  YZZ=           -428.5284
  YYZ=           -235.3154  XYZ=             81.7706
 Hexadecapole moment (field-independent basis, Debye-Ang**3):
 XXXX=          -5533.5507 YYYY=         -19996.7137 ZZZZ=          -6087.2033 XXXY=          -4043.4051
 XXXZ=          -2487.6240 YYYX=          -3146.2763 YYYZ=          -5315.1825 ZZZX=          -2740.1083
 ZZZY=          -5395.8218 XXYY=          -2921.8343 XXZZ=          -1768.5033 YYZZ=          -4556.4278
 XXYZ=          -1182.0969 YYXZ=           -281.9071 ZZXY=          -1419.0663
 N-N= 5.162283703496D+02 E-N=-2.371105286231D+03  KE= 5.667611861369D+02
  Exact polarizability:       0.000       0.000       0.000       0.000       0.000       0.000
 Approx polarizability:     110.744       5.220     103.204      10.218     -18.878      76.520
                          Isotropic Fermi Contact Couplings
        Atom                 a.u.       MegaHertz       Gauss      10(-4) cm-1
     1  C(13)              0.55527     624.22965     222.74066     208.22060
     2  C(13)              0.02343      26.33657       9.39754       8.78494
     3  H(1)               0.00931      41.59779      14.84312      13.87553
     4  C(13)              0.04100      46.09372      16.44739      15.37521
     5  H(1)               0.00170       7.61014       2.71549       2.53847
     6  C(13)             -0.01036     -11.64785      -4.15624      -3.88530
     7  C(13)              0.04005      45.02721      16.06683      15.01946
     8  H(1)               0.00171       7.63380       2.72393       2.54636
     9  C(13)              0.02306      25.92687       9.25135       8.64827
    10  H(1)               0.00951      42.50691      15.16752      14.17878
    11  C(13)              0.00440       4.94726       1.76530       1.65023
    12  F(19)             -0.00010      -0.42825      -0.15281      -0.14285
    13  F(19)             -0.00073      -3.07831      -1.09842      -1.02681
    14  F(19)             -0.00239     -10.05380      -3.58745      -3.35359
 --------------------------------------------------------
       Center         ----  Spin Dipole Couplings  ----
                      3XX-RR        3YY-RR        3ZZ-RR
 --------------------------------------------------------
     1   Atom        0.592554     -0.401018     -0.191536
     2   Atom        0.091226     -0.010613     -0.080612
     3   Atom        0.001974      0.008736     -0.010710
     4   Atom        0.035465     -0.030104     -0.005361
     5   Atom        0.006812     -0.001871     -0.004941
     6   Atom        0.027644      0.007458     -0.035102
     7   Atom        0.024069     -0.022537     -0.001532
     8   Atom       -0.003359      0.004739     -0.001380
     9   Atom       -0.000135      0.048870     -0.048735
    10   Atom       -0.010320      0.016980     -0.006661
    11   Atom        0.003425     -0.001553     -0.001872
    12   Atom        0.003388      0.000598     -0.003987
    13   Atom       -0.002714      0.001739      0.000975
    14   Atom       -0.003717      0.005941     -0.002224
 --------------------------------------------------------
                        XY            XZ            YZ
 --------------------------------------------------------
     1   Atom       -0.367930      0.457351     -0.082332
     2   Atom        0.056411      0.025334     -0.032908
     3   Atom        0.016598     -0.004469     -0.006561
     4   Atom       -0.019573      0.021729      0.006005
     5   Atom        0.005687      0.000369     -0.000112
     6   Atom        0.006261      0.021834     -0.032913
     7   Atom       -0.029230      0.023803     -0.000537
     8   Atom       -0.003264      0.002180     -0.005969
     9   Atom       -0.025377      0.042420     -0.087309
    10   Atom        0.006294     -0.002465     -0.013890
    11   Atom       -0.001092      0.002954     -0.001514
    12   Atom       -0.000215     -0.000190      0.000873
    13   Atom       -0.003634     -0.001625     -0.001630
    14   Atom       -0.000987     -0.008637     -0.000697
 --------------------------------------------------------


 ---------------------------------------------------------------------------------
              Anisotropic Spin Dipole Couplings in Principal Axis System
 ---------------------------------------------------------------------------------

       Atom             a.u.   MegaHertz   Gauss  10(-4) cm-1        Axes

              Baa    -0.5453   -73.172   -26.110   -24.408  0.4076  0.8519 -0.3287
     1 C(13)  Bbb    -0.3619   -48.562   -17.328   -16.199 -0.2403  0.4474  0.8615
              Bcc     0.9072   121.734    43.438    40.606  0.8810 -0.2721  0.3871
 
              Baa    -0.1047   -14.045    -5.012    -4.685 -0.2399  0.4457  0.8625
     2 C(13)  Bbb    -0.0121    -1.630    -0.582    -0.544 -0.3156  0.8044 -0.5034
              Bcc     0.1168    15.675     5.593     5.229  0.9181  0.3929  0.0523
 
              Baa    -0.0129    -6.862    -2.449    -2.289 -0.2382  0.4453  0.8631
     3 H(1)   Bbb    -0.0112    -5.992    -2.138    -1.999  0.7529 -0.4768  0.4537
              Bcc     0.0241    12.854     4.587     4.288  0.6135  0.7579 -0.2217
 
              Baa    -0.0400    -5.363    -1.914    -1.789  0.3299  0.8732 -0.3587
     4 C(13)  Bbb    -0.0081    -1.090    -0.389    -0.363 -0.2324  0.4434  0.8657
              Bcc     0.0481     6.453     2.302     2.152  0.9149 -0.2022  0.3493
 
              Baa    -0.0051    -2.726    -0.973    -0.909 -0.2483  0.4653  0.8496
     5 H(1)   Bbb    -0.0045    -2.412    -0.861    -0.805 -0.3674  0.7663 -0.5270
              Bcc     0.0096     5.139     1.834     1.714  0.8963  0.4430  0.0193
 
              Baa    -0.0587    -7.880    -2.812    -2.629 -0.2494  0.4500  0.8575
     6 C(13)  Bbb     0.0231     3.106     1.108     1.036  0.4081  0.8518 -0.3284
              Bcc     0.0356     4.775     1.704     1.593  0.8782 -0.2680  0.3961
 
              Baa    -0.0396    -5.319    -1.898    -1.774  0.4869  0.8230 -0.2925
     7 C(13)  Bbb    -0.0082    -1.106    -0.395    -0.369 -0.2337  0.4455  0.8643
              Bcc     0.0479     6.426     2.293     2.143  0.8416 -0.3525  0.4092
 
              Baa    -0.0051    -2.706    -0.965    -0.903 -0.2663  0.4348  0.8603
     8 H(1)   Bbb    -0.0045    -2.403    -0.858    -0.802  0.9192  0.3833  0.0909
              Bcc     0.0096     5.109     1.823     1.704 -0.2902  0.8149 -0.5017
 
              Baa    -0.1058   -14.197    -5.066    -4.736 -0.2386  0.4474  0.8619
     9 C(13)  Bbb    -0.0108    -1.445    -0.516    -0.482  0.9039  0.4267  0.0287
              Bcc     0.1166    15.642     5.581     5.217 -0.3549  0.7860 -0.5062
 
              Baa    -0.0132    -7.032    -2.509    -2.345 -0.2416  0.4471  0.8613
    10 H(1)   Bbb    -0.0115    -6.146    -2.193    -2.050  0.9517 -0.0639  0.3001
              Bcc     0.0247    13.178     4.702     4.396  0.1892  0.8922 -0.4101
 
              Baa    -0.0037    -0.493    -0.176    -0.165 -0.2808  0.4573  0.8438
    11 C(13)  Bbb    -0.0015    -0.196    -0.070    -0.066  0.3930  0.8569 -0.3336
              Bcc     0.0051     0.690     0.246     0.230  0.8756 -0.2379  0.4203
 
              Baa    -0.0042    -2.084    -0.744    -0.695  0.0196 -0.1799  0.9835
    12 F(19)  Bbb     0.0007     0.370     0.132     0.123  0.0921  0.9798  0.1774
              Bcc     0.0034     1.715     0.612     0.572  0.9956 -0.0871 -0.0358
 
              Baa    -0.0055    -2.768    -0.988    -0.923  0.8141  0.4812  0.3250
    13 F(19)  Bbb     0.0016     0.790     0.282     0.263 -0.4056  0.0707  0.9113
              Bcc     0.0039     1.978     0.706     0.660 -0.4156  0.8737 -0.2527
 
              Baa    -0.0117    -5.887    -2.101    -1.964  0.7356  0.0677  0.6740
    14 F(19)  Bbb     0.0056     2.832     1.010     0.945 -0.6093 -0.3687  0.7020
              Bcc     0.0061     3.055     1.090     1.019 -0.2960  0.9271  0.2300
 

 ---------------------------------------------------------------------------------

 D2PCM: PCM CHGder 2nd derivatives, FixD1E=F FixD2E=F DoIter=F DoCFld=F I1PDM=0
 Calling FoFJK, ICntrl=    100127 FMM=F ISym2X=0 I1Cent= 0 IOpClX= 1 NMat=1 NMatS=1 NMatT=0.
 -------------------------------------------------------------------
 Center     Atomic                   Forces (Hartrees/Bohr)
 Number     Number              X              Y              Z
 -------------------------------------------------------------------
      1        6          -0.046418614    0.013605318   -0.020260195
      2        6           0.021134955   -0.010508655    0.011314509
      3        1           0.001463194    0.000454204    0.000243974
      4        6           0.001127626    0.006656787   -0.003162108
      5        1           0.000994019   -0.000903276    0.000736585
      6        6          -0.001187294    0.000598361   -0.000417035
      7        6          -0.004336924   -0.004380867    0.001063967
      8        1           0.001493912    0.000109965    0.000351405
      9        6           0.025158141   -0.007371945    0.010994913
     10        1           0.000020589    0.001806812   -0.000873212
     11        6           0.000540453   -0.000258907    0.000171214
     12        9           0.000096413    0.000140060   -0.000050577
     13        9           0.000091629   -0.000029412   -0.000049854
     14        9          -0.000178101    0.000081554   -0.000063585
 -------------------------------------------------------------------
 Cartesian Forces:  Max     0.046418614 RMS     0.010179169
 FormGI is forming the generalized inverse of G from B-inverse, IUseBI=4.

 GradGradGradGradGradGradGradGradGradGradGradGradGradGradGradGradGradGrad
 Berny optimization.
 Internal  Forces:  Max     0.028967190 RMS     0.006007128
 Search for a local minimum.
 Step number   1 out of a maximum of   72
 All quantities printed in internal units (Hartrees-Bohrs-Radians)
 Mixed Optimization -- RFO/linear search
 Second derivative matrix not updated -- analytic derivatives used.
 ITU=  0
     Eigenvalues ---    0.00098   0.01545   0.01830   0.01899   0.02094
     Eigenvalues ---    0.02688   0.02697   0.03084   0.03316   0.10893
     Eigenvalues ---    0.11226   0.11679   0.12229   0.12456   0.13191
     Eigenvalues ---    0.16831   0.18858   0.20369   0.20667   0.24525
     Eigenvalues ---    0.25361   0.25937   0.27467   0.35766   0.36171
     Eigenvalues ---    0.36229   0.36585   0.36663   0.37626   0.38787
     Eigenvalues ---    0.41859   0.42554   0.46847   0.48127   0.51829
     Eigenvalues ---    0.55358
 RFO step:  Lambda=-9.07208770D-03 EMin= 9.83651560D-04
 Linear search not attempted -- first point.
 Iteration  1 RMS(Cart)=  0.02464319 RMS(Int)=  0.00106700
 Iteration  2 RMS(Cart)=  0.00154882 RMS(Int)=  0.00037197
 Iteration  3 RMS(Cart)=  0.00000059 RMS(Int)=  0.00037197
 Variable       Old X    -DE/DX   Delta X   Delta X   Delta X     New X
                                 (Linear)    (Quad)   (Total)
    R1        2.64578  -0.01892   0.00000  -0.05126  -0.05065   2.59513
    R2        2.64501  -0.01867   0.00000  -0.05280  -0.05220   2.59281
    R3        2.05214  -0.00021   0.00000  -0.00436  -0.00436   2.04778
    R4        2.62455   0.00124   0.00000   0.00958   0.00958   2.63413
    R5        2.04830  -0.00019   0.00000   0.00065   0.00065   2.04895
    R6        2.63043   0.00305   0.00000   0.00402   0.00343   2.63385
    R7        2.62783   0.00257   0.00000   0.00292   0.00232   2.63015
    R8        2.83378  -0.00050   0.00000  -0.00129  -0.00129   2.83249
    R9        2.04717  -0.00020   0.00000   0.00043   0.00043   2.04760
   R10        2.62617   0.00094   0.00000   0.01099   0.01098   2.63715
   R11        2.04840   0.00119   0.00000  -0.00058  -0.00058   2.04783
   R12        2.53370   0.00013   0.00000   0.00071   0.00071   2.53441
   R13        2.53882  -0.00009   0.00000   0.00029   0.00029   2.53912
   R14        2.54793   0.00005   0.00000   0.00073   0.00073   2.54866
    A1        2.06390   0.02897   0.00000   0.12623   0.12781   2.19171
    A2        2.11113   0.00586   0.00000   0.02486   0.02460   2.13573
    A3        2.11578  -0.01490   0.00000  -0.07487  -0.07434   2.04144
    A4        2.05627   0.00904   0.00000   0.05000   0.04974   2.10602
    A5        2.10393  -0.00155   0.00000  -0.00676  -0.00642   2.09751
    A6        2.07977  -0.00004   0.00000   0.00584   0.00517   2.08494
    A7        2.09948   0.00159   0.00000   0.00092   0.00125   2.10073
    A8        2.11131   0.00074   0.00000   0.01190   0.01063   2.12195
    A9        2.07536  -0.00013   0.00000  -0.00565  -0.00502   2.07034
   A10        2.09579  -0.00061   0.00000  -0.00626  -0.00563   2.09017
   A11        2.10088   0.00167   0.00000   0.00180   0.00215   2.10302
   A12        2.07884  -0.00023   0.00000   0.00540   0.00471   2.08354
   A13        2.10346  -0.00143   0.00000  -0.00720  -0.00686   2.09660
   A14        2.11675  -0.01453   0.00000  -0.07449  -0.07398   2.04277
   A15        2.08336   0.00894   0.00000   0.04947   0.04921   2.13257
   A16        2.08308   0.00559   0.00000   0.02502   0.02477   2.10784
   A17        1.96653  -0.00018   0.00000  -0.00010  -0.00010   1.96644
   A18        1.95916  -0.00010   0.00000   0.00039   0.00039   1.95955
   A19        1.95309   0.00037   0.00000   0.00236   0.00236   1.95546
   A20        1.86663   0.00013   0.00000  -0.00044  -0.00044   1.86620
   A21        1.85769  -0.00011   0.00000  -0.00124  -0.00124   1.85645
   A22        1.85325  -0.00012   0.00000  -0.00122  -0.00122   1.85203
    D1        3.14018   0.00006   0.00000   0.00258   0.00264  -3.14037
    D2       -0.00304   0.00005   0.00000   0.00190   0.00194  -0.00110
    D3        0.00318  -0.00006   0.00000  -0.00247  -0.00250   0.00068
    D4       -3.14129  -0.00003   0.00000  -0.00170  -0.00177   3.14012
    D5       -3.13952  -0.00003   0.00000  -0.00035  -0.00030  -3.13983
    D6       -0.00199  -0.00003   0.00000  -0.00079  -0.00071  -0.00270
    D7        0.00049  -0.00004   0.00000  -0.00103  -0.00101  -0.00052
    D8        3.13802  -0.00005   0.00000  -0.00146  -0.00141   3.13661
    D9        0.00707  -0.00003   0.00000  -0.00009  -0.00008   0.00700
   D10        3.10804  -0.00002   0.00000  -0.00067  -0.00068   3.10736
   D11       -3.13857  -0.00005   0.00000  -0.00054  -0.00050  -3.13907
   D12       -0.03760  -0.00004   0.00000  -0.00112  -0.00110  -0.03870
   D13        3.14027   0.00004   0.00000  -0.00003  -0.00009   3.14018
   D14       -0.00693   0.00001   0.00000  -0.00045  -0.00049  -0.00742
   D15        0.03978   0.00002   0.00000   0.00054   0.00050   0.04028
   D16       -3.10743   0.00000   0.00000   0.00012   0.00011  -3.10732
   D17        2.78365  -0.00002   0.00000   0.00110   0.00113   2.78478
   D18        0.67497   0.00002   0.00000   0.00146   0.00148   0.67646
   D19       -1.40685  -0.00002   0.00000   0.00111   0.00114  -1.40571
   D20       -0.39820   0.00002   0.00000   0.00095   0.00092  -0.39728
   D21       -2.50687   0.00005   0.00000   0.00131   0.00128  -2.50559
   D22        1.69449   0.00002   0.00000   0.00096   0.00094   1.69542
   D23        0.00172   0.00007   0.00000   0.00190   0.00181   0.00352
   D24       -3.13700   0.00004   0.00000   0.00109   0.00105  -3.13595
   D25        3.13769   0.00006   0.00000   0.00151   0.00144   3.13913
   D26       -0.00103   0.00002   0.00000   0.00070   0.00068  -0.00035
         Item               Value     Threshold  Converged?
 Maximum Force            0.028967     0.000015     NO 
 RMS     Force            0.006007     0.000010     NO 
 Maximum Displacement     0.144462     0.000060     NO 
 RMS     Displacement     0.024516     0.000040     NO 
 Predicted change in Energy=-4.714528D-03
 GradGradGradGradGradGradGradGradGradGradGradGradGradGradGradGradGradGrad

                          Input orientation:                          
 ---------------------------------------------------------------------
 Center     Atomic      Atomic             Coordinates (Angstroms)
 Number     Number       Type             X           Y           Z
 ---------------------------------------------------------------------
      1          6           0        6.163264    7.019433    5.141812
      2          6           0        5.110027    6.152241    5.298560
      3          1           0        5.209819    5.206127    5.817385
      4          6           0        3.885158    6.541357    4.758837
      5          1           0        3.018304    5.897040    4.853904
      6          6           0        3.783798    7.766347    4.101770
      7          6           0        4.880671    8.611710    3.962558
      8          1           0        4.782310    9.559737    3.447164
      9          6           0        6.110979    8.231010    4.500032
     10          1           0        6.978456    8.874113    4.409324
     11          6           0        2.469339    8.146250    3.489771
     12          9           0        2.357051    9.466882    3.284808
     13          9           0        1.426779    7.778916    4.253649
     14          9           0        2.280494    7.558175    2.290824
 ---------------------------------------------------------------------
                    Distance matrix (angstroms):
                    1          2          3          4          5
     1  C    0.000000
     2  C    1.373281   0.000000
     3  H    2.157205   1.083637   0.000000
     4  C    2.359024   1.393922   2.158261   0.000000
     5  H    3.351631   2.153637   2.491665   1.084260   0.000000
     6  C    2.702116   2.407598   3.395821   1.393775   2.155457
     7  C    2.360303   2.808291   3.891879   2.431351   3.410622
     8  H    3.351419   3.891799   4.975403   3.411155   4.301858
     9  C    1.372054   2.441482   3.420150   2.806454   3.890666
    10  H    2.154278   3.419116   4.308692   3.890038   4.974275
    11  C    4.200481   3.771078   4.644604   2.488122   2.687223
    12  F    4.891393   4.756146   5.718939   3.614770   3.955134
    13  F    4.878518   4.159835   4.834863   2.798284   2.536674
    14  F    4.847090   4.362269   5.152641   3.114475   3.142151
                    6          7          8          9         10
     6  C    0.000000
     7  C    1.391815   0.000000
     8  H    2.154480   1.083541   0.000000
     9  C    2.406304   1.395518   2.153929   0.000000
    10  H    3.395228   2.160823   2.493770   1.083662   0.000000
    11  C    1.498890   2.500940   2.711014   3.780127   4.659130
    12  F    2.365344   2.749422   2.432460   4.134746   4.793046
    13  F    2.361940   3.564779   3.883468   4.712412   5.660813
    14  F    2.362792   3.265816   3.406238   4.472799   5.318889
                   11         12         13         14
    11  C    0.000000
    12  F    1.341151   0.000000
    13  F    1.343642   2.157147   0.000000
    14  F    1.348692   2.153376   2.151799   0.000000
 Symmetry turned off by external request.
 Stoichiometry    C7H4F3(2)
 Framework group  C1[X(C7H4F3)]
 Deg. of freedom    36
 Full point group                 C1      NOp   1
 Rotational constants (GHZ):           2.8379641           0.9884500           0.8402730
 Standard basis: 6-311+G(d,p) (5D, 7F)
   244 basis functions,   392 primitive gaussians,   254 cartesian basis functions
    37 alpha electrons       36 beta electrons
       nuclear repulsion energy       517.3453894041 Hartrees.
 NAtoms=   14 NActive=   14 NUniq=   14 SFac= 1.00D+00 NAtFMM=   60 NAOKFM=F Big=F
 Integral buffers will be    131072 words long.
 Raffenetti 2 integral format.
 Two-electron integral symmetry is turned off.
 ------------------------------------------------------------------------------
 Polarizable Continuum Model (PCM)
 =================================
 Model                : PCM.
 Atomic radii         : SMD-Coulomb.
 Polarization charges : Total charges.
 Charge compensation  : None.
 Solution method      : Matrix inversion.
 Cavity type          : VdW (van der Waals Surface) (Alpha=1.000).
 Cavity algorithm     : GePol (No added spheres)
                        Default sphere list used, NSphG=   14.
                        Lebedev-Laikov grids with approx.  5.0 points / Ang**2.
                        Smoothing algorithm: York/Karplus (Gamma=1.0000).
                        Polarization charges: spherical gaussians, with
                                              point-specific exponents (IZeta= 3).
                        Self-potential: point-specific (ISelfS= 7).
                        Self-field    : sphere-specific E.n sum rule (ISelfD= 2).
 1st derivatives      : Analytical E(r).r(x)/FMM algorithm (CHGder, D1EAlg=3).
                        Cavity 1st derivative terms included.
 Solvent              : TetraHydroFuran, Eps=   7.425700 Eps(inf)=   1.974025
 ------------------------------------------------------------------------------
 Spheres list:
 ISph  on   Nord     Re0    Alpha      Xe            Ye            Ze
    1   C      1    1.8500  1.000      6.163264      7.019433      5.141812
    2   C      2    1.8500  1.000      5.110027      6.152241      5.298560
    3   H      3    1.2000  1.000      5.209819      5.206127      5.817385
    4   C      4    1.8500  1.000      3.885158      6.541357      4.758837
    5   H      5    1.2000  1.000      3.018304      5.897040      4.853904
    6   C      6    1.8500  1.000      3.783798      7.766347      4.101770
    7   C      7    1.8500  1.000      4.880671      8.611710      3.962558
    8   H      8    1.2000  1.000      4.782310      9.559737      3.447164
    9   C      9    1.8500  1.000      6.110979      8.231010      4.500032
   10   H     10    1.2000  1.000      6.978456      8.874113      4.409324
   11   C     11    1.8500  1.000      2.469339      8.146250      3.489771
   12   F     12    1.7300  1.000      2.357051      9.466882      3.284808
   13   F     13    1.7300  1.000      1.426779      7.778916      4.253649
   14   F     14    1.7300  1.000      2.280494      7.558175      2.290824
 ------------------------------------------------------------------------------
 ------------------------------------------------------------------------------
 Atomic radii for non-electrostatic terms: SMD-CDS.
 ------------------------------------------------------------------------------
 Nuclear repulsion after PCM non-electrostatic terms =      517.3443853598 Hartrees.
 One-electron integrals computed using PRISM.
 NBasis=   244 RedAO= T EigKep=  3.03D-06  NBF=   244
 NBsUse=   244 1.00D-06 EigRej= -1.00D+00 NBFU=   244
 Initial guess from the checkpoint file:  "4-cf3-ph-opt-freq-thf-2.chk"
 B after Tr=    -0.016649    0.007694   -0.004265
         Rot=    1.000000   -0.000001    0.000133    0.000468 Ang=  -0.06 deg.
 Initial guess <Sx>= 0.0000 <Sy>= 0.0000 <Sz>= 0.5000 <S**2>= 0.7637 S= 0.5068
 ExpMin= 4.38D-02 ExpMax= 1.14D+04 ExpMxC= 1.72D+03 IAcc=3 IRadAn=         5 AccDes= 0.00D+00
 Harris functional with IExCor= 1009 and IRadAn=       5 diagonalized for initial guess.
 HarFok:  IExCor= 1009 AccDes= 0.00D+00 IRadAn=         5 IDoV= 1 UseB2=F ITyADJ=14
 ICtDFT=  3500011 ScaDFX=  1.000000  1.000000  1.000000  1.000000
 FoFCou: FMM=F IPFlag=           0 FMFlag=      100000 FMFlg1=           0
         NFxFlg=           0 DoJE=T BraDBF=F KetDBF=T FulRan=T
         wScrn=  0.000000 ICntrl=       500 IOpCl=  0 I1Cent=   200000004 NGrid=           0
         NMat0=    1 NMatS0=      1 NMatT0=    0 NMatD0=    1 NMtDS0=    0 NMtDT0=    0
 Symmetry not used in FoFCou.
 Requested convergence on RMS density matrix=1.00D-08 within 128 cycles.
 Requested convergence on MAX density matrix=1.00D-06.
 Requested convergence on             energy=1.00D-06.
 Level shift goal  0.100 maximum shift  0.100.
 No special actions if energy rises.
 Dynamic level shift is on during FON iterations.
 Inv3:  Mode=1 IEnd=     4597932.
 Iteration    1 A*A^-1 deviation from unit magnitude is 6.44D-15 for   1233.
 Iteration    1 A*A^-1 deviation from orthogonality  is 2.53D-15 for   1210    843.
 Iteration    1 A^-1*A deviation from unit magnitude is 6.22D-15 for   1233.
 Iteration    1 A^-1*A deviation from orthogonality  is 1.76D-15 for   1220   1199.
 Error on total polarization charges =  0.02792
 SCF Done:  E(UM062X) =  -568.572896247     A.U. after   14 cycles
            NFock= 14  Conv=0.97D-08     -V/T= 2.0030
 <Sx>= 0.0000 <Sy>= 0.0000 <Sz>= 0.5000 <S**2>= 0.7624 S= 0.5062
 <L.S>=  0.00000000000    
 SMD-CDS (non-electrostatic) energy       (kcal/mol) =      -0.63
 (included in total energy above)
 Annihilation of the first spin contaminant:
 S**2 before annihilation     0.7624,   after     0.7501
 D1PCM: PCM CHGder 1st derivatives, ID1Alg=3 FixD1E=F DoIter=F DoCFld=F I1PDM=0.
 Calling FoFJK, ICntrl=      2127 FMM=F ISym2X=0 I1Cent= 0 IOpClX= 1 NMat=1 NMatS=1 NMatT=0.
 -------------------------------------------------------------------
 Center     Atomic                   Forces (Hartrees/Bohr)
 Number     Number              X              Y              Z
 -------------------------------------------------------------------
      1        6          -0.001149980    0.000259325   -0.000501088
      2        6           0.000257096   -0.002070594    0.001135722
      3        1           0.000063932   -0.000116122    0.000071701
      4        6          -0.000528327    0.000081346   -0.000232827
      5        1          -0.000045377   -0.000044912   -0.000004792
      6        6          -0.000417112    0.000162685   -0.000140407
      7        6          -0.000440356    0.000323787   -0.000280432
      8        1           0.000024669    0.000052421   -0.000012346
      9        6           0.002215860    0.001044300    0.000077707
     10        1          -0.000045956    0.000296545   -0.000131801
     11        6           0.000059623   -0.000025542    0.000009797
     12        9           0.000010856    0.000014110    0.000005824
     13        9           0.000003711    0.000007969    0.000004259
     14        9          -0.000008637    0.000014682   -0.000001317
 -------------------------------------------------------------------
 Cartesian Forces:  Max     0.002215860 RMS     0.000584951

 GradGradGradGradGradGradGradGradGradGradGradGradGradGradGradGradGradGrad
 Berny optimization.
 Using GEDIIS/GDIIS optimizer.
 FormGI is forming the generalized inverse of G from B-inverse, IUseBI=4.
 Internal  Forces:  Max     0.001506252 RMS     0.000418196
 Search for a local minimum.
 Step number   2 out of a maximum of   72
 All quantities printed in internal units (Hartrees-Bohrs-Radians)
 Mixed Optimization -- En-DIIS/RFO-DIIS
 Update second derivatives using D2CorX and points    1    2
 DE= -4.71D-03 DEPred=-4.71D-03 R= 1.00D+00
 TightC=F SS=  1.41D+00  RLast= 1.98D-01 DXNew= 5.0454D-01 5.9516D-01
 Trust test= 1.00D+00 RLast= 1.98D-01 DXMaxT set to 5.05D-01
 ITU=  1  0
 Use linear search instead of GDIIS.
     Eigenvalues ---    0.00098   0.01545   0.01830   0.01897   0.02094
     Eigenvalues ---    0.02688   0.02695   0.03080   0.03313   0.10887
     Eigenvalues ---    0.11225   0.11677   0.12229   0.12456   0.13191
     Eigenvalues ---    0.16830   0.18738   0.20226   0.20400   0.24523
     Eigenvalues ---    0.25357   0.25933   0.27467   0.35782   0.36198
     Eigenvalues ---    0.36229   0.36589   0.36665   0.37626   0.39163
     Eigenvalues ---    0.41857   0.42947   0.46844   0.48121   0.52147
     Eigenvalues ---    0.55358
 RFO step:  Lambda=-2.52193372D-05 EMin= 9.83652882D-04
 Quartic linear search produced a step of  0.04166.
 Iteration  1 RMS(Cart)=  0.00487052 RMS(Int)=  0.00002305
 Iteration  2 RMS(Cart)=  0.00001700 RMS(Int)=  0.00001664
 Iteration  3 RMS(Cart)=  0.00000000 RMS(Int)=  0.00001664
 Variable       Old X    -DE/DX   Delta X   Delta X   Delta X     New X
                                 (Linear)    (Quad)   (Total)
    R1        2.59513   0.00101  -0.00211   0.00419   0.00210   2.59723
    R2        2.59281   0.00102  -0.00217   0.00377   0.00162   2.59443
    R3        2.04778   0.00014  -0.00018   0.00018  -0.00001   2.04777
    R4        2.63413   0.00080   0.00040   0.00132   0.00172   2.63585
    R5        2.04895   0.00006   0.00003   0.00024   0.00027   2.04922
    R6        2.63385   0.00080   0.00014   0.00122   0.00134   2.63519
    R7        2.63015   0.00080   0.00010   0.00094   0.00101   2.63116
    R8        2.83249  -0.00006  -0.00005  -0.00007  -0.00012   2.83237
    R9        2.04760   0.00005   0.00002   0.00016   0.00018   2.04778
   R10        2.63715   0.00080   0.00046   0.00182   0.00227   2.63942
   R11        2.04783   0.00015  -0.00002   0.00004   0.00002   2.04784
   R12        2.53441   0.00000   0.00003  -0.00013  -0.00010   2.53431
   R13        2.53912   0.00000   0.00001   0.00021   0.00022   2.53933
   R14        2.54866   0.00000   0.00003   0.00000   0.00003   2.54869
    A1        2.19171   0.00151   0.00532   0.00215   0.00754   2.19925
    A2        2.13573   0.00046   0.00102   0.00036   0.00137   2.13710
    A3        2.04144  -0.00105  -0.00310  -0.00212  -0.00519   2.03625
    A4        2.10602   0.00059   0.00207   0.00176   0.00382   2.10984
    A5        2.09751  -0.00005  -0.00027   0.00041   0.00016   2.09767
    A6        2.08494   0.00008   0.00022   0.00038   0.00057   2.08551
    A7        2.10073  -0.00003   0.00005  -0.00080  -0.00073   2.10000
    A8        2.12195   0.00045   0.00044   0.00139   0.00178   2.12373
    A9        2.07034  -0.00024  -0.00021  -0.00150  -0.00169   2.06865
   A10        2.09017  -0.00021  -0.00023   0.00012  -0.00009   2.09008
   A11        2.10302  -0.00002   0.00009  -0.00058  -0.00048   2.10255
   A12        2.08354   0.00009   0.00020   0.00047   0.00064   2.08418
   A13        2.09660  -0.00007  -0.00029   0.00011  -0.00016   2.09644
   A14        2.04277  -0.00107  -0.00308  -0.00228  -0.00534   2.03742
   A15        2.13257   0.00084   0.00205   0.00270   0.00474   2.13731
   A16        2.10784   0.00023   0.00103  -0.00042   0.00060   2.10845
   A17        1.96644  -0.00001   0.00000   0.00030   0.00029   1.96673
   A18        1.95955  -0.00001   0.00002  -0.00023  -0.00021   1.95933
   A19        1.95546   0.00002   0.00010   0.00009   0.00019   1.95564
   A20        1.86620   0.00001  -0.00002  -0.00009  -0.00011   1.86609
   A21        1.85645   0.00000  -0.00005   0.00012   0.00007   1.85652
   A22        1.85203   0.00000  -0.00005  -0.00021  -0.00026   1.85177
    D1       -3.14037   0.00001   0.00011   0.00041   0.00053  -3.13984
    D2       -0.00110   0.00001   0.00008   0.00027   0.00036  -0.00074
    D3        0.00068  -0.00001  -0.00010  -0.00026  -0.00037   0.00031
    D4        3.14012  -0.00001  -0.00007  -0.00055  -0.00063   3.13949
    D5       -3.13983   0.00000  -0.00001   0.00002   0.00001  -3.13982
    D6       -0.00270   0.00000  -0.00003  -0.00021  -0.00023  -0.00293
    D7       -0.00052  -0.00001  -0.00004  -0.00012  -0.00016  -0.00068
    D8        3.13661  -0.00001  -0.00006  -0.00034  -0.00040   3.13621
    D9        0.00700   0.00000   0.00000   0.00016   0.00016   0.00715
   D10        3.10736   0.00000  -0.00003   0.00038   0.00035   3.10771
   D11       -3.13907   0.00000  -0.00002  -0.00006  -0.00008  -3.13915
   D12       -0.03870  -0.00001  -0.00005   0.00016   0.00012  -0.03859
   D13        3.14018   0.00000   0.00000  -0.00019  -0.00019   3.13999
   D14       -0.00742  -0.00001  -0.00002  -0.00015  -0.00017  -0.00759
   D15        0.04028   0.00001   0.00002  -0.00037  -0.00035   0.03993
   D16       -3.10732   0.00000   0.00000  -0.00034  -0.00033  -3.10766
   D17        2.78478   0.00000   0.00005   0.00899   0.00904   2.79381
   D18        0.67646   0.00001   0.00006   0.00906   0.00912   0.68558
   D19       -1.40571   0.00001   0.00005   0.00942   0.00947  -1.39624
   D20       -0.39728   0.00001   0.00004   0.00924   0.00927  -0.38800
   D21       -2.50559   0.00001   0.00005   0.00931   0.00936  -2.49624
   D22        1.69542   0.00001   0.00004   0.00967   0.00971   1.70513
   D23        0.00352   0.00001   0.00008   0.00018   0.00026   0.00378
   D24       -3.13595   0.00001   0.00004   0.00047   0.00051  -3.13544
   D25        3.13913   0.00000   0.00006   0.00022   0.00027   3.13940
   D26       -0.00035   0.00001   0.00003   0.00050   0.00053   0.00018
         Item               Value     Threshold  Converged?
 Maximum Force            0.001506     0.000015     NO 
 RMS     Force            0.000418     0.000010     NO 
 Maximum Displacement     0.016257     0.000060     NO 
 RMS     Displacement     0.004870     0.000040     NO 
 Predicted change in Energy=-2.016916D-05
 GradGradGradGradGradGradGradGradGradGradGradGradGradGradGradGradGradGrad

                          Input orientation:                          
 ---------------------------------------------------------------------
 Center     Atomic      Atomic             Coordinates (Angstroms)
 Number     Number       Type             X           Y           Z
 ---------------------------------------------------------------------
      1          6           0        6.160170    7.019915    5.140533
      2          6           0        5.109237    6.148339    5.298183
      3          1           0        5.211342    5.202184    5.816474
      4          6           0        3.884675    6.539824    4.757129
      5          1           0        3.016826    5.896288    4.849990
      6          6           0        3.784545    7.766555    4.101625
      7          6           0        4.881005    8.613524    3.963584
      8          1           0        4.781309    9.561980    3.449035
      9          6           0        6.112975    8.233948    4.501171
     10          1           0        6.979685    8.878285    4.411790
     11          6           0        2.469869    8.146058    3.490004
     12          9           0        2.360535    9.465481    3.276205
     13          9           0        1.428071    7.786844    4.258970
     14          9           0        2.276206    7.550111    2.295705
 ---------------------------------------------------------------------
                    Distance matrix (angstroms):
                    1          2          3          4          5
     1  C    0.000000
     2  C    1.374394   0.000000
     3  H    2.159009   1.083633   0.000000
     4  C    2.356983   1.394830   2.161374   0.000000
     5  H    3.350756   2.154667   2.496352   1.084400   0.000000
     6  C    2.698221   2.409395   3.398891   1.394483   2.155770
     7  C    2.358191   2.812540   3.896097   2.433644   3.412368
     8  H    3.350301   3.896130   4.979711   3.412989   4.302717
     9  C    1.372912   2.447955   3.425575   2.810853   3.895186
    10  H    2.157825   3.425912   4.314382   3.894451   4.978813
    11  C    4.196519   3.771824   4.646992   2.487422   2.685179
    12  F    4.888123   4.758906   5.723266   3.616021   3.955586
    13  F    4.874228   4.161207   4.839363   2.799665   2.539223
    14  F    4.843483   4.359575   5.150106   3.109092   3.131775
                    6          7          8          9         10
     6  C    0.000000
     7  C    1.392349   0.000000
     8  H    2.154753   1.083636   0.000000
     9  C    2.408253   1.396721   2.154993   0.000000
    10  H    3.397214   2.162277   2.495434   1.083671   0.000000
    11  C    1.498825   2.501276   2.710954   3.781853   4.660932
    12  F    2.365475   2.747925   2.428854   4.134976   4.792797
    13  F    2.361808   3.562781   3.879602   4.712419   5.659948
    14  F    2.362896   3.270725   3.413697   4.478003   5.325840
                   11         12         13         14
    11  C    0.000000
    12  F    1.341098   0.000000
    13  F    1.343758   2.157113   0.000000
    14  F    1.348706   2.153401   2.151693   0.000000
 Symmetry turned off by external request.
 Stoichiometry    C7H4F3(2)
 Framework group  C1[X(C7H4F3)]
 Deg. of freedom    36
 Full point group                 C1      NOp   1
 Rotational constants (GHZ):           2.8334815           0.9889534           0.8402356
 Standard basis: 6-311+G(d,p) (5D, 7F)
   244 basis functions,   392 primitive gaussians,   254 cartesian basis functions
    37 alpha electrons       36 beta electrons
       nuclear repulsion energy       517.2502580626 Hartrees.
 NAtoms=   14 NActive=   14 NUniq=   14 SFac= 1.00D+00 NAtFMM=   60 NAOKFM=F Big=F
 Integral buffers will be    131072 words long.
 Raffenetti 2 integral format.
 Two-electron integral symmetry is turned off.
 ------------------------------------------------------------------------------
 Polarizable Continuum Model (PCM)
 =================================
 Model                : PCM.
 Atomic radii         : SMD-Coulomb.
 Polarization charges : Total charges.
 Charge compensation  : None.
 Solution method      : Matrix inversion.
 Cavity type          : VdW (van der Waals Surface) (Alpha=1.000).
 Cavity algorithm     : GePol (No added spheres)
                        Default sphere list used, NSphG=   14.
                        Lebedev-Laikov grids with approx.  5.0 points / Ang**2.
                        Smoothing algorithm: York/Karplus (Gamma=1.0000).
                        Polarization charges: spherical gaussians, with
                                              point-specific exponents (IZeta= 3).
                        Self-potential: point-specific (ISelfS= 7).
                        Self-field    : sphere-specific E.n sum rule (ISelfD= 2).
 1st derivatives      : Analytical E(r).r(x)/FMM algorithm (CHGder, D1EAlg=3).
                        Cavity 1st derivative terms included.
 Solvent              : TetraHydroFuran, Eps=   7.425700 Eps(inf)=   1.974025
 ------------------------------------------------------------------------------
 Spheres list:
 ISph  on   Nord     Re0    Alpha      Xe            Ye            Ze
    1   C      1    1.8500  1.000      6.160170      7.019915      5.140533
    2   C      2    1.8500  1.000      5.109237      6.148339      5.298183
    3   H      3    1.2000  1.000      5.211342      5.202184      5.816474
    4   C      4    1.8500  1.000      3.884675      6.539824      4.757129
    5   H      5    1.2000  1.000      3.016826      5.896288      4.849990
    6   C      6    1.8500  1.000      3.784545      7.766555      4.101625
    7   C      7    1.8500  1.000      4.881005      8.613524      3.963584
    8   H      8    1.2000  1.000      4.781309      9.561980      3.449035
    9   C      9    1.8500  1.000      6.112975      8.233948      4.501171
   10   H     10    1.2000  1.000      6.979685      8.878285      4.411790
   11   C     11    1.8500  1.000      2.469869      8.146058      3.490004
   12   F     12    1.7300  1.000      2.360535      9.465481      3.276205
   13   F     13    1.7300  1.000      1.428071      7.786844      4.258970
   14   F     14    1.7300  1.000      2.276206      7.550111      2.295705
 ------------------------------------------------------------------------------
 ------------------------------------------------------------------------------
 Atomic radii for non-electrostatic terms: SMD-CDS.
 ------------------------------------------------------------------------------
 Nuclear repulsion after PCM non-electrostatic terms =      517.2492586794 Hartrees.
 One-electron integrals computed using PRISM.
 NBasis=   244 RedAO= T EigKep=  3.03D-06  NBF=   244
 NBsUse=   244 1.00D-06 EigRej= -1.00D+00 NBFU=   244
 Initial guess from the checkpoint file:  "4-cf3-ph-opt-freq-thf-2.chk"
 B after Tr=    -0.020564   -0.010338    0.038365
         Rot=    0.999999    0.001123   -0.000371    0.000508 Ang=   0.15 deg.
 Initial guess <Sx>= 0.0000 <Sy>= 0.0000 <Sz>= 0.5000 <S**2>= 0.7624 S= 0.5062
 Requested convergence on RMS density matrix=1.00D-08 within 128 cycles.
 Requested convergence on MAX density matrix=1.00D-06.
 Requested convergence on             energy=1.00D-06.
 Level shift goal  0.100 maximum shift  0.100.
 No special actions if energy rises.
 Dynamic level shift is on during FON iterations.
 Inv3:  Mode=1 IEnd=     4575675.
 Iteration    1 A*A^-1 deviation from unit magnitude is 5.55D-15 for   1229.
 Iteration    1 A*A^-1 deviation from orthogonality  is 2.81D-15 for   1215    781.
 Iteration    1 A^-1*A deviation from unit magnitude is 5.88D-15 for   1229.
 Iteration    1 A^-1*A deviation from orthogonality  is 1.80D-15 for   1213   1181.
 Error on total polarization charges =  0.02794
 SCF Done:  E(UM062X) =  -568.572916481     A.U. after   11 cycles
            NFock= 11  Conv=0.92D-08     -V/T= 2.0031
 <Sx>= 0.0000 <Sy>= 0.0000 <Sz>= 0.5000 <S**2>= 0.7624 S= 0.5062
 <L.S>=  0.00000000000    
 SMD-CDS (non-electrostatic) energy       (kcal/mol) =      -0.63
 (included in total energy above)
 Annihilation of the first spin contaminant:
 S**2 before annihilation     0.7624,   after     0.7501
[...]
 ! A21   A(12,11,14)           106.371          -DE/DX =    0.0                 !
 ! A22   A(13,11,14)           106.098          -DE/DX =    0.0                 !
 ! D1    D(9,1,2,3)           -179.8976         -DE/DX =    0.0                 !
 ! D2    D(9,1,2,4)             -0.0408         -DE/DX =    0.0                 !
 ! D3    D(2,1,9,7)              0.0154         -DE/DX =    0.0                 !
 ! D4    D(2,1,9,10)           179.8771         -DE/DX =    0.0                 !
 ! D5    D(1,2,4,5)           -179.8989         -DE/DX =    0.0                 !
 ! D6    D(1,2,4,6)             -0.1667         -DE/DX =    0.0                 !
 ! D7    D(3,2,4,5)             -0.0397         -DE/DX =    0.0                 !
 ! D8    D(3,2,4,6)            179.6925         -DE/DX =    0.0                 !
 ! D9    D(2,4,6,7)              0.4073         -DE/DX =    0.0                 !
 ! D10   D(2,4,6,11)           178.057          -DE/DX =    0.0                 !
 ! D11   D(5,4,6,7)           -179.8609         -DE/DX =    0.0                 !
 ! D12   D(5,4,6,11)            -2.2112         -DE/DX =    0.0                 !
 ! D13   D(4,6,7,8)            179.9099         -DE/DX =    0.0                 !
 ! D14   D(4,6,7,9)             -0.4332         -DE/DX =    0.0                 !
 ! D15   D(11,6,7,8)             2.2884         -DE/DX =    0.0                 !
 ! D16   D(11,6,7,9)          -178.0547         -DE/DX =    0.0                 !
 ! D17   D(4,6,11,12)          160.0764         -DE/DX =    0.0                 !
 ! D18   D(4,6,11,13)           39.283          -DE/DX =    0.0                 !
 ! D19   D(4,6,11,14)          -79.9958         -DE/DX =    0.0                 !
 ! D20   D(7,6,11,12)          -22.2273         -DE/DX =    0.0                 !
 ! D21   D(7,6,11,13)         -143.0207         -DE/DX =    0.0                 !
 ! D22   D(7,6,11,14)           97.7005         -DE/DX =    0.0                 !
 ! D23   D(6,7,9,1)              0.2173         -DE/DX =    0.0                 !
 ! D24   D(6,7,9,10)          -179.6469         -DE/DX =    0.0                 !
 ! D25   D(8,7,9,1)            179.8754         -DE/DX =    0.0                 !
 ! D26   D(8,7,9,10)             0.0113         -DE/DX =    0.0                 !
 --------------------------------------------------------------------------------
 GradGradGradGradGradGradGradGradGradGradGradGradGradGradGradGradGradGrad


 ----------------------------------------------------------------------

 Electric dipole moment (input orientation):
 (Debye = 10**-18 statcoulomb cm , SI units = C m)
                  (au)            (Debye)         (10**-30 SI)
   Tot        0.103432D+01      0.262899D+01      0.876936D+01
   x          0.909265D+00      0.231112D+01      0.770907D+01
   y         -0.243677D+00     -0.619365D+00     -0.206598D+01
   z          0.428585D+00      0.108935D+01      0.363369D+01

 Dipole polarizability, Alpha (input orientation).
 (esu units = cm**3 , SI units = C**2 m**2 J**-1)
 Alpha(0;0):
               (au)            (10**-24 esu)      (10**-40 SI)
   iso        0.992154D+02      0.147022D+02      0.163584D+02
   aniso      0.534731D+02      0.792389D+01      0.881652D+01
   xx         0.114245D+03      0.169293D+02      0.188364D+02
   yx         0.572993D+01      0.849088D+00      0.944737D+00
   yy         0.106100D+03      0.157224D+02      0.174936D+02
   zx         0.113181D+02      0.167717D+01      0.186610D+01
   zy        -0.203823D+02     -0.302034D+01     -0.336058D+01
   zz         0.773012D+02      0.114549D+02      0.127453D+02

 ----------------------------------------------------------------------

 Dipole orientation:
     6         -1.31672602         16.73822355         11.13317863
     6         -2.72054089         14.93535809          9.89919613
     1         -3.75583651         13.47651959         10.89597274
     6         -2.76325564         15.06625895          7.26678499
     1         -3.83949806         13.69910431          6.18423843
     6         -1.42060312         16.97402120          6.04101500
     6         -0.01701972         18.75377935          7.37740240
     1          1.01473150         20.21912711          6.38662994
     6          0.04076720         18.64462031         10.01411835
     1          1.11053647         20.01466382         11.09691243
     6         -1.42646464         17.02692968          3.20915495
     9         -0.79979882         19.29695126          2.27268198
     9         -3.69634947         16.42890893          2.24050183
     9          0.22655074         15.35954675          2.21760630

 Electric dipole moment (dipole orientation):
 (Debye = 10**-18 statcoulomb cm , SI units = C m)
                  (au)            (Debye)         (10**-30 SI)
   Tot        0.103432D+01      0.262899D+01      0.876936D+01
   x          0.000000D+00      0.000000D+00      0.000000D+00
   y          0.000000D+00      0.000000D+00      0.000000D+00
   z          0.103432D+01      0.262899D+01      0.876936D+01

 Dipole polarizability, Alpha (dipole orientation).
 (esu units = cm**3 , SI units = C**2 m**2 J**-1)
 Alpha(0;0):
               (au)            (10**-24 esu)      (10**-40 SI)
   iso        0.992154D+02      0.147022D+02      0.163584D+02
   aniso      0.534731D+02      0.792389D+01      0.881652D+01
   xx         0.825024D+02      0.122256D+02      0.136028D+02
   yx         0.253895D+02      0.376234D+01      0.418617D+01
   yy         0.978426D+02      0.144988D+02      0.161321D+02
   zx         0.178605D+01      0.264665D+00      0.294479D+00
   zy        -0.107332D+01     -0.159049D+00     -0.176966D+00
   zz         0.117301D+03      0.173822D+02      0.193403D+02

 ----------------------------------------------------------------------
 Unable to Open any file for archive entry.
 1\1\GINC-CN013\Freq\UM062X\6-311+G(d,p)\C7H4F3(2)\TAHMINAAFROZ\06-May-
 2025\0\\#N Geom=AllCheck Guess=TCheck SCRF=Check GenChk UM062X/6-311+G
 (d,p) Freq\\4-cf3-ph-opt-freq-thf-2\\0,2\C,6.160039204,7.0199045515,5.
 1404580903\C,5.1093292924,6.148369115,5.2981673009\H,5.2114733516,5.20
 218968,5.8164737592\C,3.8846350427,6.5397910704,4.7571456118\H,3.01676
 41231,5.8962792458,4.849994991\C,3.7845275366,7.7665730506,4.101613581
 8\C,4.8810295994,8.6135758129,3.9635857099\H,4.7813322379,9.5620414429
 ,3.4490561304\C,6.1130290225,8.2338388649,4.5012503618\H,6.979685146,8
 .8782869778,4.4118266834\C,2.4698533748,8.1460636033,3.4899913332\F,2.
 3605324988,9.4654757577,3.2761297076\F,1.4280447915,7.7868965058,4.258
 9778887\F,2.2761737788,7.5500513214,2.2957278498\\Version=AS64L-G16Rev
 C.01\HF=-568.5729166\S2=0.762396\S2-1=0.\S2A=0.750068\RMSD=7.113e-09\R
 MSF=7.806e-06\ZeroPoint=0.0928647\Thermal=0.1006328\ETot=-568.4722838\
 HTot=-568.4713396\GTot=-568.5145004\Dipole=0.9092647,-0.2436768,0.4285
 848\DipoleDeriv=-0.0081291,0.0823363,-0.0181955,0.0840811,0.1028676,-0
 .0755829,-0.0223917,-0.0758818,-0.0575618,-0.2558026,-0.0844515,0.0051
 937,0.0095168,-0.0393639,-0.0412388,-0.0473773,-0.0708415,-0.0988832,0
 .1386161,-0.0049047,-0.0145412,0.0057724,0.0576682,0.0751617,-0.017746
 4,0.073916,0.1578211,0.0848773,0.0301078,0.0356607,-0.1054753,-0.00486
 78,-0.0868513,0.0909211,-0.0536968,-0.0801522,0.0371539,-0.0655566,-0.
 0078074,-0.0390396,0.1000026,0.0290397,-0.0132881,0.0249145,0.1642131,
 -0.3724804,0.0868111,-0.072175,0.1259626,-0.1864993,0.024645,-0.014610
 6,-0.0087279,-0.1896463,0.1142085,-0.0871927,0.1016915,0.0573207,-0.03
 15613,-0.0331442,0.0235746,-0.0651327,-0.0906139,0.1171939,0.0193394,-
 0.0288331,-0.0032302,0.0589272,0.0649478,-0.0147154,0.0706024,0.141014
 1,-0.0864571,0.1566324,-0.0716486,0.0540286,-0.1435692,0.0251392,-0.02
 19765,0.0590786,-0.1612826,0.0646876,-0.0589961,-0.0069662,-0.0671492,
 0.1033678,0.0317226,-0.0015254,0.0323735,0.183541,2.474918,-0.1703846,
 0.1952543,-0.118159,2.0248923,0.0001244,0.2395045,-0.0354381,2.1656344
 ,-0.5429152,0.1938303,-0.1004921,0.1744992,-1.1280368,0.1590284,-0.120
 5943,0.1775898,-0.4392874,-1.1187289,-0.0912038,0.2593007,-0.1267649,-
 0.4097297,0.1006783,0.2424396,0.1070281,-0.6124664,-0.6471422,-0.00636
 72,-0.276442,-0.0513631,-0.5040976,-0.2736699,-0.3222142,-0.2357842,-1
 .0823299\Polar=114.244733,5.7299278,106.1001445,11.318085,-20.3822736,
 77.3012452\Quadrupole=7.5085421,-7.6644274,0.1558852,14.6209527,8.9337
 699,1.6936815\PG=C01 [X(C7H4F3)]\NImag=0\\0.39083363,0.14440883,0.5379
 5213,0.01325640,-0.19856430,0.18177800,-0.24283451,-0.11258948,0.00538
 204,0.59196332,-0.14533835,-0.20190506,0.03639550,0.06250864,0.6320037
 8,0.02235764,0.04553759,-0.07057051,0.09677085,-0.24320864,0.28018661,
 0.00533088,-0.01958043,0.01188274,-0.05484984,0.01962795,-0.01541443,0
 .05478308,-0.00026467,-0.01331402,0.00631878,0.02470211,-0.27181483,0.
 12870573,-0.02127203,0.28473445,0.00192239,0.00091749,-0.00092389,-0.0
 1814674,0.12735573,-0.10748558,0.01970053,-0.14083108,0.10258153,-0.06
 314846,-0.05288370,0.00619684,-0.27801646,0.08411290,-0.10370373,0.001
 55547,-0.00153458,-0.00021009,0.69096404,0.00463845,0.05603938,-0.0207
 8924,0.00950753,-0.12778799,0.03606559,0.02462107,-0.00202728,0.010882
 62,0.09756120,0.58272812,-0.02345141,-0.03564815,0.02559635,-0.0657886
 6,0.05629363,-0.11009881,-0.01387262,0.00354105,-0.00003636,0.10391395
 ,-0.20280806,0.26911175,-0.00407476,0.00038049,-0.00326873,-0.01548234
 ,-0.01599725,0.00251850,0.00101794,0.00045443,0.00122303,-0.24060867,-
 0.13983122,0.01627490,0.25220052,0.00173683,0.00231103,0.00301887,0.00
 949044,0.00900470,0.00069733,-0.00011983,-0.00043360,-0.00207725,-0.13
 877490,-0.15662224,0.02266529,0.14864961,0.15989429,-0.00400221,0.0026
 8319,0.00472630,-0.01068238,-0.00642951,0.00556485,0.00154882,-0.00190
 936,-0.00294541,0.01620351,0.02289567,-0.04590717,-0.01471864,-0.02843
 941,0.03623369,-0.01837733,-0.02750990,0.01078069,0.02249200,0.0294945
 3,-0.01085844,-0.00390294,0.00064975,-0.00327787,-0.12395773,0.0311705
 0,-0.03265018,0.00639660,-0.02131949,0.01194538,0.65025845,-0.02764171
 ,-0.06376779,0.02166474,0.08103034,0.00264645,0.02432216,0.00033782,0.
 00281998,0.00230599,-0.03242669,-0.27091478,0.09788924,0.00293177,-0.0
 0991492,0.00795889,0.07779868,0.60146845,0.01176178,0.02154473,-0.0151
 5714,-0.03670289,0.01123891,-0.00929275,-0.00341306,0.00249132,0.00509
 685,-0.00080792,0.11432081,-0.12416762,-0.00067781,0.00128854,0.003250
 35,0.10166625,-0.20135482,0.31123965,0.03137349,0.08781737,-0.04013942
 ,-0.07575009,-0.01382144,-0.01289914,-0.00125899,-0.00057961,0.0000043
 1,0.04541495,-0.06689044,0.04436714,0.00132594,0.00125698,-0.00210065,
 -0.24410315,-0.07453870,-0.01300578,0.62707117,0.02997855,-0.00619490,
 0.01857617,-0.01808078,-0.00119911,-0.00625595,0.00001500,0.00016514,-
 0.00031229,-0.01534427,-0.03934147,0.01945431,0.00061316,-0.00223989,0
 .00453524,-0.13774893,-0.19585219,0.03121879,0.04774000,0.62479141,-0.
 01110791,0.03373076,-0.00680613,-0.00977666,-0.00513042,-0.00385609,-0
 .00025180,-0.00042466,-0.00018292,0.01796602,0.00577643,0.00840345,-0.
 00167280,0.00482466,0.00350723,0.02005330,0.04790619,-0.08216303,0.111
 78965,-0.23873401,0.28967169,-0.00361171,0.00212430,-0.00403929,-0.000
 64610,-0.00056967,0.00046027,0.00006007,0.00015563,0.00016729,-0.00353
 351,-0.00304791,-0.00116457,0.00040043,-0.00115776,0.00056060,0.007029
 71,-0.02051907,0.01145649,-0.05866325,0.02063462,-0.01626017,0.0590962
 2,0.00069040,0.00201510,0.00278043,0.00004003,0.00024601,-0.00075560,0
 .00012807,-0.00020102,-0.00026873,-0.00361380,0.00096686,0.00174372,0.
 00024606,-0.00036128,0.00049284,0.00325902,-0.01039007,0.00826846,0.01
 911764,-0.27685070,0.12759591,-0.02080940,0.28739174,-0.00337441,0.003
 21460,0.00456486,0.00014709,-0.00095544,-0.00071462,0.00017667,-0.0002
 6832,-0.00061895,-0.00080665,0.00201657,0.00514418,-0.00016140,0.00010
 300,0.00032627,-0.00060182,0.00175340,0.00316607,-0.01554759,0.1272845
 6,-0.10899609,0.01994948,-0.13980933,0.10347396,-0.10129845,-0.0204907
 0,-0.00315784,0.04716332,-0.02102016,0.02261592,-0.00320463,-0.0023208
 1,-0.00141121,-0.02110548,0.03453834,-0.02198690,0.00047513,0.00039856
 ,0.00032265,-0.05534622,-0.03989789,0.00333644,-0.27961097,0.07845545,
 -0.10101979,0.00057705,-0.00182738,-0.00033718,0.65318213,0.01219471,-
 0.29672037,0.12922173,-0.05563624,-0.03513547,0.00520028,-0.00428354,0
 .00055854,0.00167947,0.02944002,-0.03706822,0.02481087,0.00099367,-0.0
 0043078,-0.00013081,0.01084892,0.05255501,-0.02211966,0.00394951,-0.12
 346742,0.03304193,0.02353213,-0.00137699,0.00999783,0.12067631,0.59305
 055,-0.01994342,0.12002397,-0.12070655,0.04056715,0.01485490,0.0085490
 6,-0.00039456,0.00225290,0.00489938,-0.02016513,0.02675209,-0.02250833
 ,-0.00003492,-0.00030802,-0.00108868,-0.02261486,-0.03499403,0.0185102
 4,-0.06261933,0.05319207,-0.10847098,-0.01341816,0.00284076,-0.0000897
 6,0.08446012,-0.20658866,0.25697099,0.00603861,0.00036672,0.00177431,0
 .00124650,0.00156165,-0.00220851,0.00026499,0.00022111,0.00003696,-0.0
 0014390,0.00043933,-0.00014712,-0.00008332,0.00002668,0.00019689,-0.00
 255646,0.00177857,-0.00371007,-0.01620010,-0.01724261,0.00277182,0.001
 10779,0.00054095,0.00122982,-0.23911055,-0.13798893,0.01440398,0.25005
 975,-0.01895757,-0.01389862,0.00132066,-0.00037916,-0.00229786,0.00430
 152,-0.00074287,-0.00037936,-0.00015002,0.00100938,-0.00054258,0.00034
 529,-0.00000193,-0.00011498,-0.00036832,0.00173339,0.00192276,0.003161
 14,0.00900101,0.00951554,0.00055185,-0.00005558,-0.00045767,-0.0019901
 1,-0.14315894,-0.15244933,0.02010790,0.15115849,0.15829318,0.01175715,
 0.00673865,-0.00120763,-0.00119650,0.00487786,0.00341418,0.00053347,0.
 00011365,-0.00018524,-0.00041920,0.00024672,-0.00065506,0.00020501,-0.
 00036703,-0.00057758,-0.00334702,0.00309328,0.00442205,-0.01067993,-0.
 00691144,0.00625552,0.00150886,-0.00179522,-0.00293843,0.01692838,0.02
 154609,-0.04210641,-0.01466006,-0.02720094,0.03336763,0.00195703,-0.00
 283305,0.00234921,0.00682070,-0.00236954,0.00158107,0.00106113,-0.0005
 8388,0.00031987,-0.00036243,0.01467700,-0.00636807,-0.00048776,-0.0017
 6173,0.00151550,-0.19017291,0.02332578,-0.05352418,-0.02606076,0.00066
 366,-0.00929399,-0.00005807,0.00097943,0.00035464,0.00107790,-0.004302
 32,0.00104751,0.00030784,0.00023220,-0.00010853,0.58609197,-0.00246579
 ,-0.00369747,0.00056144,0.00097095,-0.00320557,0.00490539,0.00091982,-
 0.00006588,0.00028213,0.02534360,-0.00397103,0.01143729,0.00050446,-0.
 00167423,-0.00063054,0.02685375,-0.09670008,0.02513935,-0.00905518,0.0
 1281413,-0.01125125,-0.00150829,-0.00253569,-0.00077229,-0.00680941,-0
 .00020834,0.00149998,-0.00112727,0.00061115,-0.00032061,-0.02208088,0.
 52116866,0.00236838,0.00043073,-0.00083780,0.00065131,0.00426663,0.004
 24735,-0.00021601,-0.00005447,0.00027660,-0.01280152,0.00528587,-0.007
 69102,0.00046909,-0.00052772,-0.00235195,-0.05039819,0.02266813,-0.095
 56171,-0.00188906,-0.00589794,0.00523531,0.00128634,-0.00048195,-0.002
 65626,0.00266385,0.00162802,0.00639605,0.00072495,-0.00015203,0.000295
 95,0.03851079,-0.03126045,0.49262403,-0.00033870,0.00073173,-0.0003784
 0,-0.00022386,0.00160897,-0.00152357,-0.00051646,0.00007262,-0.0002438
 9,-0.00609207,-0.00150834,-0.00012517,0.00019967,0.00018313,0.00014171
 ,0.00154005,0.03549961,-0.00916436,-0.00208345,0.00057966,0.00049060,-
 0.00230037,0.00154420,-0.00118650,0.00052018,0.00062098,-0.00031102,-0
 .00006637,-0.00002795,0.00003358,-0.08546494,0.03155692,-0.00983591,0.
 08369845,0.00048912,0.00009838,-0.00008318,-0.00004649,-0.00148770,0.0
 0133800,0.00058003,-0.00011532,0.00025765,0.00668698,0.00193873,0.0000
 5731,-0.00022897,0.00029954,-0.00036432,0.00409527,-0.03226553,0.00813
 969,-0.00450090,-0.00184707,0.00078039,0.00067339,0.00128430,-0.000618
 45,0.00078145,0.00036321,0.00058958,0.00021660,-0.00007022,0.00001890,
 0.04496052,-0.24938878,0.04149117,-0.01835289,0.39571173,-0.00009948,0
 .00055950,-0.00018314,-0.00059689,0.00022986,-0.00130697,-0.00021178,-
 0.00002069,-0.00028061,-0.00307566,-0.00059016,0.00169036,0.00015396,-
 0.00008889,0.00026279,-0.00450249,0.02189766,0.00324514,0.00071116,0.0
 0085686,-0.00043316,-0.00064109,-0.00001843,-0.00009551,0.00011106,-0.
 00015537,-0.00012628,-0.00007763,0.00000389,0.00001746,-0.01124975,0.0
 3776737,-0.07754871,0.00254725,-0.04782319,0.08730586,-0.00110563,-0.0
 0013212,0.00003898,-0.00031219,-0.00036565,-0.00068390,-0.00017385,0.0
 0017937,-0.00000451,-0.00028722,-0.00285721,0.00087538,-0.00149709,0.0
 0140893,-0.00019743,-0.04340330,-0.01573903,0.02791066,-0.00309912,0.0
 0781919,-0.00220268,0.00032891,0.00019650,0.00064070,-0.00219871,-0.00
 149533,-0.00173973,-0.00064543,0.00017619,-0.00050806,-0.21143127,-0.0
 2820249,0.07044508,-0.00106812,-0.03261560,0.01566831,0.26315196,0.000
 13789,0.00023641,0.00002580,-0.00014668,0.00036306,-0.00073723,-0.0000
 7681,0.00002086,-0.00001829,0.00102955,-0.00210273,0.00032237,0.001278
 09,0.00042367,0.00004653,0.00021345,0.00939026,0.00117619,0.00084824,-
 0.00035938,0.00056995,0.00026965,0.00024094,0.00009351,0.00025795,0.00
 049745,-0.00046749,0.00003526,-0.00005089,0.00003986,-0.03455944,-0.07
 923991,0.02276558,-0.04542670,-0.04621621,0.04054320,0.06583346,0.1046
 2738,-0.00045497,-0.00069650,0.00018806,0.00055444,-0.00038443,0.00054
 994,0.00010027,-0.00002081,-0.00000114,-0.00136949,0.00233794,-0.00018
 590,-0.00073470,-0.00061394,-0.00025006,-0.00076000,0.00156093,0.00618
 630,0.00089963,-0.00020380,0.00090081,-0.00016584,-0.00011649,0.000117
 82,-0.00020149,0.00041773,-0.00071487,0.00008327,-0.00006278,-0.000032
 99,0.07936249,0.02078839,-0.11342866,0.01951465,0.03404141,-0.00929202
 ,-0.14342460,-0.05139121,0.19026833,-0.00074410,0.00018994,-0.00067751
 ,-0.00157045,0.00056742,0.00098747,-0.00016688,0.00012057,-0.00008006,
 -0.00067854,-0.00301828,0.00012332,0.00021772,-0.00001747,-0.00073376,
 -0.00589676,-0.01193949,-0.03512553,0.00164432,0.00191729,-0.00148559,
 0.00021282,-0.00049172,-0.00048285,-0.00112070,0.00145012,0.00076237,-
 0.00021935,0.00001335,-0.00004715,-0.08327843,-0.01490021,-0.04197911,
 0.01219597,-0.00273851,0.00126305,0.00174105,0.01030609,0.04659633,0.0
 7766334,0.00039332,0.00084578,-0.00044741,-0.00137121,0.00056960,-0.00
 011618,-0.00015425,0.00005234,-0.00002342,-0.00060568,-0.00129476,-0.0
 0010415,0.00000762,-0.00014130,-0.00034008,0.00046106,0.00900245,-0.00
 451344,-0.00034448,0.00006592,0.00076227,0.00027796,0.00002847,-0.0000
 4953,0.00041724,-0.00016785,0.00024403,0.00001345,-0.00008111,-0.00007
 977,-0.01634775,-0.09390696,-0.06016156,-0.00708195,-0.06830506,-0.053
 16161,0.00579378,0.01216908,-0.00565643,0.01854089,0.14116339,-0.00098
 992,-0.00047227,-0.00046078,-0.00118216,0.00059542,0.00081334,-0.00016
 823,0.00010595,-0.00019428,-0.00092091,-0.00239286,0.00130418,0.000424
 50,-0.00017544,-0.00075063,-0.01543476,-0.01667176,-0.02877439,0.00110
 902,0.00319744,-0.00306561,0.00029978,-0.00047637,-0.00068353,-0.00232
 403,0.00145056,0.00048613,-0.00041861,0.00013194,-0.00006944,-0.044496
 56,-0.05814619,-0.20899918,0.00004103,-0.03782495,-0.00325522,0.033181
 81,-0.01296877,-0.07430563,0.03087903,0.12364730,0.31795505\\0.0000020
 6,0.00000969,0.00000232,0.00000264,0.00000914,0.00001088,0.00000448,0.
 00001365,0.00001836,0.00000166,0.00000366,0.00000918,0.00000252,0.0000
 0358,0.00001543,-0.00000043,-0.00000164,-0.00000069,-0.00000130,-0.000
 00153,-0.00000887,-0.00000303,-0.00000590,-0.00001637,-0.00000040,0.00
 000367,-0.00000714,-0.00000107,0.00000418,-0.00001354,-0.00000150,-0.0
 0000795,-0.00000210,-0.00000311,-0.00000983,-0.00001259,-0.00000019,-0
 .00000287,0.00000213,-0.00000233,-0.00001785,0.00000300\\\@
 The archive entry for this job was punched.


 WHEN ALL ELSE FAILS, TRY THE BOSS'S SUGGESTION.
 Job cpu time:       0 days  0 hours 55 minutes 54.7 seconds.
 Elapsed time:       0 days  0 hours  1 minutes 49.1 seconds.
 File lengths (MBytes):  RWF=    199 Int=      0 D2E=      0 Chk=     15 Scr=      1
 Normal termination of Gaussian 16 at Tue May  6 17:35:57 2025.
