/home/tahminaafroz
cn017.cluster.local
Mon Apr 21 18:14:48 CDT 2025
 Entering Gaussian System, Link 0=g16
 Initial command:
 /home/apps/g16/l1.exe "/tmp/4-cf3-phboh2-opt-freq/Gau-3792888.inp" -scrdir="/tmp/4-cf3-phboh2-opt-freq/"
 Entering Link 1 = /home/apps/g16/l1.exe PID=   3792889.
  
 Copyright (c) 1988-2019, Gaussian, Inc.  All Rights Reserved.
  
 This is part of the Gaussian(R) 16 program.  It is based on
 the Gaussian(R) 09 system (copyright 2009, Gaussian, Inc.),
 the Gaussian(R) 03 system (copyright 2003, Gaussian, Inc.),
 the Gaussian(R) 98 system (copyright 1998, Gaussian, Inc.),
 the Gaussian(R) 94 system (copyright 1995, Gaussian, Inc.),
 the Gaussian 92(TM) system (copyright 1992, Gaussian, Inc.),
 the Gaussian 90(TM) system (copyright 1990, Gaussian, Inc.),
 the Gaussian 88(TM) system (copyright 1988, Gaussian, Inc.),
 the Gaussian 86(TM) system (copyright 1986, Carnegie Mellon
 University), and the Gaussian 82(TM) system (copyright 1983,
 Carnegie Mellon University). Gaussian is a federally registered
 trademark of Gaussian, Inc.
  
 This software contains proprietary and confidential information,
 including trade secrets, belonging to Gaussian, Inc.
  
 This software is provided under written license and may be
 used, copied, transmitted, or stored only in accord with that
 written license.
  
 The following legend is applicable only to US Government
 contracts under FAR:
  
                    RESTRICTED RIGHTS LEGEND
  
 Use, reproduction and disclosure by the US Government is
 subject to restrictions as set forth in subparagraphs (a)
 and (c) of the Commercial Computer Software - Restricted
 Rights clause in FAR 52.227-19.
  
 Gaussian, Inc.
 340 Quinnipiac St., Bldg. 40, Wallingford CT 06492
  
  
 ---------------------------------------------------------------
 Warning -- This program may not be used in any manner that
 competes with the business of Gaussian, Inc. or will provide
 assistance to any competitor of Gaussian, Inc.  The licensee
 of this program is prohibited from giving any competitor of
 Gaussian, Inc. access to this program.  By using this program,
 the user acknowledges that Gaussian, Inc. is engaged in the
 business of creating and licensing software in the field of
 computational chemistry and represents and warrants to the
 licensee that it is not a competitor of Gaussian, Inc. and that
 it will not use this program in any manner prohibited above.
 ---------------------------------------------------------------
  

 Cite this work as:
 Gaussian 16, Revision C.01,
 M. J. Frisch, G. W. Trucks, H. B. Schlegel, G. E. Scuseria, 
 M. A. Robb, J. R. Cheeseman, G. Scalmani, V. Barone, 
 G. A. Petersson, H. Nakatsuji, X. Li, M. Caricato, A. V. Marenich, 
 J. Bloino, B. G. Janesko, R. Gomperts, B. Mennucci, H. P. Hratchian, 
 J. V. Ortiz, A. F. Izmaylov, J. L. Sonnenberg, D. Williams-Young, 
 F. Ding, F. Lipparini, F. Egidi, J. Goings, B. Peng, A. Petrone, 
 T. Henderson, D. Ranasinghe, V. G. Zakrzewski, J. Gao, N. Rega, 
 G. Zheng, W. Liang, M. Hada, M. Ehara, K. Toyota, R. Fukuda, 
 J. Hasegawa, M. Ishida, T. Nakajima, Y. Honda, O. Kitao, H. Nakai, 
 T. Vreven, K. Throssell, J. A. Montgomery, Jr., J. E. Peralta, 
 F. Ogliaro, M. J. Bearpark, J. J. Heyd, E. N. Brothers, K. N. Kudin, 
 V. N. Staroverov, T. A. Keith, R. Kobayashi, J. Normand, 
 K. Raghavachari, A. P. Rendell, J. C. Burant, S. S. Iyengar, 
 J. Tomasi, M. Cossi, J. M. Millam, M. Klene, C. Adamo, R. Cammi, 
 J. W. Ochterski, R. L. Martin, K. Morokuma, O. Farkas, 
 J. B. Foresman, and D. J. Fox, Gaussian, Inc., Wallingford CT, 2019.
 
 ******************************************
 Gaussian 16:  AS64L-G16RevC.01  3-Jul-2019
                21-Apr-2025 
 ******************************************
 %mem=20GB
 %nprocshared=32
 Will use up to   32 processors via shared memory.
 %chk=4-cf3-phboh2-opt-freq.chk
 ----------------------------------------------------------------------
 # opt=(calcfc,tight) freq 6-311+g(d,p) nosymm scf=(qc,fermi,xqc) geom=
 connectivity int=ultrafine m062x
 ----------------------------------------------------------------------
 1/7=10,10=4,18=20,19=15,26=4,38=1,57=2/1,3;
 2/9=110,12=2,15=1,17=6,18=5,40=1/2;
 3/5=4,6=6,7=111,11=2,25=1,30=1,71=2,74=-55,75=-5,140=1/1,2,3;
 4//1;
 5/5=2,22=13,38=5/2;
 8/6=4,10=90,11=11/1;
 11/6=1,8=1,9=11,15=111,16=1,31=1/1,2,10;
 10/6=1,13=1,31=1/2;
 6/7=2,8=2,9=2,10=2,28=1/1;
 7/10=1,25=1,30=1/1,2,3,16;
 1/7=10,10=4,18=20,19=15,26=4/3(2);
 2/9=110,15=1/2;
 99//99;
 2/9=110,15=1/2;
 3/5=4,6=6,7=111,11=2,25=1,30=1,71=1,74=-55,75=-5/1,2,3;
 4/5=5,16=3,69=1/1;
 5/5=2,22=13,38=5/2;
 7/30=1/1,2,3,16;
 1/7=10,18=20,19=15,26=4/3(-5);
 2/9=110,15=1/2;
 6/7=2,8=2,9=2,10=2,19=2,28=1/1;
 99/9=1/99;
 ---------------------
 4-cf3-phboh2-opt-freq
 ---------------------
 Symbolic Z-matrix:
 Charge =  0 Multiplicity = 1
 O                     8.6937    7.4516    5.54165 
 H                     9.50219   7.13774   5.95654 
 C                     6.24551   6.99743   5.17177 
 B                     7.64171   6.61653   5.77197 
 O                     7.87495   5.49385   6.5199 
 H                     7.09974   4.95193   6.67447 
 C                     5.12292   6.1708    5.28852 
 H                     5.19038   5.21599   5.80391 
 C                     3.89549   6.53793   4.7481 
 H                     3.03837   5.88269   4.84886 
 C                     3.77272   7.74979   4.07563 
 C                     4.87718   8.58681   3.94549 
 H                     4.78267   9.53028   3.42076 
 C                     6.10033   8.21073   4.48781 
 H                     6.96312   8.85954   4.38658 
 C                     2.41595   8.16256   3.47529 
 F                     2.33785   9.5093    3.42341 
 F                     1.41769   7.68333   4.24751 
 F                     2.30293   7.65689   2.22869 
 

 GradGradGradGradGradGradGradGradGradGradGradGradGradGradGradGradGradGrad
 Berny optimization.
 Initialization pass.
                           ----------------------------
                           !    Initial Parameters    !
                           ! (Angstroms and Degrees)  !
 --------------------------                            --------------------------
 ! Name  Definition              Value          Derivative Info.                !
 --------------------------------------------------------------------------------
 ! R1    R(1,2)                  0.9614         calculate D2E/DX2 analytically  !
 ! R2    R(1,4)                  1.3627         calculate D2E/DX2 analytically  !
 ! R3    R(3,4)                  1.5667         calculate D2E/DX2 analytically  !
 ! R4    R(3,7)                  1.399          calculate D2E/DX2 analytically  !
 ! R5    R(3,14)                 1.4003         calculate D2E/DX2 analytically  !
 ! R6    R(4,5)                  1.369          calculate D2E/DX2 analytically  !
 ! R7    R(5,6)                  0.9584         calculate D2E/DX2 analytically  !
 ! R8    R(7,8)                  1.0871         calculate D2E/DX2 analytically  !
 ! R9    R(7,9)                  1.3905         calculate D2E/DX2 analytically  !
 ! R10   R(9,10)                 1.0836         calculate D2E/DX2 analytically  !
 ! R11   R(9,11)                 1.3914         calculate D2E/DX2 analytically  !
 ! R12   R(11,12)                1.3919         calculate D2E/DX2 analytically  !
 ! R13   R(11,16)                1.54           calculate D2E/DX2 analytically  !
 ! R14   R(12,13)                1.0837         calculate D2E/DX2 analytically  !
 ! R15   R(12,14)                1.3898         calculate D2E/DX2 analytically  !
 ! R16   R(14,15)                1.0843         calculate D2E/DX2 analytically  !
 ! R17   R(16,17)                1.35           calculate D2E/DX2 analytically  !
 ! R18   R(16,18)                1.35           calculate D2E/DX2 analytically  !
 ! R19   R(16,19)                1.35           calculate D2E/DX2 analytically  !
 ! A1    A(2,1,4)              112.0983         calculate D2E/DX2 analytically  !
 ! A2    A(4,3,7)              122.6467         calculate D2E/DX2 analytically  !
 ! A3    A(4,3,14)             119.3501         calculate D2E/DX2 analytically  !
 ! A4    A(7,3,14)             118.0032         calculate D2E/DX2 analytically  !
 ! A5    A(1,4,3)              118.3077         calculate D2E/DX2 analytically  !
 ! A6    A(1,4,5)              117.6027         calculate D2E/DX2 analytically  !
 ! A7    A(3,4,5)              124.0894         calculate D2E/DX2 analytically  !
 ! A8    A(4,5,6)              114.4569         calculate D2E/DX2 analytically  !
 ! A9    A(3,7,8)              120.5799         calculate D2E/DX2 analytically  !
 ! A10   A(3,7,9)              121.3254         calculate D2E/DX2 analytically  !
 ! A11   A(8,7,9)              118.0941         calculate D2E/DX2 analytically  !
 ! A12   A(7,9,10)             120.1633         calculate D2E/DX2 analytically  !
 ! A13   A(7,9,11)             119.7161         calculate D2E/DX2 analytically  !
 ! A14   A(10,9,11)            120.1206         calculate D2E/DX2 analytically  !
 ! A15   A(9,11,12)            119.9297         calculate D2E/DX2 analytically  !
 ! A16   A(9,11,16)            119.9738         calculate D2E/DX2 analytically  !
 ! A17   A(12,11,16)           120.0964         calculate D2E/DX2 analytically  !
 ! A18   A(11,12,13)           119.9739         calculate D2E/DX2 analytically  !
 ! A19   A(11,12,14)           119.9423         calculate D2E/DX2 analytically  !
 ! A20   A(13,12,14)           120.0838         calculate D2E/DX2 analytically  !
 ! A21   A(3,14,12)            121.0828         calculate D2E/DX2 analytically  !
 ! A22   A(3,14,15)            118.7874         calculate D2E/DX2 analytically  !
 ! A23   A(12,14,15)           120.1298         calculate D2E/DX2 analytically  !
 ! A24   A(11,16,17)           109.4712         calculate D2E/DX2 analytically  !
 ! A25   A(11,16,18)           109.4712         calculate D2E/DX2 analytically  !
 ! A26   A(11,16,19)           109.4712         calculate D2E/DX2 analytically  !
 ! A27   A(17,16,18)           109.4712         calculate D2E/DX2 analytically  !
 ! A28   A(17,16,19)           109.4712         calculate D2E/DX2 analytically  !
 ! A29   A(18,16,19)           109.4713         calculate D2E/DX2 analytically  !
 ! D1    D(2,1,4,3)            179.4321         calculate D2E/DX2 analytically  !
 ! D2    D(2,1,4,5)             -0.4323         calculate D2E/DX2 analytically  !
 ! D3    D(7,3,4,1)            176.3571         calculate D2E/DX2 analytically  !
 ! D4    D(7,3,4,5)             -3.788          calculate D2E/DX2 analytically  !
 ! D5    D(14,3,4,1)            -3.617          calculate D2E/DX2 analytically  !
 ! D6    D(14,3,4,5)           176.2379         calculate D2E/DX2 analytically  !
 ! D7    D(4,3,7,8)             -0.4723         calculate D2E/DX2 analytically  !
 ! D8    D(4,3,7,9)            179.8225         calculate D2E/DX2 analytically  !
 ! D9    D(14,3,7,8)           179.5021         calculate D2E/DX2 analytically  !
 ! D10   D(14,3,7,9)            -0.2031         calculate D2E/DX2 analytically  !
 ! D11   D(4,3,14,12)         -179.7549         calculate D2E/DX2 analytically  !
 ! D12   D(4,3,14,15)            0.2004         calculate D2E/DX2 analytically  !
 ! D13   D(7,3,14,12)            0.2698         calculate D2E/DX2 analytically  !
 ! D14   D(7,3,14,15)         -179.7749         calculate D2E/DX2 analytically  !
 ! D15   D(1,4,5,6)            178.3759         calculate D2E/DX2 analytically  !
 ! D16   D(3,4,5,6)             -1.48           calculate D2E/DX2 analytically  !
 ! D17   D(3,7,9,10)           179.9449         calculate D2E/DX2 analytically  !
 ! D18   D(3,7,9,11)             0.0287         calculate D2E/DX2 analytically  !
 ! D19   D(8,7,9,10)             0.2326         calculate D2E/DX2 analytically  !
 ! D20   D(8,7,9,11)          -179.6836         calculate D2E/DX2 analytically  !
 ! D21   D(7,9,11,12)            0.0852         calculate D2E/DX2 analytically  !
 ! D22   D(7,9,11,16)         -179.9745         calculate D2E/DX2 analytically  !
 ! D23   D(10,9,11,12)        -179.831          calculate D2E/DX2 analytically  !
 ! D24   D(10,9,11,16)           0.1093         calculate D2E/DX2 analytically  !
 ! D25   D(9,11,12,13)         179.9215         calculate D2E/DX2 analytically  !
 ! D26   D(9,11,12,14)          -0.0192         calculate D2E/DX2 analytically  !
 ! D27   D(16,11,12,13)         -0.0187         calculate D2E/DX2 analytically  !
 ! D28   D(16,11,12,14)       -179.9595         calculate D2E/DX2 analytically  !
 ! D29   D(9,11,16,17)         152.7435         calculate D2E/DX2 analytically  !
 ! D30   D(9,11,16,18)          32.7435         calculate D2E/DX2 analytically  !
 ! D31   D(9,11,16,19)         -87.2565         calculate D2E/DX2 analytically  !
 ! D32   D(12,11,16,17)        -27.3163         calculate D2E/DX2 analytically  !
 ! D33   D(12,11,16,18)       -147.3163         calculate D2E/DX2 analytically  !
 ! D34   D(12,11,16,19)         92.6837         calculate D2E/DX2 analytically  !
 ! D35   D(11,12,14,3)          -0.1625         calculate D2E/DX2 analytically  !
 ! D36   D(11,12,14,15)        179.8828         calculate D2E/DX2 analytically  !
 ! D37   D(13,12,14,3)         179.8968         calculate D2E/DX2 analytically  !
 ! D38   D(13,12,14,15)         -0.0579         calculate D2E/DX2 analytically  !
 --------------------------------------------------------------------------------
 Trust Radius=3.00D-01 FncErr=1.00D-07 GrdErr=1.00D-06 EigMax=2.50D+02 EigMin=1.00D-04
 Number of steps in this run=     96 maximum allowed number of steps=    114.
 GradGradGradGradGradGradGradGradGradGradGradGradGradGradGradGradGradGrad

                          Input orientation:                          
 ---------------------------------------------------------------------
 Center     Atomic      Atomic             Coordinates (Angstroms)
 Number     Number       Type             X           Y           Z
 ---------------------------------------------------------------------
      1          8           0        8.693701    7.451595    5.541649
      2          1           0        9.502193    7.137737    5.956544
      3          6           0        6.245510    6.997434    5.171772
      4          5           0        7.641708    6.616527    5.771970
      5          8           0        7.874947    5.493847    6.519897
      6          1           0        7.099744    4.951929    6.674467
      7          6           0        5.122923    6.170805    5.288524
      8          1           0        5.190378    5.215994    5.803906
      9          6           0        3.895492    6.537926    4.748104
     10          1           0        3.038365    5.882688    4.848858
     11          6           0        3.772716    7.749791    4.075628
     12          6           0        4.877176    8.586807    3.945493
     13          1           0        4.782667    9.530279    3.420756
     14          6           0        6.100328    8.210725    4.487806
     15          1           0        6.963122    8.859535    4.386577
     16          6           0        2.415948    8.162558    3.475292
     17          9           0        2.337849    9.509298    3.423407
     18          9           0        1.417692    7.683330    4.247513
     19          9           0        2.302928    7.656887    2.228687
 ---------------------------------------------------------------------
                    Distance matrix (angstroms):
                    1          2          3          4          5
     1  O    0.000000
     2  H    0.961407   0.000000
     3  C    2.517282   3.352840   0.000000
     4  B    1.362746   1.940910   1.566747   0.000000
     5  O    2.336687   2.380687   2.594856   1.369016   0.000000
     6  H    3.173690   3.326399   2.678040   1.969546   0.958388
     7  C    3.801967   4.534227   1.398981   2.603203   3.090014
     8  H    4.164128   4.723150   2.164815   2.823390   2.792267
     9  C    4.948466   5.766732   2.431713   3.884407   4.479443
    10  H    5.909675   6.677064   3.410676   4.751991   5.131870
    11  C    5.143368   6.061300   2.807540   4.373896   5.281291
    12  C    4.289788   5.247372   2.429445   3.854952   5.018026
    13  H    4.910733   5.867572   3.408998   4.710868   5.954801
    14  C    2.900422   3.857613   1.400344   2.562498   3.828850
    15  H    2.512248   3.446196   2.144509   2.722293   4.087828
    16  C    6.647216   7.577713   4.347540   5.913841   6.796493
    17  F    7.008420   7.960459   4.963472   6.481882   7.508099
    18  F    7.393835   8.281160   4.963117   6.496184   7.187051
    19  F    7.201378   8.123783   4.963928   6.491516   7.358031
                    6          7          8          9         10
     6  H    0.000000
     7  C    2.704500   0.000000
     8  H    2.115014   1.087121   0.000000
     9  C    4.061218   1.390474   2.130482   0.000000
    10  H    4.549061   2.149814   2.446989   1.083584   0.000000
    11  C    5.064693   2.405696   3.378881   1.391372   2.150170
    12  C    5.059589   2.775102   3.861887   2.409523   3.392573
    13  H    6.075917   3.858808   4.945572   3.391623   4.288005
    14  C    4.049700   2.399530   3.395371   2.779805   3.863384
    15  H    4.530176   3.380697   4.292649   3.864055   4.947630
    16  C    6.517730   3.818718   4.669277   2.539396   2.733477
    17  F    7.349466   4.730839   5.677689   3.606955   3.959158
    18  F    6.755469   4.135235   4.768990   2.775254   2.496098
    19  F    7.077514   4.418531   5.203606   3.183677   3.248684
                   11         12         13         14         15
    11  C    0.000000
    12  C    1.391892   0.000000
    13  H    2.149185   1.083707   0.000000
    14  C    2.408346   1.389835   2.148499   0.000000
    15  H    3.392184   2.149443   2.477315   1.084258   0.000000
    16  C    1.540000   2.541401   2.734044   3.821278   4.689671
    17  F    2.362224   2.751680   2.444909   4.120132   4.768966
    18  F    2.362223   3.588247   3.926551   4.718365   5.670502
    19  F    2.362223   3.230933   3.328623   4.453156   5.274491
                   16         17         18         19
    16  C    0.000000
    17  F    1.350000   0.000000
    18  F    1.350000   2.204541   0.000000
    19  F    1.350000   2.204541   2.204541   0.000000
 Symmetry turned off by external request.
 Stoichiometry    C7H6BF3O2
 Framework group  C1[X(C7H6BF3O2)]
 Deg. of freedom    51
 Full point group                 C1      NOp   1
 Rotational constants (GHZ):           2.2078446           0.3564128           0.3251588
 Standard basis: 6-311+G(d,p) (5D, 7F)
   322 basis functions,   516 primitive gaussians,   335 cartesian basis functions
    48 alpha electrons       48 beta electrons
       nuclear repulsion energy       769.0910542989 Hartrees.
 NAtoms=   19 NActive=   19 NUniq=   19 SFac= 1.00D+00 NAtFMM=   60 NAOKFM=F Big=F
 Integral buffers will be    131072 words long.
 Raffenetti 2 integral format.
 Two-electron integral symmetry is turned off.
 One-electron integrals computed using PRISM.
 NBasis=   322 RedAO= T EigKep=  1.58D-06  NBF=   322
 NBsUse=   322 1.00D-06 EigRej= -1.00D+00 NBFU=   322
 ExpMin= 3.15D-02 ExpMax= 1.14D+04 ExpMxC= 1.72D+03 IAcc=3 IRadAn=         5 AccDes= 0.00D+00
 Harris functional with IExCor= 1009 and IRadAn=       5 diagonalized for initial guess.
 HarFok:  IExCor= 1009 AccDes= 0.00D+00 IRadAn=         5 IDoV= 1 UseB2=F ITyADJ=14
 ICtDFT=  3500011 ScaDFX=  1.000000  1.000000  1.000000  1.000000
 FoFCou: FMM=F IPFlag=           0 FMFlag=      100000 FMFlg1=           0
         NFxFlg=           0 DoJE=T BraDBF=F KetDBF=T FulRan=T
         wScrn=  0.000000 ICntrl=       500 IOpCl=  0 I1Cent=   200000004 NGrid=           0
         NMat0=    1 NMatS0=      1 NMatT0=    0 NMatD0=    1 NMtDS0=    0 NMtDT0=    0
 Symmetry not used in FoFCou.
 Requested convergence on RMS density matrix=1.00D-08 within 128 cycles.
 Requested convergence on MAX density matrix=1.00D-06.
 Requested convergence on             energy=1.00D-06.
 Level shift goal  0.100 maximum shift  0.100.
 No special actions if energy rises.
 Dynamic level shift is on during FON iterations.
 SCF Done:  E(RM062X) =  -745.273827825     A.U. after   14 cycles
            NFock= 14  Conv=0.39D-08     -V/T= 2.0033
 DoSCS=F DFT=T ScalE2(SS,OS)=  1.000000  1.000000
 Range of M.O.s used for correlation:     1   322
 NBasis=   322 NAE=    48 NBE=    48 NFC=     0 NFV=     0
 NROrb=    322 NOA=    48 NOB=    48 NVA=   274 NVB=   274

 **** Warning!!: The largest alpha MO coefficient is  0.14538358D+03

 Symmetrizing basis deriv contribution to polar:
 IMax=3 JMax=2 DiffMx= 0.00D+00
 G2DrvN: will do    20 centers at a time, making    1 passes.
 Calling FoFCou, ICntrl=  3107 FMM=F I1Cent=   0 AccDes= 0.00D+00.
 End of G2Drv F.D. properties file   721 does not exist.
 End of G2Drv F.D. properties file   722 does not exist.
 End of G2Drv F.D. properties file   788 does not exist.
          IDoAtm=1111111111111111111
          Differentiating once with respect to nuclear coordinates.
 Keep R1 ints in memory in canonical form, NReq=1389094406.
          There are    60 degrees of freedom in the 1st order CPHF.  IDoFFX=6 NUNeed=     0.
     54 vectors produced by pass  0 Test12= 2.19D-14 1.67D-09 XBig12= 3.74D-01 2.45D-01.
 AX will form    54 AO Fock derivatives at one time.
     54 vectors produced by pass  1 Test12= 2.19D-14 1.67D-09 XBig12= 1.57D-02 3.66D-02.
     54 vectors produced by pass  2 Test12= 2.19D-14 1.67D-09 XBig12= 5.09D-04 4.22D-03.
     54 vectors produced by pass  3 Test12= 2.19D-14 1.67D-09 XBig12= 4.46D-06 2.64D-04.
     54 vectors produced by pass  4 Test12= 2.19D-14 1.67D-09 XBig12= 3.29D-08 1.77D-05.
     54 vectors produced by pass  5 Test12= 2.19D-14 1.67D-09 XBig12= 1.76D-10 1.39D-06.
     54 vectors produced by pass  6 Test12= 2.19D-14 1.67D-09 XBig12= 6.84D-13 8.21D-08.
     15 vectors produced by pass  7 Test12= 2.19D-14 1.67D-09 XBig12= 3.24D-15 5.84D-09.
 InvSVY:  IOpt=1 It=  1 EMax= 9.99D-16
 Solved reduced A of dimension   393 with    60 vectors.
 End of Minotr F.D. properties file   721 does not exist.
 End of Minotr F.D. properties file   722 does not exist.
 End of Minotr F.D. properties file   788 does not exist.

 **********************************************************************

            Population analysis using the SCF Density.

 **********************************************************************

 Alpha  occ. eigenvalues --  -25.28727 -25.28706 -25.28490 -19.65059 -19.64232
 Alpha  occ. eigenvalues --  -10.81367 -10.58577 -10.57222 -10.57110 -10.56837
 Alpha  occ. eigenvalues --  -10.56363 -10.55040  -7.09774  -1.46950  -1.38458
 Alpha  occ. eigenvalues --   -1.38251  -1.18072  -1.14349  -0.99066  -0.89497
 Alpha  occ. eigenvalues --   -0.86869  -0.81606  -0.73139  -0.72437  -0.69944
 Alpha  occ. eigenvalues --   -0.69137  -0.67084  -0.66184  -0.64093  -0.58710
 Alpha  occ. eigenvalues --   -0.58171  -0.57712  -0.55249  -0.54595  -0.54194
 Alpha  occ. eigenvalues --   -0.53050  -0.52454  -0.51035  -0.50581  -0.49287
 Alpha  occ. eigenvalues --   -0.46736  -0.45754  -0.45587  -0.42379  -0.41653
 Alpha  occ. eigenvalues --   -0.40234  -0.33523  -0.33061
 Alpha virt. eigenvalues --   -0.02784  -0.01037  -0.00212   0.00981   0.01664
 Alpha virt. eigenvalues --    0.02635   0.03311   0.03987   0.04282   0.05591
 Alpha virt. eigenvalues --    0.06628   0.06843   0.08688   0.09144   0.09341
 Alpha virt. eigenvalues --    0.09605   0.10882   0.11039   0.12642   0.12943
 Alpha virt. eigenvalues --    0.13798   0.14268   0.14456   0.14836   0.15734
 Alpha virt. eigenvalues --    0.15912   0.17312   0.17673   0.17977   0.18479
 Alpha virt. eigenvalues --    0.19098   0.19481   0.20297   0.20944   0.21940
 Alpha virt. eigenvalues --    0.22038   0.22783   0.23010   0.23529   0.23783
 Alpha virt. eigenvalues --    0.24256   0.24644   0.24689   0.26070   0.26310
 Alpha virt. eigenvalues --    0.26993   0.27757   0.28057   0.28553   0.29426
 Alpha virt. eigenvalues --    0.30302   0.30570   0.30896   0.32624   0.33919
 Alpha virt. eigenvalues --    0.34824   0.36152   0.36776   0.37072   0.37960
 Alpha virt. eigenvalues --    0.38690   0.38910   0.40782   0.41971   0.42426
 Alpha virt. eigenvalues --    0.44714   0.45131   0.45831   0.46910   0.48223
 Alpha virt. eigenvalues --    0.48343   0.48954   0.49214   0.50896   0.51936
 Alpha virt. eigenvalues --    0.53285   0.54369   0.55411   0.56804   0.57282
 Alpha virt. eigenvalues --    0.59336   0.60116   0.62219   0.62985   0.64748
 Alpha virt. eigenvalues --    0.65813   0.66454   0.67332   0.67846   0.69371
 Alpha virt. eigenvalues --    0.69752   0.70480   0.71594   0.72891   0.74030
 Alpha virt. eigenvalues --    0.74909   0.78394   0.79105   0.80154   0.83233
 Alpha virt. eigenvalues --    0.85202   0.87990   0.89716   0.90270   0.91266
 Alpha virt. eigenvalues --    0.92502   0.93597   0.94795   0.96463   1.00441
 Alpha virt. eigenvalues --    1.03055   1.04727   1.05460   1.07440   1.08112
 Alpha virt. eigenvalues --    1.09098   1.10297   1.11330   1.12191   1.12345
 Alpha virt. eigenvalues --    1.12884   1.15919   1.19311   1.20129   1.25581
 Alpha virt. eigenvalues --    1.30821   1.32980   1.33944   1.37565   1.39114
 Alpha virt. eigenvalues --    1.42357   1.44170   1.44422   1.44879   1.46147
 Alpha virt. eigenvalues --    1.47407   1.49451   1.49885   1.51354   1.52126
 Alpha virt. eigenvalues --    1.53139   1.54013   1.55453   1.56189   1.56862
 Alpha virt. eigenvalues --    1.59548   1.60081   1.60355   1.61078   1.63459
 Alpha virt. eigenvalues --    1.67980   1.68878   1.69424   1.72021   1.75543
 Alpha virt. eigenvalues --    1.76454   1.78327   1.79530   1.83012   1.83531
 Alpha virt. eigenvalues --    1.84864   1.86516   1.87640   1.92672   1.95147
 Alpha virt. eigenvalues --    1.96496   1.97467   1.98676   2.01002   2.01610
 Alpha virt. eigenvalues --    2.04193   2.06049   2.09411   2.11142   2.13317
 Alpha virt. eigenvalues --    2.14995   2.16620   2.16870   2.20676   2.21782
 Alpha virt. eigenvalues --    2.29998   2.36059   2.41119   2.42526   2.44038
 Alpha virt. eigenvalues --    2.51314   2.56686   2.58009   2.61129   2.63673
 Alpha virt. eigenvalues --    2.64739   2.68558   2.71689   2.71959   2.75557
 Alpha virt. eigenvalues --    2.77467   2.78625   2.79041   2.79504   2.83717
 Alpha virt. eigenvalues --    2.85996   2.93962   2.94644   2.96910   3.00551
 Alpha virt. eigenvalues --    3.04495   3.05500   3.06261   3.10229   3.13699
 Alpha virt. eigenvalues --    3.23074   3.25499   3.26624   3.30470   3.38113
 Alpha virt. eigenvalues --    3.41314   3.44347   3.51416   3.53845   3.56187
 Alpha virt. eigenvalues --    3.59957   3.63028   3.65617   3.80318   3.82619
 Alpha virt. eigenvalues --    3.83940   3.84689   3.85741   3.86633   3.87066
 Alpha virt. eigenvalues --    3.91589   3.93609   4.00825   4.01458   4.02002
 Alpha virt. eigenvalues --    4.04446   4.10119   4.17492   4.18425   4.23474
 Alpha virt. eigenvalues --    4.26640   4.29234   4.72272   4.85119   4.97366
 Alpha virt. eigenvalues --    5.00265   5.07249   5.08291   5.38915   5.49255
 Alpha virt. eigenvalues --    5.68023   5.75658   6.45194   6.48097   6.49950
 Alpha virt. eigenvalues --    6.52628   6.53097   6.54266   6.57860   6.87113
 Alpha virt. eigenvalues --    6.89109  14.78439  23.56065  23.67427  24.01232
 Alpha virt. eigenvalues --   24.01737  24.12217  24.16468  24.24311  49.99764
 Alpha virt. eigenvalues --   50.04626  66.88336  66.89354  66.94621
          Condensed to atoms (all electrons):
               1          2          3          4          5          6
     1  O    7.746006   0.272589   0.057617   0.447539  -0.129412   0.020570
     2  H    0.272589   0.450588   0.059423  -0.005399  -0.033966   0.003114
     3  C    0.057617   0.059423  12.780332   0.250206  -0.230390   0.035831
     4  B    0.447539  -0.005399   0.250206   3.354164   0.367451   0.016424
     5  O   -0.129412  -0.033966  -0.230390   0.367451   7.965596   0.250427
     6  H    0.020570   0.003114   0.035831   0.016424   0.250427   0.433590
     7  C   -0.003643   0.003843  -0.586107   0.134031   0.094219  -0.084239
     8  H    0.002558  -0.000024   0.025912   0.013236  -0.009062   0.011855
     9  C    0.077394   0.006892  -0.792923   0.052219  -0.009869   0.056592
    10  H   -0.000066  -0.000001  -0.035387  -0.000120   0.000368  -0.000067
    11  C   -0.010782  -0.002073  -5.081213   0.002478   0.026765  -0.009246
    12  C   -0.042440  -0.025935  -1.060889  -0.006227   0.094609  -0.020343
    13  H    0.000565   0.000004  -0.017536   0.000294  -0.000057   0.000003
    14  C   -0.086682  -0.033495   1.177814  -0.069238  -0.056118   0.032472
    15  H    0.001723  -0.000610   0.070154  -0.007919   0.002561  -0.000108
    16  C   -0.001761  -0.000056  -0.115113  -0.020741   0.001411  -0.000263
    17  F   -0.000010   0.000000   0.002689   0.000296   0.000004   0.000000
    18  F    0.000002   0.000000   0.003579   0.000305  -0.000008   0.000002
    19  F   -0.000001   0.000000  -0.019081   0.000077  -0.000002   0.000000
               7          8          9         10         11         12
     1  O   -0.003643   0.002558   0.077394  -0.000066  -0.010782  -0.042440
     2  H    0.003843  -0.000024   0.006892  -0.000001  -0.002073  -0.025935
     3  C   -0.586107   0.025912  -0.792923  -0.035387  -5.081213  -1.060889
     4  B    0.134031   0.013236   0.052219  -0.000120   0.002478  -0.006227
     5  O    0.094219  -0.009062  -0.009869   0.000368   0.026765   0.094609
     6  H   -0.084239   0.011855   0.056592  -0.000067  -0.009246  -0.020343
     7  C   20.211366   0.212420  -6.371684   0.041226  -1.360742  -1.895737
     8  H    0.212420   0.542357   0.122611  -0.007105  -0.021620  -0.011972
     9  C   -6.371684   0.122611  34.822990   0.191397  -3.403325 -16.991566
    10  H    0.041226  -0.007105   0.191397   0.479468   0.084303   0.038850
    11  C   -1.360742  -0.021620  -3.403325   0.084303  25.250196  -4.609108
    12  C   -1.895737  -0.011972 -16.991566   0.038850  -4.609108  36.436364
    13  H   -0.028501   0.000083   0.047336  -0.000219   0.066172   0.176238
    14  C   -3.233068  -0.021424  -2.365835  -0.022359  -1.571679  -7.532443
    15  H    0.008300  -0.000111  -0.013918   0.000060  -0.026250   0.063262
    16  C   -1.216733   0.011924   0.766063   0.050375  -2.987851   1.676079
    17  F    0.045117   0.000024  -0.082803   0.000672  -0.084337  -0.035293
    18  F    0.157855   0.000091  -0.035343   0.003605  -0.055796  -0.112694
    19  F   -0.008274   0.000037  -0.254557   0.000027   0.505275  -0.201641
              13         14         15         16         17         18
     1  O    0.000565  -0.086682   0.001723  -0.001761  -0.000010   0.000002
     2  H    0.000004  -0.033495  -0.000610  -0.000056   0.000000   0.000000
     3  C   -0.017536   1.177814   0.070154  -0.115113   0.002689   0.003579
     4  B    0.000294  -0.069238  -0.007919  -0.020741   0.000296   0.000305
     5  O   -0.000057  -0.056118   0.002561   0.001411   0.000004  -0.000008
     6  H    0.000003   0.032472  -0.000108  -0.000263   0.000000   0.000002
     7  C   -0.028501  -3.233068   0.008300  -1.216733   0.045117   0.157855
     8  H    0.000083  -0.021424  -0.000111   0.011924   0.000024   0.000091
     9  C    0.047336  -2.365835  -0.013918   0.766063  -0.082803  -0.035343
    10  H   -0.000219  -0.022359   0.000060   0.050375   0.000672   0.003605
    11  C    0.066172  -1.571679  -0.026250  -2.987851  -0.084337  -0.055796
    12  C    0.176238  -7.532443   0.063262   1.676079  -0.035293  -0.112694
    13  H    0.476367   0.059581  -0.006090   0.043447   0.004436   0.000722
    14  C    0.059581  20.983376   0.239721  -1.475876   0.147197   0.047597
    15  H   -0.006090   0.239721   0.471017   0.010231   0.000065   0.000013
    16  C    0.043447  -1.475876   0.010231   8.271456   0.148252   0.136247
    17  F    0.004436   0.147197   0.000065   0.148252   9.018415  -0.022557
    18  F    0.000722   0.047597   0.000013   0.136247  -0.022557   9.012608
    19  F    0.000184   0.002345   0.000027   0.148945  -0.042261  -0.044512
              19
     1  O   -0.000001
     2  H    0.000000
     3  C   -0.019081
     4  B    0.000077
     5  O   -0.000002
     6  H    0.000000
     7  C   -0.008274
     8  H    0.000037
     9  C   -0.254557
    10  H    0.000027
    11  C    0.505275
    12  C   -0.201641
    13  H    0.000184
    14  C    0.002345
    15  H    0.000027
    16  C    0.148945
    17  F   -0.042261
    18  F   -0.044512
    19  F    8.948513
 Mulliken charges:
               1
     1  O   -0.351764
     2  H    0.305107
     3  C   -0.524917
     4  B    0.470923
     5  O   -0.334524
     6  H    0.253387
     7  C   -0.119647
     8  H    0.128211
     9  C    0.178328
    10  H    0.174973
    11  C   -0.711166
    12  C    0.060885
    13  H    0.176971
    14  C   -0.221884
    15  H    0.187873
    16  C    0.553965
    17  F   -0.099904
    18  F   -0.091716
    19  F   -0.035100
 Sum of Mulliken charges =   0.00000
 Mulliken charges with hydrogens summed into heavy atoms:
               1
     1  O   -0.046657
     3  C   -0.524917
     4  B    0.470923
     5  O   -0.081137
     7  C    0.008564
     9  C    0.353301
    11  C   -0.711166
    12  C    0.237855
    14  C   -0.034011
    16  C    0.553965
    17  F   -0.099904
    18  F   -0.091716
    19  F   -0.035100
 APT charges:
               1
     1  O   -0.363033
     2  H    2.039560
     3  C   -1.722218
     4  B   -0.447460
     5  O    1.305143
     6  H   -1.191301
     7  C    0.098271
     8  H   -0.176248
     9  C   -1.435875
    10  H   -0.793610
    11  C   -1.272966
    12  C    0.595005
    13  H    1.240592
    14  C   -0.039358
    15  H    1.890050
    16  C    0.567658
    17  F    0.653439
    18  F   -0.389974
    19  F   -0.557675
 Sum of APT charges =   0.00000
 APT charges with hydrogens summed into heavy atoms:
               1
     1  O    1.676528
     3  C   -1.722218
     4  B   -0.447460
     5  O    0.113842
     7  C   -0.077977
     9  C   -2.229486
    11  C   -1.272966
    12  C    1.835597
    14  C    1.850692
    16  C    0.567658
    17  F    0.653439
    18  F   -0.389974
    19  F   -0.557675
 Electronic spatial extent (au):  <R**2>=          36862.4622
 Charge=              0.0000 electrons
 Dipole moment (field-independent basis, Debye):
    X=              1.4981    Y=             -1.6098    Z=              1.4257  Tot=              2.6208
 Quadrupole moment (field-independent basis, Debye-Ang):
   XX=            -61.3219   YY=            -92.4747   ZZ=            -61.8705
   XY=              5.8564   XZ=             12.9843   YZ=             -0.6753
 Traceless Quadrupole moment (field-independent basis, Debye-Ang):
   XX=             10.5672   YY=            -20.5857   ZZ=             10.0185
   XY=              5.8564   XZ=             12.9843   YZ=             -0.6753
 Octapole moment (field-independent basis, Debye-Ang**2):
  XXX=           -962.8618  YYY=          -1803.3587  ZZZ=           -932.1527  XYY=           -333.1499
  XXY=           -471.2919  XXZ=           -240.6784  XZZ=           -274.1253  YZZ=           -530.4437
  YYZ=           -396.5900  XYZ=             53.4272
 Hexadecapole moment (field-independent basis, Debye-Ang**3):
 XXXX=         -11489.0686 YYYY=         -26160.9256 ZZZZ=          -9368.1309 XXXY=          -6920.8008
 XXXZ=          -4481.0751 YYYX=          -7550.2595 YYYZ=          -8019.9650 ZZZX=          -4867.7530
 ZZZY=          -7153.8842 XXYY=          -5807.5226 XXZZ=          -3166.1298 YYZZ=          -6033.9451
 XXYZ=          -1865.6692 YYXZ=          -1601.3504 ZZXY=          -2232.7839
 N-N= 7.690910542989D+02 E-N=-3.293348649646D+03  KE= 7.428454107116D+02
  Exact polarizability:       0.000       0.000       0.000       0.000       0.000       0.000
 Approx polarizability:     138.457       5.768     125.655      13.386     -23.101      96.184
 Calling FoFJK, ICntrl=    100127 FMM=F ISym2X=0 I1Cent= 0 IOpClX= 0 NMat=1 NMatS=1 NMatT=0.
 -------------------------------------------------------------------
 Center     Atomic                   Forces (Hartrees/Bohr)
 Number     Number              X              Y              Z
 -------------------------------------------------------------------
      1        8          -0.002051125   -0.000443510   -0.000261706
      2        1           0.000272836    0.000030065    0.000029859
      3        6          -0.001998716    0.000884913   -0.000980280
      4        5           0.003985594   -0.000884597    0.001770267
      5        8          -0.001227455    0.001217501   -0.001085173
      6        1           0.000262572   -0.000474781    0.000384771
      7        6           0.000190219    0.001205250   -0.001233605
      8        1          -0.000699104    0.000537478   -0.000383269
      9        6          -0.001805392   -0.001812642   -0.000818880
     10        1          -0.000423226    0.000648142    0.000291506
     11        6          -0.008978875    0.004220391   -0.001671459
     12        6          -0.000303080    0.001675360   -0.002314424
     13        1          -0.000547797   -0.000007040    0.000574943
     14        6          -0.000788481   -0.001896185    0.000190605
     15        1          -0.000613342    0.000191112   -0.000168168
     16        6           0.033080619   -0.008398972    0.016267071
     17        9          -0.010130860   -0.015115843   -0.005338492
     18        9           0.001933170    0.008731204   -0.016020889
     19        9          -0.010157557    0.009692153    0.010767325
 -------------------------------------------------------------------
 Cartesian Forces:  Max     0.033080619 RMS     0.006753996
 FormGI is forming the generalized inverse of G from B-inverse, IUseBI=4.

 GradGradGradGradGradGradGradGradGradGradGradGradGradGradGradGradGradGrad
 Berny optimization.
 Internal  Forces:  Max     0.016550175 RMS     0.005247666
 Search for a local minimum.
 Step number   1 out of a maximum of   96
 All quantities printed in internal units (Hartrees-Bohrs-Radians)
 Mixed Optimization -- RFO/linear search
 Second derivative matrix not updated -- analytic derivatives used.
 ITU=  0
     Eigenvalues ---   -0.00017   0.00039   0.01014   0.01228   0.01511
     Eigenvalues ---    0.01546   0.01725   0.01996   0.02161   0.02409
     Eigenvalues ---    0.02681   0.02735   0.02816   0.03931   0.10426
     Eigenvalues ---    0.11241   0.11514   0.11699   0.12058   0.12397
     Eigenvalues ---    0.12770   0.12886   0.15981   0.17954   0.18641
     Eigenvalues ---    0.18810   0.19081   0.19794   0.20047   0.22830
     Eigenvalues ---    0.24174   0.25617   0.27593   0.29381   0.35502
     Eigenvalues ---    0.36347   0.36435   0.36549   0.36599   0.37354
     Eigenvalues ---    0.39154   0.40849   0.42393   0.44259   0.47745
     Eigenvalues ---    0.47952   0.49022   0.49811   0.51959   0.55239
     Eigenvalues ---    0.56251
 RFO step:  Lambda=-6.42739594D-03 EMin=-1.71316270D-04
 Linear search not attempted -- first point.
 Iteration  1 RMS(Cart)=  0.08579231 RMS(Int)=  0.02872850
 Iteration  2 RMS(Cart)=  0.04449144 RMS(Int)=  0.00187823
 Iteration  3 RMS(Cart)=  0.00197651 RMS(Int)=  0.00027572
 Iteration  4 RMS(Cart)=  0.00000370 RMS(Int)=  0.00027571
 Iteration  5 RMS(Cart)=  0.00000000 RMS(Int)=  0.00027571
 Variable       Old X    -DE/DX   Delta X   Delta X   Delta X     New X
                                 (Linear)    (Quad)   (Total)
    R1        1.81680   0.00023   0.00000   0.00044   0.00044   1.81723
    R2        2.57522  -0.00158   0.00000  -0.00428  -0.00428   2.57094
    R3        2.96072   0.00156   0.00000   0.00881   0.00881   2.96953
    R4        2.64369  -0.00028   0.00000  -0.00412  -0.00416   2.63953
    R5        2.64627  -0.00048   0.00000   0.00157   0.00153   2.64780
    R6        2.58707  -0.00116   0.00000  -0.00534  -0.00534   2.58173
    R7        1.81109   0.00011   0.00000  -0.00012  -0.00012   1.81097
    R8        2.05436  -0.00070   0.00000  -0.00167  -0.00167   2.05269
    R9        2.62762  -0.00178   0.00000   0.00035   0.00035   2.62797
   R10        2.04768  -0.00003   0.00000  -0.00214  -0.00214   2.04554
   R11        2.62931  -0.00174   0.00000  -0.00533  -0.00529   2.62402
   R12        2.63029  -0.00175   0.00000   0.00120   0.00124   2.63153
   R13        2.91018  -0.01655   0.00000  -0.07603  -0.07603   2.83415
   R14        2.04791  -0.00024   0.00000   0.00024   0.00024   2.04815
   R15        2.62641  -0.00133   0.00000  -0.00586  -0.00586   2.62055
   R16        2.04895  -0.00036   0.00000  -0.00098  -0.00098   2.04797
   R17        2.55113  -0.01429   0.00000  -0.01853  -0.01853   2.53260
   R18        2.55113  -0.01369   0.00000  -0.02264  -0.02264   2.52849
   R19        2.55113  -0.01272   0.00000  -0.01341  -0.01341   2.53772
    A1        1.95648   0.00027   0.00000   0.00528   0.00528   1.96177
    A2        2.14059   0.00038   0.00000   0.00121   0.00123   2.14181
    A3        2.08305  -0.00062   0.00000  -0.00405  -0.00403   2.07902
    A4        2.05954   0.00024   0.00000   0.00284   0.00280   2.06235
    A5        2.06486  -0.00150   0.00000  -0.00962  -0.00962   2.05524
    A6        2.05255   0.00118   0.00000   0.00793   0.00793   2.06049
    A7        2.16577   0.00032   0.00000   0.00169   0.00169   2.16746
    A8        1.99765   0.00118   0.00000   0.01067   0.01067   2.00832
    A9        2.10452   0.00059   0.00000   0.00262   0.00261   2.10713
   A10        2.11753   0.00016   0.00000   0.00227   0.00227   2.11980
   A11        2.06113  -0.00075   0.00000  -0.00487  -0.00487   2.05626
   A12        2.09724   0.00149   0.00000   0.01102   0.01098   2.10822
   A13        2.08944  -0.00192   0.00000  -0.01089  -0.01082   2.07862
   A14        2.09650   0.00044   0.00000  -0.00013  -0.00017   2.09633
   A15        2.09317   0.00343   0.00000   0.01441   0.01430   2.10747
   A16        2.09394  -0.00261   0.00000   0.01206   0.01179   2.10573
   A17        2.09608  -0.00082   0.00000  -0.02650  -0.02674   2.06933
   A18        2.09394   0.00066   0.00000  -0.00258  -0.00262   2.09132
   A19        2.09339  -0.00221   0.00000  -0.00874  -0.00867   2.08471
   A20        2.09586   0.00155   0.00000   0.01133   0.01128   2.10714
   A21        2.11329   0.00029   0.00000   0.00012   0.00012   2.11342
   A22        2.07323   0.00042   0.00000   0.00224   0.00224   2.07547
   A23        2.09666  -0.00071   0.00000  -0.00236  -0.00237   2.09429
   A24        1.91063   0.01634   0.00000   0.03761   0.03672   1.94735
   A25        1.91063   0.01550   0.00000   0.05255   0.05137   1.96201
   A26        1.91063   0.01518   0.00000   0.03709   0.03633   1.94696
   A27        1.91063  -0.01466   0.00000  -0.03397  -0.03515   1.87548
   A28        1.91063  -0.01609   0.00000  -0.05071  -0.05115   1.85949
   A29        1.91063  -0.01627   0.00000  -0.04258  -0.04355   1.86708
    D1        3.13168   0.00003   0.00000   0.00442   0.00442   3.13610
    D2       -0.00754   0.00001   0.00000   0.00354   0.00354  -0.00401
    D3        3.07801   0.00000   0.00000   0.02729   0.02729   3.10530
    D4       -0.06611   0.00002   0.00000   0.02825   0.02824  -0.03787
    D5       -0.06313  -0.00005   0.00000   0.02391   0.02391  -0.03921
    D6        3.07593  -0.00003   0.00000   0.02486   0.02486   3.10080
    D7       -0.00824   0.00002   0.00000   0.00363   0.00359  -0.00465
    D8        3.13850  -0.00012   0.00000  -0.00054  -0.00051   3.13799
    D9        3.13290   0.00006   0.00000   0.00697   0.00694   3.13984
   D10       -0.00354  -0.00007   0.00000   0.00280   0.00284  -0.00071
   D11       -3.13731   0.00011   0.00000   0.00176   0.00180  -3.13551
   D12        0.00350  -0.00002   0.00000  -0.00138  -0.00141   0.00208
   D13        0.00471   0.00007   0.00000  -0.00146  -0.00142   0.00329
   D14       -3.13766  -0.00006   0.00000  -0.00461  -0.00464   3.14088
   D15        3.11325  -0.00001   0.00000   0.01208   0.01208   3.12533
   D16       -0.02583  -0.00003   0.00000   0.01116   0.01115  -0.01468
   D17        3.14063   0.00018   0.00000   0.00554   0.00541  -3.13715
   D18        0.00050   0.00003   0.00000  -0.00326  -0.00335  -0.00285
   D19        0.00406   0.00004   0.00000   0.00145   0.00140   0.00546
   D20       -3.13607  -0.00011   0.00000  -0.00735  -0.00736   3.13976
   D21        0.00149   0.00003   0.00000   0.00232   0.00243   0.00392
   D22       -3.14115  -0.00065   0.00000  -0.03542  -0.03592   3.10612
   D23       -3.13864  -0.00012   0.00000  -0.00648  -0.00627   3.13827
   D24        0.00191  -0.00080   0.00000  -0.04423  -0.04463  -0.04272
   D25        3.14022   0.00011   0.00000   0.00663   0.00662  -3.13634
   D26       -0.00034  -0.00004   0.00000  -0.00103  -0.00107  -0.00141
   D27       -0.00033   0.00080   0.00000   0.04440   0.04417   0.04384
   D28       -3.14089   0.00065   0.00000   0.03674   0.03647  -3.10441
   D29        2.66588   0.00096   0.00000  -0.27546  -0.27531   2.39056
   D30        0.57148  -0.00058   0.00000  -0.28907  -0.28929   0.28219
   D31       -1.52291   0.00056   0.00000  -0.29182  -0.29216  -1.81507
   D32       -0.47676   0.00028   0.00000  -0.31324  -0.31282  -0.78958
   D33       -2.57115  -0.00127   0.00000  -0.32685  -0.32679  -2.89795
   D34        1.61763  -0.00013   0.00000  -0.32960  -0.32967   1.28797
   D35       -0.00284  -0.00001   0.00000   0.00061   0.00057  -0.00227
   D36        3.13955   0.00012   0.00000   0.00380   0.00382  -3.13982
   D37        3.13979  -0.00016   0.00000  -0.00704  -0.00719   3.13260
   D38       -0.00101  -0.00003   0.00000  -0.00385  -0.00394  -0.00495
         Item               Value     Threshold  Converged?
 Maximum Force            0.016550     0.000015     NO 
 RMS     Force            0.005248     0.000010     NO 
 Maximum Displacement     0.563588     0.000060     NO 
 RMS     Displacement     0.127786     0.000040     NO 
 Predicted change in Energy=-3.356151D-03
 GradGradGradGradGradGradGradGradGradGradGradGradGradGradGradGradGradGrad

                          Input orientation:                          
 ---------------------------------------------------------------------
 Center     Atomic      Atomic             Coordinates (Angstroms)
 Number     Number       Type             X           Y           Z
 ---------------------------------------------------------------------
      1          8           0        8.686760    7.442517    5.500140
      2          1           0        9.506880    7.139309    5.900407
      3          6           0        6.236512    6.992689    5.175424
      4          5           0        7.642596    6.611364    5.764360
      5          8           0        7.881138    5.501492    6.524467
      6          1           0        7.113497    4.953953    6.695691
      7          6           0        5.104231    6.192909    5.346547
      8          1           0        5.162014    5.260206    5.900298
      9          6           0        3.871146    6.557997    4.817257
     10          1           0        2.999644    5.932024    4.959881
     11          6           0        3.766560    7.746236    4.106429
     12          6           0        4.878210    8.563574    3.918325
     13          1           0        4.778484    9.490275    3.365174
     14          6           0        6.101385    8.183767    4.449953
     15          1           0        6.971953    8.813932    4.310341
     16          6           0        2.464585    8.151568    3.482040
     17          9           0        2.210232    9.453362    3.673773
     18          9           0        1.427316    7.463393    3.972737
     19          9           0        2.472244    7.955125    2.153605
 ---------------------------------------------------------------------
                    Distance matrix (angstroms):
                    1          2          3          4          5
     1  O    0.000000
     2  H    0.961638   0.000000
     3  C    2.512269   3.352970   0.000000
     4  B    1.360480   1.942368   1.571409   0.000000
     5  O    2.337916   2.390593   2.597764   1.366192   0.000000
     6  H    3.177648   3.337146   2.690122   1.973406   0.958326
     7  C    3.797318   4.537153   1.396779   2.606332   3.094635
     8  H    4.164906   4.733803   2.163674   2.827966   2.800257
     9  C    4.943566   5.768245   2.431502   3.888919   4.484508
    10  H    5.909040   6.684778   3.413032   4.760850   5.144149
    11  C    5.122796   6.044667   2.794861   4.365813   5.274044
    12  C    4.273635   5.232759   2.427543   3.854971   5.018555
    13  H    4.901634   5.857660   3.411860   4.716711   5.959697
    14  C    2.887301   3.846052   1.401156   2.564265   3.829587
    15  H    2.497391   3.429071   2.146199   2.723094   4.086714
    16  C    6.579586   7.514459   4.293948   5.864556   6.754134
    17  F    7.023142   7.972065   4.951848   6.477506   7.476825
    18  F    7.418418   8.312660   4.979598   6.524230   7.211949
    19  F    7.076882   8.011878   4.922133   6.447929   7.374339
                    6          7          8          9         10
     6  H    0.000000
     7  C    2.718888   0.000000
     8  H    2.129490   1.086239   0.000000
     9  C    4.076066   1.390661   2.126871   0.000000
    10  H    4.570935   2.155657   2.451850   1.082451   0.000000
    11  C    5.069824   2.395847   3.368324   1.388570   2.146603
    12  C    5.073424   2.776860   3.862771   2.417559   3.396896
    13  H    6.092852   3.860644   4.946457   3.395594   4.285850
    14  C    4.061947   2.400357   3.396047   2.784243   3.866674
    15  H    4.539754   3.381105   4.293345   3.867973   4.950408
    16  C    6.493434   3.778951   4.635092   2.510117   2.719684
    17  F    7.308808   4.669471   5.590437   3.528360   3.831066
    18  F    6.785605   4.125675   4.745261   2.739573   2.406608
    19  F    7.153937   4.497515   5.341831   3.317218   3.499468
                   11         12         13         14         15
    11  C    0.000000
    12  C    1.392548   0.000000
    13  H    2.148283   1.083834   0.000000
    14  C    2.400177   1.386736   2.152620   0.000000
    15  H    3.384686   2.144788   2.482355   1.083738   0.000000
    16  C    1.499765   2.487103   2.675803   3.763536   4.630462
    17  F    2.350239   2.823054   2.586989   4.165980   4.846450
    18  F    2.360072   3.622434   3.963295   4.753272   5.716724
    19  F    2.352108   3.045179   3.023793   4.300715   5.063244
                   16         17         18         19
    16  C    0.000000
    17  F    1.340195   0.000000
    18  F    1.338019   2.159239   0.000000
    19  F    1.342902   2.150412   2.154743   0.000000
 Symmetry turned off by external request.
 Stoichiometry    C7H6BF3O2
 Framework group  C1[X(C7H6BF3O2)]
 Deg. of freedom    51
 Full point group                 C1      NOp   1
 Rotational constants (GHZ):           2.2445123           0.3583772           0.3265969
 Standard basis: 6-311+G(d,p) (5D, 7F)
   322 basis functions,   516 primitive gaussians,   335 cartesian basis functions
    48 alpha electrons       48 beta electrons
       nuclear repulsion energy       772.5058539725 Hartrees.
 NAtoms=   19 NActive=   19 NUniq=   19 SFac= 1.00D+00 NAtFMM=   60 NAOKFM=F Big=F
 Integral buffers will be    131072 words long.
 Raffenetti 2 integral format.
 Two-electron integral symmetry is turned off.
 One-electron integrals computed using PRISM.
 NBasis=   322 RedAO= T EigKep=  1.50D-06  NBF=   322
 NBsUse=   322 1.00D-06 EigRej= -1.00D+00 NBFU=   322
 Initial guess from the checkpoint file:  "4-cf3-phboh2-opt-freq.chk"
 B after Tr=     0.540208    0.306183   -1.000262
         Rot=    0.999449   -0.028986    0.010318   -0.012425 Ang=  -3.80 deg.
 ExpMin= 3.15D-02 ExpMax= 1.14D+04 ExpMxC= 1.72D+03 IAcc=3 IRadAn=         5 AccDes= 0.00D+00
 Harris functional with IExCor= 1009 and IRadAn=       5 diagonalized for initial guess.
 HarFok:  IExCor= 1009 AccDes= 0.00D+00 IRadAn=         5 IDoV= 1 UseB2=F ITyADJ=14
 ICtDFT=  3500011 ScaDFX=  1.000000  1.000000  1.000000  1.000000
 FoFCou: FMM=F IPFlag=           0 FMFlag=      100000 FMFlg1=           0
         NFxFlg=           0 DoJE=T BraDBF=F KetDBF=T FulRan=T
         wScrn=  0.000000 ICntrl=       500 IOpCl=  0 I1Cent=   200000004 NGrid=           0
         NMat0=    1 NMatS0=      1 NMatT0=    0 NMatD0=    1 NMtDS0=    0 NMtDT0=    0
 Symmetry not used in FoFCou.
 Requested convergence on RMS density matrix=1.00D-08 within 128 cycles.
 Requested convergence on MAX density matrix=1.00D-06.
 Requested convergence on             energy=1.00D-06.
 Level shift goal  0.100 maximum shift  0.100.
 No special actions if energy rises.
 Dynamic level shift is on during FON iterations.
 SCF Done:  E(RM062X) =  -745.277018507     A.U. after   15 cycles
            NFock= 15  Conv=0.46D-08     -V/T= 2.0030
 Calling FoFJK, ICntrl=      2127 FMM=F ISym2X=0 I1Cent= 0 IOpClX= 0 NMat=1 NMatS=1 NMatT=0.
 -------------------------------------------------------------------
 Center     Atomic                   Forces (Hartrees/Bohr)
 Number     Number              X              Y              Z
 -------------------------------------------------------------------
      1        8          -0.000035615   -0.000001087    0.000007285
      2        1           0.000014090    0.000009134   -0.000002946
      3        6          -0.000021229    0.000100260   -0.000125690
      4        5           0.000150994   -0.000052068    0.000007758
      5        8          -0.000080448    0.000018922   -0.000012513
      6        1           0.000015425   -0.000026934    0.000017288
      7        6          -0.000115801   -0.000023321    0.000117329
      8        1          -0.000004652    0.000000387   -0.000009912
      9        6           0.000008381    0.000040107    0.000006620
     10        1          -0.000116490   -0.000072332   -0.000100671
     11        6           0.001643877   -0.000610962    0.000124688
     12        6           0.000102512    0.000093567    0.000085856
     13        1           0.000048734   -0.000050777   -0.000076681
     14        6           0.000008339   -0.000000041    0.000212946
     15        1          -0.000009353   -0.000003794   -0.000028223
     16        6           0.000173255   -0.000039495    0.000095723
     17        9          -0.000774619    0.001279412    0.000152605
     18        9          -0.001007533   -0.000386725    0.000438405
     19        9           0.000000133   -0.000274253   -0.000909868
 -------------------------------------------------------------------
 Cartesian Forces:  Max     0.001643877 RMS     0.000371249

 GradGradGradGradGradGradGradGradGradGradGradGradGradGradGradGradGradGrad
 Berny optimization.
 Using GEDIIS/GDIIS optimizer.
 FormGI is forming the generalized inverse of G from B-inverse, IUseBI=4.
 Internal  Forces:  Max     0.001645916 RMS     0.000318836
 Search for a local minimum.
 Step number   2 out of a maximum of   96
 All quantities printed in internal units (Hartrees-Bohrs-Radians)
 Mixed Optimization -- En-DIIS/RFO-DIIS
 Update second derivatives using D2CorX and points    1    2
 DE= -3.19D-03 DEPred=-3.36D-03 R= 9.51D-01
 TightC=F SS=  1.41D+00  RLast= 7.67D-01 DXNew= 5.0454D-01 2.3006D+00
 Trust test= 9.51D-01 RLast= 7.67D-01 DXMaxT set to 5.05D-01
 ITU=  1  0
 Use linear search instead of GDIIS.
     Eigenvalues ---   -0.00018   0.00039   0.01014   0.01228   0.01511
     Eigenvalues ---    0.01571   0.01725   0.01996   0.02161   0.02409
     Eigenvalues ---    0.02683   0.02735   0.02816   0.03931   0.10425
     Eigenvalues ---    0.11237   0.11514   0.11696   0.12058   0.12396
     Eigenvalues ---    0.12766   0.12873   0.15981   0.17961   0.18643
     Eigenvalues ---    0.18833   0.19030   0.19791   0.20014   0.22766
     Eigenvalues ---    0.24368   0.25648   0.27606   0.29380   0.35499
     Eigenvalues ---    0.36350   0.36434   0.36507   0.36589   0.37352
     Eigenvalues ---    0.39142   0.40151   0.42385   0.43747   0.47740
     Eigenvalues ---    0.47958   0.49024   0.50810   0.52043   0.55239
     Eigenvalues ---    0.56251
 RFO step:  Lambda=-2.34711591D-04 EMin=-1.82569447D-04
 Quartic linear search produced a step of -0.03291.
 Iteration  1 RMS(Cart)=  0.08376615 RMS(Int)=  0.05832466
 Iteration  2 RMS(Cart)=  0.08293534 RMS(Int)=  0.00835489
 Iteration  3 RMS(Cart)=  0.01071823 RMS(Int)=  0.00011471
 Iteration  4 RMS(Cart)=  0.00013298 RMS(Int)=  0.00004753
 Iteration  5 RMS(Cart)=  0.00000002 RMS(Int)=  0.00004753
 Variable       Old X    -DE/DX   Delta X   Delta X   Delta X     New X
                                 (Linear)    (Quad)   (Total)
    R1        1.81723   0.00001  -0.00001   0.00004   0.00003   1.81726
    R2        2.57094  -0.00001   0.00014  -0.00048  -0.00034   2.57060
    R3        2.96953   0.00008  -0.00029   0.00092   0.00063   2.97016
    R4        2.63953   0.00008   0.00014   0.00445   0.00458   2.64411
    R5        2.64780  -0.00003  -0.00005  -0.00461  -0.00466   2.64314
    R6        2.58173  -0.00001   0.00018  -0.00039  -0.00021   2.58152
    R7        1.81097   0.00000   0.00000   0.00001   0.00002   1.81099
    R8        2.05269  -0.00001   0.00005  -0.00022  -0.00017   2.05252
    R9        2.62797  -0.00005  -0.00001  -0.00554  -0.00555   2.62242
   R10        2.04554   0.00012   0.00007   0.00209   0.00216   2.04770
   R11        2.62402  -0.00004   0.00017   0.00475   0.00493   2.62894
   R12        2.63153   0.00012  -0.00004  -0.00548  -0.00551   2.62602
   R13        2.83415   0.00165   0.00250  -0.00077   0.00174   2.83588
   R14        2.04815  -0.00001  -0.00001  -0.00187  -0.00188   2.04627
   R15        2.62055   0.00005   0.00019   0.00524   0.00543   2.62598
   R16        2.04797  -0.00001   0.00003  -0.00003   0.00000   2.04797
   R17        2.53260   0.00141   0.00061  -0.00411  -0.00351   2.52910
   R18        2.52849   0.00114   0.00075   0.00526   0.00601   2.53450
   R19        2.53772   0.00094   0.00044   0.00067   0.00111   2.53883
    A1        1.96177   0.00003  -0.00017   0.00071   0.00054   1.96230
    A2        2.14181  -0.00003  -0.00004  -0.00080  -0.00084   2.14097
    A3        2.07902   0.00000   0.00013   0.00033   0.00046   2.07948
    A4        2.06235   0.00003  -0.00009   0.00048   0.00038   2.06273
    A5        2.05524  -0.00003   0.00032  -0.00026   0.00006   2.05530
    A6        2.06049   0.00006  -0.00026   0.00120   0.00094   2.06143
    A7        2.16746  -0.00003  -0.00006  -0.00095  -0.00100   2.16646
    A8        2.00832   0.00006  -0.00035   0.00095   0.00060   2.00892
    A9        2.10713   0.00002  -0.00009   0.00018   0.00010   2.10723
   A10        2.11980  -0.00004  -0.00007  -0.00219  -0.00227   2.11753
   A11        2.05626   0.00001   0.00016   0.00201   0.00217   2.05842
   A12        2.10822   0.00005  -0.00036   0.00172   0.00135   2.10957
   A13        2.07862   0.00003   0.00036   0.00118   0.00154   2.08016
   A14        2.09633  -0.00009   0.00001  -0.00288  -0.00288   2.09345
   A15        2.10747   0.00003  -0.00047   0.00198   0.00150   2.10898
   A16        2.10573  -0.00055  -0.00039  -0.03459  -0.03500   2.07073
   A17        2.06933   0.00052   0.00088   0.03296   0.03383   2.10316
   A18        2.09132   0.00006   0.00009   0.00300   0.00308   2.09440
   A19        2.08471  -0.00008   0.00029  -0.00372  -0.00343   2.08128
   A20        2.10714   0.00001  -0.00037   0.00073   0.00036   2.10750
   A21        2.11342   0.00002   0.00000   0.00227   0.00227   2.11568
   A22        2.07547   0.00001  -0.00007   0.00031   0.00024   2.07571
   A23        2.09429  -0.00003   0.00008  -0.00258  -0.00250   2.09179
   A24        1.94735   0.00082  -0.00121   0.01802   0.01680   1.96415
   A25        1.96201   0.00007  -0.00169  -0.00864  -0.01031   1.95170
   A26        1.94696  -0.00020  -0.00120   0.00220   0.00094   1.94789
   A27        1.87548  -0.00056   0.00116  -0.00526  -0.00403   1.87145
   A28        1.85949  -0.00011   0.00168   0.00375   0.00534   1.86482
   A29        1.86708  -0.00006   0.00143  -0.01077  -0.00936   1.85772
    D1        3.13610  -0.00001  -0.00015  -0.00377  -0.00392   3.13218
    D2       -0.00401   0.00001  -0.00012  -0.00278  -0.00290  -0.00691
    D3        3.10530   0.00001  -0.00090  -0.02875  -0.02965   3.07565
    D4       -0.03787  -0.00001  -0.00093  -0.02981  -0.03074  -0.06861
    D5       -0.03921   0.00001  -0.00079  -0.02745  -0.02824  -0.06745
    D6        3.10080  -0.00001  -0.00082  -0.02851  -0.02933   3.07147
    D7       -0.00465   0.00000  -0.00012  -0.00311  -0.00325  -0.00789
    D8        3.13799   0.00002   0.00002  -0.00216  -0.00212   3.13586
    D9        3.13984   0.00000  -0.00023  -0.00440  -0.00464   3.13520
   D10       -0.00071   0.00002  -0.00009  -0.00345  -0.00352  -0.00423
   D11       -3.13551  -0.00003  -0.00006  -0.00070  -0.00075  -3.13626
   D12        0.00208   0.00001   0.00005   0.00151   0.00153   0.00362
   D13        0.00329  -0.00003   0.00005   0.00054   0.00060   0.00389
   D14        3.14088   0.00002   0.00015   0.00274   0.00288  -3.13942
   D15        3.12533  -0.00001  -0.00040  -0.01330  -0.01370   3.11163
   D16       -0.01468   0.00001  -0.00037  -0.01224  -0.01261  -0.02728
   D17       -3.13715  -0.00002  -0.00018   0.00018  -0.00007  -3.13722
   D18       -0.00285  -0.00001   0.00011   0.00367   0.00375   0.00090
   D19        0.00546   0.00000  -0.00005   0.00111   0.00102   0.00648
   D20        3.13976   0.00001   0.00024   0.00460   0.00484  -3.13858
   D21        0.00392   0.00002  -0.00008  -0.00094  -0.00102   0.00291
   D22        3.10612   0.00011   0.00118   0.01023   0.01123   3.11735
   D23        3.13827   0.00003   0.00021   0.00254   0.00279   3.14106
   D24       -0.04272   0.00012   0.00147   0.01372   0.01503  -0.02769
   D25       -3.13634  -0.00004  -0.00022  -0.00380  -0.00395  -3.14030
   D26       -0.00141  -0.00003   0.00004  -0.00188  -0.00182  -0.00323
   D27        0.04384  -0.00010  -0.00145  -0.01326  -0.01489   0.02895
   D28       -3.10441  -0.00010  -0.00120  -0.01135  -0.01276  -3.11717
   D29        2.39056  -0.00013   0.00906   0.39541   0.40442   2.79499
   D30        0.28219  -0.00004   0.00952   0.39541   0.40499   0.68718
   D31       -1.81507   0.00014   0.00962   0.41374   0.42339  -1.39168
   D32       -0.78958  -0.00005   0.01030   0.40570   0.41591  -0.37366
   D33       -2.89795   0.00004   0.01076   0.40570   0.41648  -2.48147
   D34        1.28797   0.00022   0.01085   0.42402   0.43488   1.72285
   D35       -0.00227   0.00003  -0.00002   0.00209   0.00203  -0.00024
   D36       -3.13982  -0.00001  -0.00013  -0.00015  -0.00028  -3.14009
   D37        3.13260   0.00004   0.00024   0.00403   0.00419   3.13679
   D38       -0.00495   0.00000   0.00013   0.00179   0.00188  -0.00307
         Item               Value     Threshold  Converged?
 Maximum Force            0.001646     0.000015     NO 
 RMS     Force            0.000319     0.000010     NO 
 Maximum Displacement     0.771117     0.000060     NO 
 RMS     Displacement     0.170202     0.000040     NO 
 Predicted change in Energy=-2.347370D-04
 GradGradGradGradGradGradGradGradGradGradGradGradGradGradGradGradGradGrad

                          Input orientation:                          
 ---------------------------------------------------------------------
 Center     Atomic      Atomic             Coordinates (Angstroms)
 Number     Number       Type             X           Y           Z
 ---------------------------------------------------------------------
      1          8           0        8.683317    7.455023    5.543618
      2          1           0        9.499353    7.148066    5.949369
      3          6           0        6.241026    6.998205    5.170815
      4          5           0        7.641718    6.609527    5.768617
      5          8           0        7.876019    5.480033    6.500411
      6          1           0        7.107457    4.928676    6.654442
      7          6           0        5.119403    6.168008    5.273333
      8          1           0        5.184687    5.205982    5.773297
      9          6           0        3.893767    6.542147    4.740777
     10          1           0        3.028889    5.895180    4.827951
     11          6           0        3.781798    7.767484    4.091637
     12          6           0        4.878727    8.611861    3.969791
     13          1           0        4.776020    9.563178    3.462847
     14          6           0        6.098712    8.222203    4.509071
     15          1           0        6.960220    8.873758    4.420896
     16          6           0        2.458914    8.146040    3.492699
     17          9           0        2.348018    9.463518    3.285068
     18          9           0        1.433785    7.779733    4.276118
     19          9           0        2.263556    7.547068    2.306092
 ---------------------------------------------------------------------
                    Distance matrix (angstroms):
                    1          2          3          4          5
     1  O    0.000000
     2  H    0.961651   0.000000
     3  C    2.512459   3.353401   0.000000
     4  B    1.360301   1.942551   1.571742   0.000000
     5  O    2.338327   2.391902   2.597282   1.366081   0.000000
     6  H    3.178001   3.338260   2.689759   1.973671   0.958335
     7  C    3.798808   4.538888   1.399205   2.608125   3.094828
     8  H    4.165495   4.734874   2.165848   2.829657   2.801261
     9  C    4.941425   5.766318   2.429515   3.886917   4.481375
    10  H    5.909132   6.685373   3.413509   4.761652   5.144331
    11  C    5.121598   6.043615   2.793603   4.364872   5.272312
    12  C    4.276694   5.235610   2.429445   3.857361   5.019576
    13  H    4.903151   5.858791   3.412108   4.717293   5.958931
    14  C    2.887739   3.846114   1.398689   2.562820   3.826716
    15  H    2.498475   3.429496   2.144136   2.721679   4.084170
    16  C    6.589913   7.523228   4.293945   5.865332   6.745291
    17  F    7.019339   7.975050   4.978888   6.506653   7.534280
    18  F    7.366662   8.261487   4.951852   6.491176   7.192946
    19  F    7.190506   8.111069   4.932358   6.464726   7.305113
                    6          7          8          9         10
     6  H    0.000000
     7  C    2.719516   0.000000
     8  H    2.133157   1.086149   0.000000
     9  C    4.073476   1.387724   2.125537   0.000000
    10  H    4.572190   2.154774   2.452782   1.083596   0.000000
    11  C    5.068216   2.396647   3.370070   1.391176   2.148151
    12  C    5.073504   2.780210   3.866039   2.418322   3.396865
    13  H    6.091016   3.863023   4.948771   3.396778   4.286045
    14  C    4.058018   2.400596   3.395777   2.781736   3.865299
    15  H    4.535866   3.381766   4.293493   3.865471   4.949039
    16  C    6.477422   3.763173   4.612473   2.487765   2.678458
    17  F    7.387133   4.742801   5.688988   3.611487   3.946784
    18  F    6.780524   4.144379   4.789051   2.792676   2.529904
    19  F    7.016231   4.343062   5.102470   3.097603   3.110343
                   11         12         13         14         15
    11  C    0.000000
    12  C    1.389630   0.000000
    13  H    2.146711   1.082840   0.000000
    14  C    2.397730   1.389611   2.154602   0.000000
    15  H    3.381511   2.145856   2.482717   1.083741   0.000000
    16  C    1.500684   2.510000   2.716274   3.779807   4.653265
    17  F    2.362797   2.756566   2.436541   4.136031   4.786474
    18  F    2.355281   3.557232   3.874612   4.691651   5.635542
    19  F    2.354105   3.277316   3.422756   4.474075   5.318943
                   16         17         18         19
    16  C    0.000000
    17  F    1.338341   0.000000
    18  F    1.341199   2.157112   0.000000
    19  F    1.343492   2.153673   2.150269   0.000000
 Symmetry turned off by external request.
 Stoichiometry    C7H6BF3O2
 Framework group  C1[X(C7H6BF3O2)]
 Deg. of freedom    51
 Full point group                 C1      NOp   1
 Rotational constants (GHZ):           2.2456992           0.3580084           0.3263529
 Standard basis: 6-311+G(d,p) (5D, 7F)
   322 basis functions,   516 primitive gaussians,   335 cartesian basis functions
    48 alpha electrons       48 beta electrons
       nuclear repulsion energy       772.3275719321 Hartrees.
 NAtoms=   19 NActive=   19 NUniq=   19 SFac= 1.00D+00 NAtFMM=   60 NAOKFM=F Big=F
 Integral buffers will be    131072 words long.
 Raffenetti 2 integral format.
 Two-electron integral symmetry is turned off.
 One-electron integrals computed using PRISM.
 NBasis=   322 RedAO= T EigKep=  1.50D-06  NBF=   322
 NBsUse=   322 1.00D-06 EigRej= -1.00D+00 NBFU=   322
 Initial guess from the checkpoint file:  "4-cf3-phboh2-opt-freq.chk"
 B after Tr=    -0.667366   -0.323279    1.371477
         Rot=    0.999014    0.039318   -0.012870    0.016088 Ang=   5.09 deg.
 ExpMin= 3.15D-02 ExpMax= 1.14D+04 ExpMxC= 1.72D+03 IAcc=3 IRadAn=         5 AccDes= 0.00D+00
 Harris functional with IExCor= 1009 and IRadAn=       5 diagonalized for initial guess.
 HarFok:  IExCor= 1009 AccDes= 0.00D+00 IRadAn=         5 IDoV= 1 UseB2=F ITyADJ=14
 ICtDFT=  3500011 ScaDFX=  1.000000  1.000000  1.000000  1.000000
 FoFCou: FMM=F IPFlag=           0 FMFlag=      100000 FMFlg1=           0
         NFxFlg=           0 DoJE=T BraDBF=F KetDBF=T FulRan=T
         wScrn=  0.000000 ICntrl=       500 IOpCl=  0 I1Cent=   200000004 NGrid=           0
         NMat0=    1 NMatS0=      1 NMatT0=    0 NMatD0=    1 NMtDS0=    0 NMtDT0=    0
 Symmetry not used in FoFCou.
 Requested convergence on RMS density matrix=1.00D-08 within 128 cycles.
 Requested convergence on MAX density matrix=1.00D-06.
 Requested convergence on             energy=1.00D-06.
 Level shift goal  0.100 maximum shift  0.100.
 No special actions if energy rises.
 Dynamic level shift is on during FON iterations.
 SCF Done:  E(RM062X) =  -745.277023663     A.U. after   15 cycles
            NFock= 15  Conv=0.90D-08     -V/T= 2.0030
 Calling FoFJK, ICntrl=      2127 FMM=F ISym2X=0 I1Cent= 0 IOpClX= 0 NMat=1 NMatS=1 NMatT=0.
 -------------------------------------------------------------------
 Center     Atomic                   Forces (Hartrees/Bohr)
 Number     Number              X              Y              Z
 -------------------------------------------------------------------
      1        8           0.000105978    0.000021424    0.000010305
      2        1          -0.000015900   -0.000006704   -0.000003359
      3        6           0.000032632   -0.000134518    0.000108883
      4        5          -0.000202078    0.000051871   -0.000026265
      5        8           0.000055840   -0.000054949    0.000041193
      6        1          -0.000004794    0.000016846   -0.000011929
      7        6           0.000161054   -0.000030167   -0.000104700
      8        1           0.000012814   -0.000021306    0.000027546
      9        6           0.000211506   -0.000245558   -0.000194336
     10        1           0.000080026    0.000122626    0.000196797
     11        6           0.000004182    0.000249033    0.001153084
     12        6           0.000077845   -0.000247676   -0.000224697
     13        1          -0.000119865    0.000128787    0.000148107
     14        6           0.000058060    0.000064170   -0.000257009
     15        1           0.000025396    0.000007159    0.000040189
     16        6          -0.001259972    0.000259863   -0.000877939
     17        9           0.000788198    0.000662880    0.000067055
     18        9          -0.000304523   -0.000367702    0.000787300
     19        9           0.000293601   -0.000476078   -0.000880227
 -------------------------------------------------------------------
 Cartesian Forces:  Max     0.001259972 RMS     0.000360372

 GradGradGradGradGradGradGradGradGradGradGradGradGradGradGradGradGradGrad
 Berny optimization.
 Using GEDIIS/GDIIS optimizer.
 FormGI is forming the generalized inverse of G from B-inverse, IUseBI=4.
 Internal  Forces:  Max     0.001277184 RMS     0.000302550
 Search for a local minimum.
 Step number   3 out of a maximum of   96
 All quantities printed in internal units (Hartrees-Bohrs-Radians)
 Mixed Optimization -- En-DIIS/RFO-DIIS
 Swapping is turned off.
 Update second derivatives using D2CorX and points    1    2    3
 DE= -5.16D-06 DEPred=-2.35D-04 R= 2.20D-02
 Trust test= 2.20D-02 RLast= 1.02D+00 DXMaxT set to 2.52D-01
 ITU= -1  1  0
     Eigenvalues ---    0.00016   0.00039   0.01014   0.01229   0.01511
     Eigenvalues ---    0.01721   0.01742   0.02002   0.02162   0.02409
     Eigenvalues ---    0.02700   0.02744   0.02823   0.03932   0.10428
     Eigenvalues ---    0.11264   0.11517   0.11716   0.12059   0.12401
     Eigenvalues ---    0.12781   0.12958   0.15984   0.18008   0.18664
     Eigenvalues ---    0.18852   0.19296   0.19831   0.20728   0.23228
     Eigenvalues ---    0.24943   0.25908   0.28022   0.29394   0.35504
     Eigenvalues ---    0.36367   0.36437   0.36563   0.36685   0.37568
     Eigenvalues ---    0.39165   0.42042   0.42523   0.47542   0.47940
     Eigenvalues ---    0.49025   0.51145   0.52220   0.52371   0.55240
     Eigenvalues ---    0.56252
 En-DIIS/RFO-DIIS/Sim-DIIS IScMMF=       -3 using points:     3    2
 RFO step:  Lambda=-3.85035713D-05.
 DidBck=T Rises=F RFO-DIIS coefs:    0.76645    0.23355
 Iteration  1 RMS(Cart)=  0.03993381 RMS(Int)=  0.00145106
 Iteration  2 RMS(Cart)=  0.00153880 RMS(Int)=  0.00000389
 Iteration  3 RMS(Cart)=  0.00000184 RMS(Int)=  0.00000369
 Iteration  4 RMS(Cart)=  0.00000000 RMS(Int)=  0.00000369
 Variable       Old X    -DE/DX   Delta X   Delta X   Delta X     New X
                                 (Linear)    (Quad)   (Total)
    R1        1.81726  -0.00001  -0.00001  -0.00002  -0.00002   1.81723
    R2        2.57060   0.00008   0.00008   0.00012   0.00020   2.57080
    R3        2.97016  -0.00006  -0.00015  -0.00006  -0.00021   2.96996
    R4        2.64411  -0.00005  -0.00107  -0.00005  -0.00112   2.64300
    R5        2.64314   0.00006   0.00109   0.00013   0.00122   2.64436
    R6        2.58152   0.00005   0.00005   0.00008   0.00013   2.58165
    R7        1.81099  -0.00001   0.00000  -0.00002  -0.00003   1.81096
    R8        2.05252   0.00003   0.00004   0.00005   0.00009   2.05261
    R9        2.62242   0.00016   0.00130   0.00020   0.00150   2.62392
   R10        2.04770  -0.00012  -0.00051  -0.00006  -0.00056   2.04714
   R11        2.62894   0.00023  -0.00115   0.00003  -0.00112   2.62782
   R12        2.62602  -0.00001   0.00129   0.00010   0.00139   2.62741
   R13        2.83588   0.00081  -0.00041   0.00374   0.00333   2.83921
   R14        2.04627   0.00005   0.00044   0.00007   0.00051   2.04678
   R15        2.62598   0.00000  -0.00127  -0.00003  -0.00130   2.62469
   R16        2.04797   0.00002   0.00000   0.00002   0.00002   2.04799
   R17        2.52910   0.00057   0.00082   0.00160   0.00242   2.53151
   R18        2.53450   0.00080  -0.00140   0.00147   0.00007   2.53456
   R19        2.53883   0.00095  -0.00026   0.00140   0.00114   2.53997
    A1        1.96230  -0.00001  -0.00013  -0.00003  -0.00016   1.96214
    A2        2.14097   0.00002   0.00020   0.00008   0.00028   2.14125
    A3        2.07948   0.00000  -0.00011  -0.00007  -0.00017   2.07931
    A4        2.06273  -0.00002  -0.00009  -0.00002  -0.00011   2.06263
    A5        2.05530   0.00005  -0.00001   0.00007   0.00005   2.05535
    A6        2.06143  -0.00007  -0.00022  -0.00019  -0.00041   2.06102
    A7        2.16646   0.00002   0.00023   0.00012   0.00035   2.16681
    A8        2.00892  -0.00004  -0.00014   0.00010  -0.00004   2.00888
    A9        2.10723  -0.00004  -0.00002  -0.00003  -0.00005   2.10718
   A10        2.11753   0.00004   0.00053   0.00013   0.00066   2.11819
   A11        2.05842   0.00000  -0.00051  -0.00011  -0.00061   2.05781
   A12        2.10957  -0.00007  -0.00032  -0.00005  -0.00037   2.10921
   A13        2.08016   0.00002  -0.00036  -0.00009  -0.00044   2.07971
   A14        2.09345   0.00006   0.00067   0.00013   0.00080   2.09425
   A15        2.10898  -0.00019  -0.00035  -0.00012  -0.00048   2.10850
   A16        2.07073   0.00087   0.00817   0.00138   0.00955   2.08027
   A17        2.10316  -0.00068  -0.00790  -0.00144  -0.00935   2.09381
   A18        2.09440  -0.00017  -0.00072  -0.00041  -0.00113   2.09327
   A19        2.08128   0.00019   0.00080   0.00024   0.00105   2.08233
   A20        2.10750  -0.00003  -0.00008   0.00016   0.00007   2.10757
   A21        2.11568  -0.00003  -0.00053  -0.00015  -0.00068   2.11500
   A22        2.07571  -0.00001  -0.00006  -0.00001  -0.00007   2.07564
   A23        2.09179   0.00004   0.00058   0.00016   0.00075   2.09254
   A24        1.96415  -0.00128  -0.00392  -0.00152  -0.00544   1.95870
   A25        1.95170  -0.00036   0.00241  -0.00029   0.00212   1.95381
   A26        1.94789  -0.00034  -0.00022  -0.00096  -0.00117   1.94672
   A27        1.87145   0.00089   0.00094   0.00096   0.00189   1.87335
   A28        1.86482   0.00065  -0.00125   0.00079  -0.00045   1.86438
   A29        1.85772   0.00063   0.00219   0.00129   0.00349   1.86121
    D1        3.13218   0.00000   0.00092   0.00056   0.00148   3.13366
    D2       -0.00691   0.00000   0.00068   0.00053   0.00120  -0.00570
    D3        3.07565   0.00001   0.00693   0.00464   0.01157   3.08722
    D4       -0.06861   0.00001   0.00718   0.00468   0.01186  -0.05675
    D5       -0.06745  -0.00001   0.00660   0.00389   0.01049  -0.05697
    D6        3.07147  -0.00001   0.00685   0.00393   0.01078   3.08225
    D7       -0.00789   0.00000   0.00076   0.00025   0.00101  -0.00689
    D8        3.13586  -0.00004   0.00050  -0.00017   0.00033   3.13619
    D9        3.13520   0.00001   0.00108   0.00100   0.00208   3.13728
   D10       -0.00423  -0.00002   0.00082   0.00058   0.00140  -0.00283
   D11       -3.13626   0.00004   0.00017   0.00014   0.00031  -3.13595
   D12        0.00362  -0.00001  -0.00036  -0.00010  -0.00046   0.00316
   D13        0.00389   0.00003  -0.00014  -0.00058  -0.00072   0.00317
   D14       -3.13942  -0.00003  -0.00067  -0.00082  -0.00149  -3.14091
   D15        3.11163   0.00000   0.00320   0.00180   0.00500   3.11663
   D16       -0.02728   0.00000   0.00294   0.00177   0.00471  -0.02257
   D17       -3.13722   0.00005   0.00002   0.00118   0.00119  -3.13602
   D18        0.00090   0.00000  -0.00088  -0.00071  -0.00158  -0.00068
   D19        0.00648   0.00002  -0.00024   0.00077   0.00053   0.00701
   D20       -3.13858  -0.00003  -0.00113  -0.00111  -0.00225  -3.14083
   D21        0.00291   0.00000   0.00024   0.00084   0.00107   0.00398
   D22        3.11735  -0.00022  -0.00262  -0.00651  -0.00913   3.10821
   D23        3.14106  -0.00004  -0.00065  -0.00103  -0.00168   3.13938
   D24       -0.02769  -0.00026  -0.00351  -0.00837  -0.01189  -0.03957
   D25       -3.14030   0.00005   0.00092   0.00094   0.00186  -3.13844
   D26       -0.00323   0.00001   0.00043  -0.00084  -0.00042  -0.00365
   D27        0.02895   0.00025   0.00348   0.00837   0.01185   0.04080
   D28       -3.11717   0.00021   0.00298   0.00659   0.00957  -3.10760
   D29        2.79499   0.00021  -0.09445   0.00444  -0.09001   2.70498
   D30        0.68718   0.00023  -0.09459   0.00449  -0.09010   0.59708
   D31       -1.39168  -0.00009  -0.09889   0.00370  -0.09518  -1.48686
   D32       -0.37366   0.00000  -0.09714  -0.00286  -0.09999  -0.47365
   D33       -2.48147   0.00002  -0.09727  -0.00280  -0.10008  -2.58155
[...]
 4,0.50000225,0.03665238,0.04191044,-0.06609996,-0.01342840,-0.00951709
 ,0.00565753,-0.04356020,0.01525720,-0.08500921,0.05460105,-0.19277886,
 0.27807982,0.00610799,-0.03397365,0.01871463,0.00406314,0.00242299,0.0
 0046706,0.00203084,0.02105449,-0.01668543,-0.09403843,0.02362758,-0.02
 649362,0.45197867,-0.02187764,-0.04169338,0.02760606,0.00464505,-0.001
 48056,-0.00000179,0.00415459,-0.00528648,0.01476645,0.05659348,-0.2423
 3123,0.13457510,0.20742867,0.48427329,0.01154704,0.02462208,0.00065041
 ,-0.00093621,-0.00062182,-0.00329666,-0.00622375,0.01903677,0.00415263
 ,-0.04684530,0.12703392,-0.13295088,-0.02899509,-0.23194274,0.16410272
 ,0.00242993,0.00202365,-0.00210981,0.00017510,0.00040989,-0.00000249,-
 0.00133762,0.00092822,-0.00012271,0.00410998,0.00239754,0.00009752,-0.
 36444527,-0.25343365,0.07395480,0.36083024,0.00068639,-0.00094793,0.00
 449562,0.00059000,-0.00042009,-0.00006602,0.00047862,0.00082689,-0.002
 24570,-0.02534926,-0.01793606,0.00356344,-0.22289171,-0.19283406,0.061
 67550,0.24697509,0.20963355,-0.00144067,0.00471050,0.00306042,-0.00007
 966,-0.00008598,-0.00078220,-0.00000473,-0.00205661,-0.00152778,0.0173
 1803,0.00961228,-0.00435583,0.05520205,0.05505385,-0.03046734,-0.07025
 663,-0.06725365,0.03296476,-0.00149059,0.00073666,-0.00111039,-0.00061
 780,-0.00033220,0.00009207,-0.25423397,-0.07458381,-0.01268707,-0.0173
 9373,-0.00862991,-0.00063739,0.00034962,-0.00272225,0.00204530,0.00102
 318,0.00028609,0.00014072,0.64121643,0.00479130,-0.00032473,0.00177709
 ,0.00061929,0.00042667,0.00002058,-0.12556979,-0.18082485,0.02957855,-
 0.00060461,0.01199666,-0.00548349,-0.00004444,-0.00487035,0.00207302,0
 .00355911,0.00050405,0.00117493,0.04679667,0.60617722,-0.00313396,0.00
 077708,-0.00048253,-0.00053392,-0.00019847,0.00028714,0.01497770,0.043
 14064,-0.08161371,-0.00504127,-0.00758851,0.00486845,0.00055192,0.0011
 8896,-0.00143235,-0.00174027,-0.00002257,-0.00036801,0.11012273,-0.236
 26493,0.29409909,0.00029905,0.00039560,-0.00020590,-0.00005566,-0.0000
 8166,-0.00002831,0.00699726,-0.02030066,0.01234592,0.00013364,-0.00104
 352,0.00137423,0.00000443,0.00080729,-0.00013046,-0.00213048,0.0002675
 2,-0.00151655,-0.05916952,0.01024148,-0.01095902,0.06038908,-0.0001606
 1,0.00065146,-0.00033273,-0.00016311,-0.00003627,0.00009010,0.00230720
 ,-0.01180137,0.00776657,0.00156886,-0.00312002,0.00063703,0.00101093,0
 .00177901,-0.00105554,-0.00135804,0.00100029,-0.00025841,0.01400849,-0
 .26496451,0.12443734,-0.01314742,0.27874572,0.00022338,-0.00011844,0.0
 0029170,0.00001973,0.00012227,0.00014423,0.00043232,0.00166204,0.00076
 010,-0.00004104,-0.00014807,-0.00294866,-0.00041553,-0.00111125,-0.000
 13378,-0.00052496,0.00037694,0.00103950,-0.01319442,0.12307654,-0.1071
 2875,0.01672711,-0.13856396,0.10317067,-0.00206732,0.00052637,-0.00064
 746,-0.00011946,-0.00010994,0.00014535,-0.05333161,-0.04052312,0.00468
 809,-0.00066290,-0.00664023,0.00165600,0.00104330,0.00091932,-0.000300
 12,-0.00044576,0.00038688,-0.00011714,-0.29656677,0.07685991,-0.103778
 61,0.00179861,-0.00169023,0.00029515,0.70828545,0.00008718,0.00064512,
 -0.00065821,-0.00038370,-0.00017270,-0.00017090,0.00738596,0.05393178,
 -0.02151501,-0.00326548,0.00000861,0.00268045,0.00011380,0.00082045,-0
 .00035613,-0.00084211,-0.00023675,-0.00064471,0.00925182,-0.13083903,0
 .03757265,0.02579498,-0.00468735,0.01201231,0.09536441,0.58776607,-0.0
 0066787,-0.00047744,-0.00030362,0.00028431,-0.00020552,-0.00030436,-0.
 02077355,-0.03301162,0.02302475,-0.00003721,0.00169070,0.00539796,0.00
 010764,-0.00017668,0.00016574,0.00064190,-0.00022465,-0.00033602,-0.06
 821098,0.05543245,-0.11257052,-0.01445981,0.00436310,-0.00197328,0.101
 63641,-0.21545835,0.28035974,-0.00055811,0.00003014,-0.00012905,-0.000
 04751,-0.00004096,0.00002291,-0.00316907,0.00175517,-0.00372810,0.0002
 1422,-0.00100165,0.00058409,-0.00009581,0.00030641,-0.00020832,-0.0000
 6280,-0.00008836,0.00002695,-0.01513991,-0.01724247,0.00419188,0.00059
 644,0.00061057,0.00088904,-0.24186653,-0.13930716,0.02062343,0.2540658
 8,0.00016298,-0.00005279,0.00000591,0.00004029,0.00000760,-0.00001456,
 0.00158847,0.00190760,0.00346535,0.00019996,0.00040104,-0.00009434,-0.
 00003854,-0.00006623,0.00004342,0.00003964,0.00002190,0.00000667,0.008
 68580,0.00951043,-0.00069565,0.00019419,-0.00035843,-0.00203250,-0.137
 83693,-0.15569502,0.02651483,0.14874767,0.15927901,-0.00020766,-0.0000
 2707,-0.00016149,-0.00003271,-0.00003306,-0.00002110,-0.00372604,0.003
 54069,0.00459617,-0.00007648,-0.00041458,0.00034807,-0.00002509,0.0001
 5221,-0.00005181,-0.00003682,-0.00003827,0.00000471,-0.00993195,-0.007
 86780,0.00531706,0.00117777,-0.00185926,-0.00288470,0.02058949,0.02685
 248,-0.04738121,-0.01987431,-0.03236262,0.03841320,-0.00230456,-0.0003
 2563,-0.00033654,0.00028353,0.00001923,0.00000300,-0.01598495,-0.02489
 208,0.01090587,0.00375617,-0.00240328,0.00249098,-0.00064708,0.0009571
 5,-0.00066428,0.00023913,-0.00028210,0.00021165,0.02828707,0.03044187,
 -0.01066194,-0.00451521,0.00132693,-0.00384895,-0.12731111,0.03668434,
 -0.03649114,0.00589839,-0.02207775,0.01261484,0.65080411,-0.00055115,0
 .00026409,-0.00023117,0.00001665,-0.00009609,0.00002382,-0.02629945,-0
 .05781982,0.01989752,-0.00200304,-0.00290173,0.00076687,0.00105214,-0.
 00045295,0.00029802,-0.00000675,0.00048982,-0.00007753,0.08373207,-0.0
 0046512,0.02656696,0.00058637,0.00279911,0.00251918,-0.03127390,-0.274
 15760,0.10409327,0.00224669,-0.01059727,0.00825470,0.07487509,0.604962
 48,0.00006574,-0.00016520,0.00002995,0.00002331,0.00007599,-0.00000407
 ,0.01267034,0.01958634,-0.01524516,0.00115163,0.00100197,-0.00049097,-
 0.00038496,-0.00002920,-0.00046194,-0.00003422,-0.00005045,0.00033976,
 -0.03829967,0.01332163,-0.01015032,-0.00372801,0.00287242,0.00506461,-
 0.00114705,0.12147840,-0.13085627,-0.00041353,0.00185204,0.00293580,0.
 09857006,-0.21013124,0.32319629,0.00124897,-0.00001179,0.00025934,-0.0
 0003413,0.00020882,-0.00002939,0.02805412,0.07622628,-0.03617333,0.001
 96966,0.00174854,-0.00215711,-0.00055624,0.00049894,-0.00000650,-0.000
 04480,-0.00030733,0.00008201,-0.07945328,-0.01154864,-0.01317432,-0.00
 129713,-0.00024327,0.00009196,0.04981104,-0.06757158,0.04554059,0.0015
 4954,0.00120422,-0.00211253,-0.25090182,-0.07143546,-0.01282533,0.6515
 6190,-0.00022261,0.00089001,-0.00061405,0.00014275,0.00010481,-0.00004
 859,0.03010372,0.00275540,0.01247770,-0.00200426,-0.00337340,0.0047277
 2,0.00180235,-0.00034128,0.00014578,-0.00014566,0.00025047,-0.00020490
 ,-0.01431113,-0.00460411,-0.00508727,-0.00022601,0.00018468,-0.0007886
 6,-0.01507406,-0.03560462,0.02022991,0.00083939,-0.00242801,0.00506821
 ,-0.13914832,-0.19533283,0.03227926,0.04349770,0.62555872,0.00025499,-
 0.00057004,0.00026419,-0.00004435,-0.00005386,-0.00004841,-0.01206052,
 0.02439288,-0.00494344,0.00005770,0.00560303,0.00341143,-0.00075271,-0
 .00040768,-0.00127308,0.00007162,-0.00015452,0.00022299,-0.01060232,-0
 .00443970,-0.00780326,0.00007665,-0.00074059,-0.00064337,0.01785758,0.
 00686445,0.01071710,-0.00178879,0.00534445,0.00359750,0.02296281,0.049
 14609,-0.08592159,0.11459029,-0.24531117,0.30139425,-0.00023688,-0.000
 22153,0.00005582,0.00000489,0.00000993,-0.00001622,-0.00427156,0.00070
 156,-0.00351535,0.00085206,0.00098166,-0.00026725,-0.00051462,0.000268
 08,-0.00028661,-0.00002916,-0.00009166,0.00005227,-0.00132631,-0.00020
 812,-0.00000259,0.00003816,0.00017483,0.00023665,-0.00384855,-0.003572
 37,-0.00096614,0.00032592,-0.00120456,0.00060945,0.00695278,-0.0212158
 7,0.01224300,-0.06061604,0.02079661,-0.01699948,0.05987757,0.00015199,
 0.00006481,0.00000999,-0.00001237,0.00000661,0.00001384,0.00055890,0.0
 0255169,0.00275491,-0.00042956,-0.00014186,-0.00005171,0.00015419,-0.0
 0012883,0.00004695,0.00000058,0.00003538,-0.00001675,-0.00002421,0.000
 38752,-0.00068827,0.00016591,-0.00029081,-0.00041456,-0.00388951,0.001
 09010,0.00196806,0.00023349,-0.00047503,0.00051610,0.00325469,-0.01140
 916,0.00886927,0.01949655,-0.27325976,0.12856977,-0.02097203,0.2851017
 7,-0.00012952,-0.00008585,0.00002789,-0.00000424,0.00002064,0.00002778
 ,-0.00355528,0.00283699,0.00522738,0.00045337,0.00032772,-0.00007686,-
 0.00017828,0.00006267,-0.00023135,-0.00000406,-0.00002908,0.00003340,-
 0.00009940,-0.00075713,-0.00053489,0.00024383,-0.00042539,-0.00090302,
 -0.00071533,0.00224245,0.00558962,-0.00015578,0.00013282,0.00024068,-0
 .00061028,0.00242752,0.00262727,-0.01633681,0.12797766,-0.11132781,0.0
 2004923,-0.14132395,0.10627441,-0.00323250,-0.00076732,-0.00022105,0.0
 0065529,0.00021826,0.00000945,-0.12644570,-0.01539642,-0.00778523,0.00
 409058,0.02046501,-0.01069752,-0.00558182,0.00226543,-0.00336742,-0.00
 032166,-0.00076676,0.00042900,0.04975872,-0.01778053,0.02126279,-0.003
 65651,-0.00424398,-0.00081518,-0.02823677,0.03292327,-0.02247596,-0.00
 003892,0.00091139,-0.00016392,-0.05723924,-0.04413634,0.00578262,-0.29
 624497,0.07958573,-0.10408215,0.00315523,-0.00139778,0.00037147,0.7056
 5441,-0.00211742,-0.00265475,0.00072908,-0.00041680,-0.00033800,0.0000
 2451,0.03741698,-0.26111856,0.11480966,0.00953413,-0.00097999,0.004352
 17,-0.00197150,0.00150089,-0.00077243,-0.00027238,-0.00039916,0.000168
 05,-0.06319350,-0.03650034,0.00559597,-0.00385230,0.00105289,0.0026102
 1,0.03081635,-0.03805934,0.02414544,0.00099000,-0.00049560,-0.00001366
 ,0.00734609,0.05559251,-0.02501950,0.01260225,-0.13567005,0.04060039,0
 .02465677,-0.00188407,0.01009236,0.09123731,0.57642448,0.00052756,0.00
 097944,-0.00091219,0.00040781,0.00012936,-0.00012594,-0.03630139,0.100
 41775,-0.12853601,-0.00496587,0.00758243,-0.00243218,-0.00073379,0.000
 42592,0.00055201,-0.00005555,0.00002896,0.00012757,0.04570470,0.017766
 73,0.00848769,-0.00100888,0.00243747,0.00623271,-0.02226716,0.02528233
 ,-0.02613463,-0.00028400,-0.00003813,-0.00106036,-0.02124659,-0.037858
 84,0.02193913,-0.06792839,0.05817667,-0.11696111,-0.01338275,0.0028661
 5,-0.00093119,0.10120912,-0.20500568,0.28191862,-0.00146323,0.00050818
 ,-0.00062441,-0.00004411,-0.00000782,0.00003915,0.00638759,0.00237716,
 -0.00023909,0.00069223,0.00119125,0.00026085,-0.00005719,-0.00044428,0
 .00013934,0.00003817,-0.00002187,0.00003864,0.00163305,0.00082597,-0.0
 0201829,0.00033051,0.00029407,-0.00009649,-0.00000711,0.00099121,-0.00
 020949,-0.00010056,0.00006361,0.00023634,-0.00301515,0.00150550,-0.003
 83136,-0.01562957,-0.01674433,0.00348259,0.00057922,0.00063417,0.00097
 097,-0.24070967,-0.13844738,0.02021121,0.25201189,0.00030827,0.0006650
 9,-0.00040332,0.00022952,0.00034675,-0.00020933,-0.02121277,-0.0119814
 1,0.00198915,-0.00195094,-0.00245054,-0.00061404,0.00034247,0.00067929
 ,-0.00005574,-0.00013283,0.00004319,-0.00009984,0.00067564,-0.00240257
 ,0.00552051,-0.00114875,-0.00068169,0.00012681,0.00088281,-0.00060161,
 -0.00008072,0.00004931,-0.00019470,-0.00047556,0.00180997,0.00195901,0
 .00367786,0.00921975,0.00939771,-0.00007110,0.00008085,-0.00042361,-0.
 00205530,-0.13776425,-0.15622077,0.02422323,0.14816370,0.16140800,-0.0
 0040160,-0.00030638,-0.00011786,-0.00008091,-0.00027136,-0.00009693,0.
 01227556,0.00835473,0.00128174,0.00196388,0.00016554,-0.00242434,-0.00
 034269,-0.00014489,0.00049285,0.00008044,-0.00006307,0.00002487,-0.002
 01641,0.00552944,0.00409325,0.00067316,0.00050547,0.00003204,-0.000104
 93,-0.00002242,-0.00117264,0.00023519,-0.00048062,-0.00077790,-0.00362
 387,0.00352172,0.00486696,-0.01039156,-0.00721258,0.00567338,0.0012262
 9,-0.00183644,-0.00300268,0.01983978,0.02399123,-0.04864968,-0.0187273
 5,-0.03135054,0.03960036,0.00386176,0.00090226,0.00045845,-0.00047394,
 -0.00005206,-0.00007698,0.00399936,-0.00321304,0.00320639,-0.00840031,
 0.00199342,-0.00325703,0.00237122,-0.00261273,0.00218388,-0.00032911,0
 .00091297,-0.00071378,0.00387724,-0.00284046,0.00112049,0.00120442,-0.
 00101968,0.00057219,0.00191799,0.01264354,-0.00521979,0.00013429,-0.00
 302831,0.00200572,-0.18926856,0.02459815,-0.05305466,-0.02339868,0.001
 81456,-0.00903071,0.00020279,0.00079454,0.00025208,-0.00155968,-0.0031
 9105,-0.00021200,0.00011339,0.00025149,-0.00017194,0.61152508,-0.00144
 067,-0.00045989,-0.00021304,0.00015319,0.00009461,0.00004240,-0.002773
 34,-0.00288456,-0.00000290,0.00253913,-0.00086444,0.00083339,-0.000564
 84,0.00053513,-0.00048767,0.00006137,-0.00011852,0.00017585,0.00123710
 ,-0.00429965,0.00601251,0.00107235,-0.00016110,0.00036529,0.02489775,-
 0.00132417,0.01068347,0.00070806,-0.00240873,0.00003990,0.02555614,-0.
 09786083,0.02451697,-0.00938315,0.01390356,-0.01250813,-0.00306640,-0.
 00259763,-0.00027781,-0.00743203,-0.00127329,0.00234777,-0.00122476,0.
 00066149,-0.00027546,-0.01387533,0.55455242,0.00219160,0.00045705,0.00
 008215,-0.00027644,-0.00000107,0.00006679,0.00331796,-0.00027235,-0.00
 037038,-0.00395098,0.00073408,-0.00208881,0.00113320,-0.00114923,0.000
 87035,-0.00022815,0.00046787,-0.00016006,-0.00043816,0.00527371,0.0039
 2549,-0.00027271,-0.00013698,0.00036330,-0.01245465,0.00321871,-0.0056
 1648,0.00004863,-0.00011652,-0.00204888,-0.04958513,0.02296357,-0.0981
 1226,0.00017641,-0.00603465,0.00487279,0.00163984,0.00012164,-0.001920
 00,0.00230585,0.00288993,0.00605477,0.00070985,-0.00011098,0.00036418,
 0.03173106,-0.02542756,0.53056177,-0.00087594,-0.00020925,-0.00009140,
 0.00011148,0.00002143,0.00000880,-0.00081096,0.00081698,-0.00051805,0.
 00171287,-0.00027319,0.00065579,-0.00057339,0.00051204,-0.00046493,0.0
 0013372,-0.00021720,0.00018130,0.00005954,0.00130819,-0.00166697,-0.00
 053507,0.00021510,-0.00035759,-0.00602840,-0.00136183,0.00015678,0.000
 05791,0.00042725,0.00014618,-0.00065178,0.03733866,-0.00601319,-0.0019
 9274,0.00058884,0.00034125,-0.00164605,0.00152259,-0.00072433,0.001090
 69,0.00046445,-0.00027874,-0.00002605,-0.00003056,0.00006645,-0.093108
 32,0.04308681,-0.00641958,0.08620499,0.00111856,0.00042797,0.00012645,
 -0.00011739,-0.00005638,-0.00002991,0.00109396,-0.00012156,0.00016366,
 -0.00199356,0.00022138,-0.00085747,0.00055426,-0.00033328,0.00042130,-
 0.00017426,0.00016572,-0.00020053,-0.00066583,-0.00063883,0.00111579,0
 .00057343,-0.00023272,0.00036013,0.00638954,0.00110850,0.00012042,-0.0
 0030734,0.00048311,-0.00068254,0.00676398,-0.03317085,0.00407237,-0.00
 362358,-0.00219009,0.00180450,0.00179338,0.00099386,-0.00118980,0.0006
 8000,0.00111609,0.00053525,0.00025385,-0.00009032,-0.00000543,0.051637
 32,-0.26930058,0.01847789,-0.03650400,0.41053764,-0.00051834,-0.000135
 71,-0.00000776,0.00006479,0.00000193,-0.00000870,-0.00036333,0.0007214
 0,-0.00034940,0.00103733,-0.00016683,0.00036679,-0.00030086,0.00027243
 ,-0.00018897,0.00007327,-0.00012031,0.00005476,-0.00051069,-0.00025820
 ,-0.00116146,-0.00016243,0.00004577,-0.00023499,-0.00199821,-0.0004174
 7,0.00135884,0.00017420,-0.00006439,0.00026429,-0.00541792,0.01872191,
 0.00638250,-0.00035376,0.00086124,-0.00028887,-0.00055811,-0.00024293,
 -0.00012806,0.00047174,-0.00048678,0.00005685,-0.00005108,-0.00000531,
 0.00002041,-0.00660401,0.01695135,-0.07536231,0.00034665,-0.00780037,0
 .08048837,-0.00128135,-0.00018882,-0.00025691,0.00016923,0.00003596,0.
 00004130,-0.00154308,0.00045089,-0.00039495,0.00261497,-0.00079651,0.0
 0132758,-0.00079447,0.00100458,-0.00085945,0.00008779,-0.00032376,0.00
 026422,0.00040833,-0.00037349,-0.00065299,-0.00019871,0.00029260,-0.00
 009167,-0.00105544,-0.00226324,0.00074207,-0.00185364,0.00180662,-0.00
 037277,-0.04259077,-0.02222965,0.02424014,-0.00458004,0.00739727,-0.00
 340064,0.00044136,0.00018383,0.00050067,-0.00137382,-0.00232641,-0.000
 69535,-0.00062803,0.00025266,-0.00044689,-0.22868183,-0.05070223,0.066
 96526,0.00340530,-0.03060594,0.00865319,0.27813024,0.00001503,0.000044
 49,-0.00002182,0.00000940,-0.00001389,0.00000491,0.00006444,0.00027397
 ,-0.00004645,0.00024351,-0.00008447,0.00017661,-0.00004940,0.00018146,
 -0.00011621,-0.00004190,-0.00004543,0.00000845,0.00017682,0.00102479,-
 0.00089402,-0.00012959,0.00004763,-0.00003413,0.00089940,-0.00308061,0
 .00060491,0.00150921,0.00116289,-0.00017332,-0.00186895,0.00737455,0.0
 0286407,0.00009592,0.00016281,0.00066866,0.00060288,0.00030654,-0.0000
 0568,0.00051287,0.00026572,-0.00041714,0.00001499,-0.00003225,-0.00004
 516,-0.05706291,-0.09743973,0.03028469,-0.04661562,-0.05596227,0.03222
 733,0.09760368,0.13105455,-0.00017999,-0.00005479,0.00004933,0.0000150
 5,0.00000115,-0.00001415,-0.00053778,-0.00056268,0.00020228,0.00018172
 ,-0.00006036,-0.00003291,-0.00004720,-0.00001512,0.00006603,0.00004107
 ,-0.00001429,-0.00002510,0.00048875,-0.00077031,0.00072840,0.00011769,
 -0.00002699,0.00001605,-0.00142555,0.00270859,-0.00040515,-0.00081174,
 -0.00096209,-0.00029303,-0.00302709,0.00088298,0.00755667,0.00057669,0
 .00047061,0.00100150,-0.00028606,-0.00022098,0.00008220,-0.00054020,0.
 00020872,-0.00091624,0.00003633,-0.00006891,-0.00007186,0.07286219,0.0
 2929021,-0.11055344,0.01190895,0.02598478,0.00204265,-0.13060051,-0.06
 566021,0.16723296,-0.00108671,-0.00024776,-0.00009341,0.00013243,0.000
 01068,0.00001255,-0.00118084,0.00087318,-0.00115074,0.00239304,-0.0006
 3402,0.00079804,-0.00064491,0.00072951,-0.00058191,0.00007941,-0.00024
 353,0.00018232,-0.00122132,0.00076877,0.00113666,-0.00023330,0.0002167
 5,-0.00010170,-0.00130866,-0.00267302,-0.00022118,0.00009024,0.0001139
 9,-0.00081950,-0.00179097,-0.00679971,-0.03501485,0.00055420,0.0013074
 6,-0.00093381,0.00005921,-0.00042596,-0.00032832,0.00023633,0.00072441
 ,0.00130009,-0.00010537,-0.00002633,-0.00005259,-0.08398714,-0.0088491
 5,-0.03659386,0.01347219,0.00313362,0.00601757,-0.00067605,0.00402023,
 0.05122769,0.07521822,0.00005492,0.00006425,0.00003066,-0.00000449,-0.
 00001447,-0.00001275,0.00049538,0.00081629,-0.00027853,-0.00005881,-0.
 00000603,-0.00008341,-0.00002978,0.00004912,0.00001152,0.00001249,-0.0
 0003324,-0.00001166,-0.00112434,0.00070674,-0.00048869,-0.00016922,0.0
 0007348,-0.00002015,-0.00090484,-0.00091181,-0.00021156,-0.00003816,-0
 .00000177,-0.00047655,0.00196262,0.01082269,-0.00107300,-0.00067417,-0
 .00040403,0.00126256,0.00048600,0.00007246,0.00002918,0.00088614,-0.00
 035865,0.00012034,0.00006677,-0.00008107,-0.00005378,-0.00865268,-0.08
 875409,-0.05163981,-0.00109069,-0.05295739,-0.06010506,0.00078199,0.01
 475925,0.00886970,0.00800087,0.11615828,-0.00142631,-0.00026987,-0.000
 02308,0.00017622,0.00000134,-0.00003300,-0.00169100,0.00012668,-0.0010
 3117,0.00288239,-0.00082179,0.00078056,-0.00082124,0.00087491,-0.00056
 458,0.00015504,-0.00032573,0.00014958,-0.00085542,0.00081692,0.0014392
 3,-0.00026427,0.00024460,-0.00026437,-0.00191184,-0.00166962,0.0004404
 3,0.00059730,-0.00050407,-0.00103700,-0.01224549,-0.01178535,-0.033696
 35,0.00017173,0.00288710,-0.00194421,0.00016801,-0.00094108,-0.0010747
 6,-0.00153318,0.00108035,0.00129019,-0.00032771,0.00006314,-0.00013615
 ,-0.03605153,-0.05206655,-0.25092897,0.00272262,-0.04241648,-0.0133049
 5,0.03503768,0.00057451,-0.06666620,0.01521696,0.10413100,0.36660480\\
 0.00000062,0.00000227,-0.00000316,0.00000110,0.00000298,-0.00000361,0.
 00000051,0.00000081,-0.00000062,0.00000119,0.00000196,-0.00000151,0.00
 000236,0.00000274,-0.00000078,0.00000277,0.00000252,0.00000036,0.00000
 099,0.00000044,0.00000104,0.00000189,0.00000092,0.00000180,0.00000038,
 -0.00000057,0.00000181,0.00000078,-0.00000088,0.00000310,-0.00000084,-
 0.00000124,0.00000083,-0.00000129,-0.00000083,-0.00000081,-0.00000217,
 -0.00000132,-0.00000154,-0.00000064,0.00000022,-0.00000156,-0.00000103
 ,0.00000049,-0.00000286,-0.00000151,-0.00000234,0.00000170,-0.00000213
 ,-0.00000249,0.00000067,-0.00000061,-0.00000223,0.00000297,-0.00000240
 ,-0.00000345,0.00000220\\\@
 The archive entry for this job was punched.


 THERE ONCE WAS A GIRL NAMED IRENE,
 WHO LIVED ON DISTILLED KEROSENE,
      BUT SHE STARTED ABSORBIN'
      A NEW HYDROCARBON,
 AND SINCE THEN HAS NEVER BENZENE.
 Job cpu time:       0 days  1 hours  6 minutes 23.8 seconds.
 Elapsed time:       0 days  0 hours  2 minutes  7.5 seconds.
 File lengths (MBytes):  RWF=    199 Int=      0 D2E=      0 Chk=     10 Scr=      1
 Normal termination of Gaussian 16 at Mon Apr 21 18:21:31 2025.
