/home/tahminaafroz
cn008.cluster.local
tahminaafroz
Tue May 27 04:26:02 CDT 2025
 Entering Gaussian System, Link 0=g16
 Initial command:
 /home/apps/g16/l1.exe "/tmp/4-cf3-ph-anion-opt-freq-thf-2/Gau-2430432.inp" -scrdir="/tmp/4-cf3-ph-anion-opt-freq-thf-2/"
 Entering Link 1 = /home/apps/g16/l1.exe PID=   2430433.
  
 Copyright (c) 1988-2019, Gaussian, Inc.  All Rights Reserved.
  
 This is part of the Gaussian(R) 16 program.  It is based on
 the Gaussian(R) 09 system (copyright 2009, Gaussian, Inc.),
 the Gaussian(R) 03 system (copyright 2003, Gaussian, Inc.),
 the Gaussian(R) 98 system (copyright 1998, Gaussian, Inc.),
 the Gaussian(R) 94 system (copyright 1995, Gaussian, Inc.),
 the Gaussian 92(TM) system (copyright 1992, Gaussian, Inc.),
 the Gaussian 90(TM) system (copyright 1990, Gaussian, Inc.),
 the Gaussian 88(TM) system (copyright 1988, Gaussian, Inc.),
 the Gaussian 86(TM) system (copyright 1986, Carnegie Mellon
 University), and the Gaussian 82(TM) system (copyright 1983,
 Carnegie Mellon University). Gaussian is a federally registered
 trademark of Gaussian, Inc.
  
 This software contains proprietary and confidential information,
 including trade secrets, belonging to Gaussian, Inc.
  
 This software is provided under written license and may be
 used, copied, transmitted, or stored only in accord with that
 written license.
  
 The following legend is applicable only to US Government
 contracts under FAR:
  
                    RESTRICTED RIGHTS LEGEND
  
 Use, reproduction and disclosure by the US Government is
 subject to restrictions as set forth in subparagraphs (a)
 and (c) of the Commercial Computer Software - Restricted
 Rights clause in FAR 52.227-19.
  
 Gaussian, Inc.
 340 Quinnipiac St., Bldg. 40, Wallingford CT 06492
  
  
 ---------------------------------------------------------------
 Warning -- This program may not be used in any manner that
 competes with the business of Gaussian, Inc. or will provide
 assistance to any competitor of Gaussian, Inc.  The licensee
 of this program is prohibited from giving any competitor of
 Gaussian, Inc. access to this program.  By using this program,
 the user acknowledges that Gaussian, Inc. is engaged in the
 business of creating and licensing software in the field of
 computational chemistry and represents and warrants to the
 licensee that it is not a competitor of Gaussian, Inc. and that
 it will not use this program in any manner prohibited above.
 ---------------------------------------------------------------
  

 Cite this work as:
 Gaussian 16, Revision C.01,
 M. J. Frisch, G. W. Trucks, H. B. Schlegel, G. E. Scuseria, 
 M. A. Robb, J. R. Cheeseman, G. Scalmani, V. Barone, 
 G. A. Petersson, H. Nakatsuji, X. Li, M. Caricato, A. V. Marenich, 
 J. Bloino, B. G. Janesko, R. Gomperts, B. Mennucci, H. P. Hratchian, 
 J. V. Ortiz, A. F. Izmaylov, J. L. Sonnenberg, D. Williams-Young, 
 F. Ding, F. Lipparini, F. Egidi, J. Goings, B. Peng, A. Petrone, 
 T. Henderson, D. Ranasinghe, V. G. Zakrzewski, J. Gao, N. Rega, 
 G. Zheng, W. Liang, M. Hada, M. Ehara, K. Toyota, R. Fukuda, 
 J. Hasegawa, M. Ishida, T. Nakajima, Y. Honda, O. Kitao, H. Nakai, 
 T. Vreven, K. Throssell, J. A. Montgomery, Jr., J. E. Peralta, 
 F. Ogliaro, M. J. Bearpark, J. J. Heyd, E. N. Brothers, K. N. Kudin, 
 V. N. Staroverov, T. A. Keith, R. Kobayashi, J. Normand, 
 K. Raghavachari, A. P. Rendell, J. C. Burant, S. S. Iyengar, 
 J. Tomasi, M. Cossi, J. M. Millam, M. Klene, C. Adamo, R. Cammi, 
 J. W. Ochterski, R. L. Martin, K. Morokuma, O. Farkas, 
 J. B. Foresman, and D. J. Fox, Gaussian, Inc., Wallingford CT, 2019.
 
 ******************************************
 Gaussian 16:  AS64L-G16RevC.01  3-Jul-2019
                27-May-2025 
 ******************************************
 %mem=20GB
 %nprocshared=32
 Will use up to   32 processors via shared memory.
 %chk=4-cf3-ph-anion-opt-freq-thf-2.chk
 ----------------------------------------------------------------------
 # opt=(calcfc,tight) freq 6-311+g(d,p) scrf=(smd,solvent=thf) nosymm s
 cf=(qc,fermi,xqc) geom=connectivity int=ultrafine m062x
 ----------------------------------------------------------------------
 1/7=10,10=4,18=20,19=15,26=6,38=1,57=2/1,3;
 2/9=110,12=2,15=1,17=6,18=5,40=1/2;
 3/5=4,6=6,7=111,11=2,25=1,30=1,70=32201,71=2,72=20,74=-55,75=-5,140=1/1,2,3;
 4//1;
 5/5=2,22=13,38=5,53=20/2;
 8/6=4,10=90,11=11/1;
 11/6=1,8=1,9=11,15=111,16=1,31=1/1,2,10;
 10/6=1,13=1,31=1/2;
 6/7=2,8=2,9=2,10=2,28=1/1;
 7/10=1,25=1,30=1/1,2,3,16;
 1/7=10,10=4,18=20,19=15,26=6/3(2);
 2/9=110,15=1/2;
 99//99;
 2/9=110,15=1/2;
 3/5=4,6=6,7=111,11=2,25=1,30=1,70=32205,71=1,72=20,74=-55,75=-5/1,2,3;
 4/5=5,16=3,69=1/1;
 5/5=2,22=13,38=5,53=20/2;
 7/30=1/1,2,3,16;
 1/7=10,18=20,19=15,26=6/3(-5);
 2/9=110,15=1/2;
 6/7=2,8=2,9=2,10=2,19=2,28=1/1;
 99/9=1/99;
 -----------------------------
 4-cf3-ph-anion-opt-freq-thf-2
 -----------------------------
 Symbolic Z-matrix:
 Charge = -1 Multiplicity = 1
 C                     6.16004   7.0199    5.14046 
 C                     5.10933   6.14837   5.29817 
 H                     5.21147   5.20219   5.81647 
 C                     3.88464   6.53979   4.75715 
 H                     3.01676   5.89628   4.85 
 C                     3.78453   7.76657   4.10161 
 C                     4.88103   8.61358   3.96359 
 H                     4.78133   9.56204   3.44906 
 C                     6.11303   8.23384   4.50125 
 H                     6.97969   8.87829   4.41183 
 C                     2.46985   8.14606   3.48999 
 F                     2.36053   9.46548   3.27613 
 F                     1.42805   7.7869    4.25898 
 F                     2.27617   7.55005   2.29573 
 

 GradGradGradGradGradGradGradGradGradGradGradGradGradGradGradGradGradGrad
 Berny optimization.
 Initialization pass.
                           ----------------------------
                           !    Initial Parameters    !
                           ! (Angstroms and Degrees)  !
 --------------------------                            --------------------------
 ! Name  Definition              Value          Derivative Info.                !
 --------------------------------------------------------------------------------
 ! R1    R(1,2)                  1.3742         calculate D2E/DX2 analytically  !
 ! R2    R(1,9)                  1.3727         calculate D2E/DX2 analytically  !
 ! R3    R(2,3)                  1.0837         calculate D2E/DX2 analytically  !
 ! R4    R(2,4)                  1.3949         calculate D2E/DX2 analytically  !
 ! R5    R(4,5)                  1.0844         calculate D2E/DX2 analytically  !
 ! R6    R(4,6)                  1.3945         calculate D2E/DX2 analytically  !
 ! R7    R(6,7)                  1.3924         calculate D2E/DX2 analytically  !
 ! R8    R(6,11)                 1.4988         calculate D2E/DX2 analytically  !
 ! R9    R(7,8)                  1.0836         calculate D2E/DX2 analytically  !
 ! R10   R(7,9)                  1.3968         calculate D2E/DX2 analytically  !
 ! R11   R(9,10)                 1.0837         calculate D2E/DX2 analytically  !
 ! R12   R(11,12)                1.3411         calculate D2E/DX2 analytically  !
 ! R13   R(11,13)                1.3438         calculate D2E/DX2 analytically  !
 ! R14   R(11,14)                1.3487         calculate D2E/DX2 analytically  !
 ! A1    A(2,1,9)              126.0219         calculate D2E/DX2 analytically  !
 ! A2    A(1,2,3)              122.4504         calculate D2E/DX2 analytically  !
 ! A3    A(1,2,4)              116.6678         calculate D2E/DX2 analytically  !
 ! A4    A(3,2,4)              120.8817         calculate D2E/DX2 analytically  !
 ! A5    A(2,4,5)              120.1941         calculate D2E/DX2 analytically  !
 ! A6    A(2,4,6)              119.4849         calculate D2E/DX2 analytically  !
 ! A7    A(5,4,6)              120.3205         calculate D2E/DX2 analytically  !
 ! A8    A(4,6,7)              121.6814         calculate D2E/DX2 analytically  !
 ! A9    A(4,6,11)             118.5237         calculate D2E/DX2 analytically  !
 ! A10   A(7,6,11)             119.7534         calculate D2E/DX2 analytically  !
 ! A11   A(6,7,8)              120.467          calculate D2E/DX2 analytically  !
 ! A12   A(6,7,9)              119.4089         calculate D2E/DX2 analytically  !
 ! A13   A(8,7,9)              120.1232         calculate D2E/DX2 analytically  !
 ! A14   A(1,9,7)              116.7338         calculate D2E/DX2 analytically  !
 ! A15   A(1,9,10)             122.4738         calculate D2E/DX2 analytically  !
 ! A16   A(7,9,10)             120.7922         calculate D2E/DX2 analytically  !
 ! A17   A(6,11,12)            112.6856         calculate D2E/DX2 analytically  !
 ! A18   A(6,11,13)            112.2618         calculate D2E/DX2 analytically  !
 ! A19   A(6,11,14)            112.0497         calculate D2E/DX2 analytically  !
 ! A20   A(12,11,13)           106.9191         calculate D2E/DX2 analytically  !
 ! A21   A(12,11,14)           106.3711         calculate D2E/DX2 analytically  !
 ! A22   A(13,11,14)           106.098          calculate D2E/DX2 analytically  !
 ! D1    D(9,1,2,3)           -179.8976         calculate D2E/DX2 analytically  !
 ! D2    D(9,1,2,4)             -0.0409         calculate D2E/DX2 analytically  !
 ! D3    D(2,1,9,7)              0.0155         calculate D2E/DX2 analytically  !
 ! D4    D(2,1,9,10)           179.877          calculate D2E/DX2 analytically  !
 ! D5    D(1,2,4,5)           -179.8989         calculate D2E/DX2 analytically  !
 ! D6    D(1,2,4,6)             -0.1667         calculate D2E/DX2 analytically  !
 ! D7    D(3,2,4,5)             -0.0398         calculate D2E/DX2 analytically  !
 ! D8    D(3,2,4,6)            179.6924         calculate D2E/DX2 analytically  !
 ! D9    D(2,4,6,7)              0.4072         calculate D2E/DX2 analytically  !
 ! D10   D(2,4,6,11)           178.057          calculate D2E/DX2 analytically  !
 ! D11   D(5,4,6,7)           -179.8609         calculate D2E/DX2 analytically  !
 ! D12   D(5,4,6,11)            -2.2111         calculate D2E/DX2 analytically  !
 ! D13   D(4,6,7,8)            179.9098         calculate D2E/DX2 analytically  !
 ! D14   D(4,6,7,9)             -0.4332         calculate D2E/DX2 analytically  !
 ! D15   D(11,6,7,8)             2.2884         calculate D2E/DX2 analytically  !
 ! D16   D(11,6,7,9)          -178.0546         calculate D2E/DX2 analytically  !
 ! D17   D(4,6,11,12)          160.0763         calculate D2E/DX2 analytically  !
 ! D18   D(4,6,11,13)           39.283          calculate D2E/DX2 analytically  !
 ! D19   D(4,6,11,14)          -79.9958         calculate D2E/DX2 analytically  !
 ! D20   D(7,6,11,12)          -22.2273         calculate D2E/DX2 analytically  !
 ! D21   D(7,6,11,13)         -143.0207         calculate D2E/DX2 analytically  !
 ! D22   D(7,6,11,14)           97.7005         calculate D2E/DX2 analytically  !
 ! D23   D(6,7,9,1)              0.2172         calculate D2E/DX2 analytically  !
 ! D24   D(6,7,9,10)          -179.6468         calculate D2E/DX2 analytically  !
 ! D25   D(8,7,9,1)            179.8754         calculate D2E/DX2 analytically  !
 ! D26   D(8,7,9,10)             0.0113         calculate D2E/DX2 analytically  !
 --------------------------------------------------------------------------------
 Trust Radius=3.00D-01 FncErr=5.00D-06 GrdErr=5.00D-06 EigMax=2.50D+02 EigMin=1.00D-04
 Number of steps in this run=     72 maximum allowed number of steps=    100.
 GradGradGradGradGradGradGradGradGradGradGradGradGradGradGradGradGradGrad

                          Input orientation:                          
 ---------------------------------------------------------------------
 Center     Atomic      Atomic             Coordinates (Angstroms)
 Number     Number       Type             X           Y           Z
 ---------------------------------------------------------------------
      1          6           0        6.160039    7.019905    5.140458
      2          6           0        5.109329    6.148369    5.298167
      3          1           0        5.211473    5.202190    5.816474
      4          6           0        3.884635    6.539791    4.757146
      5          1           0        3.016764    5.896279    4.849995
      6          6           0        3.784528    7.766573    4.101614
      7          6           0        4.881030    8.613576    3.963586
      8          1           0        4.781332    9.562041    3.449056
      9          6           0        6.113029    8.233839    4.501250
     10          1           0        6.979685    8.878287    4.411827
     11          6           0        2.469853    8.146064    3.489991
     12          9           0        2.360532    9.465476    3.276130
     13          9           0        1.428045    7.786897    4.258978
     14          9           0        2.276174    7.550051    2.295728
 ---------------------------------------------------------------------
                    Distance matrix (angstroms):
                    1          2          3          4          5
     1  C    0.000000
     2  C    1.374205   0.000000
     3  H    2.158903   1.083665   0.000000
     4  C    2.356884   1.394916   2.161447   0.000000
     5  H    3.350684   2.154817   2.496515   1.084402   0.000000
     6  C    2.698103   2.409444   3.398967   1.394539   2.155814
     7  C    2.358109   2.812556   3.896144   2.433747   3.412464
     8  H    3.350243   3.896146   4.979758   3.413087   4.302806
     9  C    1.372746   2.447790   3.425422   2.810876   3.895211
    10  H    2.157848   3.425826   4.314313   3.894502   4.978866
    11  C    4.196397   3.771885   4.647085   2.487449   2.685192
    12  F    4.888025   4.758962   5.723357   3.616066   3.955611
    13  F    4.874121   4.161315   4.839507   2.799693   2.539245
    14  F    4.843341   4.359601   5.150154   3.109076   3.131727
                    6          7          8          9         10
     6  C    0.000000
     7  C    1.392402   0.000000
     8  H    2.154798   1.083636   0.000000
     9  C    2.408311   1.396819   2.155145   0.000000
    10  H    3.397230   2.162255   2.495437   1.083698   0.000000
    11  C    1.498822   2.501326   2.711015   3.781941   4.660957
    12  F    2.365472   2.747952   2.428889   4.135104   4.792825
    13  F    2.361819   3.562830   3.879645   4.712486   5.659965
    14  F    2.362888   3.270797   3.413808   4.478097   5.325890
                   11         12         13         14
    11  C    0.000000
    12  F    1.341095   0.000000
    13  F    1.343766   2.157116   0.000000
    14  F    1.348706   2.153406   2.151690   0.000000
 Symmetry turned off by external request.
 Stoichiometry    C7H4F3(1-)
 Framework group  C1[X(C7H4F3)]
 Deg. of freedom    36
 Full point group                 C1      NOp   1
 Rotational constants (GHZ):           2.8335072           0.9889432           0.8402304
 Standard basis: 6-311+G(d,p) (5D, 7F)
   244 basis functions,   392 primitive gaussians,   254 cartesian basis functions
    37 alpha electrons       37 beta electrons
       nuclear repulsion energy       517.2497759752 Hartrees.
 NAtoms=   14 NActive=   14 NUniq=   14 SFac= 1.00D+00 NAtFMM=   60 NAOKFM=F Big=F
 Integral buffers will be    131072 words long.
 Raffenetti 2 integral format.
 Two-electron integral symmetry is turned off.
 Force inversion solution in PCM.
 ------------------------------------------------------------------------------
 Polarizable Continuum Model (PCM)
 =================================
 Model                : PCM.
 Atomic radii         : SMD-Coulomb.
 Polarization charges : Total charges.
 Charge compensation  : None.
 Solution method      : Matrix inversion.
 Cavity type          : VdW (van der Waals Surface) (Alpha=1.000).
 Cavity algorithm     : GePol (No added spheres)
                        Default sphere list used, NSphG=   14.
                        Lebedev-Laikov grids with approx.  5.0 points / Ang**2.
                        Smoothing algorithm: York/Karplus (Gamma=1.0000).
                        Polarization charges: spherical gaussians, with
                                              point-specific exponents (IZeta= 3).
                        Self-potential: point-specific (ISelfS= 7).
                        Self-field    : sphere-specific E.n sum rule (ISelfD= 2).
 1st derivatives      : Analytical E(r).r(x)/FMM algorithm (CHGder, D1EAlg=3).
                        Cavity 1st derivative terms included.
 2nd derivatives      : Analytical E(r).r(xy)/FMM algorithm (CHGder, D2EAlg=3).
                        Cavity 2nd derivative terms included.
 Solvent              : TetraHydroFuran, Eps=   7.425700 Eps(inf)=   1.974025
 ------------------------------------------------------------------------------
 Spheres list:
 ISph  on   Nord     Re0    Alpha      Xe            Ye            Ze
    1   C      1    1.8500  1.000      6.160039      7.019905      5.140458
    2   C      2    1.8500  1.000      5.109329      6.148369      5.298167
    3   H      3    1.2000  1.000      5.211473      5.202190      5.816474
    4   C      4    1.8500  1.000      3.884635      6.539791      4.757146
    5   H      5    1.2000  1.000      3.016764      5.896279      4.849995
    6   C      6    1.8500  1.000      3.784528      7.766573      4.101614
    7   C      7    1.8500  1.000      4.881030      8.613576      3.963586
    8   H      8    1.2000  1.000      4.781332      9.562041      3.449056
    9   C      9    1.8500  1.000      6.113029      8.233839      4.501250
   10   H     10    1.2000  1.000      6.979685      8.878287      4.411827
   11   C     11    1.8500  1.000      2.469853      8.146064      3.489991
   12   F     12    1.7300  1.000      2.360532      9.465476      3.276130
   13   F     13    1.7300  1.000      1.428045      7.786897      4.258978
   14   F     14    1.7300  1.000      2.276174      7.550051      2.295728
 ------------------------------------------------------------------------------
 ------------------------------------------------------------------------------
 Atomic radii for non-electrostatic terms: SMD-CDS.
 ------------------------------------------------------------------------------
 Nuclear repulsion after PCM non-electrostatic terms =      517.2487763291 Hartrees.
 One-electron integrals computed using PRISM.
 NBasis=   244 RedAO= T EigKep=  3.03D-06  NBF=   244
 NBsUse=   244 1.00D-06 EigRej= -1.00D+00 NBFU=   244
 ExpMin= 4.38D-02 ExpMax= 1.14D+04 ExpMxC= 1.72D+03 IAcc=3 IRadAn=         5 AccDes= 0.00D+00
 Harris functional with IExCor= 1009 and IRadAn=       5 diagonalized for initial guess.
 HarFok:  IExCor= 1009 AccDes= 0.00D+00 IRadAn=         5 IDoV= 1 UseB2=F ITyADJ=14
 ICtDFT=  3500011 ScaDFX=  1.000000  1.000000  1.000000  1.000000
 FoFCou: FMM=F IPFlag=           0 FMFlag=      100000 FMFlg1=           0
         NFxFlg=           0 DoJE=T BraDBF=F KetDBF=T FulRan=T
         wScrn=  0.000000 ICntrl=       500 IOpCl=  0 I1Cent=   200000004 NGrid=           0
         NMat0=    1 NMatS0=      1 NMatT0=    0 NMatD0=    1 NMtDS0=    0 NMtDT0=    0
 Symmetry not used in FoFCou.
 Requested convergence on RMS density matrix=1.00D-08 within 128 cycles.
 Requested convergence on MAX density matrix=1.00D-06.
 Requested convergence on             energy=1.00D-06.
 Level shift goal  0.100 maximum shift  0.100.
 No special actions if energy rises.
 Dynamic level shift is on during FON iterations.
 Inv3:  Mode=1 IEnd=     4575675.
 Iteration    1 A*A^-1 deviation from unit magnitude is 5.11D-15 for   1227.
 Iteration    1 A*A^-1 deviation from orthogonality  is 2.29D-15 for   1211    851.
 Iteration    1 A^-1*A deviation from unit magnitude is 4.88D-15 for   1227.
 Iteration    1 A^-1*A deviation from orthogonality  is 1.61D-15 for   1230   1151.
 Error on total polarization charges =  0.05220
 SCF Done:  E(RM062X) =  -568.689301706     A.U. after   16 cycles
            NFock= 16  Conv=0.46D-08     -V/T= 2.0027
 SMD-CDS (non-electrostatic) energy       (kcal/mol) =      -0.63
 (included in total energy above)
 DoSCS=F DFT=T ScalE2(SS,OS)=  1.000000  1.000000
 Range of M.O.s used for correlation:     1   244
 NBasis=   244 NAE=    37 NBE=    37 NFC=     0 NFV=     0
 NROrb=    244 NOA=    37 NOB=    37 NVA=   207 NVB=   207

 **** Warning!!: The largest alpha MO coefficient is  0.13792614D+03

 Symmetrizing basis deriv contribution to polar:
 IMax=3 JMax=2 DiffMx= 0.00D+00
 G2DrvN: will do    15 centers at a time, making    1 passes.
 Calling FoFCou, ICntrl=  3107 FMM=F I1Cent=   0 AccDes= 0.00D+00.
 NEqPCM:  Using equilibrium solvation (IEInf=0, Eps=   7.4257, EpsInf=   1.9740)
 G2PCM: DoFxE=T DoFxN=T DoGrad=T DoDP/DQ/DG/TGxP=FFFF NFrqRd=   0 IEInf=0 SqF1=F DoCFld=F IF1Alg=4.
 End of G2Drv F.D. properties file   721 does not exist.
 End of G2Drv F.D. properties file   722 does not exist.
 End of G2Drv F.D. properties file   788 does not exist.
          IDoAtm=11111111111111
 NEqPCM:  Using equilibrium solvation (IEInf=0, Eps=   7.4257, EpsInf=   1.9740)
          Differentiating once with respect to nuclear coordinates.
 Keep R1 ints in memory in canonical form, NReq=481342897.
          There are    45 degrees of freedom in the 1st order CPHF.  IDoFFX=6 NUNeed=     0.
     39 vectors produced by pass  0 Test12= 1.70D-14 2.22D-09 XBig12= 2.19D-01 1.69D-01.
 AX will form    39 AO Fock derivatives at one time.
     39 vectors produced by pass  1 Test12= 1.70D-14 2.22D-09 XBig12= 1.28D-02 3.23D-02.
     39 vectors produced by pass  2 Test12= 1.70D-14 2.22D-09 XBig12= 5.46D-04 5.92D-03.
     39 vectors produced by pass  3 Test12= 1.70D-14 2.22D-09 XBig12= 4.63D-06 4.91D-04.
     39 vectors produced by pass  4 Test12= 1.70D-14 2.22D-09 XBig12= 3.83D-08 3.18D-05.
     39 vectors produced by pass  5 Test12= 1.70D-14 2.22D-09 XBig12= 2.50D-10 3.06D-06.
     39 vectors produced by pass  6 Test12= 1.70D-14 2.22D-09 XBig12= 1.25D-12 2.19D-07.
     15 vectors produced by pass  7 Test12= 1.70D-14 2.22D-09 XBig12= 4.57D-15 1.01D-08.
 InvSVY:  IOpt=1 It=  1 EMax= 1.33D-15
 Solved reduced A of dimension   288 with    39 vectors.
 End of Minotr F.D. properties file   721 does not exist.
 End of Minotr F.D. properties file   722 does not exist.
 End of Minotr F.D. properties file   788 does not exist.

 **********************************************************************

            Population analysis using the SCF Density.

 **********************************************************************

 Alpha  occ. eigenvalues --  -25.26222 -25.26050 -25.25737 -10.77909 -10.52994
 Alpha  occ. eigenvalues --  -10.51834 -10.51827 -10.49686 -10.49628 -10.44293
 Alpha  occ. eigenvalues --   -1.45355  -1.36124  -1.35657  -0.93671  -0.84340
 Alpha  occ. eigenvalues --   -0.81282  -0.76919  -0.68693  -0.67740  -0.67413
 Alpha  occ. eigenvalues --   -0.64642  -0.61239  -0.56108  -0.56039  -0.51947
 Alpha  occ. eigenvalues --   -0.51749  -0.51353  -0.49863  -0.48381  -0.47464
 Alpha  occ. eigenvalues --   -0.45496  -0.41745  -0.40884  -0.37148  -0.28065
 Alpha  occ. eigenvalues --   -0.26920  -0.17407
 Alpha virt. eigenvalues --    0.03391   0.04430   0.04964   0.04982   0.05351
 Alpha virt. eigenvalues --    0.06464   0.07082   0.07970   0.09073   0.10085
 Alpha virt. eigenvalues --    0.10605   0.10890   0.11362   0.13370   0.14949
 Alpha virt. eigenvalues --    0.16051   0.16126   0.16405   0.17035   0.17409
 Alpha virt. eigenvalues --    0.17738   0.19912   0.20813   0.21200   0.21524
 Alpha virt. eigenvalues --    0.22425   0.23512   0.24046   0.24685   0.25572
 Alpha virt. eigenvalues --    0.26647   0.26716   0.26832   0.27370   0.28756
 Alpha virt. eigenvalues --    0.29507   0.29729   0.30442   0.31370   0.31572
 Alpha virt. eigenvalues --    0.33613   0.35142   0.37323   0.38740   0.39251
 Alpha virt. eigenvalues --    0.39359   0.41074   0.42108   0.43223   0.43644
 Alpha virt. eigenvalues --    0.45819   0.47162   0.47448   0.49692   0.51984
 Alpha virt. eigenvalues --    0.55316   0.56411   0.57319   0.60246   0.61722
 Alpha virt. eigenvalues --    0.62943   0.64271   0.65842   0.66062   0.68040
 Alpha virt. eigenvalues --    0.68760   0.70035   0.70840   0.72080   0.73121
 Alpha virt. eigenvalues --    0.75709   0.76883   0.77275   0.80245   0.81218
 Alpha virt. eigenvalues --    0.82261   0.83476   0.86840   0.91444   0.91743
 Alpha virt. eigenvalues --    0.92445   0.95790   0.96389   0.98304   1.00538
 Alpha virt. eigenvalues --    1.06548   1.08835   1.09119   1.12033   1.12509
 Alpha virt. eigenvalues --    1.16402   1.18313   1.23565   1.27961   1.34017
 Alpha virt. eigenvalues --    1.38408   1.40538   1.44810   1.47061   1.47268
 Alpha virt. eigenvalues --    1.48548   1.51911   1.53393   1.55180   1.56502
 Alpha virt. eigenvalues --    1.57032   1.57995   1.58694   1.63406   1.63863
 Alpha virt. eigenvalues --    1.65569   1.65871   1.71200   1.71937   1.74606
 Alpha virt. eigenvalues --    1.76510   1.79256   1.80506   1.84345   1.85950
 Alpha virt. eigenvalues --    1.88311   1.91406   1.96801   1.98715   1.99709
 Alpha virt. eigenvalues --    2.00801   2.01485   2.06463   2.07376   2.08094
 Alpha virt. eigenvalues --    2.10711   2.13127   2.15382   2.15865   2.20548
 Alpha virt. eigenvalues --    2.24880   2.34513   2.40809   2.43752   2.48070
 Alpha virt. eigenvalues --    2.48432   2.56629   2.63405   2.66064   2.75514
 Alpha virt. eigenvalues --    2.76303   2.76902   2.78763   2.80471   2.81845
 Alpha virt. eigenvalues --    2.84039   2.89158   2.90309   2.97719   3.00343
 Alpha virt. eigenvalues --    3.01486   3.04409   3.07557   3.09436   3.18443
 Alpha virt. eigenvalues --    3.19498   3.28756   3.46934   3.47744   3.59011
 Alpha virt. eigenvalues --    3.60385   3.70940   3.79827   3.82610   3.86067
 Alpha virt. eigenvalues --    3.86671   3.87830   3.88137   3.89216   3.90267
 Alpha virt. eigenvalues --    4.03072   4.03856   4.07523   4.07973   4.22180
 Alpha virt. eigenvalues --    4.23587   4.25537   4.29385   4.32207   4.79011
 Alpha virt. eigenvalues --    4.89589   5.00318   5.02649   6.46543   6.49823
 Alpha virt. eigenvalues --    6.52722   6.53665   6.54734   6.57197   6.63233
 Alpha virt. eigenvalues --    6.89083   6.91291  23.59227  23.73073  24.05018
 Alpha virt. eigenvalues --   24.09804  24.21575  24.22141  24.34200  66.91086
 Alpha virt. eigenvalues --   66.92688  66.97644
          Condensed to atoms (all electrons):
               1          2          3          4          5          6
     1  C    9.462536  -1.305770  -0.147673   1.221073  -0.039885  -2.369856
     2  C   -1.305770   9.052349   0.525845  -1.946566   0.028862   0.444647
     3  H   -0.147673   0.525845   0.535776  -0.142453  -0.001066   0.050493
     4  C    1.221073  -1.946566  -0.142453  20.637383   0.268986  -2.532661
     5  H   -0.039885   0.028862  -0.001066   0.268986   0.483024   0.026991
     6  C   -2.369856   0.444647   0.050493  -2.532661   0.026991  15.426826
     7  C    1.467421  -1.859281  -0.039517  -9.415842  -0.017293  -4.399888
     8  H   -0.037839   0.009379   0.000131  -0.027329  -0.000041   0.026589
     9  C   -1.348893   1.526575   0.044553  -1.516547   0.008115   0.378465
    10  H   -0.137639   0.043145   0.000438  -0.039521   0.000130   0.041892
    11  C    0.136038  -0.546313   0.011617  -0.330772   0.065493  -0.972079
    12  F   -0.001670   0.020301   0.000015   0.056882   0.000531  -0.084599
    13  F   -0.006127   0.067644  -0.000026  -0.155574   0.002099  -0.042448
    14  F   -0.013509  -0.005042  -0.000002  -0.216002  -0.001107   0.285152
               7          8          9         10         11         12
     1  C    1.467421  -0.037839  -1.348893  -0.137639   0.136038  -0.001670
     2  C   -1.859281   0.009379   1.526575   0.043145  -0.546313   0.020301
     3  H   -0.039517   0.000131   0.044553   0.000438   0.011617   0.000015
     4  C   -9.415842  -0.027329  -1.516547  -0.039521  -0.330772   0.056882
     5  H   -0.017293  -0.000041   0.008115   0.000130   0.065493   0.000531
     6  C   -4.399888   0.026589   0.378465   0.041892  -0.972079  -0.084599
     7  C   21.855008   0.280653  -2.248600  -0.138273   1.064727  -0.135291
     8  H    0.280653   0.483344   0.038337  -0.001040   0.049965   0.004779
     9  C   -2.248600   0.038337   8.917335   0.520310  -0.308906   0.074678
    10  H   -0.138273  -0.001040   0.520310   0.536869   0.012489  -0.000019
    11  C    1.064727   0.049965  -0.308906   0.012489   5.942885   0.215544
    12  F   -0.135291   0.004779   0.074678  -0.000019   0.215544   9.066431
    13  F    0.023136   0.000394   0.024434   0.000015   0.237378  -0.021360
    14  F   -0.108714  -0.000439   0.001383   0.000014   0.201641  -0.041980
              13         14
     1  C   -0.006127  -0.013509
     2  C    0.067644  -0.005042
     3  H   -0.000026  -0.000002
     4  C   -0.155574  -0.216002
     5  H    0.002099  -0.001107
     6  C   -0.042448   0.285152
     7  C    0.023136  -0.108714
     8  H    0.000394  -0.000439
     9  C    0.024434   0.001383
    10  H    0.000015   0.000014
    11  C    0.237378   0.201641
    12  F   -0.021360  -0.041980
    13  F    9.047938  -0.048645
    14  F   -0.048645   9.041724
 Mulliken charges:
               1
     1  C   -0.878208
     2  C   -0.055776
     3  H    0.161871
     4  C    0.138943
     5  H    0.175160
     6  C   -0.279523
     7  C   -0.328246
     8  H    0.173116
     9  C   -0.111240
    10  H    0.161189
    11  C    0.220292
    12  F   -0.154243
    13  F   -0.128859
    14  F   -0.094475
 Sum of Mulliken charges =  -1.00000
 Mulliken charges with hydrogens summed into heavy atoms:
               1
     1  C   -0.878208
     2  C    0.106095
     4  C    0.314102
     6  C   -0.279523
     7  C   -0.155130
     9  C    0.049949
    11  C    0.220292
    12  F   -0.154243
    13  F   -0.128859
    14  F   -0.094475
 APT charges:
               1
     1  C   -2.358136
     2  C    1.037958
     3  H    0.107866
     4  C   -1.643896
     5  H   -0.733301
     6  C   -0.902168
     7  C    0.385937
     8  H    1.233100
     9  C   -0.074894
    10  H    1.764073
    11  C    0.625839
    12  F    0.453421
    13  F   -0.331325
    14  F   -0.564475
 Sum of APT charges =  -1.00000
 APT charges with hydrogens summed into heavy atoms:
               1
     1  C   -2.358136
     2  C    1.145825
     4  C   -2.377197
     6  C   -0.902168
     7  C    1.619037
     9  C    1.689179
    11  C    0.625839
    12  F    0.453421
    13  F   -0.331325
    14  F   -0.564475
 Electronic spatial extent (au):  <R**2>=          25262.2466
 Charge=             -1.0000 electrons
 Dipole moment (field-independent basis, Debye):
    X=            -26.7648    Y=            -34.4939    Z=            -23.3785  Tot=             49.5251
 Quadrupole moment (field-independent basis, Debye-Ang):
   XX=           -230.2107   YY=           -307.9080   ZZ=           -181.0893
   XY=           -184.2574   XZ=           -139.4964   YZ=           -167.7200
 Traceless Quadrupole moment (field-independent basis, Debye-Ang):
   XX=              9.5253   YY=            -68.1720   ZZ=             58.6467
   XY=           -184.2574   XZ=           -139.4964   YZ=           -167.7200
 Octapole moment (field-independent basis, Debye-Ang**2):
  XXX=          -1863.0551  YYY=          -3167.5627  ZZZ=          -1406.0896  XYY=          -1503.9429
  XXY=          -1607.2046  XXZ=          -1164.8707  XZZ=           -994.4361  YZZ=          -1329.4388
  YYZ=          -1453.7566  XYZ=           -966.7970
 Hexadecapole moment (field-independent basis, Debye-Ang**3):
 XXXX=         -14655.1746 YYYY=         -34541.2355 ZZZZ=         -10263.7836 XXXY=         -13064.5494
 XXXZ=          -9392.3474 YYYX=         -14076.1210 YYYZ=         -14324.8566 ZZZX=          -7366.4525
 ZZZY=         -10373.5315 XXYY=         -12413.1441 XXZZ=          -7266.3081 YYZZ=         -10936.6352
 XXYZ=          -8115.3938 YYXZ=          -7745.9963 ZZXY=          -7079.6442
 N-N= 5.172487763291D+02 E-N=-2.386182412666D+03  KE= 5.671403458575D+02
  Exact polarizability:       0.000       0.000       0.000       0.000       0.000       0.000
 Approx polarizability:     127.246       4.942     118.476      10.997     -19.380      91.204
 D2PCM: PCM CHGder 2nd derivatives, FixD1E=F FixD2E=F DoIter=F DoCFld=F I1PDM=0
 Calling FoFJK, ICntrl=    100127 FMM=F ISym2X=0 I1Cent= 0 IOpClX= 0 NMat=1 NMatS=1 NMatT=0.
 -------------------------------------------------------------------
 Center     Atomic                   Forces (Hartrees/Bohr)
 Number     Number              X              Y              Z
 -------------------------------------------------------------------
      1        6           0.074996171   -0.023406212    0.033338231
      2        6          -0.025071634    0.018622283   -0.017094641
      3        1          -0.001881920   -0.002333318    0.000700745
      4        6          -0.005269359   -0.010561218    0.003807972
      5        1          -0.004815504    0.000665440   -0.001571148
      6        6          -0.007362136    0.002837156   -0.002370087
      7        6           0.005270775    0.010712814   -0.004175865
      8        1          -0.004000239    0.002025664   -0.002146546
      9        6          -0.034441087   -0.000186199   -0.009689050
     10        1           0.000660633    0.002731444   -0.001285810
     11        6           0.014478931   -0.003482822    0.007171567
     12        9          -0.003152075    0.003291554   -0.001911261
     13        9          -0.005271729   -0.000137806   -0.000014484
     14        9          -0.004140827   -0.000778779   -0.004759622
 -------------------------------------------------------------------
 Cartesian Forces:  Max     0.074996171 RMS     0.015922997
 FormGI is forming the generalized inverse of G from B-inverse, IUseBI=4.

 GradGradGradGradGradGradGradGradGradGradGradGradGradGradGradGradGradGrad
 Berny optimization.
 Internal  Forces:  Max     0.051104612 RMS     0.010319128
 Search for a local minimum.
 Step number   1 out of a maximum of   72
 All quantities printed in internal units (Hartrees-Bohrs-Radians)
 Mixed Optimization -- RFO/linear search
 Second derivative matrix not updated -- analytic derivatives used.
 ITU=  0
     Eigenvalues ---   -0.00059   0.00924   0.01327   0.02081   0.02281
     Eigenvalues ---    0.02681   0.03022   0.03617   0.03954   0.11134
     Eigenvalues ---    0.11204   0.11807   0.12250   0.12491   0.13365
     Eigenvalues ---    0.18648   0.19545   0.19917   0.20833   0.24872
     Eigenvalues ---    0.25388   0.27571   0.29407   0.35473   0.35483
     Eigenvalues ---    0.36127   0.36197   0.36404   0.37576   0.40410
     Eigenvalues ---    0.42874   0.45136   0.46780   0.51062   0.53249
     Eigenvalues ---    0.55351
 RFO step:  Lambda=-2.58197958D-02 EMin=-5.88625165D-04
 Linear search not attempted -- first point.
 Maximum step size (   0.300) exceeded in Quadratic search.
    -- Step size scaled by   0.878
 Iteration  1 RMS(Cart)=  0.10313737 RMS(Int)=  0.02332887
 Iteration  2 RMS(Cart)=  0.03497365 RMS(Int)=  0.00120335
 Iteration  3 RMS(Cart)=  0.00100683 RMS(Int)=  0.00076260
 Iteration  4 RMS(Cart)=  0.00000079 RMS(Int)=  0.00076260
 Variable       Old X    -DE/DX   Delta X   Delta X   Delta X     New X
                                 (Linear)    (Quad)   (Total)
    R1        2.59687   0.02698   0.00000   0.06148   0.06261   2.65948
    R2        2.59411   0.02708   0.00000   0.05745   0.05861   2.65272
    R3        2.04783   0.00219   0.00000   0.00757   0.00757   2.05540
    R4        2.63601   0.00799   0.00000  -0.00447  -0.00449   2.63152
    R5        2.04922   0.00332   0.00000   0.00498   0.00498   2.05421
    R6        2.63530  -0.00165   0.00000  -0.00034  -0.00153   2.63377
    R7        2.63126  -0.00131   0.00000  -0.00587  -0.00703   2.62423
    R8        2.83236  -0.00216   0.00000  -0.01497  -0.01497   2.81739
    R9        2.04777   0.00316   0.00000   0.00174   0.00174   2.04952
   R10        2.63961   0.00797   0.00000  -0.00005   0.00000   2.63961
   R11        2.04789   0.00226   0.00000   0.00783   0.00783   2.05572
   R12        2.53430   0.00380   0.00000   0.00301   0.00301   2.53732
   R13        2.53935   0.00411   0.00000   0.01503   0.01503   2.55438
   R14        2.54868   0.00516   0.00000   0.01055   0.01055   2.55923
    A1        2.19950  -0.05110   0.00000  -0.19274  -0.18933   2.01016
    A2        2.13716  -0.01101   0.00000  -0.04604  -0.04651   2.09066
    A3        2.03624   0.02643   0.00000   0.10985   0.11079   2.14702
    A4        2.10978  -0.01542   0.00000  -0.06381  -0.06428   2.04550
    A5        2.09778   0.00345   0.00000   0.00960   0.01032   2.10810
    A6        2.08540   0.00105   0.00000   0.00048  -0.00096   2.08444
    A7        2.09999  -0.00450   0.00000  -0.01006  -0.00935   2.09064
    A8        2.12374  -0.00381   0.00000  -0.02805  -0.03067   2.09307
    A9        2.06863   0.00149   0.00000  -0.00633  -0.00509   2.06354
   A10        2.09009   0.00232   0.00000   0.03500   0.03625   2.12634
   A11        2.10255  -0.00443   0.00000  -0.00489  -0.00422   2.09833
   A12        2.08408   0.00100   0.00000  -0.00257  -0.00391   2.08017
   A13        2.09655   0.00343   0.00000   0.00746   0.00813   2.10467
   A14        2.03739   0.02643   0.00000   0.11307   0.11410   2.15149
   A15        2.13757  -0.01105   0.00000  -0.04742  -0.04794   2.08963
   A16        2.10822  -0.01538   0.00000  -0.06564  -0.06616   2.04206
   A17        1.96673   0.00348   0.00000   0.01358   0.01349   1.98023
   A18        1.95934   0.00365   0.00000   0.00225   0.00225   1.96159
   A19        1.95564   0.00456   0.00000   0.01165   0.01158   1.96721
   A20        1.86609  -0.00391   0.00000  -0.00784  -0.00786   1.85823
   A21        1.85653  -0.00431   0.00000  -0.00412  -0.00425   1.85227
   A22        1.85176  -0.00463   0.00000  -0.01836  -0.01835   1.83341
    D1       -3.13981  -0.00003   0.00000   0.00086   0.00074  -3.13906
    D2       -0.00071  -0.00014   0.00000   0.00076   0.00069  -0.00003
    D3        0.00027   0.00010   0.00000  -0.00424  -0.00419  -0.00392
    D4        3.13945   0.00010   0.00000  -0.00121  -0.00107   3.13838
    D5       -3.13983   0.00009   0.00000  -0.00008  -0.00016  -3.13999
    D6       -0.00291   0.00009   0.00000   0.00508   0.00497   0.00206
    D7       -0.00069  -0.00002   0.00000  -0.00015  -0.00020  -0.00089
    D8        3.13622  -0.00002   0.00000   0.00501   0.00494   3.14116
    D9        0.00711   0.00000   0.00000  -0.00756  -0.00738  -0.00027
   D10        3.10768  -0.00012   0.00000   0.01071   0.01057   3.11825
   D11       -3.13916   0.00002   0.00000  -0.00234  -0.00224  -3.14141
   D12       -0.03859  -0.00010   0.00000   0.01593   0.01570  -0.02289
   D13        3.14002  -0.00007   0.00000   0.00408   0.00420  -3.13897
   D14       -0.00756  -0.00004   0.00000   0.00402   0.00411  -0.00345
   D15        0.03994   0.00007   0.00000  -0.01344  -0.01339   0.02655
   D16       -3.10764   0.00011   0.00000  -0.01349  -0.01348  -3.12112
   D17        2.79386   0.00013   0.00000   0.25606   0.25589   3.04975
   D18        0.68562   0.00004   0.00000   0.25478   0.25464   0.94025
   D19       -1.39619   0.00027   0.00000   0.26869   0.26861  -1.12758
   D20       -0.38794  -0.00014   0.00000   0.27247   0.27256  -0.11538
   D21       -2.49618  -0.00023   0.00000   0.27119   0.27131  -2.22488
   D22        1.70520   0.00001   0.00000   0.28509   0.28528   1.99048
   D23        0.00379   0.00000   0.00000   0.00180   0.00195   0.00574
   D24       -3.13543  -0.00001   0.00000  -0.00120  -0.00111  -3.13654
   D25        3.13942   0.00001   0.00000   0.00170   0.00182   3.14123
   D26        0.00020   0.00000   0.00000  -0.00129  -0.00124  -0.00104
         Item               Value     Threshold  Converged?
 Maximum Force            0.051105     0.000015     NO 
 RMS     Force            0.010319     0.000010     NO 
 Maximum Displacement     0.488573     0.000060     NO 
 RMS     Displacement     0.133993     0.000040     NO 
 Predicted change in Energy=-1.398095D-02
 GradGradGradGradGradGradGradGradGradGradGradGradGradGradGradGradGradGrad

                          Input orientation:                          
 ---------------------------------------------------------------------
 Center     Atomic      Atomic             Coordinates (Angstroms)
 Number     Number       Type             X           Y           Z
 ---------------------------------------------------------------------
      1          6           0        6.274269    6.983214    5.195077
      2          6           0        5.132841    6.161156    5.239290
      3          1           0        5.188853    5.183894    5.713477
      4          6           0        3.905327    6.537622    4.700177
      5          1           0        3.046132    5.874055    4.756003
      6          6           0        3.781133    7.780578    4.082016
      7          6           0        4.876932    8.630471    4.008880
      8          1           0        4.785142    9.599792    3.531117
      9          6           0        6.092572    8.223785    4.563799
     10          1           0        6.926024    8.919068    4.490754
     11          6           0        2.463166    8.143907    3.487257
     12          9           0        2.416998    9.400926    3.017588
     13          9           0        1.448985    8.028431    4.373400
     14          9           0        2.118074    7.342438    2.451566
 ---------------------------------------------------------------------
                    Distance matrix (angstroms):
                    1          2          3          4          5
     1  C    0.000000
     2  C    1.407335   0.000000
     3  H    2.164351   1.087673   0.000000
     4  C    2.460765   1.392538   2.122922   0.000000
     5  H    3.441495   2.161099   2.446290   1.087039   0.000000
     6  C    2.844366   2.406018   3.374331   1.393731   2.151584
     7  C    2.464360   2.770724   3.857698   2.408718   3.392322
     8  H    3.439876   3.855252   4.942250   3.393768   4.290177
     9  C    1.403760   2.373144   3.373338   2.765102   3.852139
    10  H    2.160645   3.373706   4.297015   3.852241   4.939233
    11  C    4.334555   3.758735   4.598599   2.476117   2.664919
    12  F    5.046318   4.775759   5.721395   3.639332   3.982048
    13  F    5.005097   4.219867   4.886084   2.891869   2.708985
    14  F    4.992980   4.272663   4.972833   2.982993   2.885805
                    6          7          8          9         10
     6  C    0.000000
     7  C    1.388684   0.000000
     8  H    2.149666   1.084559   0.000000
     9  C    2.402352   1.396821   2.160833   0.000000
    10  H    3.369505   2.124681   2.442880   1.087840   0.000000
    11  C    1.490901   2.516963   2.741003   3.786544   4.639503
    12  F    2.370527   2.761799   2.431330   4.157676   4.767989
    13  F    2.363313   3.499449   3.782665   4.651592   5.550221
    14  F    2.369831   3.419876   3.657093   4.586385   5.455312
                   11         12         13         14
    11  C    0.000000
    12  F    1.342689   0.000000
    13  F    1.351720   2.158475   0.000000
    14  F    1.354288   2.155715   2.147489   0.000000
 Symmetry turned off by external request.
 Stoichiometry    C7H4F3(1-)
 Framework group  C1[X(C7H4F3)]
 Deg. of freedom    36
 Full point group                 C1      NOp   1
 Rotational constants (GHZ):           2.8826793           0.9638868           0.8257623
 Standard basis: 6-311+G(d,p) (5D, 7F)
   244 basis functions,   392 primitive gaussians,   254 cartesian basis functions
    37 alpha electrons       37 beta electrons
       nuclear repulsion energy       514.9796744284 Hartrees.
 NAtoms=   14 NActive=   14 NUniq=   14 SFac= 1.00D+00 NAtFMM=   60 NAOKFM=F Big=F
 Integral buffers will be    131072 words long.
 Raffenetti 2 integral format.
 Two-electron integral symmetry is turned off.
 ------------------------------------------------------------------------------
 Polarizable Continuum Model (PCM)
 =================================
 Model                : PCM.
 Atomic radii         : SMD-Coulomb.
 Polarization charges : Total charges.
 Charge compensation  : None.
 Solution method      : Matrix inversion.
 Cavity type          : VdW (van der Waals Surface) (Alpha=1.000).
 Cavity algorithm     : GePol (No added spheres)
                        Default sphere list used, NSphG=   14.
                        Lebedev-Laikov grids with approx.  5.0 points / Ang**2.
                        Smoothing algorithm: York/Karplus (Gamma=1.0000).
                        Polarization charges: spherical gaussians, with
                                              point-specific exponents (IZeta= 3).
                        Self-potential: point-specific (ISelfS= 7).
                        Self-field    : sphere-specific E.n sum rule (ISelfD= 2).
 1st derivatives      : Analytical E(r).r(x)/FMM algorithm (CHGder, D1EAlg=3).
                        Cavity 1st derivative terms included.
 Solvent              : TetraHydroFuran, Eps=   7.425700 Eps(inf)=   1.974025
 ------------------------------------------------------------------------------
 Spheres list:
 ISph  on   Nord     Re0    Alpha      Xe            Ye            Ze
    1   C      1    1.8500  1.000      6.274269      6.983214      5.195077
    2   C      2    1.8500  1.000      5.132841      6.161156      5.239290
    3   H      3    1.2000  1.000      5.188853      5.183894      5.713477
    4   C      4    1.8500  1.000      3.905327      6.537622      4.700177
    5   H      5    1.2000  1.000      3.046132      5.874055      4.756003
    6   C      6    1.8500  1.000      3.781133      7.780578      4.082016
    7   C      7    1.8500  1.000      4.876932      8.630471      4.008880
    8   H      8    1.2000  1.000      4.785142      9.599792      3.531117
    9   C      9    1.8500  1.000      6.092572      8.223785      4.563799
   10   H     10    1.2000  1.000      6.926024      8.919068      4.490754
   11   C     11    1.8500  1.000      2.463166      8.143907      3.487257
   12   F     12    1.7300  1.000      2.416998      9.400926      3.017588
   13   F     13    1.7300  1.000      1.448985      8.028431      4.373400
   14   F     14    1.7300  1.000      2.118074      7.342438      2.451566
 ------------------------------------------------------------------------------
 ------------------------------------------------------------------------------
 Atomic radii for non-electrostatic terms: SMD-CDS.
 ------------------------------------------------------------------------------
 Nuclear repulsion after PCM non-electrostatic terms =      514.9787618839 Hartrees.
 One-electron integrals computed using PRISM.
 NBasis=   244 RedAO= T EigKep=  3.00D-06  NBF=   244
 NBsUse=   244 1.00D-06 EigRej= -1.00D+00 NBFU=   244
 Initial guess from the checkpoint file:  "4-cf3-ph-anion-opt-freq-thf-2.chk"
 B after Tr=    -0.552012   -0.280301    1.145203
         Rot=    0.999304    0.033046   -0.010966    0.013360 Ang=   4.27 deg.
 ExpMin= 4.38D-02 ExpMax= 1.14D+04 ExpMxC= 1.72D+03 IAcc=3 IRadAn=         5 AccDes= 0.00D+00
 Harris functional with IExCor= 1009 and IRadAn=       5 diagonalized for initial guess.
 HarFok:  IExCor= 1009 AccDes= 0.00D+00 IRadAn=         5 IDoV= 1 UseB2=F ITyADJ=14
 ICtDFT=  3500011 ScaDFX=  1.000000  1.000000  1.000000  1.000000
 FoFCou: FMM=F IPFlag=           0 FMFlag=      100000 FMFlg1=           0
         NFxFlg=           0 DoJE=T BraDBF=F KetDBF=T FulRan=T
         wScrn=  0.000000 ICntrl=       500 IOpCl=  0 I1Cent=   200000004 NGrid=           0
         NMat0=    1 NMatS0=      1 NMatT0=    0 NMatD0=    1 NMtDS0=    0 NMtDT0=    0
 Symmetry not used in FoFCou.
 Requested convergence on RMS density matrix=1.00D-08 within 128 cycles.
 Requested convergence on MAX density matrix=1.00D-06.
 Requested convergence on             energy=1.00D-06.
 Level shift goal  0.100 maximum shift  0.100.
 No special actions if energy rises.
 Dynamic level shift is on during FON iterations.
 Inv3:  Mode=1 IEnd=     4435968.
 Iteration    1 A*A^-1 deviation from unit magnitude is 5.33D-15 for   1195.
 Iteration    1 A*A^-1 deviation from orthogonality  is 1.85D-15 for   1161    978.
 Iteration    1 A^-1*A deviation from unit magnitude is 5.11D-15 for   1195.
 Iteration    1 A^-1*A deviation from orthogonality  is 3.45D-14 for   1125   1077.
 Error on total polarization charges =  0.04866
 SCF Done:  E(RM062X) =  -568.702966226     A.U. after   16 cycles
            NFock= 16  Conv=0.62D-08     -V/T= 2.0030
 SMD-CDS (non-electrostatic) energy       (kcal/mol) =      -0.57
 (included in total energy above)
 D1PCM: PCM CHGder 1st derivatives, ID1Alg=3 FixD1E=F DoIter=F DoCFld=F I1PDM=0.
 Calling FoFJK, ICntrl=      2127 FMM=F ISym2X=0 I1Cent= 0 IOpClX= 0 NMat=1 NMatS=1 NMatT=0.
 -------------------------------------------------------------------
 Center     Atomic                   Forces (Hartrees/Bohr)
 Number     Number              X              Y              Z
 -------------------------------------------------------------------
      1        6           0.015442281   -0.004889036    0.007148643
      2        6          -0.004502470    0.004062404   -0.003244446
      3        1          -0.000732530   -0.001195767    0.000328168
      4        6          -0.001596045   -0.003832347    0.001217025
      5        1          -0.000786886    0.000065688   -0.000317795
      6        6          -0.003302077   -0.000538415   -0.001591419
      7        6           0.001826655    0.004027033   -0.000903244
      8        1          -0.000968437    0.000715381   -0.000864672
      9        6          -0.006545115   -0.000346637   -0.001892397
     10        1           0.000384651    0.001302367   -0.000535533
     11        6           0.002955236   -0.001167757    0.001657634
     12        9          -0.000456094    0.000979442   -0.000475757
     13        9          -0.001421176    0.000653508    0.000112789
     14        9          -0.000297991    0.000164137   -0.000638994
 -------------------------------------------------------------------
 Cartesian Forces:  Max     0.015442281 RMS     0.003396327

 GradGradGradGradGradGradGradGradGradGradGradGradGradGradGradGradGradGrad
 Berny optimization.
 Using GEDIIS/GDIIS optimizer.
 FormGI is forming the generalized inverse of G from B-inverse, IUseBI=4.
 Internal  Forces:  Max     0.009216066 RMS     0.002214657
 Search for a local minimum.
 Step number   2 out of a maximum of   72
 All quantities printed in internal units (Hartrees-Bohrs-Radians)
 Mixed Optimization -- RFO/linear search
 Update second derivatives using D2CorX and points    1    2
 DE= -1.37D-02 DEPred=-1.40D-02 R= 9.77D-01
 TightC=F SS=  1.41D+00  RLast= 7.20D-01 DXNew= 5.0454D-01 2.1596D+00
 Trust test= 9.77D-01 RLast= 7.20D-01 DXMaxT set to 5.05D-01
 ITU=  1  0
 Use linear search instead of GDIIS.
     Eigenvalues ---   -0.00061   0.00923   0.01327   0.02081   0.02277
     Eigenvalues ---    0.02679   0.03016   0.03602   0.03951   0.11131
     Eigenvalues ---    0.11203   0.11807   0.12266   0.12490   0.13360
     Eigenvalues ---    0.18726   0.19351   0.20013   0.21338   0.24883
     Eigenvalues ---    0.25354   0.27584   0.29432   0.35473   0.35527
     Eigenvalues ---    0.36143   0.36169   0.36389   0.37575   0.40410
     Eigenvalues ---    0.42869   0.45012   0.46812   0.51039   0.52144
     Eigenvalues ---    0.55346
 RFO step:  Lambda=-7.71522822D-04 EMin=-6.12622800D-04
 Quartic linear search produced a step of  0.23537.
 Iteration  1 RMS(Cart)=  0.09964508 RMS(Int)=  0.04633529
 Iteration  2 RMS(Cart)=  0.07076924 RMS(Int)=  0.00383825
 Iteration  3 RMS(Cart)=  0.00404295 RMS(Int)=  0.00024543
 Iteration  4 RMS(Cart)=  0.00001141 RMS(Int)=  0.00024531
 Iteration  5 RMS(Cart)=  0.00000000 RMS(Int)=  0.00024531
 Variable       Old X    -DE/DX   Delta X   Delta X   Delta X     New X
                                 (Linear)    (Quad)   (Total)
    R1        2.65948   0.00698   0.01474   0.00259   0.01766   2.67713
    R2        2.65272   0.00696   0.01379   0.00857   0.02269   2.67542
    R3        2.05540   0.00118   0.00178   0.00303   0.00481   2.06021
    R4        2.63152   0.00243  -0.00106   0.00698   0.00593   2.63745
    R5        2.05421   0.00057   0.00117  -0.00266  -0.00148   2.05272
    R6        2.63377   0.00143  -0.00036  -0.00037  -0.00106   2.63271
    R7        2.62423   0.00161  -0.00165   0.01094   0.00894   2.63317
    R8        2.81739  -0.00080  -0.00352  -0.00180  -0.00532   2.81207
    R9        2.04952   0.00110   0.00041   0.00348   0.00389   2.05341
   R10        2.63961   0.00222   0.00000  -0.00283  -0.00283   2.63678
   R11        2.05572   0.00116   0.00184   0.00281   0.00465   2.06037
   R12        2.53732   0.00110   0.00071   0.01033   0.01104   2.54836
   R13        2.55438   0.00109   0.00354  -0.00862  -0.00508   2.54930
   R14        2.55923   0.00046   0.00248  -0.00001   0.00247   2.56170
    A1        2.01016  -0.00922  -0.04456  -0.00598  -0.04953   1.96063
    A2        2.09066  -0.00180  -0.01095   0.00150  -0.00959   2.08107
    A3        2.14702   0.00530   0.02608   0.00745   0.03382   2.18084
    A4        2.04550  -0.00350  -0.01513  -0.00896  -0.02424   2.02127
    A5        2.10810   0.00083   0.00243  -0.00057   0.00205   2.11015
    A6        2.08444  -0.00035  -0.00023  -0.00452  -0.00516   2.07928
    A7        2.09064  -0.00048  -0.00220   0.00510   0.00309   2.09373
    A8        2.09307  -0.00074  -0.00722  -0.00020  -0.00822   2.08484
    A9        2.06354   0.00211  -0.00120   0.04219   0.04131   2.10484
   A10        2.12634  -0.00137   0.00853  -0.04239  -0.03350   2.09284
   A11        2.09833  -0.00097  -0.00099  -0.00644  -0.00723   2.09110
   A12        2.08017  -0.00003  -0.00092   0.00170   0.00035   2.08052
   A13        2.10467   0.00101   0.00191   0.00477   0.00689   2.11156
   A14        2.15149   0.00504   0.02686   0.00158   0.02871   2.18020
   A15        2.08963  -0.00162  -0.01128   0.00308  -0.00834   2.08129
   A16        2.04206  -0.00342  -0.01557  -0.00466  -0.02037   2.02170
   A17        1.98023   0.00007   0.00318  -0.01258  -0.00943   1.97080
   A18        1.96159   0.00167   0.00053   0.01447   0.01494   1.97653
   A19        1.96721   0.00040   0.00272   0.00069   0.00329   1.97050
   A20        1.85823  -0.00115  -0.00185  -0.00317  -0.00499   1.85325
   A21        1.85227  -0.00066  -0.00100  -0.01095  -0.01203   1.84024
   A22        1.83341  -0.00055  -0.00432   0.01186   0.00740   1.84081
    D1       -3.13906  -0.00006   0.00017  -0.00250  -0.00232  -3.14139
    D2       -0.00003  -0.00007   0.00016  -0.00458  -0.00436  -0.00438
    D3       -0.00392   0.00012  -0.00099   0.01029   0.00932   0.00540
    D4        3.13838   0.00009  -0.00025   0.00723   0.00687  -3.13794
    D5       -3.13999   0.00002  -0.00004   0.00295   0.00280  -3.13720
    D6        0.00206  -0.00003   0.00117  -0.00595  -0.00480  -0.00274
    D7       -0.00089   0.00001  -0.00005   0.00094   0.00084  -0.00005
    D8        3.14116  -0.00003   0.00116  -0.00797  -0.00675   3.13441
    D9       -0.00027   0.00008  -0.00174   0.01128   0.00957   0.00930
   D10        3.11825   0.00013   0.00249  -0.00858  -0.00646   3.11179
   D11       -3.14141   0.00003  -0.00053   0.00246   0.00205  -3.13936
   D12       -0.02289   0.00009   0.00370  -0.01739  -0.01398  -0.03687
   D13       -3.13897  -0.00011   0.00099  -0.01214  -0.01109   3.13313
   D14       -0.00345  -0.00003   0.00097  -0.00587  -0.00492  -0.00837
   D15        0.02655  -0.00021  -0.00315   0.00728   0.00382   0.03037
   D16       -3.12112  -0.00013  -0.00317   0.01355   0.00999  -3.11113
   D17        3.04975   0.00010   0.06023  -0.39026  -0.33006   2.71968
   D18        0.94025   0.00030   0.05993  -0.38767  -0.32766   0.61259
   D19       -1.12758  -0.00043   0.06322  -0.41355  -0.35034  -1.47791
   D20       -0.11538   0.00016   0.06415  -0.40990  -0.34581  -0.46119
   D21       -2.22488   0.00037   0.06386  -0.40731  -0.34341  -2.56828
   D22        1.99048  -0.00037   0.06715  -0.43319  -0.36608   1.62440
   D23        0.00574  -0.00006   0.00046  -0.00533  -0.00502   0.00072
   D24       -3.13654  -0.00003  -0.00026  -0.00234  -0.00264  -3.13917
   D25        3.14123   0.00002   0.00043   0.00093   0.00118  -3.14077
   D26       -0.00104   0.00004  -0.00029   0.00392   0.00356   0.00252
         Item               Value     Threshold  Converged?
 Maximum Force            0.009216     0.000015     NO 
 RMS     Force            0.002215     0.000010     NO 
 Maximum Displacement     0.619668     0.000060     NO 
 RMS     Displacement     0.166537     0.000040     NO 
 Predicted change in Energy=-1.044351D-03
 GradGradGradGradGradGradGradGradGradGradGradGradGradGradGradGradGradGrad

                          Input orientation:                          
 ---------------------------------------------------------------------
 Center     Atomic      Atomic             Coordinates (Angstroms)
 Number     Number       Type             X           Y           Z
 ---------------------------------------------------------------------
      1          6           0        6.309341    6.978696    5.208338
      2          6           0        5.134279    6.192680    5.299920
      3          1           0        5.172874    5.236026    5.821360
      4          6           0        3.892332    6.546510    4.770499
      5          1           0        3.031442    5.893708    4.883038
      6          6           0        3.762565    7.759384    4.097436
      7          6           0        4.874461    8.587360    3.956909
      8          1           0        4.781684    9.530990    3.426164
      9          6           0        6.094471    8.187531    4.503390
     10          1           0        6.926817    8.877696    4.363282
     11          6           0        2.463259    8.151920    3.487425
     12          9           0        2.331630    9.486489    3.345502
     13          9           0        1.394483    7.742528    4.201568
     14          9           0        2.286808    7.637820    2.245569
 ---------------------------------------------------------------------
                    Distance matrix (angstroms):
                    1          2          3          4          5
     1  C    0.000000
     2  C    1.416679   0.000000
     3  H    2.168929   1.090218   0.000000
     4  C    2.494077   1.395677   2.112218   0.000000
     5  H    3.468089   2.164509   2.428729   1.086254   0.000000
     6  C    2.886112   2.404606   3.365743   1.393168   2.152316
     7  C    2.492540   2.757840   3.846644   2.406570   3.392669
     8  H    3.467576   3.844425   4.933226   3.391947   4.291346
     9  C    1.415769   2.352841   3.361216   2.759296   3.845505
    10  H    2.168317   3.361517   4.296984   3.848162   4.934397
    11  C    4.373825   3.775991   4.614294   2.503172   2.714791
    12  F    5.057802   4.745921   5.680579   3.620757   3.970117
    13  F    5.074727   4.194578   4.814823   2.827259   2.561674
    14  F    5.039168   4.418776   5.185005   3.184955   3.248485
                    6          7          8          9         10
     6  C    0.000000
     7  C    1.393415   0.000000
     8  H    2.151231   1.086616   0.000000
     9  C    2.405388   1.395324   2.165343   0.000000
    10  H    3.366568   2.112249   2.430345   1.090301   0.000000
    11  C    1.488084   2.494779   2.698274   3.770830   4.606216
    12  F    2.365559   2.765545   2.451785   4.145717   4.745760
    13  F    2.370431   3.589408   3.908066   4.730646   5.649909
    14  F    2.371086   3.244420   3.346984   4.460744   5.248970
                   11         12         13         14
    11  C    0.000000
    12  F    1.348533   0.000000
    13  F    1.349031   2.156964   0.000000
    14  F    1.355596   2.151613   2.152473   0.000000
 Symmetry turned off by external request.
 Stoichiometry    C7H4F3(1-)
 Framework group  C1[X(C7H4F3)]
 Deg. of freedom    36
 Full point group                 C1      NOp   1
 Rotational constants (GHZ):           2.8931906           0.9559121           0.8211073
 Standard basis: 6-311+G(d,p) (5D, 7F)
   244 basis functions,   392 primitive gaussians,   254 cartesian basis functions
    37 alpha electrons       37 beta electrons
       nuclear repulsion energy       514.1093042961 Hartrees.
 NAtoms=   14 NActive=   14 NUniq=   14 SFac= 1.00D+00 NAtFMM=   60 NAOKFM=F Big=F
 Integral buffers will be    131072 words long.
 Raffenetti 2 integral format.
 Two-electron integral symmetry is turned off.
 ------------------------------------------------------------------------------
 Polarizable Continuum Model (PCM)
 =================================
 Model                : PCM.
 Atomic radii         : SMD-Coulomb.
 Polarization charges : Total charges.
 Charge compensation  : None.
 Solution method      : Matrix inversion.
 Cavity type          : VdW (van der Waals Surface) (Alpha=1.000).
 Cavity algorithm     : GePol (No added spheres)
                        Default sphere list used, NSphG=   14.
                        Lebedev-Laikov grids with approx.  5.0 points / Ang**2.
                        Smoothing algorithm: York/Karplus (Gamma=1.0000).
                        Polarization charges: spherical gaussians, with
                                              point-specific exponents (IZeta= 3).
                        Self-potential: point-specific (ISelfS= 7).
                        Self-field    : sphere-specific E.n sum rule (ISelfD= 2).
 1st derivatives      : Analytical E(r).r(x)/FMM algorithm (CHGder, D1EAlg=3).
                        Cavity 1st derivative terms included.
 Solvent              : TetraHydroFuran, Eps=   7.425700 Eps(inf)=   1.974025
 ------------------------------------------------------------------------------
 Spheres list:
 ISph  on   Nord     Re0    Alpha      Xe            Ye            Ze
    1   C      1    1.8500  1.000      6.309341      6.978696      5.208338
    2   C      2    1.8500  1.000      5.134279      6.192680      5.299920
    3   H      3    1.2000  1.000      5.172874      5.236026      5.821360
    4   C      4    1.8500  1.000      3.892332      6.546510      4.770499
    5   H      5    1.2000  1.000      3.031442      5.893708      4.883038
    6   C      6    1.8500  1.000      3.762565      7.759384      4.097436
    7   C      7    1.8500  1.000      4.874461      8.587360      3.956909
    8   H      8    1.2000  1.000      4.781684      9.530990      3.426164
    9   C      9    1.8500  1.000      6.094471      8.187531      4.503390
   10   H     10    1.2000  1.000      6.926817      8.877696      4.363282
   11   C     11    1.8500  1.000      2.463259      8.151920      3.487425
   12   F     12    1.7300  1.000      2.331630      9.486489      3.345502
   13   F     13    1.7300  1.000      1.394483      7.742528      4.201568
   14   F     14    1.7300  1.000      2.286808      7.637820      2.245569
 ------------------------------------------------------------------------------
 ------------------------------------------------------------------------------
 Atomic radii for non-electrostatic terms: SMD-CDS.
 ------------------------------------------------------------------------------
 Nuclear repulsion after PCM non-electrostatic terms =      514.1084379426 Hartrees.
 One-electron integrals computed using PRISM.
 NBasis=   244 RedAO= T EigKep=  3.33D-06  NBF=   244
 NBsUse=   244 1.00D-06 EigRej= -1.00D+00 NBFU=   244
 Initial guess from the checkpoint file:  "4-cf3-ph-anion-opt-freq-thf-2.chk"
 B after Tr=     0.723408    0.521814   -1.451077
         Rot=    0.998815   -0.043475    0.014418   -0.016463 Ang=  -5.58 deg.
 ExpMin= 4.38D-02 ExpMax= 1.14D+04 ExpMxC= 1.72D+03 IAcc=3 IRadAn=         5 AccDes= 0.00D+00
 Harris functional with IExCor= 1009 and IRadAn=       5 diagonalized for initial guess.
 HarFok:  IExCor= 1009 AccDes= 0.00D+00 IRadAn=         5 IDoV= 1 UseB2=F ITyADJ=14
 ICtDFT=  3500011 ScaDFX=  1.000000  1.000000  1.000000  1.000000
 FoFCou: FMM=F IPFlag=           0 FMFlag=      100000 FMFlg1=           0
         NFxFlg=           0 DoJE=T BraDBF=F KetDBF=T FulRan=T
         wScrn=  0.000000 ICntrl=       500 IOpCl=  0 I1Cent=   200000004 NGrid=           0
         NMat0=    1 NMatS0=      1 NMatT0=    0 NMatD0=    1 NMtDS0=    0 NMtDT0=    0
 Symmetry not used in FoFCou.
 Requested convergence on RMS density matrix=1.00D-08 within 128 cycles.
 Requested convergence on MAX density matrix=1.00D-06.
 Requested convergence on             energy=1.00D-06.
 Level shift goal  0.100 maximum shift  0.100.
 No special actions if energy rises.
 Dynamic level shift is on during FON iterations.
 Inv3:  Mode=1 IEnd=     4590507.
 Iteration    1 A*A^-1 deviation from unit magnitude is 4.00D-15 for   1237.
 Iteration    1 A*A^-1 deviation from orthogonality  is 1.85D-15 for   1227   1089.
 Iteration    1 A^-1*A deviation from unit magnitude is 4.00D-15 for   1237.
 Iteration    1 A^-1*A deviation from orthogonality  is 3.43D-13 for    535    489.
 Error on total polarization charges =  0.04801
 SCF Done:  E(RM062X) =  -568.703527864     A.U. after   16 cycles
            NFock= 16  Conv=0.20D-08     -V/T= 2.0031
 SMD-CDS (non-electrostatic) energy       (kcal/mol) =      -0.54
 (included in total energy above)
 D1PCM: PCM CHGder 1st derivatives, ID1Alg=3 FixD1E=F DoIter=F DoCFld=F I1PDM=0.
 Calling FoFJK, ICntrl=      2127 FMM=F ISym2X=0 I1Cent= 0 IOpClX= 0 NMat=1 NMatS=1 NMatT=0.
 -------------------------------------------------------------------
 Center     Atomic                   Forces (Hartrees/Bohr)
 Number     Number              X              Y              Z
 -------------------------------------------------------------------
      1        6          -0.001344966    0.000026960   -0.000731559
      2        6           0.000168883   -0.001074564    0.000635308
      3        1           0.000021322   -0.000190581    0.000032932
      4        6          -0.000221931    0.000001129    0.000016332
      5        1          -0.000308520   -0.000045261    0.000079423
      6        6           0.000434942    0.001760846    0.000423766
      7        6          -0.000202409   -0.000201277   -0.000529844
      8        1           0.000200930   -0.000139211    0.000489720
      9        6           0.001510078    0.000706725    0.000021180
     10        1           0.000122257    0.000124573    0.000067857
     11        6          -0.000363947    0.000753645    0.000163600
     12        9          -0.000037797   -0.000507575   -0.000064008
     13        9           0.000595163   -0.000808853   -0.000214574
     14        9          -0.000574004   -0.000406558   -0.000390133
 -------------------------------------------------------------------
 Cartesian Forces:  Max     0.001760846 RMS     0.000572398

 GradGradGradGradGradGradGradGradGradGradGradGradGradGradGradGradGradGrad
 Berny optimization.
 Using GEDIIS/GDIIS optimizer.
 FormGI is forming the generalized inverse of G from B-inverse, IUseBI=4.
 Internal  Forces:  Max     0.002459513 RMS     0.000593597
 Search for a local minimum.
 Step number   3 out of a maximum of   72
 All quantities printed in internal units (Hartrees-Bohrs-Radians)
 Mixed Optimization -- En-DIIS/RFO-DIIS
 Update second derivatives using D2CorX and points    1    2    3
 DE= -5.62D-04 DEPred=-1.04D-03 R= 5.38D-01
 TightC=F SS=  1.41D+00  RLast= 8.50D-01 DXNew= 8.4853D-01 2.5488D+00
 Trust test= 5.38D-01 RLast= 8.50D-01 DXMaxT set to 8.49D-01
 ITU=  1  1  0
 Use linear search instead of GDIIS.
     Eigenvalues ---   -0.00142   0.00923   0.01346   0.02084   0.02278
     Eigenvalues ---    0.02682   0.03013   0.03593   0.03948   0.10918
     Eigenvalues ---    0.11143   0.11807   0.12093   0.12468   0.13022
     Eigenvalues ---    0.13558   0.18765   0.19970   0.21768   0.25036
     Eigenvalues ---    0.25374   0.27690   0.29627   0.35482   0.35525
     Eigenvalues ---    0.35947   0.36225   0.36517   0.37579   0.39881
     Eigenvalues ---    0.42873   0.44545   0.46735   0.49878   0.51033
     Eigenvalues ---    0.55351
 RFO step:  Lambda=-1.42155939D-03 EMin=-1.42119878D-03
 I=     1 Eig=   -1.42D-03 Dot1=  1.33D-05
 I=     1 Stepn=  6.00D-01 RXN=   6.00D-01 EDone=F
 Mixed    1 eigenvectors in step.  Raw Step.Grad=  1.33D-05.
 RFO eigenvector is Hessian eigenvector with negative curvature.
 Taking step of  6.00D-01 in eigenvector direction(s).  Step.Grad=  5.54D-05.
 Quartic linear search produced a step of -0.13777.
 Iteration  1 RMS(Cart)=  0.09626676 RMS(Int)=  0.03005389
 Iteration  2 RMS(Cart)=  0.04549749 RMS(Int)=  0.00158453
 Iteration  3 RMS(Cart)=  0.00168819 RMS(Int)=  0.00005217
 Iteration  4 RMS(Cart)=  0.00000206 RMS(Int)=  0.00005215
 Iteration  5 RMS(Cart)=  0.00000000 RMS(Int)=  0.00005215
 Variable       Old X    -DE/DX   Delta X   Delta X   Delta X     New X
                                 (Linear)    (Quad)   (Total)
    R1        2.67713   0.00002  -0.00243   0.01174   0.00929   2.68643
    R2        2.67542   0.00037  -0.00313   0.00867   0.00554   2.68096
    R3        2.06021   0.00018  -0.00066   0.00242   0.00176   2.06197
    R4        2.63745  -0.00009  -0.00082  -0.00148  -0.00230   2.63514
    R5        2.05272   0.00028   0.00020   0.00211   0.00231   2.05503
    R6        2.63271   0.00054   0.00015   0.00406   0.00421   2.63692
    R7        2.63317   0.00053  -0.00123  -0.00063  -0.00185   2.63132
    R8        2.81207   0.00028   0.00073  -0.00256  -0.00182   2.81025
    R9        2.05341  -0.00038  -0.00054  -0.00039  -0.00092   2.05249
   R10        2.63678   0.00061   0.00039   0.00363   0.00402   2.64080
   R11        2.06037   0.00017  -0.00064   0.00241   0.00177   2.06214
   R12        2.54836  -0.00050  -0.00152  -0.00311  -0.00463   2.54373
   R13        2.54930  -0.00034   0.00070   0.00699   0.00769   2.55699
   R14        2.56170   0.00060  -0.00034   0.00030  -0.00004   2.56167
    A1        1.96063   0.00140   0.00682  -0.02313  -0.01632   1.94431
    A2        2.08107   0.00045   0.00132  -0.00406  -0.00273   2.07833
    A3        2.18084  -0.00092  -0.00466   0.01366   0.00899   2.18983
    A4        2.02127   0.00046   0.00334  -0.00959  -0.00625   2.01502
    A5        2.11015  -0.00002  -0.00028   0.00296   0.00267   2.11282
    A6        2.07928   0.00024   0.00071  -0.00008   0.00064   2.07992
    A7        2.09373  -0.00023  -0.00043  -0.00286  -0.00329   2.09044
    A8        2.08484   0.00034   0.00113  -0.00356  -0.00245   2.08239
    A9        2.10484  -0.00246  -0.00569  -0.01567  -0.02142   2.08342
   A10        2.09284   0.00212   0.00462   0.01983   0.02438   2.11722
   A11        2.09110   0.00034   0.00100   0.00086   0.00184   2.09294
   A12        2.08052  -0.00019  -0.00005  -0.00228  -0.00231   2.07821
   A13        2.11156  -0.00016  -0.00095   0.00143   0.00046   2.11203
   A14        2.18020  -0.00087  -0.00396   0.01545   0.01150   2.19170
   A15        2.08129   0.00041   0.00115  -0.00401  -0.00286   2.07843
   A16        2.02170   0.00046   0.00281  -0.01144  -0.00863   2.01306
   A17        1.97080   0.00062   0.00130   0.00645   0.00774   1.97854
   A18        1.97653  -0.00125  -0.00206  -0.00386  -0.00591   1.97061
   A19        1.97050   0.00056  -0.00045   0.00101   0.00053   1.97104
   A20        1.85325   0.00063   0.00069  -0.00159  -0.00090   1.85235
   A21        1.84024  -0.00017   0.00166   0.00431   0.00594   1.84618
   A22        1.84081  -0.00037  -0.00102  -0.00672  -0.00775   1.83306
    D1       -3.14139   0.00005   0.00032  -0.00021   0.00006  -3.14133
    D2       -0.00438   0.00009   0.00060   0.00137   0.00197  -0.00242
    D3        0.00540  -0.00014  -0.00128  -0.00283  -0.00409   0.00131
    D4       -3.13794  -0.00012  -0.00095  -0.00162  -0.00257  -3.14050
    D5       -3.13720  -0.00003  -0.00039  -0.00120  -0.00168  -3.13887
    D6       -0.00274   0.00003   0.00066   0.00273   0.00333   0.00059
    D7       -0.00005   0.00002  -0.00012   0.00033   0.00017   0.00012
    D8        3.13441   0.00008   0.00093   0.00427   0.00518   3.13959
    D9        0.00930  -0.00012  -0.00132  -0.00546  -0.00675   0.00255
   D10        3.11179  -0.00025   0.00089   0.01271   0.01340   3.12519
   D11       -3.13936  -0.00007  -0.00028  -0.00155  -0.00178  -3.14114
   D12       -0.03687  -0.00019   0.00193   0.01663   0.01837  -0.01850
   D13        3.13313   0.00014   0.00153   0.00374   0.00533   3.13846
   D14       -0.00837   0.00009   0.00068   0.00412   0.00482  -0.00355
   D15        0.03037   0.00037  -0.00053  -0.01350  -0.01416   0.01620
   D16       -3.11113   0.00032  -0.00138  -0.01313  -0.01468  -3.12581
   D17        2.71968  -0.00011   0.04547   0.23104   0.27648   2.99616
   D18        0.61259  -0.00047   0.04514   0.23118   0.27631   0.88890
   D19       -1.47791   0.00053   0.04827   0.24207   0.29033  -1.18758
   D20       -0.46119  -0.00027   0.04764   0.24877   0.29642  -0.16478
   D21       -2.56828  -0.00064   0.04731   0.24891   0.29624  -2.27204
   D22        1.62440   0.00036   0.05044   0.25980   0.31027   1.93466
   D23        0.00072   0.00006   0.00069   0.00017   0.00085   0.00158
   D24       -3.13917   0.00004   0.00036  -0.00101  -0.00062  -3.13980
   D25       -3.14077   0.00001  -0.00016   0.00055   0.00033  -3.14044
   D26        0.00252  -0.00001  -0.00049  -0.00063  -0.00115   0.00137
         Item               Value     Threshold  Converged?
 Maximum Force            0.002460     0.000015     NO 
 RMS     Force            0.000594     0.000010     NO 
 Maximum Displacement     0.519077     0.000060     NO 
 RMS     Displacement     0.139314     0.000040     NO 
 Predicted change in Energy=-2.363772D-04
 GradGradGradGradGradGradGradGradGradGradGradGradGradGradGradGradGradGrad

                          Input orientation:                          
 ---------------------------------------------------------------------
 Center     Atomic      Atomic             Coordinates (Angstroms)
 Number     Number       Type             X           Y           Z
 ---------------------------------------------------------------------
      1          6           0        6.317730    6.974048    5.218222
      2          6           0        5.142223    6.175188    5.248903
      3          1           0        5.178870    5.195962    5.728882
      4          6           0        3.906457    6.533057    4.711013
      5          1           0        3.050987    5.864961    4.777532
      6          6           0        3.771680    7.770766    4.080900
      7          6           0        4.873448    8.618443    4.000688
      8          1           0        4.780332    9.582844    3.509835
      9          6           0        6.087515    8.208674    4.558364
     10          1           0        6.909301    8.920200    4.462464
     11          6           0        2.461479    8.148150    3.487201
     12          9           0        2.412745    9.427286    3.070818
     13          9           0        1.429029    7.993393    4.348002
     14          9           0        2.134651    7.396366    2.407576
 ---------------------------------------------------------------------
                    Distance matrix (angstroms):
                    1          2          3          4          5
     1  C    0.000000
     2  C    1.421596   0.000000
     3  H    2.172410   1.091149   0.000000
     4  C    2.503192   1.394458   2.107822   0.000000
     5  H    3.477914   2.166033   2.424977   1.087477   0.000000
     6  C    2.900108   2.405928   3.365359   1.395396   2.153320
     7  C    2.504471   2.756770   3.846208   2.405923   3.392125
     8  H    3.476779   3.842843   4.932315   3.392298   4.291892
     9  C    1.418701   2.346377   3.357407   2.754633   3.842073
    10  H    2.169939   3.357997   4.297459   3.844125   4.931565
    11  C    4.386983   3.765974   4.596168   2.488816   2.688015
    12  F    5.087104   4.771818   5.711467   3.646639   4.001297
    13  F    5.069097   4.231466   4.877885   2.898622   2.710252
    14  F    5.057296   4.313921   5.013993   3.031572   2.966743
                    6          7          8          9         10
     6  C    0.000000
     7  C    1.392437   0.000000
     8  H    2.151074   1.086129   0.000000
     9  C    2.404750   1.397452   2.167137   0.000000
    10  H    3.363250   2.109264   2.424687   1.091237   0.000000
    11  C    1.487120   2.510465   2.726892   3.781427   4.618476
    12  F    2.368761   2.752080   2.412966   4.147498   4.734220
    13  F    2.368316   3.517860   3.802646   4.668200   5.559268
    14  F    2.370666   3.395952   3.604898   4.572841   5.416819
                   11         12         13         14
    11  C    0.000000
    12  F    1.346082   0.000000
    13  F    1.353101   2.157532   0.000000
    14  F    1.355576   2.154498   2.149325   0.000000
 Symmetry turned off by external request.
 Stoichiometry    C7H4F3(1-)
 Framework group  C1[X(C7H4F3)]
 Deg. of freedom    36
 Full point group                 C1      NOp   1
 Rotational constants (GHZ):           2.8964255           0.9535577           0.8194475
 Standard basis: 6-311+G(d,p) (5D, 7F)
   244 basis functions,   392 primitive gaussians,   254 cartesian basis functions
    37 alpha electrons       37 beta electrons
       nuclear repulsion energy       513.8084918930 Hartrees.
 NAtoms=   14 NActive=   14 NUniq=   14 SFac= 1.00D+00 NAtFMM=   60 NAOKFM=F Big=F
 Integral buffers will be    131072 words long.
 Raffenetti 2 integral format.
 Two-electron integral symmetry is turned off.
 ------------------------------------------------------------------------------
 Polarizable Continuum Model (PCM)
 =================================
 Model                : PCM.
 Atomic radii         : SMD-Coulomb.
 Polarization charges : Total charges.
 Charge compensation  : None.
 Solution method      : Matrix inversion.
 Cavity type          : VdW (van der Waals Surface) (Alpha=1.000).
 Cavity algorithm     : GePol (No added spheres)
                        Default sphere list used, NSphG=   14.
                        Lebedev-Laikov grids with approx.  5.0 points / Ang**2.
                        Smoothing algorithm: York/Karplus (Gamma=1.0000).
                        Polarization charges: spherical gaussians, with
                                              point-specific exponents (IZeta= 3).
                        Self-potential: point-specific (ISelfS= 7).
                        Self-field    : sphere-specific E.n sum rule (ISelfD= 2).
 1st derivatives      : Analytical E(r).r(x)/FMM algorithm (CHGder, D1EAlg=3).
                        Cavity 1st derivative terms included.
 Solvent              : TetraHydroFuran, Eps=   7.425700 Eps(inf)=   1.974025
 ------------------------------------------------------------------------------
 Spheres list:
 ISph  on   Nord     Re0    Alpha      Xe            Ye            Ze
    1   C      1    1.8500  1.000      6.317730      6.974048      5.218222
    2   C      2    1.8500  1.000      5.142223      6.175188      5.248903
    3   H      3    1.2000  1.000      5.178870      5.195962      5.728882
    4   C      4    1.8500  1.000      3.906457      6.533057      4.711013
    5   H      5    1.2000  1.000      3.050987      5.864961      4.777532
    6   C      6    1.8500  1.000      3.771680      7.770766      4.080900
    7   C      7    1.8500  1.000      4.873448      8.618443      4.000688
[...]
 ! A22   A(13,11,14)           105.3976         -DE/DX =    0.0                 !
 ! D1    D(9,1,2,3)           -179.8083         -DE/DX =    0.0                 !
 ! D2    D(9,1,2,4)              0.1175         -DE/DX =    0.0                 !
 ! D3    D(2,1,9,7)             -0.0889         -DE/DX =    0.0                 !
 ! D4    D(2,1,9,10)           179.8735         -DE/DX =    0.0                 !
 ! D5    D(1,2,4,5)           -179.9587         -DE/DX =    0.0                 !
 ! D6    D(1,2,4,6)             -0.2636         -DE/DX =    0.0                 !
 ! D7    D(3,2,4,5)             -0.0306         -DE/DX =    0.0                 !
 ! D8    D(3,2,4,6)            179.6645         -DE/DX =    0.0                 !
 ! D9    D(2,4,6,7)              0.3672         -DE/DX =    0.0                 !
 ! D10   D(2,4,6,11)           177.0965         -DE/DX =    0.0                 !
 ! D11   D(5,4,6,7)           -179.9344         -DE/DX =    0.0                 !
 ! D12   D(5,4,6,11)            -3.2051         -DE/DX =    0.0                 !
 ! D13   D(4,6,7,8)            179.8896         -DE/DX =    0.0                 !
 ! D14   D(4,6,7,9)             -0.3409         -DE/DX =    0.0                 !
 ! D15   D(11,6,7,8)             3.1541         -DE/DX =    0.0                 !
 ! D16   D(11,6,7,9)          -177.0765         -DE/DX =    0.0                 !
 ! D17   D(4,6,11,12)          151.3096         -DE/DX =    0.0                 !
 ! D18   D(4,6,11,13)           30.3319         -DE/DX =    0.0                 !
 ! D19   D(4,6,11,14)          -89.2369         -DE/DX =    0.0                 !
 ! D20   D(7,6,11,12)          -31.9786         -DE/DX =    0.0                 !
 ! D21   D(7,6,11,13)         -152.9562         -DE/DX =    0.0                 !
 ! D22   D(7,6,11,14)           87.475          -DE/DX =    0.0                 !
 ! D23   D(6,7,9,1)              0.2073         -DE/DX =    0.0                 !
 ! D24   D(6,7,9,10)          -179.7563         -DE/DX =    0.0                 !
 ! D25   D(8,7,9,1)            179.974          -DE/DX =    0.0                 !
 ! D26   D(8,7,9,10)             0.0105         -DE/DX =    0.0                 !
 --------------------------------------------------------------------------------
 GradGradGradGradGradGradGradGradGradGradGradGradGradGradGradGradGradGrad


 ----------------------------------------------------------------------

 Electric dipole moment (input orientation):
 (Debye = 10**-18 statcoulomb cm , SI units = C m)
                  (au)            (Debye)         (10**-30 SI)
   Tot        0.194841D+02      0.495237D+02      0.165193D+03
   x         -0.105644D+02     -0.268520D+02     -0.895686D+02
   y         -0.135727D+02     -0.344984D+02     -0.115074D+03
   z         -0.915451D+01     -0.232684D+02     -0.776152D+02

 Dipole polarizability, Alpha (input orientation).
 (esu units = cm**3 , SI units = C**2 m**2 J**-1)
 Alpha(0;0):
               (au)            (10**-24 esu)      (10**-40 SI)
   iso        0.123649D+03      0.183228D+02      0.203869D+02
   aniso      0.666474D+02      0.987612D+01      0.109887D+02
   xx         0.149311D+03      0.221257D+02      0.246181D+02
   yx        -0.941705D+00     -0.139546D+00     -0.155266D+00
   yy         0.122973D+03      0.182227D+02      0.202755D+02
   zx         0.180057D+02      0.266816D+01      0.296873D+01
   zy        -0.226681D+02     -0.335906D+01     -0.373746D+01
   zz         0.986615D+02      0.146201D+02      0.162671D+02

 ----------------------------------------------------------------------

 Dipole orientation:
     6          0.84661473          1.06987046        -20.24288154
     6         -0.68701133          1.63447487        -18.12380031
     1         -0.71001960          3.55485878        -17.37750332
     6         -2.22039323         -0.10945649        -16.87235386
     1         -3.35361653          0.45087148        -15.25483342
     6         -2.29724415         -2.59853997        -17.72930272
     6         -0.83628554         -3.30393196        -19.80383186
     1         -0.88689989         -5.24280853        -20.47717211
     6          0.66860525         -1.49306823        -20.99275192
     1          1.76427819         -2.15011435        -22.60930222
     6         -3.82048212         -4.52406137        -16.35743125
     9         -4.67056541         -6.38693608        -17.87341732
     9         -5.86934740         -3.54167234        -15.20646431
     9         -2.50016377         -5.70658692        -14.50445754

 Electric dipole moment (dipole orientation):
 (Debye = 10**-18 statcoulomb cm , SI units = C m)
                  (au)            (Debye)         (10**-30 SI)
   Tot        0.194841D+02      0.495237D+02      0.165193D+03
   x          0.000000D+00      0.000000D+00      0.000000D+00
   y          0.000000D+00      0.000000D+00      0.000000D+00
   z          0.194841D+02      0.495237D+02      0.165193D+03

 Dipole polarizability, Alpha (dipole orientation).
 (esu units = cm**3 , SI units = C**2 m**2 J**-1)
 Alpha(0;0):
               (au)            (10**-24 esu)      (10**-40 SI)
   iso        0.123649D+03      0.183228D+02      0.203869D+02
   aniso      0.666474D+02      0.987612D+01      0.109887D+02
   xx         0.111132D+03      0.164681D+02      0.183232D+02
   yx         0.185138D+02      0.274346D+01      0.305251D+01
   yy         0.140840D+03      0.208704D+02      0.232214D+02
   zx        -0.299973D+02     -0.444514D+01     -0.494588D+01
   zy        -0.995227D+00     -0.147477D+00     -0.164091D+00
   zz         0.118974D+03      0.176301D+02      0.196161D+02

 ----------------------------------------------------------------------
 Unable to Open any file for archive entry.
 1\1\GINC-CN008\Freq\RM062X\6-311+G(d,p)\C7H4F3(1-)\TAHMINAAFROZ\27-May
 -2025\0\\#N Geom=AllCheck Guess=TCheck SCRF=Check GenChk RM062X/6-311+
 G(d,p) Freq\\4-cf3-ph-anion-opt-freq-thf-2\\-1,1\C,6.3120288544,6.9677
 208316,5.1844840864\C,5.1315538346,6.1949768523,5.3057752871\H,5.16882
 09405,5.2422753871,5.8347306612\C,3.8862079102,6.5603476965,4.79172752
 41\H,3.0185652446,5.91956134,4.9212613285\C,3.7610827263,7.7690062236,
 4.1092971755\C,4.8788675123,8.5851139262,3.9458806945\H,4.7869857351,9
 .5274879939,3.4130930908\C,6.1033134682,8.1768426689,4.4772303051\H,6.
 9416294939,8.8566615497,4.3225763743\C,2.4607854982,8.1529744832,3.495
 4583578\F,2.282569403,9.4877435477,3.4295811064\F,1.396776592,7.659073
 819,4.1592938703\F,2.3272607868,7.7095516804,2.220010138\\Version=AS64
 L-G16RevC.01\HF=-568.703614\RMSD=2.003e-09\RMSF=1.093e-05\ZeroPoint=0.
 0920073\Thermal=0.0998116\ETot=-568.6038025\HTot=-568.6028583\GTot=-56
 8.645351\Dipole=-3.5962574,1.1230019,-1.5275042\DipoleDeriv=-0.2572484
 ,-0.1103775,0.1960568,-0.1128418,-0.6465612,-0.1083339,0.2042369,-0.10
 88392,-0.6838995,-0.3323174,0.0697916,-0.0729835,0.1289804,0.1745265,-
 0.1623866,-0.1233679,-0.1776518,-0.1173628,0.0589304,-0.0222907,-0.001
 1117,-0.0614076,-0.1701402,0.1375982,0.0254325,0.1482401,0.0364783,0.0
 081178,-0.0608448,0.0369349,-0.1953007,0.0783501,-0.1123248,0.0919052,
 -0.0844785,0.0051448,-0.0804714,-0.11376,-0.0038847,-0.1043756,0.04798
 77,0.0378071,-0.0013837,0.0387207,0.1501713,-0.7013255,0.1693845,-0.18
 10323,0.2108577,-0.2817729,0.0558427,-0.0724385,0.0027237,-0.2758342,0
 .2236083,-0.0050871,0.0567614,0.1232022,-0.0614001,0.0283587,-0.017028
 4,0.0100181,-0.0758348,0.0836505,0.034764,-0.0413129,0.0306796,-0.0563
 433,0.1344476,-0.0367269,0.1323385,0.089306,-0.1302405,0.3053563,-0.15
 06976,0.2367985,0.0520205,-0.0684137,-0.1321977,-0.0403472,-0.1915744,
 -0.0671188,-0.1721313,0.0490034,-0.1280956,-0.0909616,0.0763136,0.0288
 167,0.062151,0.0841484,2.7165176,-0.2451367,0.3077856,-0.2006313,2.035
 0438,-0.0381072,0.4260015,-0.0948785,2.2264902,-0.6081239,0.2598753,-0
 .1091151,0.2866783,-1.1814687,0.1025653,-0.1568039,0.1212468,-0.44267,
 -1.2121445,-0.1513332,0.2037097,-0.2063102,-0.4484141,0.116958,0.18473
 61,0.1297367,-0.5651553,-0.7018342,0.0417897,-0.290114,-0.008234,-0.45
 08663,-0.200325,-0.4211818,-0.1389804,-1.2394082\Polar=149.3113133,-0.
 9417049,122.9730124,18.0056506,-22.6680675,98.6615471\Quadrupole=6.158
 9067,-50.8412162,44.6823094,-137.2590772,-103.8658772,-123.9912798\PG=
 C01 [X(C7H4F3)]\NImag=0\\0.36738986,0.08205932,0.40158316,0.03167516,-
 0.15980498,0.16067692,-0.22938947,-0.08001795,-0.00139773,0.57977886,-
 0.09759212,-0.14949553,0.02823721,0.03313541,0.56706991,0.00812123,0.0
 3286228,-0.06782484,0.09255094,-0.22502160,0.28469894,0.00094323,-0.02
 252135,0.01306177,-0.05431775,0.01015386,-0.00862564,0.06047055,-0.002
 65777,-0.01275485,0.00500086,0.01485805,-0.25124916,0.11905758,-0.0086
 1365,0.26844668,0.00222958,-0.00007698,-0.00179977,-0.01130880,0.11792
 403,-0.10696365,0.01291695,-0.13430286,0.10270295,-0.04907061,-0.03923
 323,0.00367057,-0.27878456,0.07516420,-0.09461322,-0.00070989,-0.00147
 813,-0.00038292,0.67764980,0.00556983,0.05327894,-0.01621972,0.0055990
 5,-0.12892140,0.03477513,0.02600599,-0.00623720,0.01264366,0.08942898,
 0.57608299,-0.02047613,-0.02654695,0.03030643,-0.05767079,0.05220536,-
 0.11047139,-0.01554218,0.00557438,-0.00233092,0.08962762,-0.21680253,0
 .27655405,-0.00382566,0.00159155,-0.00324989,-0.01496296,-0.01865162,0
 .00495814,0.00086417,0.00062395,0.00086828,-0.23361710,-0.13495154,0.0
 2368115,0.24627862,0.00099431,0.00167228,0.00261508,0.00782970,0.00932
 286,-0.00015871,0.00000741,-0.00034843,-0.00201781,-0.13250270,-0.1524
 3795,0.02872422,0.14474625,0.15639734,-0.00311835,0.00272846,0.0038194
 9,-0.00930085,-0.00701265,0.00667097,0.00124403,-0.00186083,-0.0027219
 3,0.02281644,0.02881420,-0.04783035,-0.02363097,-0.03447763,0.03846221
 ,-0.00932005,-0.02550633,0.01348645,0.01865710,0.02775095,-0.01249620,
 -0.00417872,0.00187703,-0.00392676,-0.11730074,0.03243349,-0.03215097,
 0.00531956,-0.02196405,0.01259654,0.64807373,-0.02539409,-0.05278329,0
 .01759319,0.08003269,-0.00247227,0.02640310,0.00045951,0.00303202,0.00
 249301,-0.02683134,-0.26756520,0.10595758,0.00269949,-0.01064209,0.007
 96322,0.07434872,0.59040619,0.01364686,0.01737445,-0.01487866,-0.03884
 956,0.01421686,-0.00921412,-0.00351086,0.00310455,0.00538241,-0.001857
 72,0.12041002,-0.12815749,-0.00079983,0.00210838,0.00232875,0.09806810
 ,-0.21588365,0.31510834,0.02747691,0.07153583,-0.03709648,-0.06709213,
 -0.00510899,-0.01175737,-0.00130346,-0.00051744,0.00032039,0.03918845,
 -0.06184759,0.03990373,0.00196885,0.00171331,-0.00219598,-0.24505627,-
 0.07837729,-0.00628819,0.63570518,0.02671780,0.00368825,0.01609721,-0.
 01532245,-0.00509364,-0.00650268,-0.00048812,0.00000571,-0.00106372,-0
 .01526845,-0.03715269,0.02185738,0.00069822,-0.00205545,0.00521808,-0.
 13683343,-0.18675609,0.03343559,0.05244253,0.60318221,-0.01329229,0.02
 668712,0.00309320,-0.00529011,-0.00399278,-0.00925940,0.00037084,-0.00
 102973,-0.00099879,0.01499507,0.01070886,0.00826338,-0.00167896,0.0055
 7335,0.00393715,0.02620916,0.04695045,-0.08200193,0.09928797,-0.240157
 29,0.29215248,-0.00402096,0.00090700,-0.00295206,-0.00115087,-0.000164
 66,-0.00014450,0.00016490,0.00026375,0.00037651,-0.00380170,-0.0033062
 1,-0.00102796,0.00024172,-0.00124329,0.00052111,0.00643138,-0.02107836
 ,0.01229481,-0.05951965,0.01774921,-0.01511205,0.05731233,0.00140000,0
 .00181196,0.00260089,0.00026752,0.00049848,-0.00038699,0.00021946,-0.0
 0047539,-0.00069549,-0.00427729,0.00161714,0.00195019,0.00024066,-0.00
 040377,0.00073317,0.00374757,-0.01129365,0.00877097,0.01536549,-0.2638
 1409,0.12634674,-0.01728832,0.27655007,-0.00332547,0.00259557,0.003862
 08,-0.00044943,-0.00052095,-0.00017947,0.00040675,-0.00071280,-0.00141
 823,-0.00040448,0.00226291,0.00605476,-0.00029049,0.00034295,0.0005439
 8,-0.00084906,0.00271437,0.00183200,-0.01409874,0.12611060,-0.10979156
 ,0.01731563,-0.13995046,0.10524516,-0.10669372,0.00826029,-0.01866517,
 0.03841127,-0.02413412,0.02341625,-0.00206965,-0.00415117,-0.00090626,
 -0.02433319,0.03201283,-0.02028888,-0.00026067,0.00060850,-0.00033348,
 -0.06115717,-0.04087064,0.00478542,-0.27670060,0.07711774,-0.09540953,
 0.00410615,-0.00219792,0.00101657,0.64346899,0.02586632,-0.22739779,0.
 10105860,-0.04284861,-0.03379952,0.00659033,-0.00552496,0.00054549,0.0
 0399374,0.02127288,-0.03274345,0.01723611,0.00103983,-0.00002041,0.000
 19169,0.01058870,0.04749583,-0.02029468,0.00803981,-0.12975441,0.03696
 099,0.02421504,-0.00284702,0.01057130,0.08891006,0.52649166,-0.0281743
 8,0.09640783,-0.10958476,0.03349663,0.01138833,0.00079908,-0.00016347,
 0.00436689,0.00810816,-0.01536297,0.02041556,-0.02457022,-0.00057243,-
 0.00000655,-0.00054860,-0.02365831,-0.03158234,0.02086705,-0.05726978,
 0.05397104,-0.11201113,-0.01350084,0.00383329,-0.00024011,0.08011566,-
 0.18666600,0.25838071,0.00758626,0.00312685,0.00083403,0.00262472,-0.0
 0012807,-0.00189874,0.00007140,0.00014889,-0.00005745,0.00034970,0.000
 93932,-0.00000455,-0.00006186,0.00006937,0.00043557,-0.00351833,0.0023
 3199,-0.00432139,-0.02143130,-0.01943270,0.00387750,0.00086913,0.00064
 035,0.00090627,-0.21523237,-0.12495694,0.02284418,0.22971325,-0.016856
 61,-0.01705250,0.00365291,-0.00147991,-0.00246044,0.00665334,-0.001068
 70,-0.00075632,0.00012948,0.00094897,-0.00103777,-0.00011789,0.0000203
 1,-0.00033362,-0.00083792,0.00120417,0.00273557,0.00316477,0.00814426,
 0.00687760,0.00087155,0.00000467,-0.00033341,-0.00200525,-0.12967572,-
 0.14869614,0.02572230,0.13840701,0.16067700,0.01160883,0.00877650,-0.0
 0415100,-0.00116036,0.00697646,0.00644543,0.00059655,0.00042728,-0.000
 12317,0.00000728,-0.00003860,-0.00162069,0.00043940,-0.00084126,-0.001
 32933,-0.00323134,0.00342647,0.00505463,-0.01103547,-0.00632297,0.0052
 7154,0.00122606,-0.00181981,-0.00274674,0.02534580,0.02697907,-0.04813
 973,-0.02294493,-0.03741442,0.04074261,-0.00123751,-0.00092675,0.00099
 350,0.01166753,-0.00184234,0.00251786,0.00105192,-0.00134522,0.0004797
 7,-0.00434141,0.01885428,-0.00926850,-0.00112377,-0.00229718,0.0016455
 1,-0.18799146,0.02280046,-0.05458452,-0.03271812,0.00027524,-0.0099096
 4,0.00020169,0.00130432,0.00013025,0.00402456,-0.00803432,0.00407793,0
 .00061335,0.00053593,-0.00032321,0.58279991,-0.00090401,-0.00376568,-0
 .00017365,-0.00105371,-0.00351696,0.00529044,0.00095281,-0.00010184,0.
 00038277,0.02532785,-0.00350948,0.01165953,0.00020252,-0.00165124,-0.0
 0092678,0.02584087,-0.09692371,0.02662648,-0.00628047,0.01208598,-0.01
 249231,-0.00128565,-0.00268217,-0.00041020,-0.00824701,0.00080744,0.00
 124462,-0.00155978,0.00052369,0.00013097,-0.02235242,0.49949844,0.0011
 5745,-0.00026865,-0.00339313,0.00358427,0.00579698,0.00511589,-0.00038
 177,-0.00008064,0.00073095,-0.01459167,0.00616795,-0.00945725,0.000486
 05,-0.00084529,-0.00240917,-0.04726891,0.02317787,-0.09623694,-0.00445
 978,-0.00714395,0.00340760,0.00117309,-0.00032433,-0.00267282,0.004669
 21,-0.00000580,0.00842099,0.00100006,0.00035759,0.00057597,0.03891001,
 -0.03249742,0.46900006,-0.00011948,0.00060138,-0.00010198,-0.00068896,
 0.00134680,-0.00188269,-0.00055963,0.00024897,-0.00046468,-0.00600342,
 -0.00217384,0.00129131,0.00030701,0.00033832,0.00013333,-0.00064712,0.
 03774563,-0.00659474,-0.00096653,0.00096715,-0.00012228,-0.00131801,0.
 00125591,-0.00060336,0.00049451,0.00090617,-0.00058219,-0.00020896,-0.
 00010251,0.00004122,-0.08783026,0.03732029,-0.00687252,0.08368833,0.00
 001227,0.00021282,-0.00061977,0.00060560,-0.00098562,0.00176945,0.0006
 4369,-0.00027541,0.00055268,0.00641480,0.00279830,-0.00183320,-0.00026
 149,0.00015593,-0.00040345,0.00789754,-0.03402289,0.00548693,-0.005365
 18,-0.00178963,0.00133782,0.00074967,0.00106858,-0.00105208,0.00156982
 ,-0.00017057,0.00146423,0.00035501,0.00003829,-0.00005552,0.04930496,-
 0.23489591,0.02022433,-0.03140459,0.38278281,0.00019316,0.00054507,0.0
 0016473,-0.00126570,-0.00019376,-0.00137334,-0.00015624,0.00003922,-0.
 00036882,-0.00193838,-0.00095386,0.00237796,0.00017487,0.00000091,0.00
 026999,-0.00667414,0.01972033,0.00555991,0.00072480,0.00096456,-0.0004
 0998,-0.00028030,-0.00015537,0.00005463,-0.00015001,0.00018638,-0.0005
 6065,-0.00011434,-0.00006750,0.00001912,-0.00591534,0.01696921,-0.0692
 0802,0.00107405,-0.01002372,0.08013457,-0.00018089,0.00007445,0.000528
 40,-0.00147454,-0.00063218,-0.00091697,-0.00016815,0.00037346,-0.00013
 931,0.00084497,-0.00384152,0.00159570,-0.00148588,0.00169334,-0.000134
 14,-0.04449616,-0.02196368,0.02399005,-0.00270699,0.00938654,-0.002840
 49,0.00034909,-0.00009140,0.00052846,-0.00269337,-0.00152890,-0.001517
 99,-0.00107108,-0.00000548,-0.00062577,-0.20785159,-0.04026609,0.05505
 146,0.00163632,-0.03271646,0.00981422,0.26201146,0.00036864,0.00019405
 ,0.00025551,-0.00057479,0.00061464,-0.00094646,-0.00006054,0.00005229,
 -0.00001013,0.00165419,-0.00298996,0.00075797,0.00205371,0.00040037,0.
 00006182,-0.00290844,0.00782221,0.00217243,0.00069904,0.00071110,0.000
 94245,0.00028176,0.00025081,0.00000787,0.00000682,0.00044591,-0.000694
 61,-0.00000544,-0.00008134,-0.00012062,-0.04815976,-0.08752289,0.02534
 130,-0.04592241,-0.05769149,0.03286186,0.08885707,0.12452222,-0.000487
 97,-0.00051001,0.00025054,0.00046735,-0.00065345,0.00064549,0.00007603
 ,-0.00001468,-0.00001702,-0.00154650,0.00230886,-0.00063125,-0.0009467
 2,-0.00074119,-0.00039321,-0.00322942,0.00100285,0.00755225,0.00040977
 ,0.00025664,0.00119786,-0.00008679,-0.00011992,0.00012726,-0.00047045,
 0.00034181,-0.00084023,0.00007271,-0.00010040,-0.00008579,0.06468588,0
 .02351627,-0.09803203,0.01239392,0.02723544,-0.00003054,-0.12160365,-0
 .06024336,0.16202056,0.00046207,0.00004893,-0.00078657,-0.00327823,0.0
 0070289,0.00077092,-0.00025892,0.00036928,-0.00000531,-0.00007029,-0.0
 0472305,0.00033045,0.00035797,0.00000670,-0.00067875,-0.00481575,-0.00
 590311,-0.03597842,0.00315566,0.00199071,-0.00108518,0.00013480,-0.000
 58633,-0.00028291,-0.00136475,0.00205491,0.00026798,-0.00030391,-0.000
 07638,0.00005594,-0.07726486,-0.00769520,-0.03245695,0.01221620,0.0021
 9437,0.00451336,-0.00271321,0.00371016,0.05026583,0.07374321,0.0004161
 1,0.00080820,-0.00029333,-0.00103059,0.00048866,-0.00038522,-0.0001654
 1,0.00011642,0.00004762,-0.00062074,-0.00118228,-0.00062214,-0.0000518
 2,-0.00005583,-0.00019139,0.00152321,0.01096737,-0.00069309,-0.0004433
 3,-0.00013487,0.00129277,0.00019539,0.00005245,0.00004617,0.00079052,-
 0.00035701,0.00013540,0.00006414,-0.00010061,-0.00010356,-0.00811721,-
 0.07834567,-0.03989995,-0.00112724,-0.05722521,-0.05989334,0.00066086,
 0.01327209,0.00772113,0.00790611,0.11169629,0.00024232,-0.00076973,-0.
 00054126,-0.00340586,0.00064994,0.00091040,-0.00029277,0.00043078,-0.0
 0018216,-0.00041911,-0.00449244,0.00151297,0.00056142,-0.00027645,-0.0
 0079994,-0.01687514,-0.00993646,-0.03319620,0.00355512,0.00327951,-0.0
 0285041,0.00019730,-0.00078288,-0.00067093,-0.00312512,0.00285645,-0.0
 0008056,-0.00062892,-0.00000855,0.00008716,-0.03343950,-0.03931994,-0.
 20584212,0.00229062,-0.04408314,-0.01662957,0.03627003,-0.00038603,-0.
 07176388,0.01506960,0.09283892,0.33004650\\0.00000025,0.00001026,0.000
 01016,-0.00000149,0.00001225,0.00001831,-0.00000186,0.00001885,0.00002
 982,-0.00000125,0.00000668,0.00001285,-0.00000113,0.00000836,0.0000198
 7,0.00000043,-0.00000162,-0.00000221,-0.00000015,-0.00000380,-0.000011
 43,0.00000102,-0.00001032,-0.00002272,0.00000020,0.00000255,-0.0000054
 0,0.00000029,0.00000013,-0.00001279,0.00000054,-0.00000902,-0.00000781
 ,0.00000141,-0.00000962,-0.00002410,0.00000002,-0.00000050,-0.00000254
 ,0.00000172,-0.00002420,-0.00000202\\\@
 The archive entry for this job was punched.


 The arm of the moral universe is long, but it bends toward justice.
 -- Martin Luther King, Jr.
 Job cpu time:       0 days  0 hours 34 minutes 22.2 seconds.
 Elapsed time:       0 days  0 hours  1 minutes  7.7 seconds.
 File lengths (MBytes):  RWF=    119 Int=      0 D2E=      0 Chk=     13 Scr=      1
 Normal termination of Gaussian 16 at Tue May 27 04:36:13 2025.
