/home/tahminaafroz
cn016.cluster.local
tahminaafroz
Tue Apr 22 20:40:24 CDT 2025
 Entering Gaussian System, Link 0=g16
 Initial command:
 /home/apps/g16/l1.exe "/tmp/4-cf3-phboh2-opt-freq-thf/Gau-2873144.inp" -scrdir="/tmp/4-cf3-phboh2-opt-freq-thf/"
 Entering Link 1 = /home/apps/g16/l1.exe PID=   2873145.
  
 Copyright (c) 1988-2019, Gaussian, Inc.  All Rights Reserved.
  
 This is part of the Gaussian(R) 16 program.  It is based on
 the Gaussian(R) 09 system (copyright 2009, Gaussian, Inc.),
 the Gaussian(R) 03 system (copyright 2003, Gaussian, Inc.),
 the Gaussian(R) 98 system (copyright 1998, Gaussian, Inc.),
 the Gaussian(R) 94 system (copyright 1995, Gaussian, Inc.),
 the Gaussian 92(TM) system (copyright 1992, Gaussian, Inc.),
 the Gaussian 90(TM) system (copyright 1990, Gaussian, Inc.),
 the Gaussian 88(TM) system (copyright 1988, Gaussian, Inc.),
 the Gaussian 86(TM) system (copyright 1986, Carnegie Mellon
 University), and the Gaussian 82(TM) system (copyright 1983,
 Carnegie Mellon University). Gaussian is a federally registered
 trademark of Gaussian, Inc.
  
 This software contains proprietary and confidential information,
 including trade secrets, belonging to Gaussian, Inc.
  
 This software is provided under written license and may be
 used, copied, transmitted, or stored only in accord with that
 written license.
  
 The following legend is applicable only to US Government
 contracts under FAR:
  
                    RESTRICTED RIGHTS LEGEND
  
 Use, reproduction and disclosure by the US Government is
 subject to restrictions as set forth in subparagraphs (a)
 and (c) of the Commercial Computer Software - Restricted
 Rights clause in FAR 52.227-19.
  
 Gaussian, Inc.
 340 Quinnipiac St., Bldg. 40, Wallingford CT 06492
  
  
 ---------------------------------------------------------------
 Warning -- This program may not be used in any manner that
 competes with the business of Gaussian, Inc. or will provide
 assistance to any competitor of Gaussian, Inc.  The licensee
 of this program is prohibited from giving any competitor of
 Gaussian, Inc. access to this program.  By using this program,
 the user acknowledges that Gaussian, Inc. is engaged in the
 business of creating and licensing software in the field of
 computational chemistry and represents and warrants to the
 licensee that it is not a competitor of Gaussian, Inc. and that
 it will not use this program in any manner prohibited above.
 ---------------------------------------------------------------
  

 Cite this work as:
 Gaussian 16, Revision C.01,
 M. J. Frisch, G. W. Trucks, H. B. Schlegel, G. E. Scuseria, 
 M. A. Robb, J. R. Cheeseman, G. Scalmani, V. Barone, 
 G. A. Petersson, H. Nakatsuji, X. Li, M. Caricato, A. V. Marenich, 
 J. Bloino, B. G. Janesko, R. Gomperts, B. Mennucci, H. P. Hratchian, 
 J. V. Ortiz, A. F. Izmaylov, J. L. Sonnenberg, D. Williams-Young, 
 F. Ding, F. Lipparini, F. Egidi, J. Goings, B. Peng, A. Petrone, 
 T. Henderson, D. Ranasinghe, V. G. Zakrzewski, J. Gao, N. Rega, 
 G. Zheng, W. Liang, M. Hada, M. Ehara, K. Toyota, R. Fukuda, 
 J. Hasegawa, M. Ishida, T. Nakajima, Y. Honda, O. Kitao, H. Nakai, 
 T. Vreven, K. Throssell, J. A. Montgomery, Jr., J. E. Peralta, 
 F. Ogliaro, M. J. Bearpark, J. J. Heyd, E. N. Brothers, K. N. Kudin, 
 V. N. Staroverov, T. A. Keith, R. Kobayashi, J. Normand, 
 K. Raghavachari, A. P. Rendell, J. C. Burant, S. S. Iyengar, 
 J. Tomasi, M. Cossi, J. M. Millam, M. Klene, C. Adamo, R. Cammi, 
 J. W. Ochterski, R. L. Martin, K. Morokuma, O. Farkas, 
 J. B. Foresman, and D. J. Fox, Gaussian, Inc., Wallingford CT, 2019.
 
 ******************************************
 Gaussian 16:  AS64L-G16RevC.01  3-Jul-2019
                22-Apr-2025 
 ******************************************
 %mem=20GB
 %nprocshared=32
 Will use up to   32 processors via shared memory.
 %chk=4-cf3-phboh2-opt-freq-thf.chk
 ----------------------------------------------------------------------
 # opt=(calcfc,tight) freq 6-311+g(d,p) scrf=(smd,solvent=thf) nosymm s
 cf=(qc,fermi,xqc) geom=connectivity int=ultrafine m062x
 ----------------------------------------------------------------------
 1/7=10,10=4,18=20,19=15,26=6,38=1,57=2/1,3;
 2/9=110,12=2,15=1,17=6,18=5,40=1/2;
 3/5=4,6=6,7=111,11=2,25=1,30=1,70=32201,71=2,72=20,74=-55,75=-5,140=1/1,2,3;
 4//1;
 5/5=2,22=13,38=5,53=20/2;
 8/6=4,10=90,11=11/1;
 11/6=1,8=1,9=11,15=111,16=1,31=1/1,2,10;
 10/6=1,13=1,31=1/2;
 6/7=2,8=2,9=2,10=2,28=1/1;
 7/10=1,25=1,30=1/1,2,3,16;
 1/7=10,10=4,18=20,19=15,26=6/3(2);
 2/9=110,15=1/2;
 99//99;
 2/9=110,15=1/2;
 3/5=4,6=6,7=111,11=2,25=1,30=1,70=32205,71=1,72=20,74=-55,75=-5/1,2,3;
 4/5=5,16=3,69=1/1;
 5/5=2,22=13,38=5,53=20/2;
 7/30=1/1,2,3,16;
 1/7=10,18=20,19=15,26=6/3(-5);
 2/9=110,15=1/2;
 6/7=2,8=2,9=2,10=2,19=2,28=1/1;
 99/9=1/99;
 -------------------------
 4-cf3-phboh2-opt-freq-thf
 -------------------------
 Symbolic Z-matrix:
 Charge =  0 Multiplicity = 1
 O                     8.68578   7.44852   5.52185 
 H                     9.50435   7.1419    5.9227 
 C                     6.23903   6.99601   5.17382 
 B                     7.64313   6.60892   5.7642 
 O                     7.88043   5.48622   6.50557 
 H                     7.11253   4.93616   6.6673 
 C                     5.11246   6.17879   5.30708 
 H                     5.17492   5.2282    5.82893 
 C                     3.88256   6.55038   4.77908 
 H                     3.01437   5.91292   4.89251 
 C                     3.77272   7.76195   4.10637 
 C                     4.87644   8.59483   3.95507 
 H                     4.77374   9.53782   3.43195 
 C                     6.09888   8.208     4.48761 
 H                     6.96431   8.85094   4.37723 
 C                     2.46096   8.14767   3.48423 
 F                     2.29638   9.47665   3.43929 
 F                     1.41699   7.63717   4.15254 
 F                     2.3654    7.70265   2.21952 
 

 GradGradGradGradGradGradGradGradGradGradGradGradGradGradGradGradGradGrad
 Berny optimization.
 Initialization pass.
                           ----------------------------
                           !    Initial Parameters    !
                           ! (Angstroms and Degrees)  !
 --------------------------                            --------------------------
 ! Name  Definition              Value          Derivative Info.                !
 --------------------------------------------------------------------------------
 ! R1    R(1,2)                  0.9616         calculate D2E/DX2 analytically  !
 ! R2    R(1,4)                  1.3604         calculate D2E/DX2 analytically  !
 ! R3    R(3,4)                  1.5716         calculate D2E/DX2 analytically  !
 ! R4    R(3,7)                  1.3981         calculate D2E/DX2 analytically  !
 ! R5    R(3,14)                 1.3998         calculate D2E/DX2 analytically  !
 ! R6    R(4,5)                  1.3662         calculate D2E/DX2 analytically  !
 ! R7    R(5,6)                  0.9583         calculate D2E/DX2 analytically  !
 ! R8    R(7,8)                  1.0862         calculate D2E/DX2 analytically  !
 ! R9    R(7,9)                  1.3891         calculate D2E/DX2 analytically  !
 ! R10   R(9,10)                 1.083          calculate D2E/DX2 analytically  !
 ! R11   R(9,11)                 1.3901         calculate D2E/DX2 analytically  !
 ! R12   R(11,12)                1.391          calculate D2E/DX2 analytically  !
 ! R13   R(11,16)                1.5022         calculate D2E/DX2 analytically  !
 ! R14   R(12,13)                1.0833         calculate D2E/DX2 analytically  !
 ! R15   R(12,14)                1.3884         calculate D2E/DX2 analytically  !
 ! R16   R(14,15)                1.0838         calculate D2E/DX2 analytically  !
 ! R17   R(16,17)                1.3399         calculate D2E/DX2 analytically  !
 ! R18   R(16,18)                1.3406         calculate D2E/DX2 analytically  !
 ! R19   R(16,19)                1.3441         calculate D2E/DX2 analytically  !
 ! A1    A(2,1,4)              112.4174         calculate D2E/DX2 analytically  !
 ! A2    A(4,3,7)              122.6923         calculate D2E/DX2 analytically  !
 ! A3    A(4,3,14)             119.1345         calculate D2E/DX2 analytically  !
 ! A4    A(7,3,14)             118.173          calculate D2E/DX2 analytically  !
 ! A5    A(1,4,3)              117.7626         calculate D2E/DX2 analytically  !
 ! A6    A(1,4,5)              118.0811         calculate D2E/DX2 analytically  !
 ! A7    A(3,4,5)              124.1562         calculate D2E/DX2 analytically  !
 ! A8    A(4,5,6)              115.0934         calculate D2E/DX2 analytically  !
 ! A9    A(3,7,8)              120.7296         calculate D2E/DX2 analytically  !
 ! A10   A(3,7,9)              121.389          calculate D2E/DX2 analytically  !
 ! A11   A(8,7,9)              117.8813         calculate D2E/DX2 analytically  !
 ! A12   A(7,9,10)             120.8308         calculate D2E/DX2 analytically  !
 ! A13   A(7,9,11)             119.1467         calculate D2E/DX2 analytically  !
 ! A14   A(10,9,11)            120.0209         calculate D2E/DX2 analytically  !
 ! A15   A(9,11,12)            120.7839         calculate D2E/DX2 analytically  !
 ! A16   A(9,11,16)            119.5512         calculate D2E/DX2 analytically  !
 ! A17   A(12,11,16)           119.6109         calculate D2E/DX2 analytically  !
 ! A18   A(11,12,13)           119.9042         calculate D2E/DX2 analytically  !
 ! A19   A(11,12,14)           119.3471         calculate D2E/DX2 analytically  !
 ! A20   A(13,12,14)           120.7472         calculate D2E/DX2 analytically  !
 ! A21   A(3,14,12)            121.1597         calculate D2E/DX2 analytically  !
 ! A22   A(3,14,15)            118.9235         calculate D2E/DX2 analytically  !
 ! A23   A(12,14,15)           119.9166         calculate D2E/DX2 analytically  !
 ! A24   A(11,16,17)           112.0759         calculate D2E/DX2 analytically  !
 ! A25   A(11,16,18)           112.0728         calculate D2E/DX2 analytically  !
 ! A26   A(11,16,19)           111.5158         calculate D2E/DX2 analytically  !
 ! A27   A(17,16,18)           107.3842         calculate D2E/DX2 analytically  !
 ! A28   A(17,16,19)           106.7438         calculate D2E/DX2 analytically  !
 ! A29   A(18,16,19)           106.7163         calculate D2E/DX2 analytically  !
 ! D1    D(2,1,4,3)            179.5809         calculate D2E/DX2 analytically  !
 ! D2    D(2,1,4,5)             -0.3002         calculate D2E/DX2 analytically  !
 ! D3    D(7,3,4,1)            176.9737         calculate D2E/DX2 analytically  !
 ! D4    D(7,3,4,5)             -3.153          calculate D2E/DX2 analytically  !
 ! D5    D(14,3,4,1)            -3.1937         calculate D2E/DX2 analytically  !
 ! D6    D(14,3,4,5)           176.6795         calculate D2E/DX2 analytically  !
 ! D7    D(4,3,7,8)             -0.3529         calculate D2E/DX2 analytically  !
 ! D8    D(4,3,7,9)            179.7252         calculate D2E/DX2 analytically  !
 ! D9    D(14,3,7,8)           179.813          calculate D2E/DX2 analytically  !
 ! D10   D(14,3,7,9)            -0.1089         calculate D2E/DX2 analytically  !
 ! D11   D(4,3,14,12)         -179.6659         calculate D2E/DX2 analytically  !
 ! D12   D(4,3,14,15)            0.155          calculate D2E/DX2 analytically  !
 ! D13   D(7,3,14,12)            0.1743         calculate D2E/DX2 analytically  !
 ! D14   D(7,3,14,15)          179.9951         calculate D2E/DX2 analytically  !
 ! D15   D(1,4,5,6)            178.6408         calculate D2E/DX2 analytically  !
 ! D16   D(3,4,5,6)             -1.2321         calculate D2E/DX2 analytically  !
 ! D17   D(3,7,9,10)          -179.6482         calculate D2E/DX2 analytically  !
 ! D18   D(3,7,9,11)            -0.0978         calculate D2E/DX2 analytically  !
 ! D19   D(8,7,9,10)             0.4278         calculate D2E/DX2 analytically  !
 ! D20   D(8,7,9,11)           179.9782         calculate D2E/DX2 analytically  !
 ! D21   D(7,9,11,12)            0.2458         calculate D2E/DX2 analytically  !
 ! D22   D(7,9,11,16)          177.5639         calculate D2E/DX2 analytically  !
 ! D23   D(10,9,11,12)         179.7999         calculate D2E/DX2 analytically  !
 ! D24   D(10,9,11,16)          -2.8819         calculate D2E/DX2 analytically  !
 ! D25   D(9,11,12,13)        -179.7373         calculate D2E/DX2 analytically  !
 ! D26   D(9,11,12,14)          -0.1822         calculate D2E/DX2 analytically  !
 ! D27   D(16,11,12,13)          2.9461         calculate D2E/DX2 analytically  !
 ! D28   D(16,11,12,14)       -177.4988         calculate D2E/DX2 analytically  !
 ! D29   D(9,11,16,17)         150.9939         calculate D2E/DX2 analytically  !
 ! D30   D(9,11,16,18)          30.1718         calculate D2E/DX2 analytically  !
 ! D31   D(9,11,16,19)         -89.3986         calculate D2E/DX2 analytically  !
 ! D32   D(12,11,16,17)        -31.6562         calculate D2E/DX2 analytically  !
 ! D33   D(12,11,16,18)       -152.4783         calculate D2E/DX2 analytically  !
 ! D34   D(12,11,16,19)         87.9514         calculate D2E/DX2 analytically  !
 ! D35   D(11,12,14,3)          -0.0318         calculate D2E/DX2 analytically  !
 ! D36   D(11,12,14,15)       -179.8509         calculate D2E/DX2 analytically  !
 ! D37   D(13,12,14,3)         179.5194         calculate D2E/DX2 analytically  !
 ! D38   D(13,12,14,15)         -0.2997         calculate D2E/DX2 analytically  !
 --------------------------------------------------------------------------------
 Trust Radius=3.00D-01 FncErr=5.00D-06 GrdErr=5.00D-06 EigMax=2.50D+02 EigMin=1.00D-04
 Number of steps in this run=     96 maximum allowed number of steps=    114.
 GradGradGradGradGradGradGradGradGradGradGradGradGradGradGradGradGradGrad

                          Input orientation:                          
 ---------------------------------------------------------------------
 Center     Atomic      Atomic             Coordinates (Angstroms)
 Number     Number       Type             X           Y           Z
 ---------------------------------------------------------------------
      1          8           0        8.685784    7.448516    5.521848
      2          1           0        9.504352    7.141898    5.922696
      3          6           0        6.239032    6.996009    5.173822
      4          5           0        7.643134    6.608921    5.764196
      5          8           0        7.880428    5.486223    6.505571
      6          1           0        7.112534    4.936163    6.667298
      7          6           0        5.112462    6.178789    5.307078
      8          1           0        5.174921    5.228195    5.828931
      9          6           0        3.882561    6.550384    4.779083
     10          1           0        3.014365    5.912922    4.892513
     11          6           0        3.772720    7.761950    4.106374
     12          6           0        4.876439    8.594827    3.955067
     13          1           0        4.773740    9.537819    3.431947
     14          6           0        6.098884    8.207996    4.487615
     15          1           0        6.964306    8.850940    4.377231
     16          6           0        2.460956    8.147669    3.484233
     17          9           0        2.296377    9.476646    3.439288
     18          9           0        1.416992    7.637172    4.152540
     19          9           0        2.365398    7.702654    2.219518
 ---------------------------------------------------------------------
                    Distance matrix (angstroms):
                    1          2          3          4          5
     1  O    0.000000
     2  H    0.961638   0.000000
     3  C    2.512465   3.353269   0.000000
     4  B    1.360431   1.942503   1.571586   0.000000
     5  O    2.338141   2.391262   2.597535   1.366161   0.000000
     6  H    3.177906   3.337738   2.690064   1.973638   0.958323
     7  C    3.798284   4.538200   1.398129   2.607349   3.094781
     8  H    4.165367   4.734451   2.164871   2.828899   2.800748
     9  C    4.942600   5.767345   2.430505   3.887902   4.482872
    10  H    5.909239   6.685177   3.413311   4.761276   5.144181
    11  C    5.122500   6.044427   2.794424   4.365542   5.273362
    12  C    4.275505   5.234515   2.428630   3.856342   5.019207
    13  H    4.902750   5.858580   3.412039   4.717123   5.959371
    14  C    2.887646   3.846197   1.399798   2.563476   3.828067
    15  H    2.498085   3.429449   2.145075   2.722339   4.085392
    16  C    6.587046   7.521111   4.295916   5.866937   6.751478
    17  F    7.019607   7.973285   4.970583   6.497450   7.517127
    18  F    7.399049   8.293620   4.970531   6.513032   7.206895
    19  F    7.135632   8.061801   4.922631   6.451007   7.327917
                    6          7          8          9         10
     6  H    0.000000
     7  C    2.719302   0.000000
     8  H    2.131311   1.086214   0.000000
     9  C    4.074775   1.389071   2.126161   0.000000
    10  H    4.571532   2.155124   2.452291   1.083046   0.000000
    11  C    5.069296   2.396455   3.369464   1.390142   2.147562
    12  C    5.073671   2.778647   3.864540   2.417963   3.396872
    13  H    6.092019   3.861856   4.947660   3.396137   4.285853
    14  C    4.059975   2.400464   3.395887   2.782933   3.865949
    15  H    4.537825   3.381469   4.293438   3.866678   4.949697
    16  C    6.487130   3.772232   4.624559   2.499783   2.698816
    17  F    7.364197   4.721741   5.660896   3.588041   3.915035
    18  F    6.786653   4.137190   4.768174   2.766350   2.464183
    19  F    7.069054   4.404719   5.200407   3.190750   3.281646
                   11         12         13         14         15
    11  C    0.000000
    12  C    1.390961   0.000000
    13  H    2.147232   1.083252   0.000000
    14  C    2.399029   1.388387   2.153804   0.000000
    15  H    3.383117   2.145461   2.482729   1.083751   0.000000
    16  C    1.502186   2.501238   2.698930   3.774246   4.644588
    17  F    2.358977   2.774951   2.478129   4.143371   4.802167
    18  F    2.359482   3.594979   3.924216   4.728449   5.682993
    19  F    2.354633   3.180162   3.261583   4.397562   5.208094
                   16         17         18         19
    16  C    0.000000
    17  F    1.339883   0.000000
    18  F    1.340560   2.160026   0.000000
    19  F    1.344126   2.153985   2.154144   0.000000
 Symmetry turned off by external request.
 Stoichiometry    C7H6BF3O2
 Framework group  C1[X(C7H6BF3O2)]
 Deg. of freedom    51
 Full point group                 C1      NOp   1
 Rotational constants (GHZ):           2.2435219           0.3579877           0.3263164
 Standard basis: 6-311+G(d,p) (5D, 7F)
   322 basis functions,   516 primitive gaussians,   335 cartesian basis functions
    48 alpha electrons       48 beta electrons
       nuclear repulsion energy       772.1779300667 Hartrees.
 NAtoms=   19 NActive=   19 NUniq=   19 SFac= 1.00D+00 NAtFMM=   60 NAOKFM=F Big=F
 Integral buffers will be    131072 words long.
 Raffenetti 2 integral format.
 Two-electron integral symmetry is turned off.
 Force inversion solution in PCM.
 ------------------------------------------------------------------------------
 Polarizable Continuum Model (PCM)
 =================================
 Model                : PCM.
 Atomic radii         : SMD-Coulomb.
 Polarization charges : Total charges.
 Charge compensation  : None.
 Solution method      : Matrix inversion.
 Cavity type          : VdW (van der Waals Surface) (Alpha=1.000).
 Cavity algorithm     : GePol (No added spheres)
                        Default sphere list used, NSphG=   19.
                        Lebedev-Laikov grids with approx.  5.0 points / Ang**2.
                        Smoothing algorithm: York/Karplus (Gamma=1.0000).
                        Polarization charges: spherical gaussians, with
                                              point-specific exponents (IZeta= 3).
                        Self-potential: point-specific (ISelfS= 7).
                        Self-field    : sphere-specific E.n sum rule (ISelfD= 2).
 1st derivatives      : Analytical E(r).r(x)/FMM algorithm (CHGder, D1EAlg=3).
                        Cavity 1st derivative terms included.
 2nd derivatives      : Analytical E(r).r(xy)/FMM algorithm (CHGder, D2EAlg=3).
                        Cavity 2nd derivative terms included.
 Solvent              : TetraHydroFuran, Eps=   7.425700 Eps(inf)=   1.974025
 ------------------------------------------------------------------------------
 Spheres list:
 ISph  on   Nord     Re0    Alpha      Xe            Ye            Ze
    1   O      1    2.2940  1.000      8.685784      7.448516      5.521848
    2   H      2    1.2000  1.000      9.504352      7.141898      5.922696
    3   C      3    1.8500  1.000      6.239032      6.996009      5.173822
    4   B      4    1.8000  1.000      7.643134      6.608921      5.764196
    5   O      5    2.2940  1.000      7.880428      5.486223      6.505571
    6   H      6    1.2000  1.000      7.112534      4.936163      6.667298
    7   C      7    1.8500  1.000      5.112462      6.178789      5.307078
    8   H      8    1.2000  1.000      5.174921      5.228195      5.828931
    9   C      9    1.8500  1.000      3.882561      6.550384      4.779083
   10   H     10    1.2000  1.000      3.014365      5.912922      4.892513
   11   C     11    1.8500  1.000      3.772720      7.761950      4.106374
   12   C     12    1.8500  1.000      4.876439      8.594827      3.955067
   13   H     13    1.2000  1.000      4.773740      9.537819      3.431947
   14   C     14    1.8500  1.000      6.098884      8.207996      4.487615
   15   H     15    1.2000  1.000      6.964306      8.850940      4.377231
   16   C     16    1.8500  1.000      2.460956      8.147669      3.484233
   17   F     17    1.7300  1.000      2.296377      9.476646      3.439288
   18   F     18    1.7300  1.000      1.416992      7.637172      4.152540
   19   F     19    1.7300  1.000      2.365398      7.702654      2.219518
 ------------------------------------------------------------------------------
 ------------------------------------------------------------------------------
 Atomic radii for non-electrostatic terms: SMD-CDS.
 ------------------------------------------------------------------------------
 Nuclear repulsion after PCM non-electrostatic terms =      772.1757620310 Hartrees.
 One-electron integrals computed using PRISM.
 NBasis=   322 RedAO= T EigKep=  1.52D-06  NBF=   322
 NBsUse=   322 1.00D-06 EigRej= -1.00D+00 NBFU=   322
 ExpMin= 3.15D-02 ExpMax= 1.14D+04 ExpMxC= 1.72D+03 IAcc=3 IRadAn=         5 AccDes= 0.00D+00
 Harris functional with IExCor= 1009 and IRadAn=       5 diagonalized for initial guess.
 HarFok:  IExCor= 1009 AccDes= 0.00D+00 IRadAn=         5 IDoV= 1 UseB2=F ITyADJ=14
 ICtDFT=  3500011 ScaDFX=  1.000000  1.000000  1.000000  1.000000
 FoFCou: FMM=F IPFlag=           0 FMFlag=      100000 FMFlg1=           0
         NFxFlg=           0 DoJE=T BraDBF=F KetDBF=T FulRan=T
         wScrn=  0.000000 ICntrl=       500 IOpCl=  0 I1Cent=   200000004 NGrid=           0
         NMat0=    1 NMatS0=      1 NMatT0=    0 NMatD0=    1 NMtDS0=    0 NMtDT0=    0
 Symmetry not used in FoFCou.
 Requested convergence on RMS density matrix=1.00D-08 within 128 cycles.
 Requested convergence on MAX density matrix=1.00D-06.
 Requested convergence on             energy=1.00D-06.
 Level shift goal  0.100 maximum shift  0.100.
 No special actions if energy rises.
 Dynamic level shift is on during FON iterations.
 Inv3:  Mode=1 IEnd=     8477283.
 Iteration    1 A*A^-1 deviation from unit magnitude is 6.99D-15 for   1673.
 Iteration    1 A*A^-1 deviation from orthogonality  is 2.51D-15 for   1668   1585.
 Iteration    1 A^-1*A deviation from unit magnitude is 6.66D-15 for   1673.
 Iteration    1 A^-1*A deviation from orthogonality  is 2.11D-15 for   1668   1585.
 Error on total polarization charges =  0.01944
 SCF Done:  E(RM062X) =  -745.289993765     A.U. after   14 cycles
            NFock= 14  Conv=0.31D-08     -V/T= 2.0030
 SMD-CDS (non-electrostatic) energy       (kcal/mol) =      -1.36
 (included in total energy above)
 DoSCS=F DFT=T ScalE2(SS,OS)=  1.000000  1.000000
 Range of M.O.s used for correlation:     1   322
 NBasis=   322 NAE=    48 NBE=    48 NFC=     0 NFV=     0
 NROrb=    322 NOA=    48 NOB=    48 NVA=   274 NVB=   274

 **** Warning!!: The largest alpha MO coefficient is  0.18459583D+03

 Symmetrizing basis deriv contribution to polar:
 IMax=3 JMax=2 DiffMx= 0.00D+00
 G2DrvN: will do    20 centers at a time, making    1 passes.
 Calling FoFCou, ICntrl=  3107 FMM=F I1Cent=   0 AccDes= 0.00D+00.
 NEqPCM:  Using equilibrium solvation (IEInf=0, Eps=   7.4257, EpsInf=   1.9740)
 G2PCM: DoFxE=T DoFxN=T DoGrad=T DoDP/DQ/DG/TGxP=FFFF NFrqRd=   0 IEInf=0 SqF1=F DoCFld=F IF1Alg=4.
 End of G2Drv F.D. properties file   721 does not exist.
 End of G2Drv F.D. properties file   722 does not exist.
 End of G2Drv F.D. properties file   788 does not exist.
          IDoAtm=1111111111111111111
 NEqPCM:  Using equilibrium solvation (IEInf=0, Eps=   7.4257, EpsInf=   1.9740)
          Differentiating once with respect to nuclear coordinates.
 Keep R1 ints in memory in canonical form, NReq=1389094406.
          There are    60 degrees of freedom in the 1st order CPHF.  IDoFFX=6 NUNeed=     0.
     54 vectors produced by pass  0 Test12= 2.19D-14 1.67D-09 XBig12= 3.38D-01 2.38D-01.
 AX will form    54 AO Fock derivatives at one time.
     54 vectors produced by pass  1 Test12= 2.19D-14 1.67D-09 XBig12= 1.42D-02 3.61D-02.
     54 vectors produced by pass  2 Test12= 2.19D-14 1.67D-09 XBig12= 5.13D-04 3.33D-03.
     54 vectors produced by pass  3 Test12= 2.19D-14 1.67D-09 XBig12= 3.69D-06 2.58D-04.
     54 vectors produced by pass  4 Test12= 2.19D-14 1.67D-09 XBig12= 3.08D-08 1.63D-05.
     54 vectors produced by pass  5 Test12= 2.19D-14 1.67D-09 XBig12= 1.93D-10 1.40D-06.
     54 vectors produced by pass  6 Test12= 2.19D-14 1.67D-09 XBig12= 7.31D-13 7.77D-08.
     15 vectors produced by pass  7 Test12= 2.19D-14 1.67D-09 XBig12= 2.65D-15 6.32D-09.
 InvSVY:  IOpt=1 It=  1 EMax= 7.77D-16
 Solved reduced A of dimension   393 with    60 vectors.
 End of Minotr F.D. properties file   721 does not exist.
 End of Minotr F.D. properties file   722 does not exist.
 End of Minotr F.D. properties file   788 does not exist.

 **********************************************************************

            Population analysis using the SCF Density.

 **********************************************************************

 Alpha  occ. eigenvalues --  -25.28400 -25.28398 -25.28099 -19.63997 -19.63487
 Alpha  occ. eigenvalues --  -10.80700 -10.57783 -10.56243 -10.56116 -10.56016
 Alpha  occ. eigenvalues --  -10.55551 -10.54295  -7.08939  -1.47721  -1.38424
 Alpha  occ. eigenvalues --   -1.38067  -1.17167  -1.13514  -0.98647  -0.89459
 Alpha  occ. eigenvalues --   -0.86125  -0.81358  -0.73190  -0.72112  -0.70092
 Alpha  occ. eigenvalues --   -0.68855  -0.66427  -0.65353  -0.63293  -0.58557
 Alpha  occ. eigenvalues --   -0.58302  -0.57258  -0.54694  -0.54069  -0.53354
 Alpha  occ. eigenvalues --   -0.52490  -0.52054  -0.50394  -0.49842  -0.48535
 Alpha  occ. eigenvalues --   -0.46034  -0.45567  -0.45185  -0.41442  -0.40883
 Alpha  occ. eigenvalues --   -0.39389  -0.32985  -0.32444
 Alpha virt. eigenvalues --   -0.02252  -0.00056   0.00505   0.01918   0.02082
 Alpha virt. eigenvalues --    0.02985   0.03742   0.04227   0.04946   0.05435
 Alpha virt. eigenvalues --    0.07005   0.07205   0.09183   0.09427   0.09735
 Alpha virt. eigenvalues --    0.10313   0.11199   0.11303   0.13268   0.13468
 Alpha virt. eigenvalues --    0.13954   0.14595   0.14860   0.15486   0.16223
 Alpha virt. eigenvalues --    0.16733   0.17868   0.18248   0.18857   0.19077
 Alpha virt. eigenvalues --    0.19574   0.20107   0.20581   0.21508   0.22460
 Alpha virt. eigenvalues --    0.22834   0.23600   0.23836   0.24237   0.24429
 Alpha virt. eigenvalues --    0.24609   0.25099   0.26645   0.26863   0.27289
 Alpha virt. eigenvalues --    0.27851   0.28135   0.29068   0.29424   0.30126
 Alpha virt. eigenvalues --    0.30469   0.31353   0.31788   0.33163   0.34612
 Alpha virt. eigenvalues --    0.35125   0.36023   0.37150   0.37407   0.38592
 Alpha virt. eigenvalues --    0.39095   0.39524   0.41215   0.42274   0.42526
 Alpha virt. eigenvalues --    0.45313   0.45853   0.46070   0.47049   0.48818
 Alpha virt. eigenvalues --    0.49031   0.49446   0.49779   0.51588   0.52682
 Alpha virt. eigenvalues --    0.54433   0.55156   0.55778   0.57671   0.57956
 Alpha virt. eigenvalues --    0.60008   0.60918   0.63346   0.63838   0.65387
 Alpha virt. eigenvalues --    0.66552   0.66987   0.68068   0.68621   0.70062
 Alpha virt. eigenvalues --    0.70572   0.70930   0.72487   0.73461   0.74962
 Alpha virt. eigenvalues --    0.75951   0.79199   0.80033   0.81275   0.84178
 Alpha virt. eigenvalues --    0.86317   0.89039   0.90541   0.91197   0.92363
 Alpha virt. eigenvalues --    0.93186   0.93931   0.95745   0.97290   1.01407
 Alpha virt. eigenvalues --    1.03937   1.05512   1.05565   1.08126   1.09276
 Alpha virt. eigenvalues --    1.09684   1.10880   1.11953   1.12789   1.13066
 Alpha virt. eigenvalues --    1.13811   1.16859   1.20285   1.21116   1.26759
 Alpha virt. eigenvalues --    1.31122   1.33743   1.35167   1.37278   1.38706
 Alpha virt. eigenvalues --    1.42614   1.45003   1.45551   1.45855   1.46179
 Alpha virt. eigenvalues --    1.46822   1.50078   1.50587   1.51827   1.52854
 Alpha virt. eigenvalues --    1.53429   1.54614   1.55255   1.56421   1.57084
 Alpha virt. eigenvalues --    1.60286   1.61087   1.61798   1.61889   1.64876
 Alpha virt. eigenvalues --    1.69288   1.69388   1.70467   1.73572   1.75979
 Alpha virt. eigenvalues --    1.77388   1.79912   1.80800   1.83965   1.85021
 Alpha virt. eigenvalues --    1.86063   1.87924   1.89162   1.93317   1.96506
 Alpha virt. eigenvalues --    1.97760   1.98771   2.01044   2.01867   2.03298
 Alpha virt. eigenvalues --    2.06208   2.07618   2.10773   2.12523   2.14627
 Alpha virt. eigenvalues --    2.16004   2.17976   2.18361   2.21728   2.22804
 Alpha virt. eigenvalues --    2.31850   2.37067   2.42611   2.44129   2.45362
 Alpha virt. eigenvalues --    2.53643   2.57786   2.59423   2.62139   2.65233
 Alpha virt. eigenvalues --    2.65678   2.69731   2.72684   2.73145   2.77884
 Alpha virt. eigenvalues --    2.78956   2.80218   2.80828   2.81244   2.84685
 Alpha virt. eigenvalues --    2.86708   2.94584   2.95644   2.98257   3.01329
 Alpha virt. eigenvalues --    3.06766   3.06882   3.09544   3.11042   3.14557
 Alpha virt. eigenvalues --    3.24010   3.26622   3.27751   3.31425   3.39237
 Alpha virt. eigenvalues --    3.42245   3.45838   3.52368   3.54954   3.57642
 Alpha virt. eigenvalues --    3.61136   3.64391   3.66353   3.80512   3.83320
 Alpha virt. eigenvalues --    3.84007   3.84747   3.85796   3.87138   3.87468
 Alpha virt. eigenvalues --    3.92644   3.94586   4.01630   4.01864   4.04168
 Alpha virt. eigenvalues --    4.05540   4.11087   4.19029   4.20526   4.24835
 Alpha virt. eigenvalues --    4.27982   4.30495   4.76653   4.85879   4.98588
 Alpha virt. eigenvalues --    5.01382   5.08142   5.09003   5.40069   5.49816
 Alpha virt. eigenvalues --    5.69113   5.77033   6.45604   6.47781   6.50715
 Alpha virt. eigenvalues --    6.52799   6.53303   6.55267   6.60742   6.88221
 Alpha virt. eigenvalues --    6.89473  14.79340  23.58509  23.71025  24.02430
 Alpha virt. eigenvalues --   24.02988  24.13396  24.17819  24.25612  50.00785
 Alpha virt. eigenvalues --   50.05534  66.89206  66.90404  66.95246
          Condensed to atoms (all electrons):
               1          2          3          4          5          6
     1  O    7.760856   0.287498   0.066263   0.440113  -0.129402   0.018081
     2  H    0.287498   0.415708   0.050365  -0.006283  -0.031436   0.002785
     3  C    0.066263   0.050365  12.202249   0.271101  -0.200675   0.027491
     4  B    0.440113  -0.006283   0.271101   3.327963   0.375363   0.014221
     5  O   -0.129402  -0.031436  -0.200675   0.375363   7.963347   0.270406
     6  H    0.018081   0.002785   0.027491   0.014221   0.270406   0.390204
     7  C    0.007074   0.001979  -0.781422   0.141702   0.052485  -0.069697
     8  H    0.002208  -0.000011   0.011290   0.009343  -0.006778   0.008791
     9  C    0.076238   0.006657  -0.232344   0.038909  -0.008038   0.053821
    10  H   -0.000060  -0.000001  -0.024995  -0.000163   0.000302  -0.000052
    11  C   -0.013251  -0.002027  -4.644290   0.000064   0.022790  -0.008205
    12  C   -0.031217  -0.024201  -1.237329   0.000675   0.091670  -0.017357
    13  H    0.000486   0.000004  -0.009396   0.000241  -0.000049   0.000002
    14  C   -0.109131  -0.028117   1.204446  -0.084402  -0.028848   0.025690
    15  H    0.002282  -0.000316   0.040806  -0.008951   0.002273  -0.000076
    16  C   -0.002085  -0.000109  -0.187705  -0.023856   0.001358  -0.000234
    17  F   -0.000008   0.000000  -0.000260   0.000278   0.000003   0.000000
    18  F    0.000001   0.000000   0.003412   0.000269  -0.000006   0.000002
    19  F   -0.000001   0.000000  -0.018908   0.000066  -0.000002   0.000000
               7          8          9         10         11         12
     1  O    0.007074   0.002208   0.076238  -0.000060  -0.013251  -0.031217
     2  H    0.001979  -0.000011   0.006657  -0.000001  -0.002027  -0.024201
     3  C   -0.781422   0.011290  -0.232344  -0.024995  -4.644290  -1.237329
     4  B    0.141702   0.009343   0.038909  -0.000163   0.000064   0.000675
     5  O    0.052485  -0.006778  -0.008038   0.000302   0.022790   0.091670
     6  H   -0.069697   0.008791   0.053821  -0.000052  -0.008205  -0.017357
     7  C   19.037319   0.273173  -6.709931   0.023609  -1.066667  -0.631688
     8  H    0.273173   0.478410   0.080723  -0.005528  -0.016519  -0.013735
     9  C   -6.709931   0.080723  33.785735   0.267790  -3.819161 -16.632162
    10  H    0.023609  -0.005528   0.267790   0.443626   0.029914   0.028551
    11  C   -1.066667  -0.016519  -3.819161   0.029914  23.078186  -3.614034
    12  C   -0.631688  -0.013735 -16.632162   0.028551  -3.614034  34.389765
    13  H   -0.025041   0.000059   0.029058  -0.000153   0.010217   0.259829
    14  C   -3.461097  -0.010961  -1.341356  -0.022131  -1.294598  -7.391908
    15  H    0.000197  -0.000062  -0.010331   0.000048  -0.019502   0.053839
    16  C   -0.811384   0.010901   0.777969   0.048919  -2.479759   1.073918
    17  F    0.044280   0.000019  -0.003753   0.000665  -0.018736  -0.171260
    18  F    0.149362   0.000055  -0.157616   0.005464  -0.022050  -0.011859
    19  F   -0.009515   0.000023  -0.198888  -0.000207   0.417349  -0.208518
              13         14         15         16         17         18
     1  O    0.000486  -0.109131   0.002282  -0.002085  -0.000008   0.000001
     2  H    0.000004  -0.028117  -0.000316  -0.000109   0.000000   0.000000
     3  C   -0.009396   1.204446   0.040806  -0.187705  -0.000260   0.003412
     4  B    0.000241  -0.084402  -0.008951  -0.023856   0.000278   0.000269
     5  O   -0.000049  -0.028848   0.002273   0.001358   0.000003  -0.000006
     6  H    0.000002   0.025690  -0.000076  -0.000234   0.000000   0.000002
     7  C   -0.025041  -3.461097   0.000197  -0.811384   0.044280   0.149362
     8  H    0.000059  -0.010961  -0.000062   0.010901   0.000019   0.000055
     9  C    0.029058  -1.341356  -0.010331   0.777969  -0.003753  -0.157616
    10  H   -0.000153  -0.022131   0.000048   0.048919   0.000665   0.005464
    11  C    0.010217  -1.294598  -0.019502  -2.479759  -0.018736  -0.022050
    12  C    0.259829  -7.391908   0.053839   1.073918  -0.171260  -0.011859
    13  H    0.443716   0.039243  -0.005340   0.046579   0.005184   0.000662
    14  C    0.039243  19.619267   0.278786  -1.334207   0.138548   0.045032
    15  H   -0.005340   0.278786   0.451821   0.009889   0.000036   0.000013
    16  C    0.046579  -1.334207   0.009889   7.806451   0.166855   0.148167
    17  F    0.005184   0.138548   0.000036   0.166855   9.022310  -0.021161
    18  F    0.000662   0.045032   0.000013   0.148167  -0.021161   9.026030
    19  F   -0.000165  -0.000257   0.000017   0.191152  -0.045949  -0.045550
              19
     1  O   -0.000001
     2  H    0.000000
     3  C   -0.018908
     4  B    0.000066
     5  O   -0.000002
     6  H    0.000000
     7  C   -0.009515
     8  H    0.000023
     9  C   -0.198888
    10  H   -0.000207
    11  C    0.417349
    12  C   -0.208518
    13  H   -0.000165
    14  C   -0.000257
    15  H    0.000017
    16  C    0.191152
    17  F   -0.045949
    18  F   -0.045550
    19  F    8.991118
 Mulliken charges:
               1
     1  O   -0.375946
     2  H    0.327506
     3  C   -0.540097
     4  B    0.503347
     5  O   -0.374762
     6  H    0.284129
     7  C   -0.164736
     8  H    0.178597
     9  C   -0.003320
    10  H    0.204402
    11  C   -0.539718
    12  C    0.087022
    13  H    0.204865
    14  C   -0.243998
    15  H    0.204572
    16  C    0.557182
    17  F   -0.117052
    18  F   -0.120227
    19  F   -0.071765
 Sum of Mulliken charges =   0.00000
 Mulliken charges with hydrogens summed into heavy atoms:
               1
     1  O   -0.048439
     3  C   -0.540097
     4  B    0.503347
     5  O   -0.090634
     7  C    0.013861
     9  C    0.201082
    11  C   -0.539718
    12  C    0.291887
    14  C   -0.039426
    16  C    0.557182
    17  F   -0.117052
    18  F   -0.120227
    19  F   -0.071765
 APT charges:
               1
     1  O   -0.486522
     2  H    2.079523
     3  C   -1.401771
     4  B   -0.367905
     5  O    1.272634
     6  H   -1.195424
     7  C   -0.004803
     8  H   -0.160397
     9  C   -1.376893
    10  H   -0.767725
    11  C   -1.091806
    12  C    0.108548
    13  H    1.276151
    14  C   -0.082950
    15  H    1.896679
    16  C    0.741010
    17  F    0.543824
    18  F   -0.478630
    19  F   -0.503544
 Sum of APT charges =   0.00000
 APT charges with hydrogens summed into heavy atoms:
               1
     1  O    1.593002
     3  C   -1.401771
     4  B   -0.367905
     5  O    0.077210
     7  C   -0.165200
     9  C   -2.144618
    11  C   -1.091806
    12  C    1.384699
    14  C    1.813730
    16  C    0.741010
    17  F    0.543824
    18  F   -0.478630
    19  F   -0.503544
 Electronic spatial extent (au):  <R**2>=          36825.6562
 Charge=              0.0000 electrons
 Dipole moment (field-independent basis, Debye):
    X=              2.0638    Y=             -2.1731    Z=              2.0211  Tot=              3.6148
 Quadrupole moment (field-independent basis, Debye-Ang):
   XX=            -57.3395   YY=            -99.5848   ZZ=            -56.6726
   XY=              7.8047   XZ=             17.4816   YZ=              0.4958
 Traceless Quadrupole moment (field-independent basis, Debye-Ang):
   XX=             13.8595   YY=            -28.3859   ZZ=             14.5264
   XY=              7.8047   XZ=             17.4816   YZ=              0.4958
 Octapole moment (field-independent basis, Debye-Ang**2):
  XXX=           -936.5045  YYY=          -1871.2762  ZZZ=           -895.1877  XYY=           -328.0724
  XXY=           -452.8850  XXZ=           -213.8357  XZZ=           -244.0581  YZZ=           -511.4301
  YYZ=           -404.3902  XYZ=             71.8842
 Hexadecapole moment (field-independent basis, Debye-Ang**3):
 XXXX=         -11283.2032 YYYY=         -26733.6517 ZZZZ=          -9117.8603 XXXY=          -6785.2892
 XXXZ=          -4310.8859 YYYX=          -7541.8910 YYYZ=          -8161.6135 ZZZX=          -4670.9701
 ZZZY=          -6999.3515 XXYY=          -5711.7990 XXZZ=          -2994.7980 YYZZ=          -5989.7706
 XXYZ=          -1743.9034 YYXZ=          -1531.6588 ZZXY=          -2106.7222
 N-N= 7.721757620310D+02 E-N=-3.299833046413D+03  KE= 7.430238662599D+02
  Exact polarizability:       0.000       0.000       0.000       0.000       0.000       0.000
 Approx polarizability:     138.131       5.103     124.499      12.704     -22.948      95.677
 D2PCM: PCM CHGder 2nd derivatives, FixD1E=F FixD2E=F DoIter=F DoCFld=F I1PDM=0
 Calling FoFJK, ICntrl=    100127 FMM=F ISym2X=0 I1Cent= 0 IOpClX= 0 NMat=1 NMatS=1 NMatT=0.
 -------------------------------------------------------------------
 Center     Atomic                   Forces (Hartrees/Bohr)
 Number     Number              X              Y              Z
 -------------------------------------------------------------------
      1        8          -0.000871327    0.001762836   -0.001372831
      2        1           0.002506482   -0.000733102    0.001101869
      3        6          -0.000733299    0.000548166   -0.000583446
      4        5          -0.000645556   -0.001904736    0.001063478
      5        8           0.002997071    0.002441058   -0.000722516
      6        1          -0.003027759   -0.002104742    0.000501253
      7        6           0.000119834   -0.001714553    0.000882341
      8        1          -0.000334951    0.000089488   -0.000019447
      9        6          -0.000888853    0.000156628   -0.000218885
     10        1           0.000243062   -0.000856747    0.000228577
     11        6           0.000179402   -0.000094242    0.000205067
     12        6          -0.000408799    0.001296434   -0.000749293
     13        1           0.000671508    0.000354246   -0.000239935
     14        6           0.000330799   -0.000248554    0.000254579
     15        1          -0.000517091    0.000830275   -0.000515131
     16        6           0.005959001   -0.001508886    0.004059862
     17        9          -0.001857226    0.001188502   -0.000775156
     18        9          -0.001954719    0.000549863   -0.000662267
     19        9          -0.001767579   -0.000051934   -0.002438117
 -------------------------------------------------------------------
 Cartesian Forces:  Max     0.005959001 RMS     0.001527307
 FormGI is forming the generalized inverse of G from B-inverse, IUseBI=4.

 GradGradGradGradGradGradGradGradGradGradGradGradGradGradGradGradGradGrad
 Berny optimization.
 Internal  Forces:  Max     0.003713367 RMS     0.000959703
 Search for a local minimum.
 Step number   1 out of a maximum of   96
 All quantities printed in internal units (Hartrees-Bohrs-Radians)
 Mixed Optimization -- En-DIIS/RFO-DIIS
 Second derivative matrix not updated -- analytic derivatives used.
 ITU=  0
     Eigenvalues ---   -0.00068   0.00094   0.00996   0.01261   0.01486
     Eigenvalues ---    0.01515   0.01712   0.01974   0.02187   0.02417
     Eigenvalues ---    0.02722   0.02797   0.02865   0.03849   0.10516
     Eigenvalues ---    0.11233   0.11419   0.11795   0.12052   0.12252
     Eigenvalues ---    0.12830   0.13246   0.16023   0.17982   0.18479
     Eigenvalues ---    0.18806   0.19259   0.19729   0.20356   0.24348
     Eigenvalues ---    0.26028   0.26648   0.27945   0.29228   0.35882
     Eigenvalues ---    0.36572   0.36647   0.36759   0.37028   0.38144
     Eigenvalues ---    0.39083   0.40223   0.42562   0.44136   0.48204
     Eigenvalues ---    0.48321   0.49500   0.52313   0.54573   0.55615
     Eigenvalues ---    0.55705
 RFO step:  Lambda=-6.75502667D-04 EMin=-6.75499687D-04
 I=     1 Eig=   -6.75D-04 Dot1= -3.64D-07
 I=     1 Stepn= -6.00D-01 RXN=   6.00D-01 EDone=F
 Mixed    1 eigenvectors in step.  Raw Step.Grad=  3.64D-07.
 RFO eigenvector is Hessian eigenvector with negative curvature.
 Taking step of  6.00D-01 in eigenvector direction(s).  Step.Grad=  2.18D-04.
 Linear search not attempted -- first point.
 Iteration  1 RMS(Cart)=  0.09551041 RMS(Int)=  0.01362914
 Iteration  2 RMS(Cart)=  0.01969141 RMS(Int)=  0.00035657
 Iteration  3 RMS(Cart)=  0.00041533 RMS(Int)=  0.00000567
 Iteration  4 RMS(Cart)=  0.00000019 RMS(Int)=  0.00000567
 Variable       Old X    -DE/DX   Delta X   Delta X   Delta X     New X
                                 (Linear)    (Quad)   (Total)
    R1        1.81723   0.00282   0.00000   0.00002   0.00002   1.81725
    R2        2.57084   0.00195   0.00000  -0.00002  -0.00002   2.57082
    R3        2.96987   0.00121   0.00000  -0.00058  -0.00058   2.96929
    R4        2.64208   0.00102   0.00000  -0.00224  -0.00224   2.63984
    R5        2.64523   0.00120   0.00000   0.00209   0.00209   2.64733
    R6        2.58167  -0.00041   0.00000  -0.00018  -0.00018   2.58149
    R7        1.81097   0.00371   0.00000   0.00009   0.00009   1.81106
    R8        2.05265  -0.00011   0.00000   0.00025   0.00025   2.05289
    R9        2.62496   0.00041   0.00000   0.00322   0.00322   2.62818
   R10        2.04666   0.00033   0.00000  -0.00113  -0.00113   2.04553
   R11        2.62699   0.00117   0.00000  -0.00275  -0.00275   2.62424
   R12        2.62854   0.00069   0.00000   0.00299   0.00299   2.63153
   R13        2.83872  -0.00036   0.00000  -0.00021  -0.00021   2.83851
   R14        2.04705   0.00036   0.00000   0.00136   0.00136   2.04841
   R15        2.62367  -0.00005   0.00000  -0.00316  -0.00316   2.62051
   R16        2.04799   0.00013   0.00000  -0.00006  -0.00006   2.04793
   R17        2.53201   0.00143   0.00000   0.00480   0.00480   2.53681
   R18        2.53329   0.00099   0.00000  -0.00542  -0.00542   2.52787
   R19        2.54003   0.00244   0.00000   0.00030   0.00030   2.54033
    A1        1.96205   0.00039   0.00000   0.00031   0.00031   1.96236
    A2        2.14139  -0.00070   0.00000   0.00002   0.00002   2.14141
    A3        2.07929   0.00035   0.00000  -0.00061  -0.00061   2.07868
    A4        2.06251   0.00034   0.00000   0.00059   0.00059   2.06310
    A5        2.05534   0.00014   0.00000   0.00007   0.00007   2.05541
    A6        2.06090  -0.00003   0.00000   0.00070   0.00070   2.06160
    A7        2.16693  -0.00011   0.00000  -0.00077  -0.00077   2.16616
    A8        2.00876  -0.00020   0.00000  -0.00088  -0.00088   2.00788
    A9        2.10713   0.00059   0.00000  -0.00132  -0.00132   2.10581
   A10        2.11864  -0.00055   0.00000   0.00087   0.00087   2.11950
   A11        2.05742  -0.00005   0.00000   0.00044   0.00044   2.05786
   A12        2.10890  -0.00079   0.00000  -0.00001  -0.00001   2.10889
   A13        2.07950  -0.00010   0.00000  -0.00162  -0.00162   2.07788
   A14        2.09476   0.00089   0.00000   0.00160   0.00159   2.09635
   A15        2.10808   0.00067   0.00000   0.00034   0.00033   2.10841
   A16        2.08656   0.00005   0.00000   0.01807   0.01807   2.10463
   A17        2.08760  -0.00072   0.00000  -0.01841  -0.01841   2.06919
   A18        2.09272   0.00101   0.00000  -0.00142  -0.00142   2.09130
   A19        2.08300  -0.00062   0.00000   0.00131   0.00130   2.08430
   A20        2.10744  -0.00038   0.00000   0.00015   0.00015   2.10759
   A21        2.11464   0.00025   0.00000  -0.00149  -0.00150   2.11314
   A22        2.07561   0.00100   0.00000   0.00027   0.00027   2.07587
   A23        2.09294  -0.00125   0.00000   0.00122   0.00122   2.09416
   A24        1.95609   0.00211   0.00000  -0.00649  -0.00650   1.94959
   A25        1.95604   0.00223   0.00000   0.00600   0.00600   1.96204
   A26        1.94632   0.00207   0.00000  -0.00008  -0.00011   1.94621
   A27        1.87421  -0.00247   0.00000   0.00033   0.00034   1.87455
   A28        1.86303  -0.00225   0.00000  -0.00501  -0.00504   1.85799
   A29        1.86255  -0.00223   0.00000   0.00531   0.00529   1.86784
    D1        3.13428   0.00002   0.00000  -0.00559  -0.00559   3.12868
    D2       -0.00524  -0.00001   0.00000  -0.00423  -0.00423  -0.00947
    D3        3.08877  -0.00002   0.00000  -0.06381  -0.06381   3.02496
    D4       -0.05503   0.00001   0.00000  -0.06526  -0.06526  -0.12029
    D5       -0.05574  -0.00002   0.00000  -0.06359  -0.06359  -0.11933
    D6        3.08364   0.00001   0.00000  -0.06504  -0.06504   3.01860
    D7       -0.00616   0.00001   0.00000  -0.00144  -0.00144  -0.00760
    D8        3.13680  -0.00002   0.00000   0.00292   0.00292   3.13971
    D9        3.13833   0.00001   0.00000  -0.00166  -0.00166   3.13667
   D10       -0.00190  -0.00002   0.00000   0.00270   0.00270   0.00080
   D11       -3.13576   0.00002   0.00000   0.00317   0.00317  -3.13259
   D12        0.00271   0.00001   0.00000   0.00159   0.00159   0.00430
   D13        0.00304   0.00002   0.00000   0.00338   0.00338   0.00642
   D14        3.14151   0.00001   0.00000   0.00180   0.00181  -3.13987
   D15        3.11787   0.00008   0.00000  -0.01107  -0.01107   3.10680
   D16       -0.02150   0.00005   0.00000  -0.00961  -0.00961  -0.03111
   D17       -3.13545  -0.00009   0.00000  -0.00061  -0.00061  -3.13607
   D18       -0.00171  -0.00004   0.00000  -0.00474  -0.00474  -0.00645
   D19        0.00747  -0.00011   0.00000   0.00362   0.00363   0.01109
   D20        3.14121  -0.00006   0.00000  -0.00050  -0.00050   3.14071
   D21        0.00429   0.00009   0.00000   0.00075   0.00075   0.00504
   D22        3.09908   0.00006   0.00000  -0.00002  -0.00001   3.09906
   D23        3.13810   0.00013   0.00000  -0.00335  -0.00335   3.13475
   D24       -0.05030   0.00011   0.00000  -0.00412  -0.00412  -0.05442
   D25       -3.13701  -0.00011   0.00000  -0.00060  -0.00059  -3.13760
   D26       -0.00318  -0.00009   0.00000   0.00517   0.00517   0.00199
   D27        0.05142  -0.00011   0.00000  -0.00080  -0.00080   0.05062
   D28       -3.09794  -0.00008   0.00000   0.00496   0.00496  -3.09298
   D29        2.63534  -0.00003   0.00000  -0.23489  -0.23490   2.40044
   D30        0.52660   0.00007   0.00000  -0.23496  -0.23495   0.29165
   D31       -1.56030  -0.00003   0.00000  -0.24579  -0.24579  -1.80609
   D32       -0.55250  -0.00002   0.00000  -0.23515  -0.23516  -0.78767
   D33       -2.66125   0.00008   0.00000  -0.23522  -0.23521  -2.89646
   D34        1.53504  -0.00003   0.00000  -0.24605  -0.24605   1.28899
   D35       -0.00055   0.00003   0.00000  -0.00727  -0.00727  -0.00783
   D36       -3.13899   0.00004   0.00000  -0.00568  -0.00568   3.13851
   D37        3.13321   0.00006   0.00000  -0.00147  -0.00147   3.13174
   D38       -0.00523   0.00007   0.00000   0.00012   0.00013  -0.00510
         Item               Value     Threshold  Converged?
 Maximum Force            0.003713     0.000015     NO 
 RMS     Force            0.000960     0.000010     NO 
 Maximum Displacement     0.505132     0.000060     NO 
 RMS     Displacement     0.111230     0.000040     NO 
 Predicted change in Energy=-1.219539D-04
 GradGradGradGradGradGradGradGradGradGradGradGradGradGradGradGradGradGrad

                          Input orientation:                          
 ---------------------------------------------------------------------
 Center     Atomic      Atomic             Coordinates (Angstroms)
 Number     Number       Type             X           Y           Z
 ---------------------------------------------------------------------
      1          8           0        8.703429    7.395197    5.430052
      2          1           0        9.522167    7.097986    5.837603
      3          6           0        6.237676    6.989589    5.171443
      4          5           0        7.644546    6.606011    5.756684
      5          8           0        7.868033    5.534502    6.574032
      6          1           0        7.087277    5.026582    6.799671
      7          6           0        5.109742    6.180162    5.326522
      8          1           0        5.174069    5.237237    5.862152
      9          6           0        3.876012    6.546397    4.799234
     10          1           0        3.007196    5.914063    4.929648
     11          6           0        3.766514    7.747513    4.110913
     12          6           0        4.873014    8.575887    3.941707
     13          1           0        4.768699    9.511786    3.404859
     14          6           0        6.097898    8.192051    4.466403
     15          1           0        6.965653    8.828344    4.337633
     16          6           0        2.464250    8.151220    3.480550
     17          9           0        2.196338    9.450895    3.683457
     18          9           0        1.428644    7.450314    3.955594
     19          9           0        2.484228    7.969958    2.148694
 ---------------------------------------------------------------------
                    Distance matrix (angstroms):
                    1          2          3          4          5
     1  O    0.000000
     2  H    0.961647   0.000000
     3  C    2.512237   3.353118   0.000000
     4  B    1.360418   1.942692   1.571280   0.000000
     5  O    2.338539   2.392273   2.596652   1.366066   0.000000
     6  H    3.177757   3.338410   2.688186   1.973060   0.958372
     7  C    3.794946   4.535758   1.396946   2.606073   3.095372
     8  H    4.159313   4.729582   2.163117   2.826290   2.802246
     9  C    4.941897   5.767281   2.431546   3.888716   4.484426
    10  H    5.906880   6.683630   3.413389   4.761070   5.145464
    11  C    5.122245   6.044079   2.793889   4.364713   5.271322
    12  C    4.275662   5.233856   2.427117   3.854341   5.014908
    13  H    4.905452   5.860046   3.411772   4.716472   5.955528
    14  C    2.890050   3.847439   1.400905   2.563683   3.825970
    15  H    2.503429   3.432174   2.146208   2.722750   4.082299
    16  C    6.580235   7.515264   4.295026   5.865486   6.754089
    17  F    7.044056   7.990263   4.960297   6.486494   7.474067
    18  F    7.422908   8.316924   4.981701   6.526424   7.210568
    19  F    7.055219   7.993808   4.917978   6.442579   7.382440
                    6          7          8          9         10
     6  H    0.000000
     7  C    2.722418   0.000000
     8  H    2.140953   1.086344   0.000000
     9  C    4.077230   1.390773   2.128062   0.000000
    10  H    4.575114   2.156158   2.454179   1.082449   0.000000
    11  C    5.065605   2.395528   3.368906   1.388688   2.146724
    12  C    5.066408   2.777274   3.863331   2.418304   3.397441
    13  H    6.084210   3.861193   4.947158   3.396277   4.286196
    14  C    4.055022   2.400824   3.395953   2.784911   3.867333
    15  H    4.530984   3.381593   4.293015   3.868622   4.951049
    16  C    6.492481   3.780385   4.637504   2.511465   2.720211
    17  F    7.294287   4.678170   5.600759   3.535869   3.836621
    18  F    6.781104   4.128343   4.749830   2.741971   2.408459
    19  F    7.175173   4.493916   5.337863   3.314959   3.497700
                   11         12         13         14         15
    11  C    0.000000
    12  C    1.392543   0.000000
    13  H    2.148382   1.083971   0.000000
    14  C    2.399863   1.386715   2.152985   0.000000
    15  H    3.384389   2.144675   2.482693   1.083720   0.000000
    16  C    1.502075   2.489006   2.677191   3.765232   4.632031
    17  F    2.355776   2.827883   2.588120   4.173711   4.854058
    18  F    2.361797   3.623644   3.963451   4.755317   5.718688
    19  F    2.354579   3.047678   3.028859   4.298803   5.060775
                   16         17         18         19
    16  C    0.000000
    17  F    1.342424   0.000000
    18  F    1.337691   2.160032   0.000000
    19  F    1.344283   2.152104   2.156196   0.000000
 Symmetry turned off by external request.
 Stoichiometry    C7H6BF3O2
 Framework group  C1[X(C7H6BF3O2)]
 Deg. of freedom    51
 Full point group                 C1      NOp   1
 Rotational constants (GHZ):           2.2426724           0.3581189           0.3265551
 Standard basis: 6-311+G(d,p) (5D, 7F)
   322 basis functions,   516 primitive gaussians,   335 cartesian basis functions
    48 alpha electrons       48 beta electrons
       nuclear repulsion energy       772.2379588350 Hartrees.
 NAtoms=   19 NActive=   19 NUniq=   19 SFac= 1.00D+00 NAtFMM=   60 NAOKFM=F Big=F
 Integral buffers will be    131072 words long.
 Raffenetti 2 integral format.
 Two-electron integral symmetry is turned off.
 ------------------------------------------------------------------------------
 Polarizable Continuum Model (PCM)
 =================================
 Model                : PCM.
 Atomic radii         : SMD-Coulomb.
 Polarization charges : Total charges.
 Charge compensation  : None.
 Solution method      : Matrix inversion.
 Cavity type          : VdW (van der Waals Surface) (Alpha=1.000).
 Cavity algorithm     : GePol (No added spheres)
                        Default sphere list used, NSphG=   19.
                        Lebedev-Laikov grids with approx.  5.0 points / Ang**2.
                        Smoothing algorithm: York/Karplus (Gamma=1.0000).
                        Polarization charges: spherical gaussians, with
                                              point-specific exponents (IZeta= 3).
                        Self-potential: point-specific (ISelfS= 7).
                        Self-field    : sphere-specific E.n sum rule (ISelfD= 2).
 1st derivatives      : Analytical E(r).r(x)/FMM algorithm (CHGder, D1EAlg=3).
                        Cavity 1st derivative terms included.
 Solvent              : TetraHydroFuran, Eps=   7.425700 Eps(inf)=   1.974025
 ------------------------------------------------------------------------------
 Spheres list:
 ISph  on   Nord     Re0    Alpha      Xe            Ye            Ze
    1   O      1    2.2940  1.000      8.703429      7.395197      5.430052
    2   H      2    1.2000  1.000      9.522167      7.097986      5.837603
    3   C      3    1.8500  1.000      6.237676      6.989589      5.171443
    4   B      4    1.8000  1.000      7.644546      6.606011      5.756684
    5   O      5    2.2940  1.000      7.868033      5.534502      6.574032
    6   H      6    1.2000  1.000      7.087277      5.026582      6.799671
    7   C      7    1.8500  1.000      5.109742      6.180162      5.326522
    8   H      8    1.2000  1.000      5.174069      5.237237      5.862152
    9   C      9    1.8500  1.000      3.876012      6.546397      4.799234
   10   H     10    1.2000  1.000      3.007196      5.914063      4.929648
   11   C     11    1.8500  1.000      3.766514      7.747513      4.110913
   12   C     12    1.8500  1.000      4.873014      8.575887      3.941707
   13   H     13    1.2000  1.000      4.768699      9.511786      3.404859
   14   C     14    1.8500  1.000      6.097898      8.192051      4.466403
   15   H     15    1.2000  1.000      6.965653      8.828344      4.337633
   16   C     16    1.8500  1.000      2.464250      8.151220      3.480550
   17   F     17    1.7300  1.000      2.196338      9.450895      3.683457
   18   F     18    1.7300  1.000      1.428644      7.450314      3.955594
   19   F     19    1.7300  1.000      2.484228      7.969958      2.148694
 ------------------------------------------------------------------------------
 ------------------------------------------------------------------------------
 Atomic radii for non-electrostatic terms: SMD-CDS.
 ------------------------------------------------------------------------------
 Nuclear repulsion after PCM non-electrostatic terms =      772.2357823739 Hartrees.
 One-electron integrals computed using PRISM.
 NBasis=   322 RedAO= T EigKep=  1.53D-06  NBF=   322
 NBsUse=   322 1.00D-06 EigRej= -1.00D+00 NBFU=   322
 Initial guess from the checkpoint file:  "4-cf3-phboh2-opt-freq-thf.chk"
 B after Tr=     0.380405    0.252016   -0.772341
         Rot=    0.999670   -0.023032    0.006892   -0.009085 Ang=  -2.95 deg.
 ExpMin= 3.15D-02 ExpMax= 1.14D+04 ExpMxC= 1.72D+03 IAcc=3 IRadAn=         5 AccDes= 0.00D+00
 Harris functional with IExCor= 1009 and IRadAn=       5 diagonalized for initial guess.
 HarFok:  IExCor= 1009 AccDes= 0.00D+00 IRadAn=         5 IDoV= 1 UseB2=F ITyADJ=14
 ICtDFT=  3500011 ScaDFX=  1.000000  1.000000  1.000000  1.000000
 FoFCou: FMM=F IPFlag=           0 FMFlag=      100000 FMFlg1=           0
         NFxFlg=           0 DoJE=T BraDBF=F KetDBF=T FulRan=T
         wScrn=  0.000000 ICntrl=       500 IOpCl=  0 I1Cent=   200000004 NGrid=           0
         NMat0=    1 NMatS0=      1 NMatT0=    0 NMatD0=    1 NMtDS0=    0 NMtDT0=    0
 Symmetry not used in FoFCou.
 Requested convergence on RMS density matrix=1.00D-08 within 128 cycles.
 Requested convergence on MAX density matrix=1.00D-06.
 Requested convergence on             energy=1.00D-06.
 Level shift goal  0.100 maximum shift  0.100.
 No special actions if energy rises.
 Dynamic level shift is on during FON iterations.
 Inv3:  Mode=1 IEnd=     8356683.
 Iteration    1 A*A^-1 deviation from unit magnitude is 6.55D-15 for   1668.
 Iteration    1 A*A^-1 deviation from orthogonality  is 2.18D-15 for   1661   1570.
 Iteration    1 A^-1*A deviation from unit magnitude is 6.55D-15 for   1668.
 Iteration    1 A^-1*A deviation from orthogonality  is 2.00D-15 for   1669   1668.
 Error on total polarization charges =  0.01982
 SCF Done:  E(RM062X) =  -745.289998039     A.U. after   14 cycles
            NFock= 14  Conv=0.69D-08     -V/T= 2.0030
 SMD-CDS (non-electrostatic) energy       (kcal/mol) =      -1.37
 (included in total energy above)
 D1PCM: PCM CHGder 1st derivatives, ID1Alg=3 FixD1E=F DoIter=F DoCFld=F I1PDM=0.
 Calling FoFJK, ICntrl=      2127 FMM=F ISym2X=0 I1Cent= 0 IOpClX= 0 NMat=1 NMatS=1 NMatT=0.
 -------------------------------------------------------------------
 Center     Atomic                   Forces (Hartrees/Bohr)
 Number     Number              X              Y              Z
 -------------------------------------------------------------------
      1        8          -0.000884287    0.001701724   -0.001468902
      2        1           0.002501183   -0.000713720    0.001144759
      3        6          -0.000697725    0.000616713   -0.000588762
      4        5          -0.000639493   -0.001857380    0.001127051
      5        8           0.003090239    0.002166931   -0.001037011
      6        1          -0.003127758   -0.001902846    0.000778395
      7        6          -0.000018104   -0.001712310    0.000999762
      8        1          -0.000324956    0.000085039   -0.000055736
      9        6          -0.000793423    0.000476320    0.000133751
     10        1           0.000231783   -0.001025630    0.000045574
     11        6           0.000547792   -0.000180237   -0.000620213
     12        6          -0.000276693    0.001316299   -0.000923345
     13        1           0.000615379    0.000297214   -0.000359437
     14        6           0.000331090   -0.000188994    0.000519199
     15        1          -0.000509363    0.000819793   -0.000524183
     16        6           0.006268884   -0.001157750    0.004067829
     17        9          -0.002063864    0.000995017   -0.000518977
     18        9          -0.002588977    0.000209025   -0.000579402
     19        9          -0.001661707    0.000054792   -0.002140352
 -------------------------------------------------------------------
 Cartesian Forces:  Max     0.006268884 RMS     0.001557909

 GradGradGradGradGradGradGradGradGradGradGradGradGradGradGradGradGradGrad
 Berny optimization.
 Using GEDIIS/GDIIS optimizer.
 FormGI is forming the generalized inverse of G from B-inverse, IUseBI=4.
 Internal  Forces:  Max     0.003748651 RMS     0.000983062
 Search for a local minimum.
 Step number   2 out of a maximum of   96
 All quantities printed in internal units (Hartrees-Bohrs-Radians)
 Mixed Optimization -- En-DIIS/RFO-DIIS
 Swapping is turned off.
 Update second derivatives using D2CorX and points    1    2
 ITU=  0  0
     Eigenvalues ---    0.00009   0.00100   0.01007   0.01269   0.01488
     Eigenvalues ---    0.01708   0.01805   0.02018   0.02201   0.02441
     Eigenvalues ---    0.02722   0.02834   0.02952   0.03861   0.10516
     Eigenvalues ---    0.11235   0.11429   0.11796   0.12055   0.12273
     Eigenvalues ---    0.12838   0.13586   0.16030   0.18454   0.18552
     Eigenvalues ---    0.19000   0.19293   0.19782   0.21433   0.24576
     Eigenvalues ---    0.26036   0.26675   0.28103   0.29232   0.35890
     Eigenvalues ---    0.36576   0.36648   0.36764   0.37391   0.38700
     Eigenvalues ---    0.39086   0.40291   0.43481   0.44187   0.48260
     Eigenvalues ---    0.48324   0.49500   0.52320   0.54574   0.55627
     Eigenvalues ---    0.55709
 Eigenvalue     1 is   8.53D-05 Eigenvector:
                          D31       D34       D29       D30       D32
   1                    0.42017   0.40822   0.40500   0.40365   0.39305
                          D33       D4        D6        D3        D5
   1                    0.39171   0.06921   0.06915   0.06696   0.06689
 En-DIIS/RFO-DIIS/Sim-DIIS IScMMF=       -3 using points:     2    1
 RFO step:  Lambda=-2.79981351D-04.
 DidBck=T Rises=F RFO-DIIS coefs:    0.14861    0.85139
 Iteration  1 RMS(Cart)=  0.09294127 RMS(Int)=  0.00756871
 Iteration  2 RMS(Cart)=  0.00840657 RMS(Int)=  0.00004696
 Iteration  3 RMS(Cart)=  0.00006745 RMS(Int)=  0.00001126
 Iteration  4 RMS(Cart)=  0.00000001 RMS(Int)=  0.00001126
 Variable       Old X    -DE/DX   Delta X   Delta X   Delta X     New X
                                 (Linear)    (Quad)   (Total)
    R1        1.81725   0.00284  -0.00001   0.00512   0.00510   1.82235
    R2        2.57082   0.00190   0.00002   0.00428   0.00430   2.57512
    R3        2.96929   0.00119   0.00049   0.00481   0.00530   2.97459
    R4        2.63984   0.00093   0.00190   0.00214   0.00405   2.64389
    R5        2.64733   0.00131  -0.00178   0.00123  -0.00055   2.64678
    R6        2.58149  -0.00036   0.00015  -0.00180  -0.00165   2.57984
    R7        1.81106   0.00375  -0.00008   0.00682   0.00674   1.81780
    R8        2.05289  -0.00012  -0.00021  -0.00050  -0.00071   2.05218
    R9        2.62818   0.00014  -0.00274   0.00143  -0.00131   2.62687
   R10        2.04553   0.00042   0.00096   0.00084   0.00180   2.04733
   R11        2.62424   0.00106   0.00234   0.00147   0.00381   2.62805
   R12        2.63153   0.00084  -0.00255   0.00123  -0.00132   2.63021
   R13        2.83851  -0.00028   0.00018  -0.00508  -0.00490   2.83361
   R14        2.04841   0.00038  -0.00116   0.00069  -0.00047   2.04794
   R15        2.62051   0.00021   0.00269   0.00066   0.00335   2.62386
   R16        2.04793   0.00014   0.00005   0.00039   0.00044   2.04837
   R17        2.53681   0.00130  -0.00409   0.00429   0.00020   2.53702
   R18        2.52787   0.00168   0.00462   0.00280   0.00742   2.53529
   R19        2.54033   0.00209  -0.00025   0.00771   0.00746   2.54779
    A1        1.96236   0.00033  -0.00026   0.00124   0.00098   1.96334
    A2        2.14141  -0.00103  -0.00002  -0.00364  -0.00366   2.13775
    A3        2.07868   0.00068   0.00052   0.00223   0.00275   2.08143
    A4        2.06310   0.00035  -0.00050   0.00141   0.00090   2.06400
    A5        2.05541   0.00028  -0.00006  -0.00083  -0.00089   2.05453
    A6        2.06160   0.00000  -0.00060   0.00084   0.00025   2.06185
    A7        2.16616  -0.00028   0.00065  -0.00001   0.00064   2.16681
    A8        2.00788  -0.00027   0.00075  -0.00224  -0.00149   2.00639
    A9        2.10581   0.00060   0.00112   0.00382   0.00494   2.11075
   A10        2.11950  -0.00055  -0.00074  -0.00217  -0.00291   2.11659
   A11        2.05786  -0.00005  -0.00037  -0.00164  -0.00201   2.05584
   A12        2.10889  -0.00088   0.00001  -0.00572  -0.00572   2.10317
   A13        2.07788   0.00008   0.00138  -0.00041   0.00097   2.07885
   A14        2.09635   0.00080  -0.00136   0.00616   0.00480   2.10115
   A15        2.10841   0.00065  -0.00028   0.00312   0.00283   2.11124
   A16        2.10463  -0.00060  -0.01538  -0.00013  -0.01551   2.08912
   A17        2.06919  -0.00004   0.01567  -0.00292   0.01275   2.08195
   A18        2.09130   0.00101   0.00121   0.00705   0.00827   2.09957
   A19        2.08430  -0.00076  -0.00110  -0.00332  -0.00442   2.07987
   A20        2.10759  -0.00024  -0.00013  -0.00373  -0.00385   2.10373
   A21        2.11314   0.00023   0.00127   0.00137   0.00263   2.11578
   A22        2.07587   0.00099  -0.00023   0.00777   0.00755   2.08342
   A23        2.09416  -0.00123  -0.00104  -0.00914  -0.01018   2.08398
   A24        1.94959   0.00232   0.00554   0.00620   0.01170   1.96129
   A25        1.96204   0.00240  -0.00511   0.00721   0.00211   1.96414
   A26        1.94621   0.00191   0.00009   0.00672   0.00679   1.95300
   A27        1.87455  -0.00270  -0.00029  -0.00723  -0.00755   1.86700
   A28        1.85799  -0.00202   0.00429  -0.00761  -0.00337   1.85463
   A29        1.86784  -0.00246  -0.00450  -0.00700  -0.01149   1.85635
    D1        3.12868  -0.00003   0.00476   0.00079   0.00555   3.13423
    D2       -0.00947  -0.00003   0.00360   0.00046   0.00406  -0.00541
    D3        3.02496   0.00003   0.05433   0.00084   0.05517   3.08013
    D4       -0.12029   0.00003   0.05556   0.00119   0.05675  -0.06354
    D5       -0.11933   0.00005   0.05414   0.00071   0.05485  -0.06448
    D6        3.01860   0.00005   0.05537   0.00106   0.05643   3.07503
    D7       -0.00760  -0.00001   0.00122   0.00016   0.00140  -0.00620
    D8        3.13971  -0.00004  -0.00248  -0.00153  -0.00401   3.13570
    D9        3.13667  -0.00003   0.00141   0.00029   0.00171   3.13839
   D10        0.00080  -0.00006  -0.00230  -0.00140  -0.00370  -0.00290
   D11       -3.13259  -0.00003  -0.00270   0.00175  -0.00095  -3.13354
   D12        0.00430   0.00001  -0.00136   0.00095  -0.00040   0.00390
   D13        0.00642  -0.00002  -0.00288   0.00162  -0.00126   0.00516
   D14       -3.13987   0.00003  -0.00154   0.00082  -0.00072  -3.14059
   D15        3.10680   0.00002   0.00942   0.00594   0.01536   3.12216
   D16       -0.03111   0.00002   0.00818   0.00559   0.01377  -0.01734
   D17       -3.13607  -0.00011   0.00052  -0.00415  -0.00361  -3.13967
   D18       -0.00645   0.00002   0.00404  -0.00121   0.00282  -0.00362
   D19        0.01109  -0.00014  -0.00309  -0.00581  -0.00887   0.00222
   D20        3.14071  -0.00002   0.00043  -0.00287  -0.00244   3.13827
   D21        0.00504   0.00012  -0.00064   0.00371   0.00308   0.00812
   D22        3.09906   0.00028   0.00001   0.00536   0.00536   3.10442
   D23        3.13475   0.00023   0.00286   0.00654   0.00943  -3.13901
   D24       -0.05442   0.00039   0.00350   0.00819   0.01171  -0.04271
   D25       -3.13760  -0.00013   0.00050  -0.00554  -0.00503   3.14056
   D26        0.00199  -0.00019  -0.00440  -0.00352  -0.00791  -0.00593
   D27        0.05062  -0.00028   0.00068  -0.00723  -0.00655   0.04407
   D28       -3.09298  -0.00034  -0.00422  -0.00521  -0.00943  -3.10241
   D29        2.40044  -0.00022   0.19999  -0.00171   0.19827   2.59871
   D30        0.29165  -0.00009   0.20003  -0.00192   0.19810   0.48974
   D31       -1.80609   0.00006   0.20926  -0.00268   0.20662  -1.59947
   D32       -0.78767  -0.00004   0.20021   0.00006   0.20026  -0.58741
   D33       -2.89646   0.00009   0.20026  -0.00015   0.20009  -2.69637
   D34        1.28899   0.00024   0.20949  -0.00090   0.20861   1.49760
   D35       -0.00783   0.00015   0.00619   0.00081   0.00699  -0.00084
   D36        3.13851   0.00010   0.00484   0.00157   0.00640  -3.13827
   D37        3.13174   0.00009   0.00125   0.00287   0.00412   3.13586
   D38       -0.00510   0.00004  -0.00011   0.00362   0.00352  -0.00158
         Item               Value     Threshold  Converged?
 Maximum Force            0.003749     0.000015     NO 
 RMS     Force            0.000983     0.000010     NO 
 Maximum Displacement     0.420731     0.000060     NO 
 RMS     Displacement     0.094906     0.000040     NO 
 Predicted change in Energy=-1.486411D-04
 GradGradGradGradGradGradGradGradGradGradGradGradGradGradGradGradGradGrad

                          Input orientation:                          
 ---------------------------------------------------------------------
 Center     Atomic      Atomic             Coordinates (Angstroms)
 Number     Number       Type             X           Y           Z
 ---------------------------------------------------------------------
      1          8           0        8.692021    7.441908    5.512784
      2          1           0        9.512836    7.136792    5.916685
      3          6           0        6.239501    6.995566    5.172475
      4          5           0        7.644626    6.607999    5.766746
      5          8           0        7.877130    5.493381    6.519954
      6          1           0        7.103279    4.946342    6.684979
      7          6           0        5.113593    6.176535    5.310192
      8          1           0        5.174107    5.227984    5.835467
      9          6           0        3.882720    6.546975    4.780997
     10          1           0        3.018486    5.903922    4.896515
     11          6           0        3.773221    7.758140    4.106352
     12          6           0        4.876288    8.592105    3.948284
     13          1           0        4.778893    9.533183    3.419754
     14          6           0        6.098856    8.205384    4.480895
     15          1           0        6.959708    8.853394    4.362722
     16          6           0        2.463829    8.148800    3.488843
     17          9           0        2.279151    9.478545    3.480781
     18          9           0        1.413451    7.611421    4.127486
     19          9           0        2.373688    7.747317    2.204938
 ---------------------------------------------------------------------
                    Distance matrix (angstroms):
                    1          2          3          4          5
     1  O    0.000000
     2  H    0.964348   0.000000
     3  C    2.515927   3.359838   0.000000
     4  B    1.362694   1.947385   1.574085   0.000000
     5  O    2.339914   2.395886   2.598863   1.365194   0.000000
     6  H    3.182137   3.345790   2.689443   1.974162   0.961941
     7  C    3.800969   4.543486   1.399088   2.607822   3.093114
     8  H    4.169089   4.740750   2.167710   2.830659   2.800944
     9  C    4.946291   5.773723   2.430824   3.889392   4.482113
    10  H    5.910515   6.688594   3.412152   4.759643   5.139116
    11  C    5.125685   6.050335   2.792968   4.366636   5.272255
    12  C    4.281406   5.243101   2.430211   3.860981   5.022014
    13  H    4.905790   5.864091   3.412463   4.719905   5.960731
    14  C    2.893475   3.854690   1.400615   2.567968   3.830793
    15  H    2.513134   3.446734   2.150796   2.735360   4.096950
    16  C    6.586837   7.523767   4.291884   5.865456   6.748534
    17  F    7.028644   7.983960   4.971055   6.500307   7.513685
    18  F    7.411166   8.308221   4.976147   6.520857   7.210350
    19  F    7.138379   8.069525   4.931117   6.462764   7.347616
                    6          7          8          9         10
     6  H    0.000000
     7  C    2.713350   0.000000
     8  H    2.126664   1.085967   0.000000
     9  C    4.069297   1.390080   2.125870   0.000000
    10  H    4.560822   2.152886   2.446472   1.083403   0.000000
    11  C    5.064071   2.397353   3.369571   1.390704   2.152233
    12  C    5.073517   2.783179   3.868780   2.421393   3.402484
    13  H    6.091271   3.866894   4.952434   3.401992   4.295509
    14  C    4.060568   2.403062   3.399255   2.784177   3.867576
    15  H    4.547367   3.386948   4.301272   3.868124   4.951520
    16  C    6.480396   3.772054   4.624221   2.499752   2.707150
    17  F    7.353908   4.720602   5.656199   3.585541   3.915208
    18  F    6.783625   4.141105   4.768701   2.767203   2.466394
    19  F    7.091210   4.429113   5.231646   3.217775   3.325426
                   11         12         13         14         15
    11  C    0.000000
    12  C    1.391847   0.000000
    13  H    2.152573   1.083725   0.000000
    14  C    2.397684   1.388488   2.152062   0.000000
    15  H    3.379202   2.140250   2.471287   1.083950   0.000000
    16  C    1.499481   2.495509   2.698299   3.768394   4.633903
    17  F    2.362917   2.783784   2.501084   4.148652   4.803775
    18  F    2.364422   3.603484   3.939576   4.736107   5.688480
    19  F    2.360971   3.164795   3.232663   4.389383   5.187583
                   16         17         18         19
    16  C    0.000000
    17  F    1.342533   0.000000
    18  F    1.341617   2.157271   0.000000
    19  F    1.348230   2.152641   2.153303   0.000000
 Symmetry turned off by external request.
 Stoichiometry    C7H6BF3O2
 Framework group  C1[X(C7H6BF3O2)]
 Deg. of freedom    51
 Full point group                 C1      NOp   1
 Rotational constants (GHZ):           2.2415051           0.3574051           0.3257902
 Standard basis: 6-311+G(d,p) (5D, 7F)
   322 basis functions,   516 primitive gaussians,   335 cartesian basis functions
    48 alpha electrons       48 beta electrons
       nuclear repulsion energy       771.5792121890 Hartrees.
 NAtoms=   19 NActive=   19 NUniq=   19 SFac= 1.00D+00 NAtFMM=   60 NAOKFM=F Big=F
 Integral buffers will be    131072 words long.
 Raffenetti 2 integral format.
 Two-electron integral symmetry is turned off.
 ------------------------------------------------------------------------------
 Polarizable Continuum Model (PCM)
 =================================
 Model                : PCM.
 Atomic radii         : SMD-Coulomb.
 Polarization charges : Total charges.
 Charge compensation  : None.
 Solution method      : Matrix inversion.
 Cavity type          : VdW (van der Waals Surface) (Alpha=1.000).
 Cavity algorithm     : GePol (No added spheres)
                        Default sphere list used, NSphG=   19.
                        Lebedev-Laikov grids with approx.  5.0 points / Ang**2.
                        Smoothing algorithm: York/Karplus (Gamma=1.0000).
                        Polarization charges: spherical gaussians, with
                                              point-specific exponents (IZeta= 3).
                        Self-potential: point-specific (ISelfS= 7).
                        Self-field    : sphere-specific E.n sum rule (ISelfD= 2).
 1st derivatives      : Analytical E(r).r(x)/FMM algorithm (CHGder, D1EAlg=3).
                        Cavity 1st derivative terms included.
 Solvent              : TetraHydroFuran, Eps=   7.425700 Eps(inf)=   1.974025
 ------------------------------------------------------------------------------
 Spheres list:
 ISph  on   Nord     Re0    Alpha      Xe            Ye            Ze
    1   O      1    2.2940  1.000      8.692021      7.441908      5.512784
    2   H      2    1.2000  1.000      9.512836      7.136792      5.916685
    3   C      3    1.8500  1.000      6.239501      6.995566      5.172475
    4   B      4    1.8000  1.000      7.644626      6.607999      5.766746
    5   O      5    2.2940  1.000      7.877130      5.493381      6.519954
    6   H      6    1.2000  1.000      7.103279      4.946342      6.684979
    7   C      7    1.8500  1.000      5.113593      6.176535      5.310192
    8   H      8    1.2000  1.000      5.174107      5.227984      5.835467
    9   C      9    1.8500  1.000      3.882720      6.546975      4.780997
   10   H     10    1.2000  1.000      3.018486      5.903922      4.896515
   11   C     11    1.8500  1.000      3.773221      7.758140      4.106352
   12   C     12    1.8500  1.000      4.876288      8.592105      3.948284
   13   H     13    1.2000  1.000      4.778893      9.533183      3.419754
   14   C     14    1.8500  1.000      6.098856      8.205384      4.480895
   15   H     15    1.2000  1.000      6.959708      8.853394      4.362722
   16   C     16    1.8500  1.000      2.463829      8.148800      3.488843
[...]
 ! D19   D(8,7,9,10)             0.4169         -DE/DX =    0.0                 !
 ! D20   D(8,7,9,11)          -179.7341         -DE/DX =    0.0                 !
 ! D21   D(7,9,11,12)            0.673          -DE/DX =    0.0                 !
 ! D22   D(7,9,11,16)          178.6866         -DE/DX =    0.0                 !
 ! D23   D(10,9,11,12)        -179.4776         -DE/DX =    0.0                 !
 ! D24   D(10,9,11,16)          -1.4639         -DE/DX =    0.0                 !
 ! D25   D(9,11,12,13)         179.8984         -DE/DX =    0.0                 !
 ! D26   D(9,11,12,14)          -0.1543         -DE/DX =    0.0                 !
 ! D27   D(16,11,12,13)          1.9241         -DE/DX =    0.0                 !
 ! D28   D(16,11,12,14)       -178.1285         -DE/DX =    0.0                 !
 ! D29   D(9,11,16,17)         165.8577         -DE/DX =    0.0                 !
 ! D30   D(9,11,16,18)          45.0849         -DE/DX =   -0.0001              !
 ! D31   D(9,11,16,19)         -73.9641         -DE/DX =    0.0                 !
 ! D32   D(12,11,16,17)        -16.1172         -DE/DX =    0.0                 !
 ! D33   D(12,11,16,18)       -136.89           -DE/DX =   -0.0002              !
 ! D34   D(12,11,16,19)        104.0609         -DE/DX =    0.0                 !
 ! D35   D(11,12,14,3)          -0.5705         -DE/DX =    0.0                 !
 ! D36   D(11,12,14,15)        179.6375         -DE/DX =    0.0                 !
 ! D37   D(13,12,14,3)         179.3768         -DE/DX =    0.0                 !
 ! D38   D(13,12,14,15)         -0.4152         -DE/DX =    0.0                 !
 --------------------------------------------------------------------------------
 GradGradGradGradGradGradGradGradGradGradGradGradGradGradGradGradGradGrad

                          Input orientation:                          
 ---------------------------------------------------------------------
 Center     Atomic      Atomic             Coordinates (Angstroms)
 Number     Number       Type             X           Y           Z
 ---------------------------------------------------------------------
      1          8           0        8.752387    7.256854    5.309490
      2          1           0        9.561829    6.971639    5.757570
      3          6           0        6.251083    6.994704    5.151809
      4          5           0        7.647870    6.594187    5.754752
      5          8           0        7.808648    5.626695    6.706741
      6          1           0        6.979458    5.232881    7.023264
      7          6           0        5.154986    6.121639    5.178251
      8          1           0        5.250617    5.127666    5.605164
      9          6           0        3.924930    6.495281    4.647359
     10          1           0        3.084465    5.810262    4.668005
     11          6           0        3.782629    7.764689    4.089596
     12          6           0        4.853650    8.650978    4.045718
     13          1           0        4.732283    9.634821    3.608362
     14          6           0        6.081751    8.257368    4.571829
     15          1           0        6.920068    8.944065    4.533615
     16          6           0        2.456623    8.142824    3.493394
     17          9           0        2.356752    9.480439    3.269556
     18          9           0        1.422306    7.782699    4.306070
     19          9           0        2.253052    7.516002    2.296305
 ---------------------------------------------------------------------
                    Distance matrix (angstroms):
                    1          2          3          4          5
     1  O    0.000000
     2  H    0.968153   0.000000
     3  C    2.519942   3.365786   0.000000
     4  B    1.362844   1.950825   1.573202   0.000000
     5  O    2.345288   2.404880   2.591384   1.366812   0.000000
     6  H    3.190104   3.360640   2.671496   1.977132   0.970995
     7  C    3.774550   4.525304   1.401560   2.601946   3.102124
     8  H    4.108924   4.691484   2.166170   2.814228   2.829492
     9  C    4.931810   5.764904   2.432053   3.885406   4.480933
    10  H    5.884680   6.670247   3.415324   4.756071   5.148596
    11  C    5.142425   6.067143   2.795432   4.368398   5.256358
    12  C    4.329071   5.283708   2.433003   3.867667   4.995933
    13  H    4.970895   5.919134   3.414557   4.727905   5.926976
    14  C    2.945754   3.894872   1.399776   2.572587   3.802692
    15  H    2.608842   3.516736   2.151677   2.746415   4.064111
    16  C    6.612094   7.548651   4.297261   5.870354   6.730578
    17  F    7.071761   8.024801   4.988745   6.519400   7.509245
    18  F    7.417105   8.307617   4.965209   6.501452   7.155203
    19  F    7.168528   8.105240   4.940639   6.474153   7.340713
                    6          7          8          9         10
     6  H    0.000000
     7  C    2.742747   0.000000
     8  H    2.238519   1.085994   0.000000
     9  C    4.070469   1.390860   2.131949   0.000000
    10  H    4.588200   2.155079   2.456912   1.084462   0.000000
    11  C    5.023562   2.401697   3.377251   1.393824   2.154477
    12  C    5.006818   2.787649   3.873394   2.423122   3.403956
    13  H    6.007364   3.871133   4.956847   3.404121   4.297138
    14  C    3.995364   2.405822   3.399059   2.786132   3.870568
    15  H    4.469314   3.390745   4.301184   3.870443   4.954859
    16  C    6.433023   3.768965   4.621380   2.490373   2.686027
    17  F    7.314471   4.770196   5.725046   3.642622   3.994424
    18  F    6.690788   4.177645   4.836611   2.834969   2.604664
    19  F    7.063688   4.321005   5.063407   3.060148   3.037393
                   11         12         13         14         15
    11  C    0.000000
    12  C    1.390870   0.000000
    13  H    2.151935   1.083493   0.000000
    14  C    2.400259   1.392822   2.155622   0.000000
    15  H    3.381065   2.143368   2.473790   1.084337   0.000000
    16  C    1.502243   2.511776   2.723583   3.783873   4.652568
    17  F    2.376844   2.743161   2.404531   4.131275   4.765437
    18  F    2.370297   3.549058   3.856566   4.691094   5.623694
    19  F    2.370094   3.333425   3.515320   4.515149   5.368981
                   16         17         18         19
    16  C    0.000000
    17  F    1.359887   0.000000
    18  F    1.363798   2.197697   0.000000
    19  F    1.366516   2.194763   2.190986   0.000000
 Symmetry turned off by external request.
 Stoichiometry    C7H6BF3O2
 Framework group  C1[X(C7H6BF3O2)]
 Deg. of freedom    51
 Full point group                 C1      NOp   1
 Rotational constants (GHZ):           2.2058312           0.3559542           0.3264753

 **********************************************************************

            Population analysis using the SCF Density.

 **********************************************************************

 Alpha  occ. eigenvalues --  -25.28577 -25.28349 -25.28162 -19.64112 -19.63568
 Alpha  occ. eigenvalues --  -10.81194 -10.58000 -10.56392 -10.56272 -10.56056
 Alpha  occ. eigenvalues --  -10.55677 -10.54417  -7.09005  -1.46356  -1.37852
 Alpha  occ. eigenvalues --   -1.37439  -1.16925  -1.13296  -0.98603  -0.89476
 Alpha  occ. eigenvalues --   -0.86105  -0.81165  -0.72724  -0.71871  -0.69337
 Alpha  occ. eigenvalues --   -0.68325  -0.66078  -0.65201  -0.62993  -0.58084
 Alpha  occ. eigenvalues --   -0.57951  -0.57249  -0.54626  -0.53943  -0.53485
 Alpha  occ. eigenvalues --   -0.52460  -0.52091  -0.50419  -0.49967  -0.48260
 Alpha  occ. eigenvalues --   -0.45943  -0.45741  -0.45214  -0.41594  -0.40822
 Alpha  occ. eigenvalues --   -0.39299  -0.33014  -0.32425
 Alpha virt. eigenvalues --   -0.02204  -0.00067   0.00358   0.01925   0.02131
 Alpha virt. eigenvalues --    0.02862   0.03744   0.04252   0.04989   0.05449
 Alpha virt. eigenvalues --    0.06981   0.07254   0.08999   0.09436   0.09643
 Alpha virt. eigenvalues --    0.10442   0.11121   0.11224   0.12699   0.13356
 Alpha virt. eigenvalues --    0.13554   0.14477   0.14907   0.15587   0.16446
 Alpha virt. eigenvalues --    0.16634   0.17239   0.17979   0.18351   0.19116
 Alpha virt. eigenvalues --    0.19226   0.20090   0.20673   0.21098   0.22369
 Alpha virt. eigenvalues --    0.22413   0.22722   0.23293   0.23984   0.24233
 Alpha virt. eigenvalues --    0.24794   0.25236   0.25818   0.26108   0.27226
 Alpha virt. eigenvalues --    0.27574   0.28126   0.28691   0.29190   0.29697
 Alpha virt. eigenvalues --    0.30113   0.31158   0.31628   0.32445   0.33793
 Alpha virt. eigenvalues --    0.35477   0.36040   0.36955   0.37144   0.37708
 Alpha virt. eigenvalues --    0.38365   0.38876   0.39473   0.40963   0.41153
 Alpha virt. eigenvalues --    0.42285   0.43181   0.45291   0.46465   0.46574
 Alpha virt. eigenvalues --    0.47309   0.48896   0.51020   0.51995   0.53157
 Alpha virt. eigenvalues --    0.53552   0.55397   0.56293   0.56853   0.57804
 Alpha virt. eigenvalues --    0.59746   0.60888   0.61758   0.63312   0.64714
 Alpha virt. eigenvalues --    0.66104   0.66784   0.67368   0.67930   0.69346
 Alpha virt. eigenvalues --    0.70086   0.71541   0.72170   0.73379   0.74892
 Alpha virt. eigenvalues --    0.75638   0.78413   0.79468   0.80032   0.82872
 Alpha virt. eigenvalues --    0.83888   0.88358   0.90178   0.90995   0.92030
 Alpha virt. eigenvalues --    0.93820   0.94771   0.96814   0.97605   1.00850
 Alpha virt. eigenvalues --    1.04304   1.04918   1.05868   1.07644   1.09261
 Alpha virt. eigenvalues --    1.09751   1.11614   1.11944   1.13448   1.13995
 Alpha virt. eigenvalues --    1.14361   1.16667   1.18952   1.21281   1.25030
 Alpha virt. eigenvalues --    1.31517   1.32989   1.34941   1.37413   1.39016
 Alpha virt. eigenvalues --    1.42665   1.44630   1.45020   1.45694   1.46560
 Alpha virt. eigenvalues --    1.48681   1.49789   1.50764   1.51809   1.52177
 Alpha virt. eigenvalues --    1.53452   1.53904   1.54920   1.56614   1.56974
 Alpha virt. eigenvalues --    1.58735   1.60543   1.60800   1.61936   1.64948
 Alpha virt. eigenvalues --    1.67669   1.69213   1.70619   1.71575   1.76725
 Alpha virt. eigenvalues --    1.76860   1.77972   1.80660   1.83577   1.84075
 Alpha virt. eigenvalues --    1.84415   1.87107   1.89394   1.93992   1.94878
 Alpha virt. eigenvalues --    1.98383   1.99175   1.99870   2.01085   2.02993
 Alpha virt. eigenvalues --    2.04436   2.08814   2.09871   2.10786   2.12224
 Alpha virt. eigenvalues --    2.15171   2.15496   2.17992   2.19920   2.24959
 Alpha virt. eigenvalues --    2.31601   2.36946   2.42312   2.44072   2.45357
 Alpha virt. eigenvalues --    2.52490   2.55652   2.57159   2.61554   2.63273
 Alpha virt. eigenvalues --    2.65205   2.69039   2.72657   2.73205   2.77302
 Alpha virt. eigenvalues --    2.78082   2.79164   2.80324   2.80984   2.84490
 Alpha virt. eigenvalues --    2.86448   2.93927   2.96906   2.97472   2.99782
 Alpha virt. eigenvalues --    3.03843   3.07328   3.08881   3.11330   3.14395
 Alpha virt. eigenvalues --    3.23682   3.26332   3.26755   3.29802   3.38658
 Alpha virt. eigenvalues --    3.41074   3.44842   3.51378   3.54360   3.56982
 Alpha virt. eigenvalues --    3.60356   3.64022   3.65088   3.80561   3.83478
 Alpha virt. eigenvalues --    3.84208   3.84499   3.85886   3.86652   3.87652
 Alpha virt. eigenvalues --    3.90794   3.93466   3.99770   4.01046   4.01867
 Alpha virt. eigenvalues --    4.04703   4.09050   4.17652   4.19049   4.23187
 Alpha virt. eigenvalues --    4.23814   4.27118   4.75015   4.85151   4.95823
 Alpha virt. eigenvalues --    4.98511   5.10377   5.10824   5.35524   5.47839
 Alpha virt. eigenvalues --    5.66015   5.74119   6.44189   6.48159   6.50828
 Alpha virt. eigenvalues --    6.51165   6.52134   6.56007   6.60440   6.83677
 Alpha virt. eigenvalues --    6.87109  14.78917  23.56038  23.70529  24.01839
 Alpha virt. eigenvalues --   24.02249  24.12737  24.16760  24.24584  49.99928
 Alpha virt. eigenvalues --   50.03829  66.88070  66.90376  66.95435
          Condensed to atoms (all electrons):
               1          2          3          4          5          6
     1  O    7.785353   0.293667   0.046304   0.438566  -0.119148   0.017282
     2  H    0.293667   0.405413   0.036074  -0.009524  -0.016726   0.001832
     3  C    0.046304   0.036074  10.652022   0.284375  -0.197291   0.049576
     4  B    0.438566  -0.009524   0.284375   3.346835   0.388018   0.008836
     5  O   -0.119148  -0.016726  -0.197291   0.388018   7.912584   0.270075
     6  H    0.017282   0.001832   0.049576   0.008836   0.270075   0.410020
     7  C    0.069292   0.003037  -0.141416   0.044384   0.024410  -0.071404
     8  H    0.001840  -0.000013  -0.046102   0.005746  -0.002337   0.004810
     9  C    0.024902   0.002970  -2.036514   0.038771   0.018097   0.012788
    10  H   -0.000028  -0.000001  -0.020621  -0.000270   0.000197  -0.000027
    11  C   -0.007617  -0.000432  -2.982436   0.005327   0.010917  -0.009966
    12  C   -0.013509  -0.008413   0.628566  -0.031476   0.043258  -0.002426
    13  H    0.000266   0.000000  -0.018449   0.000267  -0.000026   0.000002
    14  C   -0.156263  -0.020795   0.521094   0.036294   0.039182   0.019029
    15  H   -0.001509  -0.000227   0.001171  -0.007093   0.001545   0.000017
    16  C   -0.001378   0.000024  -0.283571  -0.027557  -0.000169  -0.000831
    17  F   -0.000005   0.000000   0.000093   0.000172   0.000002   0.000000
    18  F    0.000000   0.000000   0.002025   0.000308  -0.000002   0.000002
    19  F    0.000000   0.000000  -0.018469  -0.000076  -0.000002  -0.000001
               7          8          9         10         11         12
     1  O    0.069292   0.001840   0.024902  -0.000028  -0.007617  -0.013509
     2  H    0.003037  -0.000013   0.002970  -0.000001  -0.000432  -0.008413
     3  C   -0.141416  -0.046102  -2.036514  -0.020621  -2.982436   0.628566
     4  B    0.044384   0.005746   0.038771  -0.000270   0.005327  -0.031476
     5  O    0.024410  -0.002337   0.018097   0.000197   0.010917   0.043258
     6  H   -0.071404   0.004810   0.012788  -0.000027  -0.009966  -0.002426
     7  C   15.259693   0.310458  -5.773613   0.006219  -0.057682  -0.771236
     8  H    0.310458   0.471495   0.114157  -0.005234  -0.000638  -0.008097
     9  C   -5.773613   0.114157  26.925980   0.289524  -1.346248 -11.823947
    10  H    0.006219  -0.005234   0.289524   0.442431   0.011307   0.011207
    11  C   -0.057682  -0.000638  -1.346248   0.011307  18.658727  -5.259588
    12  C   -0.771236  -0.008097 -11.823947   0.011207  -5.259588  27.574669
    13  H   -0.012711   0.000049   0.020418  -0.000111   0.045779   0.268502
    14  C   -1.387327  -0.041148  -0.395319  -0.010862  -0.006731  -5.943471
    15  H   -0.023015  -0.000045  -0.007793   0.000044  -0.004756   0.064053
    16  C   -1.485950   0.011738   0.009133   0.065476  -2.892513   1.954417
    17  F    0.031363   0.000019   0.055239   0.000518  -0.029896  -0.184430
    18  F    0.100969   0.000046  -0.198496   0.002118   0.088052  -0.006940
    19  F   -0.012157   0.000019  -0.294391  -0.000762   0.356499  -0.077996
              13         14         15         16         17         18
     1  O    0.000266  -0.156263  -0.001509  -0.001378  -0.000005   0.000000
     2  H    0.000000  -0.020795  -0.000227   0.000024   0.000000   0.000000
     3  C   -0.018449   0.521094   0.001171  -0.283571   0.000093   0.002025
     4  B    0.000267   0.036294  -0.007093  -0.027557   0.000172   0.000308
     5  O   -0.000026   0.039182   0.001545  -0.000169   0.000002  -0.000002
     6  H    0.000002   0.019029   0.000017  -0.000831   0.000000   0.000002
     7  C   -0.012711  -1.387327  -0.023015  -1.485950   0.031363   0.100969
     8  H    0.000049  -0.041148  -0.000045   0.011738   0.000019   0.000046
     9  C    0.020418  -0.395319  -0.007793   0.009133   0.055239  -0.198496
    10  H   -0.000111  -0.010862   0.000044   0.065476   0.000518   0.002118
    11  C    0.045779  -0.006731  -0.004756  -2.892513  -0.029896   0.088052
    12  C    0.268502  -5.943471   0.064053   1.954417  -0.184430  -0.006940
    13  H    0.442677   0.008222  -0.005258   0.037354   0.007258   0.000483
    14  C    0.008222  13.773965   0.316598  -0.826310   0.120630   0.029094
    15  H   -0.005258   0.316598   0.455476   0.010027   0.000050   0.000020
    16  C    0.037354  -0.826310   0.010027   8.409386   0.161372   0.150424
    17  F    0.007258   0.120630   0.000050   0.161372   9.042727  -0.023793
    18  F    0.000483   0.029094   0.000020   0.150424  -0.023793   9.006513
    19  F    0.000201   0.027503   0.000019   0.197444  -0.039522  -0.049332
              19
     1  O    0.000000
     2  H    0.000000
     3  C   -0.018469
     4  B   -0.000076
     5  O   -0.000002
     6  H   -0.000001
     7  C   -0.012157
     8  H    0.000019
     9  C   -0.294391
    10  H   -0.000762
    11  C    0.356499
    12  C   -0.077996
    13  H    0.000201
    14  C    0.027503
    15  H    0.000019
    16  C    0.197444
    17  F   -0.039522
    18  F   -0.049332
    19  F    8.988036
 Mulliken charges:
               1
     1  O   -0.378015
     2  H    0.313113
     3  C   -0.476431
     4  B    0.478098
     5  O   -0.372586
     6  H    0.290385
     7  C   -0.113314
     8  H    0.183237
     9  C    0.364344
    10  H    0.208874
    11  C   -0.578105
    12  C   -0.413144
    13  H    0.205075
    14  C   -0.103387
    15  H    0.200674
    16  C    0.511483
    17  F   -0.141798
    18  F   -0.101491
    19  F   -0.077013
 Sum of Mulliken charges =   0.00000
 Mulliken charges with hydrogens summed into heavy atoms:
               1
     1  O   -0.064902
     3  C   -0.476431
     4  B    0.478098
     5  O   -0.082200
     7  C    0.069923
     9  C    0.573218
    11  C   -0.578105
    12  C   -0.208069
    14  C    0.097287
    16  C    0.511483
    17  F   -0.141798
    18  F   -0.101491
    19  F   -0.077013
 Electronic spatial extent (au):  <R**2>=          36778.4614
 Charge=              0.0000 electrons
 Dipole moment (field-independent basis, Debye):
    X=              2.1927    Y=             -1.8373    Z=              2.3951  Tot=              3.7310
 Quadrupole moment (field-independent basis, Debye-Ang):
   XX=            -57.2058   YY=            -94.5229   ZZ=            -53.1535
   XY=             10.8921   XZ=             20.7956   YZ=              5.4857
 Traceless Quadrupole moment (field-independent basis, Debye-Ang):
   XX=             11.0883   YY=            -26.2288   ZZ=             15.1405
   XY=             10.8921   XZ=             20.7956   YZ=              5.4857
 Octapole moment (field-independent basis, Debye-Ang**2):
  XXX=           -939.7128  YYY=          -1807.2045  ZZZ=           -866.2953  XYY=           -288.9828
  XXY=           -439.6582  XXZ=           -194.1830  XZZ=           -216.4291  YZZ=           -472.7133
  YYZ=           -350.6652  XYZ=            110.4448
 Hexadecapole moment (field-independent basis, Debye-Ang**3):
 XXXX=         -11310.3952 YYYY=         -25969.0273 ZZZZ=          -8877.9154 XXXY=          -6754.2883
 XXXZ=          -4193.6119 YYYX=          -7082.7458 YYYZ=          -7599.2477 ZZZX=          -4470.9278
 ZZZY=          -6731.8006 XXYY=          -5514.2641 XXZZ=          -2837.0005 YYZZ=          -5611.4821
 XXYZ=          -1517.2146 YYXZ=          -1141.5839 ZZXY=          -1820.1113
 N-N= 7.687042904908D+02 E-N=-3.292737803483D+03  KE= 7.427793824460D+02


 TIME GOES, YOU SAY?  AH NO!
 ALAS, TIME STAYS, WE GO.
    -- A. DOBSON (1840-1921)
 Error termination request processed by link 9999.
 Error termination via Lnk1e in /home/apps/g16/l9999.exe at Tue Apr 22 21:13:18 2025.
 Job cpu time:       0 days 15 hours 32 minutes  3.8 seconds.
 Elapsed time:       0 days  0 hours 32 minutes 45.8 seconds.
 File lengths (MBytes):  RWF=    250 Int=      0 D2E=      0 Chk=     14 Scr=      1
