/home/tahminaafroz
cn017.cluster.local
Tue May 27 08:06:23 CDT 2025
 Entering Gaussian System, Link 0=g16
 Initial command:
 /home/apps/g16/l1.exe "/tmp/4-no2-ph-anion-opt-freq-thf/Gau-4065212.inp" -scrdir="/tmp/4-no2-ph-anion-opt-freq-thf/"
 Entering Link 1 = /home/apps/g16/l1.exe PID=   4065213.
  
 Copyright (c) 1988-2019, Gaussian, Inc.  All Rights Reserved.
  
 This is part of the Gaussian(R) 16 program.  It is based on
 the Gaussian(R) 09 system (copyright 2009, Gaussian, Inc.),
 the Gaussian(R) 03 system (copyright 2003, Gaussian, Inc.),
 the Gaussian(R) 98 system (copyright 1998, Gaussian, Inc.),
 the Gaussian(R) 94 system (copyright 1995, Gaussian, Inc.),
 the Gaussian 92(TM) system (copyright 1992, Gaussian, Inc.),
 the Gaussian 90(TM) system (copyright 1990, Gaussian, Inc.),
 the Gaussian 88(TM) system (copyright 1988, Gaussian, Inc.),
 the Gaussian 86(TM) system (copyright 1986, Carnegie Mellon
 University), and the Gaussian 82(TM) system (copyright 1983,
 Carnegie Mellon University). Gaussian is a federally registered
 trademark of Gaussian, Inc.
  
 This software contains proprietary and confidential information,
 including trade secrets, belonging to Gaussian, Inc.
  
 This software is provided under written license and may be
 used, copied, transmitted, or stored only in accord with that
 written license.
  
 The following legend is applicable only to US Government
 contracts under FAR:
  
                    RESTRICTED RIGHTS LEGEND
  
 Use, reproduction and disclosure by the US Government is
 subject to restrictions as set forth in subparagraphs (a)
 and (c) of the Commercial Computer Software - Restricted
 Rights clause in FAR 52.227-19.
  
 Gaussian, Inc.
 340 Quinnipiac St., Bldg. 40, Wallingford CT 06492
  
  
 ---------------------------------------------------------------
 Warning -- This program may not be used in any manner that
 competes with the business of Gaussian, Inc. or will provide
 assistance to any competitor of Gaussian, Inc.  The licensee
 of this program is prohibited from giving any competitor of
 Gaussian, Inc. access to this program.  By using this program,
 the user acknowledges that Gaussian, Inc. is engaged in the
 business of creating and licensing software in the field of
 computational chemistry and represents and warrants to the
 licensee that it is not a competitor of Gaussian, Inc. and that
 it will not use this program in any manner prohibited above.
 ---------------------------------------------------------------
  

 Cite this work as:
 Gaussian 16, Revision C.01,
 M. J. Frisch, G. W. Trucks, H. B. Schlegel, G. E. Scuseria, 
 M. A. Robb, J. R. Cheeseman, G. Scalmani, V. Barone, 
 G. A. Petersson, H. Nakatsuji, X. Li, M. Caricato, A. V. Marenich, 
 J. Bloino, B. G. Janesko, R. Gomperts, B. Mennucci, H. P. Hratchian, 
 J. V. Ortiz, A. F. Izmaylov, J. L. Sonnenberg, D. Williams-Young, 
 F. Ding, F. Lipparini, F. Egidi, J. Goings, B. Peng, A. Petrone, 
 T. Henderson, D. Ranasinghe, V. G. Zakrzewski, J. Gao, N. Rega, 
 G. Zheng, W. Liang, M. Hada, M. Ehara, K. Toyota, R. Fukuda, 
 J. Hasegawa, M. Ishida, T. Nakajima, Y. Honda, O. Kitao, H. Nakai, 
 T. Vreven, K. Throssell, J. A. Montgomery, Jr., J. E. Peralta, 
 F. Ogliaro, M. J. Bearpark, J. J. Heyd, E. N. Brothers, K. N. Kudin, 
 V. N. Staroverov, T. A. Keith, R. Kobayashi, J. Normand, 
 K. Raghavachari, A. P. Rendell, J. C. Burant, S. S. Iyengar, 
 J. Tomasi, M. Cossi, J. M. Millam, M. Klene, C. Adamo, R. Cammi, 
 J. W. Ochterski, R. L. Martin, K. Morokuma, O. Farkas, 
 J. B. Foresman, and D. J. Fox, Gaussian, Inc., Wallingford CT, 2019.
 
 ******************************************
 Gaussian 16:  AS64L-G16RevC.01  3-Jul-2019
                27-May-2025 
 ******************************************
 %mem=20GB
 %nprocshared=32
 Will use up to   32 processors via shared memory.
 %chk=4-no2-ph-anion-opt-freq-thf.chk
 ----------------------------------------------------------------------
 # opt=(calcfc,tight) freq 6-311+g(d,p) scrf=(smd,solvent=thf) nosymm s
 cf=(qc,fermi,xqc) geom=connectivity int=ultrafine m062x
 ----------------------------------------------------------------------
 1/7=10,10=4,18=20,19=15,26=6,38=1,57=2/1,3;
 2/9=110,12=2,15=1,17=6,18=5,40=1/2;
 3/5=4,6=6,7=111,11=2,25=1,30=1,70=32201,71=2,72=20,74=-55,75=-5,140=1/1,2,3;
 4//1;
 5/5=2,22=13,38=5,53=20/2;
 8/6=4,10=90,11=11/1;
 11/6=1,8=1,9=11,15=111,16=1,31=1/1,2,10;
 10/6=1,13=1,31=1/2;
 6/7=2,8=2,9=2,10=2,28=1/1;
 7/10=1,25=1,30=1/1,2,3,16;
 1/7=10,10=4,18=20,19=15,26=6/3(2);
 2/9=110,15=1/2;
 99//99;
 2/9=110,15=1/2;
 3/5=4,6=6,7=111,11=2,25=1,30=1,70=32205,71=1,72=20,74=-55,75=-5/1,2,3;
 4/5=5,16=3,69=1/1;
 5/5=2,22=13,38=5,53=20/2;
 7/30=1/1,2,3,16;
 1/7=10,18=20,19=15,26=6/3(-5);
 2/9=110,15=1/2;
 6/7=2,8=2,9=2,10=2,19=2,28=1/1;
 99/9=1/99;
 ---------------------------
 4-no2-ph-anion-opt-freq-thf
 ---------------------------
 Symbolic Z-matrix:
 Charge = -1 Multiplicity = 1
 C                     6.15612   6.96605   5.13921 
 C                     5.11155   6.11576   5.41263 
 H                     5.23327   5.21579   6.00337 
 C                     3.866     6.46125   4.89061 
 H                     2.99506   5.84264   5.06253 
 C                     3.76541   7.62584   4.13794 
 C                     4.84297   8.46523   3.8787 
 H                     4.71041   9.36089   3.28637 
 C                     6.0895    8.12313   4.40062 
 H                     6.95467   8.75039   4.2224 
 N                     2.44784   7.98884   3.58526 
 O                     1.50488   7.26915   3.84352 
 O                     2.37363   8.98852   2.90043 
 

 GradGradGradGradGradGradGradGradGradGradGradGradGradGradGradGradGradGrad
 Berny optimization.
 Initialization pass.
                           ----------------------------
                           !    Initial Parameters    !
                           ! (Angstroms and Degrees)  !
 --------------------------                            --------------------------
 ! Name  Definition              Value          Derivative Info.                !
 --------------------------------------------------------------------------------
 ! R1    R(1,2)                  1.3744         calculate D2E/DX2 analytically  !
 ! R2    R(1,9)                  1.3743         calculate D2E/DX2 analytically  !
 ! R3    R(2,3)                  1.0834         calculate D2E/DX2 analytically  !
 ! R4    R(2,4)                  1.394          calculate D2E/DX2 analytically  !
 ! R5    R(4,5)                  1.082          calculate D2E/DX2 analytically  !
 ! R6    R(4,6)                  1.3903         calculate D2E/DX2 analytically  !
 ! R7    R(6,7)                  1.3903         calculate D2E/DX2 analytically  !
 ! R8    R(6,11)                 1.4742         calculate D2E/DX2 analytically  !
 ! R9    R(7,8)                  1.082          calculate D2E/DX2 analytically  !
 ! R10   R(7,9)                  1.394          calculate D2E/DX2 analytically  !
 ! R11   R(9,10)                 1.0834         calculate D2E/DX2 analytically  !
 ! R12   R(11,12)                1.214          calculate D2E/DX2 analytically  !
 ! R13   R(11,13)                1.214          calculate D2E/DX2 analytically  !
 ! A1    A(2,1,9)              126.2246         calculate D2E/DX2 analytically  !
 ! A2    A(1,2,3)              122.4811         calculate D2E/DX2 analytically  !
 ! A3    A(1,2,4)              116.825          calculate D2E/DX2 analytically  !
 ! A4    A(3,2,4)              120.6939         calculate D2E/DX2 analytically  !
 ! A5    A(2,4,5)              121.199          calculate D2E/DX2 analytically  !
 ! A6    A(2,4,6)              118.3584         calculate D2E/DX2 analytically  !
 ! A7    A(5,4,6)              120.4426         calculate D2E/DX2 analytically  !
 ! A8    A(4,6,7)              123.408          calculate D2E/DX2 analytically  !
 ! A9    A(4,6,11)             118.2877         calculate D2E/DX2 analytically  !
 ! A10   A(7,6,11)             118.3044         calculate D2E/DX2 analytically  !
 ! A11   A(6,7,8)              120.458          calculate D2E/DX2 analytically  !
 ! A12   A(6,7,9)              118.3651         calculate D2E/DX2 analytically  !
 ! A13   A(8,7,9)              121.1768         calculate D2E/DX2 analytically  !
 ! A14   A(1,9,7)              116.8189         calculate D2E/DX2 analytically  !
 ! A15   A(1,9,10)             122.4901         calculate D2E/DX2 analytically  !
 ! A16   A(7,9,10)             120.691          calculate D2E/DX2 analytically  !
 ! A17   A(6,11,12)            117.9358         calculate D2E/DX2 analytically  !
 ! A18   A(6,11,13)            117.9616         calculate D2E/DX2 analytically  !
 ! A19   A(12,11,13)           124.1025         calculate D2E/DX2 analytically  !
 ! D1    D(9,1,2,3)            179.9511         calculate D2E/DX2 analytically  !
 ! D2    D(9,1,2,4)             -0.0154         calculate D2E/DX2 analytically  !
 ! D3    D(2,1,9,7)             -0.0527         calculate D2E/DX2 analytically  !
 ! D4    D(2,1,9,10)           179.9903         calculate D2E/DX2 analytically  !
 ! D5    D(1,2,4,5)           -179.9843         calculate D2E/DX2 analytically  !
 ! D6    D(1,2,4,6)              0.0543         calculate D2E/DX2 analytically  !
 ! D7    D(3,2,4,5)              0.0486         calculate D2E/DX2 analytically  !
 ! D8    D(3,2,4,6)           -179.9128         calculate D2E/DX2 analytically  !
 ! D9    D(2,4,6,7)             -0.0269         calculate D2E/DX2 analytically  !
 ! D10   D(2,4,6,11)           179.9261         calculate D2E/DX2 analytically  !
 ! D11   D(5,4,6,7)           -179.9886         calculate D2E/DX2 analytically  !
 ! D12   D(5,4,6,11)            -0.0357         calculate D2E/DX2 analytically  !
 ! D13   D(4,6,7,8)           -179.9933         calculate D2E/DX2 analytically  !
 ! D14   D(4,6,7,9)             -0.0422         calculate D2E/DX2 analytically  !
 ! D15   D(11,6,7,8)             0.0537         calculate D2E/DX2 analytically  !
 ! D16   D(11,6,7,9)          -179.9952         calculate D2E/DX2 analytically  !
 ! D17   D(4,6,11,12)            1.8485         calculate D2E/DX2 analytically  !
 ! D18   D(4,6,11,13)         -178.1484         calculate D2E/DX2 analytically  !
 ! D19   D(7,6,11,12)         -178.1961         calculate D2E/DX2 analytically  !
 ! D20   D(7,6,11,13)            1.807          calculate D2E/DX2 analytically  !
 ! D21   D(6,7,9,1)              0.0784         calculate D2E/DX2 analytically  !
 ! D22   D(6,7,9,10)          -179.9638         calculate D2E/DX2 analytically  !
 ! D23   D(8,7,9,1)           -179.9708         calculate D2E/DX2 analytically  !
 ! D24   D(8,7,9,10)            -0.0131         calculate D2E/DX2 analytically  !
 --------------------------------------------------------------------------------
 Trust Radius=3.00D-01 FncErr=5.00D-06 GrdErr=5.00D-06 EigMax=2.50D+02 EigMin=1.00D-04
 Number of steps in this run=     66 maximum allowed number of steps=    100.
 GradGradGradGradGradGradGradGradGradGradGradGradGradGradGradGradGradGrad

                          Input orientation:                          
 ---------------------------------------------------------------------
 Center     Atomic      Atomic             Coordinates (Angstroms)
 Number     Number       Type             X           Y           Z
 ---------------------------------------------------------------------
      1          6           0        6.156116    6.966053    5.139207
      2          6           0        5.111549    6.115763    5.412626
      3          1           0        5.233269    5.215795    6.003373
      4          6           0        3.866004    6.461248    4.890613
      5          1           0        2.995059    5.842640    5.062526
      6          6           0        3.765406    7.625844    4.137936
      7          6           0        4.842973    8.465226    3.878701
      8          1           0        4.710410    9.360894    3.286369
      9          6           0        6.089496    8.123126    4.400622
     10          1           0        6.954666    8.750393    4.222400
     11          7           0        2.447839    7.988842    3.585261
     12          8           0        1.504879    7.269148    3.843523
     13          8           0        2.373627    8.988519    2.900428
 ---------------------------------------------------------------------
                    Distance matrix (angstroms):
                    1          2          3          4          5
     1  C    0.000000
     2  C    1.374362   0.000000
     3  H    2.159128   1.083393   0.000000
     4  C    2.358228   1.394001   2.158426   0.000000
     5  H    3.355625   2.162567   2.507531   1.082024   0.000000
     6  C    2.674577   2.391083   3.382723   1.390297   2.151306
     7  C    2.358122   2.818694   3.901969   2.448339   3.419676
     8  H    3.355345   3.900353   4.983707   3.419732   4.298287
     9  C    1.374323   2.451538   3.428485   2.818838   3.900548
    10  H    2.159187   3.428556   4.316069   3.902118   4.983907
    11  N    4.148754   3.734038   4.614724   2.459406   2.662319
    12  O    4.837837   4.098835   4.773060   2.706291   2.396149
    13  O    4.838360   4.696816   5.660324   3.546142   3.867480
                    6          7          8          9         10
     6  C    0.000000
     7  C    1.390293   0.000000
     8  H    2.151418   1.081966   0.000000
     9  C    2.391169   1.394006   2.162292   0.000000
    10  H    3.382769   2.158401   2.507100   1.083396   0.000000
    11  N    1.474178   2.459617   2.662910   3.734235   4.614910
    12  O    2.307356   3.546084   3.867978   4.696632   5.660195
    13  O    2.307674   2.707125   2.397534   4.099655   4.773912
                   11         12         13
    11  N    0.000000
    12  O    1.214015   0.000000
    13  O    1.214025   2.144851   0.000000
 Symmetry turned off by external request.
 Stoichiometry    C6H4NO2(1-)
 Framework group  C1[X(C6H4NO2)]
 Deg. of freedom    33
 Full point group                 C1      NOp   1
 Rotational constants (GHZ):           3.9632953           1.3554274           1.0101191
 Standard basis: 6-311+G(d,p) (5D, 7F)
   222 basis functions,   356 primitive gaussians,   231 cartesian basis functions
    32 alpha electrons       32 beta electrons
       nuclear repulsion energy       403.0761109874 Hartrees.
 NAtoms=   13 NActive=   13 NUniq=   13 SFac= 1.00D+00 NAtFMM=   60 NAOKFM=F Big=F
 Integral buffers will be    131072 words long.
 Raffenetti 2 integral format.
 Two-electron integral symmetry is turned off.
 Force inversion solution in PCM.
 ------------------------------------------------------------------------------
 Polarizable Continuum Model (PCM)
 =================================
 Model                : PCM.
 Atomic radii         : SMD-Coulomb.
 Polarization charges : Total charges.
 Charge compensation  : None.
 Solution method      : Matrix inversion.
 Cavity type          : VdW (van der Waals Surface) (Alpha=1.000).
 Cavity algorithm     : GePol (No added spheres)
                        Default sphere list used, NSphG=   13.
                        Lebedev-Laikov grids with approx.  5.0 points / Ang**2.
                        Smoothing algorithm: York/Karplus (Gamma=1.0000).
                        Polarization charges: spherical gaussians, with
                                              point-specific exponents (IZeta= 3).
                        Self-potential: point-specific (ISelfS= 7).
                        Self-field    : sphere-specific E.n sum rule (ISelfD= 2).
 1st derivatives      : Analytical E(r).r(x)/FMM algorithm (CHGder, D1EAlg=3).
                        Cavity 1st derivative terms included.
 2nd derivatives      : Analytical E(r).r(xy)/FMM algorithm (CHGder, D2EAlg=3).
                        Cavity 2nd derivative terms included.
 Solvent              : TetraHydroFuran, Eps=   7.425700 Eps(inf)=   1.974025
 ------------------------------------------------------------------------------
 Spheres list:
 ISph  on   Nord     Re0    Alpha      Xe            Ye            Ze
    1   C      1    1.8500  1.000      6.156116      6.966053      5.139207
    2   C      2    1.8500  1.000      5.111549      6.115763      5.412626
    3   H      3    1.2000  1.000      5.233269      5.215795      6.003373
    4   C      4    1.8500  1.000      3.866004      6.461248      4.890613
    5   H      5    1.2000  1.000      2.995059      5.842640      5.062526
    6   C      6    1.8500  1.000      3.765406      7.625844      4.137936
    7   C      7    1.8500  1.000      4.842973      8.465226      3.878701
    8   H      8    1.2000  1.000      4.710410      9.360894      3.286369
    9   C      9    1.8500  1.000      6.089496      8.123126      4.400622
   10   H     10    1.2000  1.000      6.954666      8.750393      4.222400
   11   N     11    1.8900  1.000      2.447839      7.988842      3.585261
   12   O     12    2.2940  1.000      1.504879      7.269148      3.843523
   13   O     13    2.2940  1.000      2.373627      8.988519      2.900428
 ------------------------------------------------------------------------------
 ------------------------------------------------------------------------------
 Atomic radii for non-electrostatic terms: SMD-CDS.
 ------------------------------------------------------------------------------
 Nuclear repulsion after PCM non-electrostatic terms =      403.0730735700 Hartrees.
 One-electron integrals computed using PRISM.
 NBasis=   222 RedAO= T EigKep=  2.36D-06  NBF=   222
 NBsUse=   222 1.00D-06 EigRej= -1.00D+00 NBFU=   222
 ExpMin= 4.38D-02 ExpMax= 8.59D+03 ExpMxC= 1.30D+03 IAcc=3 IRadAn=         5 AccDes= 0.00D+00
 Harris functional with IExCor= 1009 and IRadAn=       5 diagonalized for initial guess.
 HarFok:  IExCor= 1009 AccDes= 0.00D+00 IRadAn=         5 IDoV= 1 UseB2=F ITyADJ=14
 ICtDFT=  3500011 ScaDFX=  1.000000  1.000000  1.000000  1.000000
 FoFCou: FMM=F IPFlag=           0 FMFlag=      100000 FMFlg1=           0
         NFxFlg=           0 DoJE=T BraDBF=F KetDBF=T FulRan=T
         wScrn=  0.000000 ICntrl=       500 IOpCl=  0 I1Cent=   200000004 NGrid=           0
         NMat0=    1 NMatS0=      1 NMatT0=    0 NMatD0=    1 NMtDS0=    0 NMtDT0=    0
 Symmetry not used in FoFCou.
 Requested convergence on RMS density matrix=1.00D-08 within 128 cycles.
 Requested convergence on MAX density matrix=1.00D-06.
 Requested convergence on             energy=1.00D-06.
 Level shift goal  0.100 maximum shift  0.100.
 No special actions if energy rises.
 Dynamic level shift is on during FON iterations.
 Inv3:  Mode=1 IEnd=     5597868.
 Iteration    1 A*A^-1 deviation from unit magnitude is 7.33D-15 for   1365.
 Iteration    1 A*A^-1 deviation from orthogonality  is 1.90D-15 for   1135    833.
 Iteration    1 A^-1*A deviation from unit magnitude is 7.55D-15 for   1365.
 Iteration    1 A^-1*A deviation from orthogonality  is 2.07D-15 for   1054    235.
 Error on total polarization charges =  0.04448
 SCF Done:  E(RM062X) =  -436.134515942     A.U. after   17 cycles
            NFock= 17  Conv=0.36D-08     -V/T= 2.0030
 SMD-CDS (non-electrostatic) energy       (kcal/mol) =      -1.91
 (included in total energy above)
 DoSCS=F DFT=T ScalE2(SS,OS)=  1.000000  1.000000
 Range of M.O.s used for correlation:     1   222
 NBasis=   222 NAE=    32 NBE=    32 NFC=     0 NFV=     0
 NROrb=    222 NOA=    32 NOB=    32 NVA=   190 NVB=   190

 **** Warning!!: The largest alpha MO coefficient is  0.13787491D+03

 Symmetrizing basis deriv contribution to polar:
 IMax=3 JMax=2 DiffMx= 0.00D+00
 G2DrvN: will do    14 centers at a time, making    1 passes.
 Calling FoFCou, ICntrl=  3107 FMM=F I1Cent=   0 AccDes= 0.00D+00.
 NEqPCM:  Using equilibrium solvation (IEInf=0, Eps=   7.4257, EpsInf=   1.9740)
 G2PCM: DoFxE=T DoFxN=T DoGrad=T DoDP/DQ/DG/TGxP=FFFF NFrqRd=   0 IEInf=0 SqF1=F DoCFld=F IF1Alg=4.
 End of G2Drv F.D. properties file   721 does not exist.
 End of G2Drv F.D. properties file   722 does not exist.
 End of G2Drv F.D. properties file   788 does not exist.
          IDoAtm=1111111111111
 NEqPCM:  Using equilibrium solvation (IEInf=0, Eps=   7.4257, EpsInf=   1.9740)
          Differentiating once with respect to nuclear coordinates.
 Keep R1 ints in memory in canonical form, NReq=340194332.
          There are    42 degrees of freedom in the 1st order CPHF.  IDoFFX=6 NUNeed=     0.
     36 vectors produced by pass  0 Test12= 1.45D-14 2.38D-09 XBig12= 1.69D-01 1.30D-01.
 AX will form    36 AO Fock derivatives at one time.
     36 vectors produced by pass  1 Test12= 1.45D-14 2.38D-09 XBig12= 1.70D-02 3.58D-02.
     36 vectors produced by pass  2 Test12= 1.45D-14 2.38D-09 XBig12= 4.52D-04 6.74D-03.
     36 vectors produced by pass  3 Test12= 1.45D-14 2.38D-09 XBig12= 4.35D-06 4.78D-04.
     36 vectors produced by pass  4 Test12= 1.45D-14 2.38D-09 XBig12= 4.63D-08 4.06D-05.
     36 vectors produced by pass  5 Test12= 1.45D-14 2.38D-09 XBig12= 3.76D-10 4.29D-06.
     36 vectors produced by pass  6 Test12= 1.45D-14 2.38D-09 XBig12= 1.62D-12 2.18D-07.
     18 vectors produced by pass  7 Test12= 1.45D-14 2.38D-09 XBig12= 6.85D-15 1.21D-08.
 InvSVY:  IOpt=1 It=  1 EMax= 1.11D-15
 Solved reduced A of dimension   270 with    36 vectors.
 End of Minotr F.D. properties file   721 does not exist.
 End of Minotr F.D. properties file   722 does not exist.
 End of Minotr F.D. properties file   788 does not exist.

 **********************************************************************

            Population analysis using the SCF Density.

 **********************************************************************

 Alpha  occ. eigenvalues --  -19.64026 -19.64022 -14.97911 -10.56512 -10.52606
 Alpha  occ. eigenvalues --  -10.52604 -10.50304 -10.50304 -10.45012  -1.35568
 Alpha  occ. eigenvalues --   -1.16709  -0.95149  -0.85529  -0.82094  -0.73315
 Alpha  occ. eigenvalues --   -0.66488  -0.64211  -0.61495  -0.60981  -0.58583
 Alpha  occ. eigenvalues --   -0.49142  -0.48542  -0.47881  -0.46784  -0.41589
 Alpha  occ. eigenvalues --   -0.37989  -0.37196  -0.36656  -0.36204  -0.28733
 Alpha  occ. eigenvalues --   -0.27657  -0.17979
 Alpha virt. eigenvalues --   -0.02395   0.03632   0.04100   0.05025   0.05813
 Alpha virt. eigenvalues --    0.07524   0.07974   0.08171   0.08580   0.10166
 Alpha virt. eigenvalues --    0.11275   0.11366   0.11982   0.13232   0.15634
 Alpha virt. eigenvalues --    0.15880   0.16447   0.16624   0.16753   0.17429
 Alpha virt. eigenvalues --    0.17900   0.20450   0.20724   0.21208   0.21502
 Alpha virt. eigenvalues --    0.21744   0.22174   0.23224   0.25292   0.25957
 Alpha virt. eigenvalues --    0.26403   0.26828   0.27267   0.27386   0.27441
 Alpha virt. eigenvalues --    0.27720   0.30151   0.30803   0.31621   0.32517
 Alpha virt. eigenvalues --    0.35932   0.36804   0.37259   0.38088   0.40997
 Alpha virt. eigenvalues --    0.42025   0.42674   0.45110   0.48786   0.49012
 Alpha virt. eigenvalues --    0.54845   0.55920   0.56358   0.57925   0.59483
 Alpha virt. eigenvalues --    0.62381   0.63721   0.64121   0.66407   0.66797
 Alpha virt. eigenvalues --    0.67442   0.68808   0.70456   0.71713   0.73152
 Alpha virt. eigenvalues --    0.75405   0.77100   0.79023   0.80191   0.81933
 Alpha virt. eigenvalues --    0.85190   0.85934   0.89780   0.90613   0.91673
 Alpha virt. eigenvalues --    0.94053   0.95220   0.95980   0.98881   1.01095
 Alpha virt. eigenvalues --    1.03212   1.07553   1.07940   1.09031   1.13904
 Alpha virt. eigenvalues --    1.15954   1.16883   1.17193   1.21413   1.22800
 Alpha virt. eigenvalues --    1.23827   1.25133   1.26432   1.29800   1.33855
 Alpha virt. eigenvalues --    1.36547   1.37535   1.45058   1.54218   1.60575
 Alpha virt. eigenvalues --    1.60580   1.64078   1.64295   1.64912   1.67390
 Alpha virt. eigenvalues --    1.70741   1.74397   1.77798   1.78368   1.80798
 Alpha virt. eigenvalues --    1.83774   1.83786   1.90591   1.91469   1.93340
 Alpha virt. eigenvalues --    1.97444   1.97912   2.00098   2.03797   2.03965
 Alpha virt. eigenvalues --    2.07687   2.08495   2.10738   2.13821   2.14903
 Alpha virt. eigenvalues --    2.24261   2.34519   2.36355   2.42136   2.43844
 Alpha virt. eigenvalues --    2.48801   2.49305   2.53335   2.60785   2.64570
 Alpha virt. eigenvalues --    2.65568   2.74284   2.76242   2.77531   2.80140
 Alpha virt. eigenvalues --    2.80775   2.81335   2.84088   2.85619   2.87327
 Alpha virt. eigenvalues --    2.89886   2.92454   2.96007   2.98570   2.98776
 Alpha virt. eigenvalues --    2.99404   3.01078   3.11634   3.17629   3.21627
 Alpha virt. eigenvalues --    3.29988   3.36446   3.41029   3.47908   3.48543
 Alpha virt. eigenvalues --    3.48910   3.58619   3.62988   3.71211   3.78339
 Alpha virt. eigenvalues --    3.78929   3.88684   3.91403   3.91735   4.07710
 Alpha virt. eigenvalues --    4.22481   4.23572   4.65442   4.82115   4.89126
 Alpha virt. eigenvalues --    5.12176   5.15354   5.24501   5.31464   5.84514
 Alpha virt. eigenvalues --    6.37960  23.65888  24.03606  24.09320  24.21023
 Alpha virt. eigenvalues --   24.21966  24.33493  35.52102  50.03277  50.14876
          Condensed to atoms (all electrons):
               1          2          3          4          5          6
     1  C    9.574092  -1.491199  -0.163721   1.154219  -0.043055  -1.712514
     2  C   -1.491199   8.564995   0.550762  -1.765854   0.047265   0.439937
     3  H   -0.163721   0.550762   0.527343  -0.178334  -0.000530   0.082790
     4  C    1.154219  -1.765854  -0.178334  10.585452   0.265859  -1.425016
     5  H   -0.043055   0.047265  -0.000530   0.265859   0.465243   0.136521
     6  C   -1.712514   0.439937   0.082790  -1.425016   0.136521  10.861365
     7  C    1.153676  -1.937628  -0.034912  -0.826647  -0.049988  -1.422569
     8  H   -0.043077   0.019259   0.000109  -0.049958   0.000061   0.136756
     9  C   -1.490339   1.568597   0.051224  -1.935841   0.019225   0.440168
    10  H   -0.163721   0.051208   0.000447  -0.034885   0.000109   0.082857
    11  N    0.043818  -0.038316  -0.002595   0.128274  -0.030981  -0.601661
    12  O   -0.021020   0.208240   0.000061   0.094403   0.006424  -0.421334
    13  O   -0.021025   0.037767   0.000035  -0.058641  -0.001345  -0.420797
               7          8          9         10         11         12
     1  C    1.153676  -0.043077  -1.490339  -0.163721   0.043818  -0.021020
     2  C   -1.937628   0.019259   1.568597   0.051208  -0.038316   0.208240
     3  H   -0.034912   0.000109   0.051224   0.000447  -0.002595   0.000061
     4  C   -0.826647  -0.049958  -1.935841  -0.034885   0.128274   0.094403
     5  H   -0.049988   0.000061   0.019225   0.000109  -0.030981   0.006424
     6  C   -1.422569   0.136756   0.440168   0.082857  -0.601661  -0.421334
     7  C   10.584512   0.265507  -1.765475  -0.178395   0.127904  -0.058808
     8  H    0.265507   0.465406   0.047349  -0.000534  -0.031017  -0.001348
     9  C   -1.765475   0.047349   8.561906   0.550797  -0.038197   0.037761
    10  H   -0.178395  -0.000534   0.550797   0.527319  -0.002596   0.000035
    11  N    0.127904  -0.031017  -0.038197  -0.002596   6.983520   0.324148
    12  O   -0.058808  -0.001348   0.037761   0.000035   0.324148   7.946471
    13  O    0.094187   0.006451   0.207967   0.000061   0.324376  -0.039529
              13
     1  C   -0.021025
     2  C    0.037767
     3  H    0.000035
     4  C   -0.058641
     5  H   -0.001345
     6  C   -0.420797
     7  C    0.094187
     8  H    0.006451
     9  C    0.207967
    10  H    0.000061
    11  N    0.324376
    12  O   -0.039529
    13  O    7.945954
 Mulliken charges:
               1
     1  C   -0.776133
     2  C   -0.255034
     3  H    0.167322
     4  C    0.046968
     5  H    0.185192
     6  C   -0.176502
     7  C    0.048637
     8  H    0.185036
     9  C   -0.255142
    10  H    0.167297
    11  N   -0.186678
    12  O   -0.075504
    13  O   -0.075460
 Sum of Mulliken charges =  -1.00000
 Mulliken charges with hydrogens summed into heavy atoms:
               1
     1  C   -0.776133
     2  C   -0.087711
     4  C    0.232160
     6  C   -0.176502
     7  C    0.233673
     9  C   -0.087845
    11  N   -0.186678
    12  O   -0.075504
    13  O   -0.075460
 APT charges:
               1
     1  C   -2.337129
     2  C    0.944889
     3  H    0.229844
     4  C   -0.428525
     5  H   -0.693220
     6  C   -0.819680
     7  C   -0.740009
     8  H    1.102324
     9  C    0.179523
    10  H    1.719927
    11  N    0.604785
    12  O   -0.914639
    13  O    0.151910
 Sum of APT charges =  -1.00000
 APT charges with hydrogens summed into heavy atoms:
               1
     1  C   -2.337129
     2  C    1.174732
     4  C   -1.121746
     6  C   -0.819680
     7  C    0.362315
     9  C    1.899451
    11  N    0.604785
    12  O   -0.914639
    13  O    0.151910
 Electronic spatial extent (au):  <R**2>=          21828.2848
 Charge=             -1.0000 electrons
 Dipole moment (field-independent basis, Debye):
    X=            -24.4149    Y=            -34.8778    Z=            -22.5244  Tot=             48.1653
 Quadrupole moment (field-independent basis, Debye-Ang):
   XX=           -211.2882   YY=           -310.2450   ZZ=           -167.5355
   XY=           -167.7626   XZ=           -127.8237   YZ=           -161.0004
 Traceless Quadrupole moment (field-independent basis, Debye-Ang):
   XX=             18.4014   YY=            -80.5554   ZZ=             62.1540
   XY=           -167.7626   XZ=           -127.8237   YZ=           -161.0004
 Octapole moment (field-independent basis, Debye-Ang**2):
  XXX=          -1745.5782  YYY=          -3129.1624  ZZZ=          -1298.9149  XYY=          -1379.4267
  XXY=          -1458.8026  XXZ=          -1083.5047  XZZ=           -917.6095  YZZ=          -1214.4407
  YYZ=          -1388.4530  XYZ=           -881.0515
 Hexadecapole moment (field-independent basis, Debye-Ang**3):
 XXXX=         -13946.5819 YYYY=         -33184.3076 ZZZZ=          -9569.2093 XXXY=         -12101.4895
 XXXZ=          -8897.6435 YYYX=         -12985.7856 YYYZ=         -13506.4426 ZZZX=          -6879.5589
 ZZZY=          -9432.1581 XXYY=         -11212.7470 XXZZ=          -6829.0140 YYZZ=          -9909.6026
 XXYZ=          -7475.6095 YYXZ=          -7081.5991 ZZXY=          -6484.3498
 N-N= 4.030730735700D+02 E-N=-1.836137863101D+03  KE= 4.348225470611D+02
  Exact polarizability:       0.000       0.000       0.000       0.000       0.000       0.000
 Approx polarizability:     146.692       7.428     126.206      13.641     -33.638      95.670
 D2PCM: PCM CHGder 2nd derivatives, FixD1E=F FixD2E=F DoIter=F DoCFld=F I1PDM=0
 Calling FoFJK, ICntrl=    100127 FMM=F ISym2X=0 I1Cent= 0 IOpClX= 0 NMat=1 NMatS=1 NMatT=0.
 -------------------------------------------------------------------
 Center     Atomic                   Forces (Hartrees/Bohr)
 Number     Number              X              Y              Z
 -------------------------------------------------------------------
      1        6           0.077455985   -0.021301587    0.032401538
      2        6          -0.027165471    0.017325914   -0.017487842
      3        1          -0.001921645   -0.002128601    0.000850020
      4        6          -0.004921390   -0.011863152    0.006273355
      5        1          -0.003905363    0.001052846   -0.001606493
      6        6          -0.009321871    0.002537715   -0.003871558
      7        6           0.006537581    0.011494841   -0.005607195
      8        1          -0.003909057    0.001113551   -0.001673817
      9        6          -0.035479291   -0.000186824   -0.008805273
     10        1           0.000343059    0.002572884   -0.001461641
     11        7           0.015288817   -0.004195481    0.006426307
     12        8          -0.007927405   -0.001103397   -0.001180279
     13        8          -0.005073949    0.004681291   -0.004257123
 -------------------------------------------------------------------
 Cartesian Forces:  Max     0.077455985 RMS     0.016932964
 FormGI is forming the generalized inverse of G from B-inverse, IUseBI=4.

 GradGradGradGradGradGradGradGradGradGradGradGradGradGradGradGradGradGrad
 Berny optimization.
 Internal  Forces:  Max     0.051668926 RMS     0.010997761
 Search for a local minimum.
 Step number   1 out of a maximum of   66
 All quantities printed in internal units (Hartrees-Bohrs-Radians)
 Mixed Optimization -- RFO/linear search
 Second derivative matrix not updated -- analytic derivatives used.
 ITU=  0
     Eigenvalues ---    0.00104   0.00982   0.01404   0.01941   0.02056
     Eigenvalues ---    0.02644   0.02965   0.03539   0.03863   0.10680
     Eigenvalues ---    0.10937   0.11713   0.11767   0.12040   0.16564
     Eigenvalues ---    0.19444   0.19729   0.23694   0.24478   0.28950
     Eigenvalues ---    0.35445   0.35586   0.36036   0.36708   0.39873
     Eigenvalues ---    0.40232   0.44375   0.46019   0.47484   0.50924
     Eigenvalues ---    0.53439   0.61900   0.85440
 RFO step:  Lambda=-2.62098993D-02 EMin= 1.03550677D-03
 Linear search not attempted -- first point.
 Maximum step size (   0.300) exceeded in Quadratic search.
    -- Step size scaled by   0.905
 Iteration  1 RMS(Cart)=  0.04070433 RMS(Int)=  0.00259934
 Iteration  2 RMS(Cart)=  0.00373515 RMS(Int)=  0.00085842
 Iteration  3 RMS(Cart)=  0.00000336 RMS(Int)=  0.00085842
 Iteration  4 RMS(Cart)=  0.00000000 RMS(Int)=  0.00085842
 Variable       Old X    -DE/DX   Delta X   Delta X   Delta X     New X
                                 (Linear)    (Quad)   (Total)
    R1        2.59717   0.02775   0.00000   0.06308   0.06430   2.66147
    R2        2.59709   0.02766   0.00000   0.06254   0.06377   2.66087
    R3        2.04732   0.00202   0.00000   0.00717   0.00717   2.05448
    R4        2.63428   0.00734   0.00000  -0.00402  -0.00400   2.63028
    R5        2.04473   0.00229   0.00000   0.00196   0.00196   2.04669
    R6        2.62728  -0.00041   0.00000  -0.00084  -0.00212   2.62516
    R7        2.62727  -0.00033   0.00000  -0.00096  -0.00223   2.62504
    R8        2.78579  -0.00257   0.00000  -0.02225  -0.02225   2.76354
    R9        2.04462   0.00232   0.00000   0.00193   0.00193   2.04655
   R10        2.63429   0.00742   0.00000  -0.00450  -0.00447   2.62982
   R11        2.04732   0.00200   0.00000   0.00718   0.00718   2.05450
   R12        2.29416   0.00656   0.00000   0.00922   0.00922   2.30338
   R13        2.29418   0.00656   0.00000   0.00927   0.00927   2.30345
    A1        2.20304  -0.05167   0.00000  -0.19851  -0.19485   2.00819
    A2        2.13770  -0.01115   0.00000  -0.04836  -0.04888   2.08881
    A3        2.03898   0.02682   0.00000   0.11442   0.11547   2.15445
    A4        2.10651  -0.01567   0.00000  -0.06606  -0.06659   2.03992
    A5        2.11532   0.00317   0.00000   0.00865   0.00941   2.12473
    A6        2.06574   0.00123   0.00000  -0.00013  -0.00164   2.06410
    A7        2.10212  -0.00440   0.00000  -0.00852  -0.00777   2.09435
    A8        2.15388  -0.00439   0.00000  -0.03042  -0.03318   2.12070
    A9        2.06451   0.00215   0.00000   0.01547   0.01685   2.08136
   A10        2.06480   0.00225   0.00000   0.01495   0.01633   2.08113
   A11        2.10239  -0.00442   0.00000  -0.00812  -0.00737   2.09502
   A12        2.06586   0.00120   0.00000  -0.00044  -0.00194   2.06393
   A13        2.11493   0.00322   0.00000   0.00856   0.00931   2.12424
   A14        2.03887   0.02681   0.00000   0.11507   0.11613   2.15500
   A15        2.13786  -0.01115   0.00000  -0.04906  -0.04959   2.08826
   A16        2.10646  -0.01566   0.00000  -0.06601  -0.06654   2.03992
   A17        2.05837   0.00360   0.00000   0.00827   0.00827   2.06664
   A18        2.05882   0.00367   0.00000   0.00833   0.00833   2.06715
   A19        2.16600  -0.00726   0.00000  -0.01660  -0.01660   2.14940
    D1        3.14074  -0.00001   0.00000   0.00104   0.00091  -3.14154
    D2       -0.00027  -0.00002   0.00000   0.00262   0.00255   0.00228
    D3       -0.00092   0.00002   0.00000  -0.00219  -0.00213  -0.00305
    D4        3.14142  -0.00003   0.00000  -0.00205  -0.00195   3.13948
    D5       -3.14132   0.00000   0.00000  -0.00153  -0.00163   3.14024
    D6        0.00095   0.00000   0.00000  -0.00108  -0.00122  -0.00027
    D7        0.00085   0.00000   0.00000   0.00002  -0.00003   0.00082
    D8       -3.14007   0.00000   0.00000   0.00046   0.00037  -3.13970
    D9       -0.00047   0.00001   0.00000  -0.00067  -0.00073  -0.00120
   D10        3.14030   0.00001   0.00000  -0.00093  -0.00093   3.13937
   D11       -3.14139   0.00000   0.00000  -0.00023  -0.00034   3.14145
   D12       -0.00062   0.00001   0.00000  -0.00050  -0.00054  -0.00116
   D13       -3.14148   0.00002   0.00000   0.00077   0.00085  -3.14062
   D14       -0.00074   0.00001   0.00000   0.00119   0.00122   0.00049
   D15        0.00094   0.00001   0.00000   0.00103   0.00105   0.00199
   D16       -3.14151   0.00001   0.00000   0.00145   0.00143  -3.14008
   D17        0.03226  -0.00006   0.00000  -0.00267  -0.00269   0.02957
   D18       -3.10928  -0.00005   0.00000  -0.00232  -0.00235  -3.11162
   D19       -3.11011  -0.00006   0.00000  -0.00294  -0.00291  -3.11302
   D20        0.03154  -0.00005   0.00000  -0.00259  -0.00257   0.02897
   D21        0.00137   0.00000   0.00000   0.00027   0.00040   0.00177
   D22       -3.14096   0.00005   0.00000   0.00014   0.00022  -3.14074
   D23       -3.14108  -0.00001   0.00000   0.00069   0.00077  -3.14032
   D24       -0.00023   0.00004   0.00000   0.00056   0.00059   0.00036
         Item               Value     Threshold  Converged?
 Maximum Force            0.051669     0.000015     NO 
 RMS     Force            0.010998     0.000010     NO 
 Maximum Displacement     0.225904     0.000060     NO 
 RMS     Displacement     0.041019     0.000040     NO 
 Predicted change in Energy=-1.416154D-02
 GradGradGradGradGradGradGradGradGradGradGradGradGradGradGradGradGradGrad

                          Input orientation:                          
 ---------------------------------------------------------------------
 Center     Atomic      Atomic             Coordinates (Angstroms)
 Number     Number       Type             X           Y           Z
 ---------------------------------------------------------------------
      1          6           0        6.275659    6.932383    5.187405
      2          6           0        5.125528    6.147046    5.397185
      3          1           0        5.196527    5.234265    5.983497
      4          6           0        3.871797    6.471281    4.886922
      5          1           0        3.005365    5.846136    5.064444
      6          6           0        3.748768    7.630542    4.131415
      7          6           0        4.838971    8.455214    3.884429
      8          1           0        4.715791    9.353995    3.292922
      9          6           0        6.073174    8.092247    4.415153
     10          1           0        6.910745    8.753977    4.208799
     11          7           0        2.441972    7.990428    3.582423
     12          8           0        1.489673    7.272311    3.833695
     13          8           0        2.357321    8.993665    2.895296
 ---------------------------------------------------------------------
                    Distance matrix (angstroms):
                    1          2          3          4          5
     1  C    0.000000
     2  C    1.408391   0.000000
     3  H    2.163768   1.087186   0.000000
     4  C    2.466061   1.391882   2.118394   0.000000
     5  H    3.448170   2.167107   2.453617   1.083063   0.000000
     6  C    2.826256   2.387133   3.356838   1.389177   2.146461
     7  C    2.465935   2.774560   3.861146   2.424131   3.400270
     8  H    3.447675   3.857503   4.943934   3.400471   4.285899
     9  C    1.408069   2.376180   3.375838   2.774195   3.857208
    10  H    2.163148   3.375700   4.298427   3.860797   4.943649
    11  N    4.288657   3.727316   4.577026   2.460472   2.666793
    12  O    4.985353   4.114627   4.745108   2.724968   2.417858
    13  O    4.985581   4.693150   5.633042   3.552835   3.877126
                    6          7          8          9         10
     6  C    0.000000
     7  C    1.389111   0.000000
     8  H    2.146741   1.082987   0.000000
     9  C    2.386744   1.391643   2.166541   0.000000
    10  H    3.356515   2.118188   2.452891   1.087195   0.000000
    11  N    1.462403   2.460252   2.667092   3.726853   4.576601
    12  O    2.306615   3.552412   3.877329   4.692427   5.632411
    13  O    2.306993   2.725234   2.418745   4.114618   4.745146
                   11         12         13
    11  N    0.000000
    12  O    1.218894   0.000000
    13  O    1.218932   2.143937   0.000000
 Symmetry turned off by external request.
 Stoichiometry    C6H4NO2(1-)
 Framework group  C1[X(C6H4NO2)]
 Deg. of freedom    33
 Full point group                 C1      NOp   1
 Rotational constants (GHZ):           4.0604804           1.3177451           0.9949669
 Standard basis: 6-311+G(d,p) (5D, 7F)
   222 basis functions,   356 primitive gaussians,   231 cartesian basis functions
    32 alpha electrons       32 beta electrons
       nuclear repulsion energy       401.3004356359 Hartrees.
 NAtoms=   13 NActive=   13 NUniq=   13 SFac= 1.00D+00 NAtFMM=   60 NAOKFM=F Big=F
 Integral buffers will be    131072 words long.
 Raffenetti 2 integral format.
 Two-electron integral symmetry is turned off.
 ------------------------------------------------------------------------------
 Polarizable Continuum Model (PCM)
 =================================
 Model                : PCM.
 Atomic radii         : SMD-Coulomb.
 Polarization charges : Total charges.
 Charge compensation  : None.
 Solution method      : Matrix inversion.
 Cavity type          : VdW (van der Waals Surface) (Alpha=1.000).
 Cavity algorithm     : GePol (No added spheres)
                        Default sphere list used, NSphG=   13.
                        Lebedev-Laikov grids with approx.  5.0 points / Ang**2.
                        Smoothing algorithm: York/Karplus (Gamma=1.0000).
                        Polarization charges: spherical gaussians, with
                                              point-specific exponents (IZeta= 3).
                        Self-potential: point-specific (ISelfS= 7).
                        Self-field    : sphere-specific E.n sum rule (ISelfD= 2).
 1st derivatives      : Analytical E(r).r(x)/FMM algorithm (CHGder, D1EAlg=3).
                        Cavity 1st derivative terms included.
 Solvent              : TetraHydroFuran, Eps=   7.425700 Eps(inf)=   1.974025
 ------------------------------------------------------------------------------
 Spheres list:
 ISph  on   Nord     Re0    Alpha      Xe            Ye            Ze
    1   C      1    1.8500  1.000      6.275659      6.932383      5.187405
    2   C      2    1.8500  1.000      5.125528      6.147046      5.397185
    3   H      3    1.2000  1.000      5.196527      5.234265      5.983497
    4   C      4    1.8500  1.000      3.871797      6.471281      4.886922
    5   H      5    1.2000  1.000      3.005365      5.846136      5.064444
    6   C      6    1.8500  1.000      3.748768      7.630542      4.131415
    7   C      7    1.8500  1.000      4.838971      8.455214      3.884429
    8   H      8    1.2000  1.000      4.715791      9.353995      3.292922
    9   C      9    1.8500  1.000      6.073174      8.092247      4.415153
   10   H     10    1.2000  1.000      6.910745      8.753977      4.208799
   11   N     11    1.8900  1.000      2.441972      7.990428      3.582423
   12   O     12    2.2940  1.000      1.489673      7.272311      3.833695
   13   O     13    2.2940  1.000      2.357321      8.993665      2.895296
 ------------------------------------------------------------------------------
 ------------------------------------------------------------------------------
 Atomic radii for non-electrostatic terms: SMD-CDS.
 ------------------------------------------------------------------------------
 Nuclear repulsion after PCM non-electrostatic terms =      401.2974717946 Hartrees.
 One-electron integrals computed using PRISM.
 NBasis=   222 RedAO= T EigKep=  2.94D-06  NBF=   222
 NBsUse=   222 1.00D-06 EigRej= -1.00D+00 NBFU=   222
 Initial guess from the checkpoint file:  "4-no2-ph-anion-opt-freq-thf.chk"
 B after Tr=     0.010844   -0.000667   -0.003041
         Rot=    1.000000   -0.000168    0.000067   -0.000073 Ang=  -0.02 deg.
 ExpMin= 4.38D-02 ExpMax= 8.59D+03 ExpMxC= 1.30D+03 IAcc=3 IRadAn=         5 AccDes= 0.00D+00
 Harris functional with IExCor= 1009 and IRadAn=       5 diagonalized for initial guess.
 HarFok:  IExCor= 1009 AccDes= 0.00D+00 IRadAn=         5 IDoV= 1 UseB2=F ITyADJ=14
 ICtDFT=  3500011 ScaDFX=  1.000000  1.000000  1.000000  1.000000
 FoFCou: FMM=F IPFlag=           0 FMFlag=      100000 FMFlg1=           0
         NFxFlg=           0 DoJE=T BraDBF=F KetDBF=T FulRan=T
         wScrn=  0.000000 ICntrl=       500 IOpCl=  0 I1Cent=   200000004 NGrid=           0
         NMat0=    1 NMatS0=      1 NMatT0=    0 NMatD0=    1 NMtDS0=    0 NMtDT0=    0
 Symmetry not used in FoFCou.
 Requested convergence on RMS density matrix=1.00D-08 within 128 cycles.
 Requested convergence on MAX density matrix=1.00D-06.
 Requested convergence on             energy=1.00D-06.
 Level shift goal  0.100 maximum shift  0.100.
 No special actions if energy rises.
 Dynamic level shift is on during FON iterations.
 Inv3:  Mode=1 IEnd=     5622483.
 Iteration    1 A*A^-1 deviation from unit magnitude is 5.77D-15 for   1357.
 Iteration    1 A*A^-1 deviation from orthogonality  is 2.27D-15 for   1137    835.
 Iteration    1 A^-1*A deviation from unit magnitude is 6.00D-15 for   1357.
 Iteration    1 A^-1*A deviation from orthogonality  is 1.78D-15 for   1360   1358.
 Error on total polarization charges =  0.04138
 SCF Done:  E(RM062X) =  -436.148520918     A.U. after   15 cycles
            NFock= 15  Conv=0.45D-08     -V/T= 2.0034
 SMD-CDS (non-electrostatic) energy       (kcal/mol) =      -1.86
 (included in total energy above)
 D1PCM: PCM CHGder 1st derivatives, ID1Alg=3 FixD1E=F DoIter=F DoCFld=F I1PDM=0.
 Calling FoFJK, ICntrl=      2127 FMM=F ISym2X=0 I1Cent= 0 IOpClX= 0 NMat=1 NMatS=1 NMatT=0.
 -------------------------------------------------------------------
 Center     Atomic                   Forces (Hartrees/Bohr)
 Number     Number              X              Y              Z
 -------------------------------------------------------------------
      1        6           0.014464172   -0.004188091    0.006055003
      2        6          -0.004434318    0.003195283   -0.003083789
      3        1          -0.000687024   -0.001063144    0.000500874
      4        6          -0.001541508   -0.003779199    0.002089480
      5        1          -0.000831454    0.000100947   -0.000251881
      6        6          -0.003410474    0.000951658   -0.001414820
      7        6           0.002097062    0.003662579   -0.001831911
      8        1          -0.000764101    0.000344184   -0.000410896
      9        6          -0.006004922   -0.000175424   -0.001398217
     10        1           0.000371779    0.001191380   -0.000649489
     11        7           0.002810499   -0.000798698    0.001186481
     12        8          -0.001240682   -0.000206077   -0.000193892
     13        8          -0.000829031    0.000764604   -0.000596944
 -------------------------------------------------------------------
 Cartesian Forces:  Max     0.014464172 RMS     0.003266909

 GradGradGradGradGradGradGradGradGradGradGradGradGradGradGradGradGradGrad
 Berny optimization.
 Using GEDIIS/GDIIS optimizer.
 FormGI is forming the generalized inverse of G from B-inverse, IUseBI=4.
 Internal  Forces:  Max     0.008221377 RMS     0.002114339
 Search for a local minimum.
 Step number   2 out of a maximum of   66
 All quantities printed in internal units (Hartrees-Bohrs-Radians)
 Mixed Optimization -- RFO/linear search
 Update second derivatives using D2CorX and points    1    2
 DE= -1.40D-02 DEPred=-1.42D-02 R= 9.89D-01
 TightC=F SS=  1.41D+00  RLast= 3.00D-01 DXNew= 5.0454D-01 8.9967D-01
 Trust test= 9.89D-01 RLast= 3.00D-01 DXMaxT set to 5.05D-01
 ITU=  1  0
 Use linear search instead of GDIIS.
     Eigenvalues ---    0.00104   0.00982   0.01403   0.01940   0.02052
     Eigenvalues ---    0.02642   0.02955   0.03531   0.03860   0.10680
     Eigenvalues ---    0.10945   0.11713   0.11767   0.12045   0.16587
     Eigenvalues ---    0.19444   0.20466   0.23693   0.24513   0.28943
     Eigenvalues ---    0.35444   0.35641   0.36036   0.36681   0.39872
     Eigenvalues ---    0.40262   0.44357   0.46065   0.47313   0.50904
     Eigenvalues ---    0.52355   0.61900   0.85426
 RFO step:  Lambda=-7.67159677D-05 EMin= 1.03550152D-03
 Quartic linear search produced a step of  0.21244.
 Iteration  1 RMS(Cart)=  0.02338967 RMS(Int)=  0.00058474
 Iteration  2 RMS(Cart)=  0.00058820 RMS(Int)=  0.00021200
 Iteration  3 RMS(Cart)=  0.00000028 RMS(Int)=  0.00021200
 Variable       Old X    -DE/DX   Delta X   Delta X   Delta X     New X
                                 (Linear)    (Quad)   (Total)
    R1        2.66147   0.00654   0.01366   0.00279   0.01675   2.67822
    R2        2.66087   0.00672   0.01355   0.00332   0.01716   2.67803
    R3        2.05448   0.00112   0.00152   0.00253   0.00405   2.05854
    R4        2.63028   0.00205  -0.00085   0.00185   0.00101   2.63128
    R5        2.04669   0.00057   0.00042   0.00044   0.00086   2.04755
    R6        2.62516   0.00189  -0.00045   0.00548   0.00472   2.62988
    R7        2.62504   0.00193  -0.00047   0.00560   0.00481   2.62985
    R8        2.76354  -0.00087  -0.00473  -0.00256  -0.00729   2.75625
    R9        2.04655   0.00059   0.00041   0.00050   0.00091   2.04746
   R10        2.62982   0.00217  -0.00095   0.00216   0.00122   2.63104
   R11        2.05450   0.00113   0.00153   0.00253   0.00406   2.05856
   R12        2.30338   0.00104   0.00196   0.00013   0.00209   2.30546
   R13        2.30345   0.00103   0.00197   0.00014   0.00211   2.30556
    A1        2.00819  -0.00822  -0.04139   0.00238  -0.03810   1.97009
    A2        2.08881  -0.00153  -0.01039   0.00391  -0.00660   2.08221
    A3        2.15445   0.00468   0.02453  -0.00065   0.02413   2.17858
    A4        2.03992  -0.00315  -0.01415  -0.00326  -0.01753   2.02239
    A5        2.12473   0.00076   0.00200   0.00132   0.00350   2.12823
    A6        2.06410  -0.00014  -0.00035  -0.00084  -0.00156   2.06254
    A7        2.09435  -0.00062  -0.00165  -0.00047  -0.00194   2.09242
    A8        2.12070  -0.00077  -0.00705   0.00088  -0.00685   2.11385
    A9        2.08136   0.00033   0.00358  -0.00074   0.00318   2.08454
   A10        2.08113   0.00043   0.00347  -0.00014   0.00367   2.08480
   A11        2.09502  -0.00063  -0.00157  -0.00070  -0.00208   2.09294
   A12        2.06393  -0.00018  -0.00041  -0.00086  -0.00164   2.06228
   A13        2.12424   0.00081   0.00198   0.00156   0.00372   2.12796
   A14        2.15500   0.00462   0.02467  -0.00091   0.02401   2.17901
   A15        2.08826  -0.00147  -0.01054   0.00430  -0.00636   2.08190
   A16        2.03992  -0.00315  -0.01414  -0.00339  -0.01765   2.02227
   A17        2.06664   0.00055   0.00176  -0.00004   0.00172   2.06836
   A18        2.06715   0.00058   0.00177   0.00016   0.00193   2.06908
   A19        2.14940  -0.00113  -0.00353  -0.00012  -0.00365   2.14575
    D1       -3.14154   0.00001   0.00019   0.00315   0.00330  -3.13824
    D2        0.00228   0.00001   0.00054   0.00316   0.00370   0.00598
    D3       -0.00305  -0.00001  -0.00045   0.00114   0.00073  -0.00232
    D4        3.13948  -0.00002  -0.00041   0.00093   0.00054   3.14002
    D5        3.14024  -0.00001  -0.00035  -0.00248  -0.00288   3.13736
    D6       -0.00027   0.00000  -0.00026  -0.00457  -0.00488  -0.00516
    D7        0.00082  -0.00001  -0.00001  -0.00248  -0.00251  -0.00169
    D8       -3.13970  -0.00001   0.00008  -0.00456  -0.00451   3.13898
    D9       -0.00120  -0.00002  -0.00015   0.00166   0.00145   0.00025
   D10        3.13937  -0.00001  -0.00020   0.00182   0.00159   3.14096
   D11        3.14145  -0.00001  -0.00007  -0.00039  -0.00051   3.14094
   D12       -0.00116  -0.00001  -0.00011  -0.00023  -0.00037  -0.00153
   D13       -3.14062   0.00001   0.00018   0.00020   0.00040  -3.14023
   D14        0.00049   0.00001   0.00026   0.00234   0.00258   0.00307
   D15        0.00199   0.00001   0.00022   0.00004   0.00026   0.00225
   D16       -3.14008   0.00001   0.00030   0.00218   0.00244  -3.13764
   D17        0.02957  -0.00006  -0.00057  -0.05707  -0.05765  -0.02808
   D18       -3.11162  -0.00007  -0.00050  -0.05767  -0.05817   3.11339
   D19       -3.11302  -0.00006  -0.00062  -0.05691  -0.05752   3.11265
   D20        0.02897  -0.00007  -0.00055  -0.05750  -0.05804  -0.02907
   D21        0.00177   0.00001   0.00008  -0.00382  -0.00371  -0.00195
   D22       -3.14074   0.00002   0.00005  -0.00361  -0.00353   3.13891
   D23       -3.14032   0.00001   0.00016  -0.00165  -0.00149   3.14138
   D24        0.00036   0.00002   0.00013  -0.00143  -0.00130  -0.00094
         Item               Value     Threshold  Converged?
 Maximum Force            0.008221     0.000015     NO 
 RMS     Force            0.002114     0.000010     NO 
 Maximum Displacement     0.093168     0.000060     NO 
 RMS     Displacement     0.023399     0.000040     NO 
 Predicted change in Energy=-4.971340D-04
 GradGradGradGradGradGradGradGradGradGradGradGradGradGradGradGradGradGrad

                          Input orientation:                          
 ---------------------------------------------------------------------
 Center     Atomic      Atomic             Coordinates (Angstroms)
 Number     Number       Type             X           Y           Z
 ---------------------------------------------------------------------
      1          6           0        6.301141    6.924553    5.197037
      2          6           0        5.127643    6.156265    5.400134
      3          1           0        5.183703    5.243748    5.992429
      4          6           0        3.871241    6.473895    4.890835
      5          1           0        3.004537    5.849508    5.072426
      6          6           0        3.744404    7.631883    4.129432
      7          6           0        4.840327    8.452807    3.880945
      8          1           0        4.719251    9.350584    3.286599
      9          6           0        6.072657    8.082494    4.412635
     10          1           0        6.904969    8.750110    4.193066
     11          7           0        2.441002    7.990463    3.581785
     12          8           0        1.498562    7.242698    3.784393
     13          8           0        2.341854    9.024483    2.941869
 ---------------------------------------------------------------------
                    Distance matrix (angstroms):
                    1          2          3          4          5
     1  C    0.000000
     2  C    1.417255   0.000000
     3  H    2.169429   1.089331   0.000000
     4  C    2.490233   1.392415   2.109342   0.000000
     5  H    3.469704   2.170039   2.441744   1.083518   0.000000
     6  C    2.859545   2.388615   3.353435   1.391675   2.147906
     7  C    2.490308   2.768500   3.856726   2.423861   3.401018
     8  H    3.469549   3.851946   4.939973   3.401181   4.288001
     9  C    1.417151   2.361899   3.368155   2.768122   3.851612
    10  H    2.169153   3.368076   4.300586   3.856364   4.939649
    11  N    4.318087   3.726757   4.569251   2.461540   2.668946
    12  O    5.016127   4.118395   4.738300   2.728530   2.422389
    13  O    5.017114   4.693651   5.628142   3.555699   3.880579
                    6          7          8          9         10
     6  C    0.000000
     7  C    1.391657   0.000000
     8  H    2.148168   1.083471   0.000000
     9  C    2.388309   1.392287   2.169727   0.000000
    10  H    3.353156   2.109160   2.441232   1.089341   0.000000
    11  N    1.458545   2.461711   2.669735   3.726621   4.569216
    12  O    2.305281   3.555430   3.881214   4.692791   5.627481
    13  O    2.305816   2.729660   2.424293   4.119392   4.739493
                   11         12         13
    11  N    0.000000
    12  O    1.219998   0.000000
    13  O    1.220049   2.143770   0.000000
 Symmetry turned off by external request.
 Stoichiometry    C6H4NO2(1-)
 Framework group  C1[X(C6H4NO2)]
 Deg. of freedom    33
 Full point group                 C1      NOp   1
 Rotational constants (GHZ):           4.0736064           1.3095908           0.9910900
 Standard basis: 6-311+G(d,p) (5D, 7F)
   222 basis functions,   356 primitive gaussians,   231 cartesian basis functions
    32 alpha electrons       32 beta electrons
       nuclear repulsion energy       400.7376690688 Hartrees.
 NAtoms=   13 NActive=   13 NUniq=   13 SFac= 1.00D+00 NAtFMM=   60 NAOKFM=F Big=F
 Integral buffers will be    131072 words long.
 Raffenetti 2 integral format.
 Two-electron integral symmetry is turned off.
 ------------------------------------------------------------------------------
 Polarizable Continuum Model (PCM)
 =================================
 Model                : PCM.
 Atomic radii         : SMD-Coulomb.
 Polarization charges : Total charges.
 Charge compensation  : None.
 Solution method      : Matrix inversion.
 Cavity type          : VdW (van der Waals Surface) (Alpha=1.000).
 Cavity algorithm     : GePol (No added spheres)
                        Default sphere list used, NSphG=   13.
                        Lebedev-Laikov grids with approx.  5.0 points / Ang**2.
                        Smoothing algorithm: York/Karplus (Gamma=1.0000).
                        Polarization charges: spherical gaussians, with
                                              point-specific exponents (IZeta= 3).
                        Self-potential: point-specific (ISelfS= 7).
                        Self-field    : sphere-specific E.n sum rule (ISelfD= 2).
 1st derivatives      : Analytical E(r).r(x)/FMM algorithm (CHGder, D1EAlg=3).
                        Cavity 1st derivative terms included.
 Solvent              : TetraHydroFuran, Eps=   7.425700 Eps(inf)=   1.974025
 ------------------------------------------------------------------------------
 Spheres list:
 ISph  on   Nord     Re0    Alpha      Xe            Ye            Ze
    1   C      1    1.8500  1.000      6.301141      6.924553      5.197037
    2   C      2    1.8500  1.000      5.127643      6.156265      5.400134
    3   H      3    1.2000  1.000      5.183703      5.243748      5.992429
    4   C      4    1.8500  1.000      3.871241      6.473895      4.890835
    5   H      5    1.2000  1.000      3.004537      5.849508      5.072426
    6   C      6    1.8500  1.000      3.744404      7.631883      4.129432
    7   C      7    1.8500  1.000      4.840327      8.452807      3.880945
    8   H      8    1.2000  1.000      4.719251      9.350584      3.286599
    9   C      9    1.8500  1.000      6.072657      8.082494      4.412635
   10   H     10    1.2000  1.000      6.904969      8.750110      4.193066
   11   N     11    1.8900  1.000      2.441002      7.990463      3.581785
   12   O     12    2.2940  1.000      1.498562      7.242698      3.784393
   13   O     13    2.2940  1.000      2.341854      9.024483      2.941869
 ------------------------------------------------------------------------------
 ------------------------------------------------------------------------------
 Atomic radii for non-electrostatic terms: SMD-CDS.
 ------------------------------------------------------------------------------
 Nuclear repulsion after PCM non-electrostatic terms =      400.7347326408 Hartrees.
 One-electron integrals computed using PRISM.
 NBasis=   222 RedAO= T EigKep=  3.12D-06  NBF=   222
 NBsUse=   222 1.00D-06 EigRej= -1.00D+00 NBFU=   222
 Initial guess from the checkpoint file:  "4-no2-ph-anion-opt-freq-thf.chk"
 B after Tr=     0.076900    0.044512   -0.149118
         Rot=    0.999987   -0.004596    0.001234   -0.001927 Ang=  -0.59 deg.
 ExpMin= 4.38D-02 ExpMax= 8.59D+03 ExpMxC= 1.30D+03 IAcc=3 IRadAn=         5 AccDes= 0.00D+00
 Harris functional with IExCor= 1009 and IRadAn=       5 diagonalized for initial guess.
 HarFok:  IExCor= 1009 AccDes= 0.00D+00 IRadAn=         5 IDoV= 1 UseB2=F ITyADJ=14
 ICtDFT=  3500011 ScaDFX=  1.000000  1.000000  1.000000  1.000000
 FoFCou: FMM=F IPFlag=           0 FMFlag=      100000 FMFlg1=           0
         NFxFlg=           0 DoJE=T BraDBF=F KetDBF=T FulRan=T
         wScrn=  0.000000 ICntrl=       500 IOpCl=  0 I1Cent=   200000004 NGrid=           0
         NMat0=    1 NMatS0=      1 NMatT0=    0 NMatD0=    1 NMtDS0=    0 NMtDT0=    0
 Symmetry not used in FoFCou.
 Requested convergence on RMS density matrix=1.00D-08 within 128 cycles.
 Requested convergence on MAX density matrix=1.00D-06.
 Requested convergence on             energy=1.00D-06.
 Level shift goal  0.100 maximum shift  0.100.
 No special actions if energy rises.
 Dynamic level shift is on during FON iterations.
 Inv3:  Mode=1 IEnd=     5532492.
 Iteration    1 A*A^-1 deviation from unit magnitude is 5.00D-15 for   1351.
 Iteration    1 A*A^-1 deviation from orthogonality  is 1.79D-15 for   1347   1261.
 Iteration    1 A^-1*A deviation from unit magnitude is 5.55D-15 for   1351.
 Iteration    1 A^-1*A deviation from orthogonality  is 1.78D-15 for   1351   1236.
 Error on total polarization charges =  0.04071
 SCF Done:  E(RM062X) =  -436.149021345     A.U. after   15 cycles
            NFock= 15  Conv=0.39D-08     -V/T= 2.0035
 SMD-CDS (non-electrostatic) energy       (kcal/mol) =      -1.84
 (included in total energy above)
 D1PCM: PCM CHGder 1st derivatives, ID1Alg=3 FixD1E=F DoIter=F DoCFld=F I1PDM=0.
 Calling FoFJK, ICntrl=      2127 FMM=F ISym2X=0 I1Cent= 0 IOpClX= 0 NMat=1 NMatS=1 NMatT=0.
 -------------------------------------------------------------------
 Center     Atomic                   Forces (Hartrees/Bohr)
 Number     Number              X              Y              Z
 -------------------------------------------------------------------
      1        6           0.000822011   -0.000163890    0.000443020
      2        6          -0.000324536   -0.000515838    0.000077934
      3        1          -0.000024181   -0.000173233    0.000064765
      4        6          -0.000276344   -0.000248616    0.000086609
      5        1          -0.000079036    0.000003888    0.000031745
      6        6          -0.000214756    0.000062348   -0.000065697
      7        6          -0.000021168    0.000358651   -0.000187028
      8        1          -0.000056076    0.000037859   -0.000076741
      9        6           0.000089920    0.000499072   -0.000367958
     10        1           0.000106287    0.000156641   -0.000093990
     11        7          -0.000011558    0.000021940    0.000063418
     12        8          -0.000058266   -0.000047091    0.000025923
     13        8           0.000047704    0.000008269   -0.000001999
 -------------------------------------------------------------------
 Cartesian Forces:  Max     0.000822011 RMS     0.000234433

 GradGradGradGradGradGradGradGradGradGradGradGradGradGradGradGradGradGrad
 Berny optimization.
 Using GEDIIS/GDIIS optimizer.
 FormGI is forming the generalized inverse of G from B-inverse, IUseBI=4.
 Internal  Forces:  Max     0.000920874 RMS     0.000209605
 Search for a local minimum.
 Step number   3 out of a maximum of   66
 All quantities printed in internal units (Hartrees-Bohrs-Radians)
 Mixed Optimization -- En-DIIS/RFO-DIIS
 Update second derivatives using D2CorX and points    1    2    3
 DE= -5.00D-04 DEPred=-4.97D-04 R= 1.01D+00
 TightC=F SS=  1.41D+00  RLast= 1.33D-01 DXNew= 8.4853D-01 3.9890D-01
 Trust test= 1.01D+00 RLast= 1.33D-01 DXMaxT set to 5.05D-01
 ITU=  1  1  0
 Use linear search instead of GDIIS.
     Eigenvalues ---    0.00104   0.00981   0.01403   0.01940   0.02051
     Eigenvalues ---    0.02641   0.02951   0.03527   0.03858   0.10680
     Eigenvalues ---    0.10960   0.11713   0.11767   0.12033   0.16613
     Eigenvalues ---    0.19442   0.20944   0.23694   0.24530   0.28941
     Eigenvalues ---    0.35444   0.35662   0.36036   0.36641   0.39875
     Eigenvalues ---    0.40126   0.44352   0.46067   0.46812   0.50836
     Eigenvalues ---    0.50931   0.61900   0.85424
 RFO step:  Lambda=-5.60405785D-06 EMin= 1.04400999D-03
 Quartic linear search produced a step of  0.03309.
 Iteration  1 RMS(Cart)=  0.00437764 RMS(Int)=  0.00001904
 Iteration  2 RMS(Cart)=  0.00002007 RMS(Int)=  0.00000132
 Iteration  3 RMS(Cart)=  0.00000000 RMS(Int)=  0.00000132
 Variable       Old X    -DE/DX   Delta X   Delta X   Delta X     New X
                                 (Linear)    (Quad)   (Total)
    R1        2.67822   0.00092   0.00055   0.00146   0.00202   2.68024
    R2        2.67803   0.00092   0.00057   0.00147   0.00204   2.68007
    R3        2.05854   0.00018   0.00013   0.00035   0.00048   2.05902
    R4        2.63128   0.00036   0.00003   0.00065   0.00068   2.63196
    R5        2.04755   0.00007   0.00003   0.00016   0.00019   2.04774
    R6        2.62988   0.00039   0.00016   0.00059   0.00075   2.63063
    R7        2.62985   0.00039   0.00016   0.00064   0.00079   2.63064
    R8        2.75625  -0.00002  -0.00024   0.00009  -0.00015   2.75610
    R9        2.04746   0.00008   0.00003   0.00016   0.00019   2.04765
   R10        2.63104   0.00033   0.00004   0.00055   0.00059   2.63163
   R11        2.05856   0.00019   0.00013   0.00038   0.00051   2.05907
   R12        2.30546   0.00007   0.00007   0.00006   0.00013   2.30559
   R13        2.30556   0.00001   0.00007   0.00000   0.00007   2.30563
    A1        1.97009  -0.00005  -0.00126   0.00082  -0.00044   1.96964
    A2        2.08221   0.00010  -0.00022   0.00040   0.00018   2.08239
    A3        2.17858  -0.00008   0.00080  -0.00071   0.00008   2.17867
    A4        2.02239  -0.00002  -0.00058   0.00032  -0.00026   2.02213
    A5        2.12823   0.00005   0.00012   0.00047   0.00058   2.12881
    A6        2.06254   0.00000  -0.00005  -0.00010  -0.00016   2.06238
    A7        2.09242  -0.00004  -0.00006  -0.00036  -0.00043   2.09199
    A8        2.11385   0.00020  -0.00023   0.00081   0.00058   2.11443
    A9        2.08454  -0.00004   0.00011  -0.00022  -0.00011   2.08442
   A10        2.08480  -0.00016   0.00012  -0.00059  -0.00047   2.08433
   A11        2.09294  -0.00004  -0.00007  -0.00033  -0.00039   2.09254
   A12        2.06228   0.00000  -0.00005  -0.00011  -0.00017   2.06212
   A13        2.12796   0.00004   0.00012   0.00044   0.00056   2.12853
   A14        2.17901  -0.00007   0.00079  -0.00068   0.00012   2.17913
   A15        2.08190   0.00010  -0.00021   0.00036   0.00015   2.08205
   A16        2.02227  -0.00003  -0.00058   0.00032  -0.00026   2.02201
   A17        2.06836   0.00006   0.00006   0.00016   0.00022   2.06857
   A18        2.06908  -0.00010   0.00006  -0.00027  -0.00021   2.06888
   A19        2.14575   0.00004  -0.00012   0.00011  -0.00001   2.14574
    D1       -3.13824  -0.00002   0.00011  -0.00244  -0.00233  -3.14056
    D2        0.00598  -0.00006   0.00012  -0.00379  -0.00367   0.00231
    D3       -0.00232   0.00004   0.00002   0.00058   0.00061  -0.00172
    D4        3.14002   0.00003   0.00002   0.00033   0.00035   3.14037
    D5        3.13736   0.00005  -0.00010   0.00372   0.00362   3.14098
    D6       -0.00516   0.00005  -0.00016   0.00400   0.00384  -0.00132
    D7       -0.00169   0.00001  -0.00008   0.00241   0.00233   0.00064
    D8        3.13898   0.00001  -0.00015   0.00269   0.00254   3.14152
    D9        0.00025   0.00000   0.00005  -0.00079  -0.00075  -0.00049
   D10        3.14096  -0.00001   0.00005  -0.00136  -0.00131   3.13965
   D11        3.14094   0.00000  -0.00002  -0.00052  -0.00054   3.14040
   D12       -0.00153  -0.00001  -0.00001  -0.00109  -0.00110  -0.00264
   D13       -3.14023  -0.00003   0.00001  -0.00178  -0.00177   3.14119
   D14        0.00307  -0.00002   0.00009  -0.00211  -0.00203   0.00104
   D15        0.00225  -0.00001   0.00001  -0.00121  -0.00120   0.00105
   D16       -3.13764  -0.00001   0.00008  -0.00154  -0.00146  -3.13911
   D17       -0.02808  -0.00001  -0.00191   0.01243   0.01052  -0.01756
   D18        3.11339   0.00004  -0.00193   0.01288   0.01095   3.12434
   D19        3.11265  -0.00002  -0.00190   0.01187   0.00996   3.12261
   D20       -0.02907   0.00002  -0.00192   0.01232   0.01040  -0.01867
   D21       -0.00195   0.00000  -0.00012   0.00223   0.00211   0.00016
   D22        3.13891   0.00001  -0.00012   0.00247   0.00236   3.14127
   D23        3.14138   0.00001  -0.00005   0.00189   0.00184  -3.13997
   D24       -0.00094   0.00002  -0.00004   0.00213   0.00209   0.00115
         Item               Value     Threshold  Converged?
 Maximum Force            0.000921     0.000015     NO 
 RMS     Force            0.000210     0.000010     NO 
 Maximum Displacement     0.017121     0.000060     NO 
 RMS     Displacement     0.004378     0.000040     NO 
 Predicted change in Energy=-3.372949D-06
 GradGradGradGradGradGradGradGradGradGradGradGradGradGradGradGradGradGrad

                          Input orientation:                          
 ---------------------------------------------------------------------
 Center     Atomic      Atomic             Coordinates (Angstroms)
 Number     Number       Type             X           Y           Z
 ---------------------------------------------------------------------
      1          6           0        6.301868    6.925021    5.198520
      2          6           0        5.128069    6.154493    5.398819
      3          1           0        5.184395    5.240147    5.988729
      4          6           0        3.871043    6.473147    4.890715
      5          1           0        3.003747    5.849431    5.072396
      6          6           0        3.744335    7.631886    4.129712
      7          6           0        4.840307    8.453347    3.880859
      8          1           0        4.718654    9.350461    3.285452
      9          6           0        6.072671    8.084068    4.414005
     10          1           0        6.904443    8.753297    4.195969
     11          7           0        2.441060    7.990613    3.582076
     12          8           0        1.496039    7.248442    3.793453
     13          8           0        2.344664    9.019138    2.932878
 ---------------------------------------------------------------------
                    Distance matrix (angstroms):
                    1          2          3          4          5
     1  C    0.000000
     2  C    1.418322   0.000000
     3  H    2.170709   1.089585   0.000000
     4  C    2.491555   1.392776   2.109696   0.000000
     5  H    3.471369   2.170796   2.442564   1.083620   0.000000
     6  C    2.860591   2.389151   3.354122   1.392070   2.148086
     7  C    2.491620   2.769790   3.858260   2.424969   3.401925
     8  H    3.471189   3.853329   4.941589   3.402095   4.288506
     9  C    1.418233   2.363343   3.369967   2.769384   3.852970
    10  H    2.170438   3.369887   4.302881   3.857885   4.941254
    11  N    4.319053   3.727185   4.569785   2.461725   2.668770
    12  O    5.017450   4.118927   4.738824   2.728683   2.422006
    13  O    5.017761   4.694081   5.628772   3.555985   3.880590
                    6          7          8          9         10
     6  C    0.000000
     7  C    1.392077   0.000000
     8  H    2.148388   1.083569   0.000000
     9  C    2.388815   1.392599   2.170424   0.000000
    10  H    3.353839   2.109484   2.441990   1.089611   0.000000
    11  N    1.458464   2.461662   2.669196   3.726854   4.569501
    12  O    2.305414   3.555779   3.880953   4.693497   5.628272
    13  O    2.305636   2.728923   2.422790   4.118996   4.738951
                   11         12         13
    11  N    0.000000
    12  O    1.220067   0.000000
    13  O    1.220088   2.143856   0.000000
 Symmetry turned off by external request.
 Stoichiometry    C6H4NO2(1-)
 Framework group  C1[X(C6H4NO2)]
 Deg. of freedom    33
 Full point group                 C1      NOp   1
 Rotational constants (GHZ):           4.0707122           1.3094004           0.9907555
 Standard basis: 6-311+G(d,p) (5D, 7F)
   222 basis functions,   356 primitive gaussians,   231 cartesian basis functions
    32 alpha electrons       32 beta electrons
       nuclear repulsion energy       400.6583878919 Hartrees.
 NAtoms=   13 NActive=   13 NUniq=   13 SFac= 1.00D+00 NAtFMM=   60 NAOKFM=F Big=F
 Integral buffers will be    131072 words long.
 Raffenetti 2 integral format.
 Two-electron integral symmetry is turned off.
 ------------------------------------------------------------------------------
 Polarizable Continuum Model (PCM)
 =================================
 Model                : PCM.
 Atomic radii         : SMD-Coulomb.
 Polarization charges : Total charges.
 Charge compensation  : None.
 Solution method      : Matrix inversion.
 Cavity type          : VdW (van der Waals Surface) (Alpha=1.000).
 Cavity algorithm     : GePol (No added spheres)
                        Default sphere list used, NSphG=   13.
                        Lebedev-Laikov grids with approx.  5.0 points / Ang**2.
                        Smoothing algorithm: York/Karplus (Gamma=1.0000).
                        Polarization charges: spherical gaussians, with
                                              point-specific exponents (IZeta= 3).
                        Self-potential: point-specific (ISelfS= 7).
                        Self-field    : sphere-specific E.n sum rule (ISelfD= 2).
 1st derivatives      : Analytical E(r).r(x)/FMM algorithm (CHGder, D1EAlg=3).
                        Cavity 1st derivative terms included.
 Solvent              : TetraHydroFuran, Eps=   7.425700 Eps(inf)=   1.974025
 ------------------------------------------------------------------------------
 Spheres list:
 ISph  on   Nord     Re0    Alpha      Xe            Ye            Ze
    1   C      1    1.8500  1.000      6.301868      6.925021      5.198520
    2   C      2    1.8500  1.000      5.128069      6.154493      5.398819
    3   H      3    1.2000  1.000      5.184395      5.240147      5.988729
    4   C      4    1.8500  1.000      3.871043      6.473147      4.890715
    5   H      5    1.2000  1.000      3.003747      5.849431      5.072396
    6   C      6    1.8500  1.000      3.744335      7.631886      4.129712
    7   C      7    1.8500  1.000      4.840307      8.453347      3.880859
    8   H      8    1.2000  1.000      4.718654      9.350461      3.285452
    9   C      9    1.8500  1.000      6.072671      8.084068      4.414005
   10   H     10    1.2000  1.000      6.904443      8.753297      4.195969
   11   N     11    1.8900  1.000      2.441060      7.990613      3.582076
   12   O     12    2.2940  1.000      1.496039      7.248442      3.793453
   13   O     13    2.2940  1.000      2.344664      9.019138      2.932878
 ------------------------------------------------------------------------------
 ------------------------------------------------------------------------------
 Atomic radii for non-electrostatic terms: SMD-CDS.
 ------------------------------------------------------------------------------
 Nuclear repulsion after PCM non-electrostatic terms =      400.6554561871 Hartrees.
 One-electron integrals computed using PRISM.
 NBasis=   222 RedAO= T EigKep=  3.12D-06  NBF=   222
 NBsUse=   222 1.00D-06 EigRej= -1.00D+00 NBFU=   222
 Initial guess from the checkpoint file:  "4-no2-ph-anion-opt-freq-thf.chk"
 B after Tr=    -0.013486   -0.008095    0.027968
         Rot=    1.000000    0.000858   -0.000207    0.000363 Ang=   0.11 deg.
 Requested convergence on RMS density matrix=1.00D-08 within 128 cycles.
 Requested convergence on MAX density matrix=1.00D-06.
 Requested convergence on             energy=1.00D-06.
 Level shift goal  0.100 maximum shift  0.100.
 No special actions if energy rises.
 Dynamic level shift is on during FON iterations.
 Inv3:  Mode=1 IEnd=     5548800.
 Iteration    1 A*A^-1 deviation from unit magnitude is 5.33D-15 for   1353.
 Iteration    1 A*A^-1 deviation from orthogonality  is 1.28D-15 for    248     73.
 Iteration    1 A^-1*A deviation from unit magnitude is 5.11D-15 for   1353.
 Iteration    1 A^-1*A deviation from orthogonality  is 1.72D-15 for    703    220.
 Error on total polarization charges =  0.04071
 SCF Done:  E(RM062X) =  -436.149024648     A.U. after   11 cycles
            NFock= 11  Conv=0.93D-08     -V/T= 2.0035
 SMD-CDS (non-electrostatic) energy       (kcal/mol) =      -1.84
 (included in total energy above)
 D1PCM: PCM CHGder 1st derivatives, ID1Alg=3 FixD1E=F DoIter=F DoCFld=F I1PDM=0.
 Calling FoFJK, ICntrl=      2127 FMM=F ISym2X=0 I1Cent= 0 IOpClX= 0 NMat=1 NMatS=1 NMatT=0.
 -------------------------------------------------------------------
 Center     Atomic                   Forces (Hartrees/Bohr)
 Number     Number              X              Y              Z
 -------------------------------------------------------------------
      1        6           0.000067226   -0.000024121    0.000004160
      2        6          -0.000096232   -0.000073928    0.000015324
      3        1           0.000018620    0.000020075    0.000011138
      4        6           0.000035980    0.000015378   -0.000022385
      5        1           0.000025658   -0.000013527   -0.000000725
      6        6           0.000015264   -0.000003311    0.000013837
      7        6          -0.000013563   -0.000027535    0.000022602
      8        1          -0.000006682    0.000004128    0.000018762
      9        6           0.000004810    0.000113974   -0.000087925
     10        1          -0.000002280   -0.000013044   -0.000037379
     11        7          -0.000038043   -0.000004174   -0.000006972
     12        8           0.000007484    0.000009065    0.000041572
     13        8          -0.000018241   -0.000002981    0.000027990
 -------------------------------------------------------------------
 Cartesian Forces:  Max     0.000113974 RMS     0.000036847

 GradGradGradGradGradGradGradGradGradGradGradGradGradGradGradGradGradGrad
 Berny optimization.
 Using GEDIIS/GDIIS optimizer.
 FormGI is forming the generalized inverse of G from B-inverse, IUseBI=4.
 Internal  Forces:  Max     0.000085340 RMS     0.000020896
 Search for a local minimum.
 Step number   4 out of a maximum of   66
 All quantities printed in internal units (Hartrees-Bohrs-Radians)
 Mixed Optimization -- En-DIIS/RFO-DIIS
 Swapping is turned off.
 Update second derivatives using D2CorX and points    1    2    3    4
 DE= -3.30D-06 DEPred=-3.37D-06 R= 9.79D-01
 TightC=F SS=  1.41D+00  RLast= 2.33D-02 DXNew= 8.4853D-01 6.9867D-02
 Trust test= 9.79D-01 RLast= 2.33D-02 DXMaxT set to 5.05D-01
 ITU=  1  1  1  0
     Eigenvalues ---    0.00104   0.01083   0.01402   0.01935   0.02055
     Eigenvalues ---    0.02638   0.02970   0.03518   0.03857   0.10680
     Eigenvalues ---    0.10960   0.11713   0.11788   0.12117   0.16626
     Eigenvalues ---    0.19444   0.20980   0.23694   0.24588   0.28947
     Eigenvalues ---    0.35443   0.35684   0.36044   0.36606   0.38670
     Eigenvalues ---    0.39900   0.43618   0.44415   0.46763   0.50322
     Eigenvalues ---    0.50907   0.61921   0.85438
 En-DIIS/RFO-DIIS/Sim-DIIS IScMMF=       -3 using points:     4    3
 RFO step:  Lambda=-3.61838810D-07.
[...]
 ! R9    R(7,8)                  1.0836         -DE/DX =    0.0                 !
 ! R10   R(7,9)                  1.3926         -DE/DX =    0.0                 !
 ! R11   R(9,10)                 1.0896         -DE/DX =    0.0                 !
 ! R12   R(11,12)                1.2201         -DE/DX =    0.0                 !
 ! R13   R(11,13)                1.2201         -DE/DX =    0.0                 !
 ! A1    A(2,1,9)              112.853          -DE/DX =    0.0                 !
 ! A2    A(1,2,3)              119.3088         -DE/DX =    0.0                 !
 ! A3    A(1,2,4)              124.8238         -DE/DX =    0.0                 !
 ! A4    A(3,2,4)              115.8674         -DE/DX =    0.0                 !
 ! A5    A(2,4,5)              121.9641         -DE/DX =    0.0                 !
 ! A6    A(2,4,6)              118.171          -DE/DX =    0.0                 !
 ! A7    A(5,4,6)              119.8649         -DE/DX =    0.0                 !
 ! A8    A(4,6,7)              121.1471         -DE/DX =    0.0                 !
 ! A9    A(4,6,11)             119.4269         -DE/DX =    0.0                 !
 ! A10   A(7,6,11)             119.4259         -DE/DX =    0.0                 !
 ! A11   A(6,7,8)              119.8946         -DE/DX =    0.0                 !
 ! A12   A(6,7,9)              118.1567         -DE/DX =    0.0                 !
 ! A13   A(8,7,9)              121.9487         -DE/DX =    0.0                 !
 ! A14   A(1,9,7)              124.8482         -DE/DX =    0.0                 !
 ! A15   A(1,9,10)             119.292          -DE/DX =    0.0                 !
 ! A16   A(7,9,10)             115.8598         -DE/DX =    0.0                 !
 ! A17   A(6,11,12)            118.5179         -DE/DX =    0.0                 !
 ! A18   A(6,11,13)            118.5391         -DE/DX =    0.0                 !
 ! A19   A(12,11,13)           122.9431         -DE/DX =    0.0                 !
 ! D1    D(9,1,2,3)           -179.914          -DE/DX =    0.0                 !
 ! D2    D(9,1,2,4)              0.1552         -DE/DX =    0.0                 !
 ! D3    D(2,1,9,7)             -0.0769         -DE/DX =    0.0                 !
 ! D4    D(2,1,9,10)           179.943          -DE/DX =    0.0                 !
 ! D5    D(1,2,4,5)            179.9179         -DE/DX =    0.0                 !
 ! D6    D(1,2,4,6)             -0.1201         -DE/DX =    0.0                 !
 ! D7    D(3,2,4,5)             -0.015          -DE/DX =    0.0                 !
 ! D8    D(3,2,4,6)            179.947          -DE/DX =    0.0                 !
 ! D9    D(2,4,6,7)             -0.0055         -DE/DX =    0.0                 !
 ! D10   D(2,4,6,11)           179.9281         -DE/DX =    0.0                 !
 ! D11   D(5,4,6,7)            179.9573         -DE/DX =    0.0                 !
 ! D12   D(5,4,6,11)            -0.1091         -DE/DX =    0.0                 !
 ! D13   D(4,6,7,8)           -179.9911         -DE/DX =    0.0                 !
 ! D14   D(4,6,7,9)              0.0766         -DE/DX =    0.0                 !
 ! D15   D(11,6,7,8)             0.0752         -DE/DX =    0.0                 !
 ! D16   D(11,6,7,9)          -179.857          -DE/DX =    0.0                 !
 ! D17   D(4,6,11,12)           -0.7851         -DE/DX =    0.0                 !
 ! D18   D(4,6,11,13)          179.2217         -DE/DX =    0.0                 !
 ! D19   D(7,6,11,12)          179.1497         -DE/DX =    0.0                 !
 ! D20   D(7,6,11,13)           -0.8435         -DE/DX =    0.0                 !
 ! D21   D(6,7,9,1)             -0.0321         -DE/DX =    0.0                 !
 ! D22   D(6,7,9,10)           179.9486         -DE/DX =    0.0                 !
 ! D23   D(8,7,9,1)           -179.9629         -DE/DX =    0.0                 !
 ! D24   D(8,7,9,10)             0.0178         -DE/DX =    0.0                 !
 --------------------------------------------------------------------------------
 GradGradGradGradGradGradGradGradGradGradGradGradGradGradGradGradGradGrad


 ----------------------------------------------------------------------

 Electric dipole moment (input orientation):
 (Debye = 10**-18 statcoulomb cm , SI units = C m)
                  (au)            (Debye)         (10**-30 SI)
   Tot        0.189442D+02      0.481514D+02      0.160616D+03
   x         -0.960021D+01     -0.244013D+02     -0.813940D+02
   y         -0.137223D+02     -0.348786D+02     -0.116342D+03
   z         -0.885544D+01     -0.225083D+02     -0.750796D+02

 Dipole polarizability, Alpha (input orientation).
 (esu units = cm**3 , SI units = C**2 m**2 J**-1)
 Alpha(0;0):
               (au)            (10**-24 esu)      (10**-40 SI)
   iso        0.133055D+03      0.197167D+02      0.219378D+02
   aniso      0.986006D+02      0.146111D+02      0.162570D+02
   xx         0.173988D+03      0.257824D+02      0.286868D+02
   yx        -0.302882D+01     -0.448825D+00     -0.499385D+00
   yy         0.124936D+03      0.185135D+02      0.205991D+02
   zx         0.267598D+02      0.396539D+01      0.441209D+01
   zy        -0.332619D+02     -0.492891D+01     -0.548415D+01
   zz         0.100242D+03      0.148543D+02      0.165276D+02

 ----------------------------------------------------------------------

 Dipole orientation:
     6          1.57282730          1.68751975        -20.10630132
     6         -0.08456974          2.34221067        -18.10397995
     1         -0.12993309          4.28653932        -17.42799578
     6         -1.70736748          0.66525669        -16.88696646
     1         -2.93736957          1.26090332        -15.36202035
     6         -1.72458390         -1.84284837        -17.68017009
     6         -0.16680648         -2.66238208        -19.63511252
     1         -0.21154749         -4.62363475        -20.22185934
     6          1.41887980         -0.90202781        -20.78052506
     1          2.60815335         -1.61970494        -22.30045050
     7         -3.40194592         -3.64394241        -16.43962134
     8         -4.73206799         -2.89850119        -14.71024891
     8         -3.41204315         -5.82832168        -17.17737212

 Electric dipole moment (dipole orientation):
 (Debye = 10**-18 statcoulomb cm , SI units = C m)
                  (au)            (Debye)         (10**-30 SI)
   Tot        0.189442D+02      0.481514D+02      0.160616D+03
   x          0.000000D+00      0.000000D+00      0.000000D+00
   y          0.000000D+00      0.000000D+00      0.000000D+00
   z          0.189442D+02      0.481514D+02      0.160616D+03

 Dipole polarizability, Alpha (dipole orientation).
 (esu units = cm**3 , SI units = C**2 m**2 J**-1)
 Alpha(0;0):
               (au)            (10**-24 esu)      (10**-40 SI)
   iso        0.133055D+03      0.197167D+02      0.219378D+02
   aniso      0.986006D+02      0.146111D+02      0.162570D+02
   xx         0.122422D+03      0.181411D+02      0.201847D+02
   yx         0.287791D+02      0.426463D+01      0.474504D+01
   yy         0.156677D+03      0.232171D+02      0.258325D+02
   zx        -0.444778D+02     -0.659093D+01     -0.733340D+01
   zy        -0.378277D+01     -0.560549D+00     -0.623695D+00
   zz         0.120066D+03      0.177920D+02      0.197963D+02

 ----------------------------------------------------------------------
 Unable to Open any file for archive entry.
 1\1\GINC-CN017\Freq\RM062X\6-311+G(d,p)\C6H4N1O2(1-)\UNKNOWN\27-May-20
 25\0\\#N Geom=AllCheck Guess=TCheck SCRF=Check GenChk RM062X/6-311+G(d
 ,p) Freq\\4-no2-ph-anion-opt-freq-thf\\-1,1\C,6.30186739,6.9250489239,
 5.1986159313\C,5.1280038102,6.1543537237,5.3987244367\H,5.1842949817,5
 .240232851,5.9889571128\C,3.8711975163,6.4727851623,4.8900671591\H,3.0
 041220803,5.8485715886,5.0710151973\C,3.7443928664,7.6317884063,4.1295
 1075\C,4.8402397387,8.4535511294,3.8812111855\H,4.7184410006,9.3511472
 426,3.2865803402\C,6.0726830412,8.0842331596,4.4140772927\H,6.90447800
 61,8.7534002614,4.1960338238\N,2.4410215894,7.990625175,3.5820798857\O
 ,1.4952448611,7.2503801231,3.7967270939\O,2.345306118,9.0173732531,2.9
 299847909\\Version=AS64L-G16RevC.01\HF=-436.1490248\RMSD=7.158e-09\RMS
 F=1.103e-05\ZeroPoint=0.0899376\Thermal=0.0967676\ETot=-436.0522572\HT
 ot=-436.051313\GTot=-436.0913387\Dipole=-2.1800884,0.6036533,-0.909472
 9\DipoleDeriv=-0.097214,-0.0902152,0.2286598,-0.0895232,-0.555109,-0.1
 75021,0.2293441,-0.1769991,-0.6303808,-0.6697867,0.0536679,-0.1575954,
 0.0440612,0.1820378,-0.2055767,-0.1544801,-0.1998241,-0.076409,0.06532
 ,-0.0177751,-0.0003803,-0.0447234,-0.1368906,0.1464287,0.0184757,0.151
 6262,0.0232343,0.1690331,-0.1104666,0.1179743,-0.4652627,0.0630063,-0.
 172218,0.3345057,-0.0841694,0.1057021,-0.001066,-0.0875563,0.0143382,-
 0.0552164,0.0938406,0.0343293,-0.0065984,0.024859,0.1514508,-1.1174664
 ,0.3144517,-0.4656291,0.3128633,-0.0901213,0.1166813,-0.4640438,0.1158
 851,-0.2117035,0.52777,-0.143649,0.2257263,0.2122711,-0.1438641,0.1225
 608,0.0076878,0.0357747,-0.0531393,0.1086316,0.0427162,-0.0418119,0.00
 83125,0.0327296,0.087893,-0.0216556,0.0960118,0.103296,-0.2590366,0.40
 11783,-0.2778166,0.413135,-0.0451811,0.0269524,-0.2815202,0.0249391,-0
 .2476922,-0.057775,-0.1545564,0.0554517,-0.1294929,-0.0682056,0.082736
 9,0.0383663,0.076086,0.0756248,2.9284509,0.0071444,0.662304,0.0068277,
 1.8096522,-0.9330692,0.6639268,-0.936408,1.011803,-1.7381714,-0.464064
 7,-0.0737913,-0.5436336,-0.8196019,0.1701156,-0.024047,0.1925597,-0.43
 68405,-0.8586894,0.249125,-0.2874297,0.3303813,-1.3222929,0.6981869,-0
 .3399612,0.679659,-0.8149457\Polar=173.9880908,-3.028818,124.9356104,2
 6.7597533,-33.2619005,100.2415708\Quadrupole=13.4579738,-60.0611143,46
 .6031404,-124.6193286,-95.1914501,-119.5139009\PG=C01 [X(C6H4N1O2)]\NI
 mag=0\\0.36413625,0.07904975,0.37502654,0.02159632,-0.17687782,0.17719
 049,-0.22279398,-0.07906436,0.00836105,0.58093447,-0.09414004,-0.14449
 890,0.03752229,0.03076935,0.53615208,0.01789384,0.04124091,-0.06785299
 ,0.08807874,-0.24528805,0.30934027,0.00134659,-0.02153455,0.01441121,-
 0.05429254,0.01285419,-0.01168132,0.06117898,-0.00213673,-0.01212835,0
 .00579682,0.01736595,-0.23670987,0.12839839,-0.01157029,0.25114340,0.0
 0218248,0.00106316,-0.00219598,-0.01451398,0.12728321,-0.12381221,0.01
 589535,-0.14465749,0.12146238,-0.04972676,-0.03721241,0.00670369,-0.28
 798708,0.07058502,-0.09857816,-0.00188821,-0.00122632,-0.00083077,0.69
 489513,0.00346788,0.04785052,-0.01755224,0.00154311,-0.12366508,0.0374
 0020,0.02560246,-0.00468918,0.01213995,0.09771692,0.54947017,-0.018808
 79,-0.02749346,0.03126519,-0.05530874,0.05429839,-0.11260502,-0.017722
 74,0.00554834,-0.00327280,0.07560740,-0.23928266,0.30196614,-0.0035762
 1,0.00113766,-0.00291053,-0.01382627,-0.01723394,0.00582723,0.00093787
 ,0.00062297,0.00091762,-0.23683131,-0.13720309,0.03798223,0.24968581,0
 .00108329,0.00171617,0.00261383,0.00736256,0.00990919,-0.00024766,0.00
 008263,-0.00073419,-0.00228116,-0.13391309,-0.15072054,0.03774258,0.14
 646329,0.15160120,-0.00291662,0.00262447,0.00310129,-0.00959775,-0.006
 29585,0.00825216,0.00125129,-0.00215104,-0.00272706,0.03584287,0.03701
 694,-0.05335384,-0.03726165,-0.04355125,0.04387692,-0.00529909,-0.0232
 4718,0.01448883,0.00307731,0.02420355,-0.01530637,-0.00360639,0.001344
 76,-0.00368844,-0.10214799,0.01312727,-0.02035789,0.00544046,-0.021146
 87,0.01371861,0.56901665,-0.02327710,-0.04614685,0.02038938,0.07761923
 ,0.00095173,0.02048287,-0.00063441,0.00374241,0.00253441,-0.03659363,-
 0.25455674,0.11865567,0.00202789,-0.00956926,0.00901609,0.11801394,0.5
 7870063,0.01448444,0.02023703,-0.01402247,-0.04883738,0.00746722,-0.01
 342186,-0.00246329,0.00304506,0.00554346,0.01088784,0.13075868,-0.1325
 4234,-0.00096264,0.00341391,0.00174521,0.03838194,-0.26434593,0.287317
 47,0.02294556,0.06755041,-0.04148579,-0.05810045,-0.00528118,-0.009241
 32,-0.00141341,-0.00054796,0.00040769,0.03306465,-0.04903285,0.0377563
 7,0.00177933,0.00169757,-0.00211340,-0.21590952,-0.08761377,0.01478500
 ,0.64076630,0.02694734,0.00686022,0.01385066,-0.01626760,-0.00498769,-
 0.00512120,-0.00037009,-0.00015228,-0.00097191,-0.01223245,-0.03333214
 ,0.02106800,0.00091270,-0.00163808,0.00509227,-0.13728631,-0.18985475,
 0.05316245,0.04965549,0.58061156,-0.01582383,0.02393354,-0.00032663,-0
 .00233005,-0.00246043,-0.00587094,0.00026205,-0.00100849,-0.00082995,0
 .01460034,0.01211449,0.00095210,-0.00163697,0.00528567,0.00237189,0.04
 613292,0.06521814,-0.08142460,0.09306520,-0.27026162,0.32405395,-0.004
 03063,0.00069162,-0.00273833,-0.00125330,-0.00013245,-0.00017184,0.000
 16648,0.00024263,0.00028049,-0.00386180,-0.00329091,-0.00037542,0.0003
 3907,-0.00117712,0.00056620,0.00729594,-0.01944478,0.01305259,-0.05889
 529,0.02315470,-0.01953331,0.05709677,0.00074668,0.00198654,0.00236545
 ,0.00030895,0.00050454,-0.00038066,0.00020567,-0.00047357,-0.00066082,
 -0.00406101,0.00155368,0.00186129,0.00022122,-0.00018499,0.00084543,0.
 00364389,-0.01060698,0.01011545,0.01990979,-0.25168729,0.13886747,-0.0
 2395998,0.26078910,-0.00277571,0.00238168,0.00329064,-0.00046891,-0.00
 048366,-0.00003695,0.00030270,-0.00065392,-0.00112011,0.00012388,0.002
 03789,0.00485152,-0.00032195,0.00050483,0.00067914,-0.00157145,0.00447
 595,0.00085999,-0.01752569,0.13970614,-0.13078964,0.02286128,-0.153940
 48,0.12762573,-0.10668674,0.00870581,-0.01865224,0.03620723,-0.0232621
 6,0.02430232,-0.00200149,-0.00400486,-0.00041452,-0.02102966,0.0274596
 9,-0.02077300,-0.00039463,0.00061886,-0.00043789,-0.06541724,-0.036362
 22,0.00602135,-0.28591799,0.07315917,-0.09959260,0.00369526,-0.0017657
 5,0.00041993,0.65164302,0.02384021,-0.21035942,0.10748678,-0.03499074,
 -0.03245236,0.00978181,-0.00547591,0.00087895,0.00437605,0.01646862,-0
 .02584229,0.01602967,0.00106520,0.00002635,0.00011863,0.01698128,0.039
 63608,-0.01861295,0.00424163,-0.12512861,0.03907062,0.02285496,-0.0000
 1085,0.00975642,0.09200751,0.49692136,-0.02823912,0.10368755,-0.120514
 34,0.03173256,0.01274977,-0.00346020,0.00053945,0.00474285,0.00708283,
 -0.01384675,0.01871549,-0.02199434,-0.00072296,-0.00000549,-0.00040975
 ,-0.02755850,-0.03182618,0.01659726,-0.05615918,0.05600089,-0.11362747
 ,-0.01510150,0.00375508,0.00061803,0.06672257,-0.20468957,0.28044902,0
 .00796673,0.00373427,0.00010949,0.00249162,-0.00003544,-0.00179828,0.0
 0008470,0.00016403,-0.00006608,0.00018350,0.00084982,-0.00011975,-0.00
 003126,0.00006718,0.00034090,-0.00238493,0.00242631,-0.00405883,-0.022
 12702,-0.01905663,0.00549191,0.00095139,0.00063537,0.00090870,-0.21466
 284,-0.12416392,0.03553001,0.22922628,-0.01573881,-0.01593369,0.004863
 87,-0.00152023,-0.00168069,0.00694015,-0.00099690,-0.00071914,0.000162
 10,0.00104100,-0.00106326,-0.00004706,0.00003229,-0.00036050,-0.000772
 96,0.00045157,0.00305955,0.00323915,0.00775703,0.00668751,0.00056754,0
 .00009974,-0.00074312,-0.00226933,-0.12859937,-0.14630367,0.03514849,0
 .13667344,0.15654492,0.01231731,0.00964949,-0.00512146,-0.00087201,0.0
 0728266,0.00513230,0.00066021,0.00044034,-0.00019267,-0.00021886,-0.00
 011269,-0.00152036,0.00036587,-0.00076278,-0.00103233,-0.00283013,0.00
 373860,0.00500577,-0.01137892,-0.00596859,0.00556676,0.00123426,-0.002
 13959,-0.00274144,0.03834110,0.03621853,-0.05384733,-0.03654599,-0.048
 17488,0.04817388,-0.00555245,0.00057329,0.00011029,0.02435992,0.001203
 09,0.00241001,0.00030499,-0.00118195,0.00040958,-0.02118917,0.03291719
 ,-0.02350750,-0.00179874,-0.00306237,0.00251957,-0.11898326,-0.0047715
 1,-0.00972652,-0.05698076,0.00142072,-0.01271856,0.00044142,0.00148917
 ,0.00039929,0.01020076,-0.01846124,0.01119864,-0.00019141,0.00092913,-
 0.00098001,0.70820154,0.00047888,-0.00540155,-0.00105004,-0.00589803,-
 0.00441883,0.00845095,0.00132506,0.00032000,0.00106544,0.03297603,-0.0
 0579109,0.00598679,-0.00055170,-0.00319242,-0.00100176,-0.00462288,-0.
 10450005,0.02231927,0.00122012,0.01427376,-0.01443906,-0.00105890,-0.0
 0443561,-0.00036156,-0.01115310,0.00352879,0.00216219,-0.00158173,0.00
 058544,0.00018874,0.14121891,0.75792125,0.00009650,-0.00108535,-0.0066
 1860,0.00700116,0.01024761,0.00664578,-0.00113438,0.00045528,0.0009345
 9,-0.02382999,0.00598001,-0.01891425,0.00102033,-0.00168354,-0.0032983
 9,-0.00977747,0.02247575,-0.08339244,-0.01235055,-0.01452240,-0.003245
 76,0.00185341,0.00021868,-0.00424327,0.00676155,0.00039860,0.01275329,
 0.00058696,0.00080547,0.00114990,0.03284461,-0.28685470,0.41599689,0.0
 0064725,-0.00198234,0.00110795,-0.00525031,-0.00133375,-0.00006068,-0.
 00009623,0.00048912,-0.00030471,0.00097906,-0.00748621,0.00431692,-0.0
 0224855,0.00145836,-0.00169930,-0.06842142,-0.02978703,-0.00318942,0.0
 0533541,0.00872857,-0.00541914,0.00109639,-0.00002444,0.00016679,-0.00
 660595,0.00365663,-0.00343445,-0.00120894,0.00007185,-0.00016129,-0.39
 734208,-0.19108898,0.03667799,0.45282924,0.00165683,0.00049287,0.00075
 351,-0.00356959,0.00049348,-0.00205781,-0.00001054,0.00006231,-0.00007
 444,0.00628112,-0.00715956,0.00755132,0.00299796,0.00202220,-0.0002294
 2,-0.02085688,0.01339287,-0.00317318,0.00300501,0.00246550,0.00228717,
 0.00098236,0.00081070,-0.00014352,-0.00093878,0.00215418,-0.00249774,-
 0.00001043,-0.00025755,-0.00028203,-0.19160754,-0.25160145,0.05824963,
 0.27082458,0.32431061,-0.00112720,-0.00011369,0.00089444,0.00120550,-0
 .00154358,-0.00014753,0.00000364,0.00004168,-0.00009509,-0.00412178,0.
 00403077,-0.00119859,-0.00267319,-0.00061651,0.00015737,-0.00871373,-0
 .00544900,0.01803103,-0.00174950,0.00378900,0.00205467,-0.00038840,-0.
 00033978,0.00038188,-0.00072110,-0.00139224,-0.00082283,-0.00013302,-0
 .00025908,-0.00056946,0.03699728,0.05833872,-0.10420241,-0.05893015,-0
 .11326267,0.08229369,0.00062348,0.00159804,-0.00110194,-0.00356663,0.0
 0180375,-0.00167416,-0.00072133,0.00043865,-0.00027469,-0.00446035,-0.
 00567131,0.00131090,0.00052442,0.00046572,-0.00021281,-0.00266052,0.03
 839707,-0.02837507,-0.00454680,0.00123439,-0.00249794,-0.00304169,0.00
 265044,-0.00251887,0.00097028,0.00197577,-0.00066078,-0.00029781,-0.00
 020074,0.00006846,-0.14147075,0.03873632,-0.03975012,0.02028612,-0.068
 75409,0.04035165,0.13836159,-0.00197818,0.00053591,-0.00016247,0.00634
 139,0.00040242,0.00040010,0.00052266,-0.00054049,0.00002149,0.00017019
 ,0.00794552,-0.00191888,-0.00049244,0.00112486,-0.00071155,0.02939387,
 -0.02424866,0.03237384,-0.01256130,-0.00411771,0.00082497,0.00103812,0
 .00249787,-0.00101044,0.00413520,-0.00304850,0.00205666,0.00029775,0.0
 0018418,-0.00007778,0.03933309,-0.39728824,0.20531495,-0.05352635,-0.0
 8718617,0.05677640,-0.01267399,0.50373899,0.00112038,0.00075249,0.0009
 1044,-0.00445018,-0.00077958,-0.00216281,-0.00032417,0.00000218,-0.000
 77738,-0.00233972,-0.00324682,0.00636659,0.00037661,-0.00041243,0.0006
 3738,-0.02291829,0.03463426,-0.01029648,0.00599009,0.00417630,0.001115
 64,-0.00153944,-0.00056752,0.00062448,-0.00197746,0.00145765,-0.002824
 17,-0.00024600,-0.00020344,-0.00000357,-0.03995668,0.20519503,-0.21356
 531,0.03092949,0.05287919,0.00322284,0.03533538,-0.29388730,0.21675235
 \\-0.00000893,-0.00000106,0.00002072,-0.00001167,-0.00000017,0.0000090
 8,-0.00001830,0.00000015,0.00001003,-0.00000611,0.00000062,-0.00000411
 ,-0.00000842,0.00000128,-0.00001269,0.00000261,0.00000030,-0.00000586,
 0.00000566,-0.00000069,0.00000497,0.00001249,-0.00000082,0.00000331,-0
 .00000002,-0.00000117,0.00001780,0.00000268,-0.00000199,0.00002611,0.0
 0000841,0.00000097,-0.00001952,0.00000571,0.00000181,-0.00002887,0.000
 01589,0.00000076,-0.00002096\\\@
 The archive entry for this job was punched.


 EXPERIENCE IS A WONDERFUL THING.  IT ENABLES
 YOU TO RECOGNIZE A MISTAKE WHEN YOU MAKE IT AGAIN.
           - BACK OF A SUGAR PACKET
 Job cpu time:       0 days  0 hours 27 minutes 59.8 seconds.
 Elapsed time:       0 days  0 hours  0 minutes 55.5 seconds.
 File lengths (MBytes):  RWF=    104 Int=      0 D2E=      0 Chk=     12 Scr=      1
 Normal termination of Gaussian 16 at Tue May 27 08:09:21 2025.
