/home/tahminaafroz
cn013.cluster.local
tahminaafroz
Mon Apr 21 11:28:51 CDT 2025
 Entering Gaussian System, Link 0=g16
 Initial command:
 /home/apps/g16/l1.exe "/tmp/4-f-phboh2-opt-freq-thf/Gau-2284614.inp" -scrdir="/tmp/4-f-phboh2-opt-freq-thf/"
 Entering Link 1 = /home/apps/g16/l1.exe PID=   2284615.
  
 Copyright (c) 1988-2019, Gaussian, Inc.  All Rights Reserved.
  
 This is part of the Gaussian(R) 16 program.  It is based on
 the Gaussian(R) 09 system (copyright 2009, Gaussian, Inc.),
 the Gaussian(R) 03 system (copyright 2003, Gaussian, Inc.),
 the Gaussian(R) 98 system (copyright 1998, Gaussian, Inc.),
 the Gaussian(R) 94 system (copyright 1995, Gaussian, Inc.),
 the Gaussian 92(TM) system (copyright 1992, Gaussian, Inc.),
 the Gaussian 90(TM) system (copyright 1990, Gaussian, Inc.),
 the Gaussian 88(TM) system (copyright 1988, Gaussian, Inc.),
 the Gaussian 86(TM) system (copyright 1986, Carnegie Mellon
 University), and the Gaussian 82(TM) system (copyright 1983,
 Carnegie Mellon University). Gaussian is a federally registered
 trademark of Gaussian, Inc.
  
 This software contains proprietary and confidential information,
 including trade secrets, belonging to Gaussian, Inc.
  
 This software is provided under written license and may be
 used, copied, transmitted, or stored only in accord with that
 written license.
  
 The following legend is applicable only to US Government
 contracts under FAR:
  
                    RESTRICTED RIGHTS LEGEND
  
 Use, reproduction and disclosure by the US Government is
 subject to restrictions as set forth in subparagraphs (a)
 and (c) of the Commercial Computer Software - Restricted
 Rights clause in FAR 52.227-19.
  
 Gaussian, Inc.
 340 Quinnipiac St., Bldg. 40, Wallingford CT 06492
  
  
 ---------------------------------------------------------------
 Warning -- This program may not be used in any manner that
 competes with the business of Gaussian, Inc. or will provide
 assistance to any competitor of Gaussian, Inc.  The licensee
 of this program is prohibited from giving any competitor of
 Gaussian, Inc. access to this program.  By using this program,
 the user acknowledges that Gaussian, Inc. is engaged in the
 business of creating and licensing software in the field of
 computational chemistry and represents and warrants to the
 licensee that it is not a competitor of Gaussian, Inc. and that
 it will not use this program in any manner prohibited above.
 ---------------------------------------------------------------
  

 Cite this work as:
 Gaussian 16, Revision C.01,
 M. J. Frisch, G. W. Trucks, H. B. Schlegel, G. E. Scuseria, 
 M. A. Robb, J. R. Cheeseman, G. Scalmani, V. Barone, 
 G. A. Petersson, H. Nakatsuji, X. Li, M. Caricato, A. V. Marenich, 
 J. Bloino, B. G. Janesko, R. Gomperts, B. Mennucci, H. P. Hratchian, 
 J. V. Ortiz, A. F. Izmaylov, J. L. Sonnenberg, D. Williams-Young, 
 F. Ding, F. Lipparini, F. Egidi, J. Goings, B. Peng, A. Petrone, 
 T. Henderson, D. Ranasinghe, V. G. Zakrzewski, J. Gao, N. Rega, 
 G. Zheng, W. Liang, M. Hada, M. Ehara, K. Toyota, R. Fukuda, 
 J. Hasegawa, M. Ishida, T. Nakajima, Y. Honda, O. Kitao, H. Nakai, 
 T. Vreven, K. Throssell, J. A. Montgomery, Jr., J. E. Peralta, 
 F. Ogliaro, M. J. Bearpark, J. J. Heyd, E. N. Brothers, K. N. Kudin, 
 V. N. Staroverov, T. A. Keith, R. Kobayashi, J. Normand, 
 K. Raghavachari, A. P. Rendell, J. C. Burant, S. S. Iyengar, 
 J. Tomasi, M. Cossi, J. M. Millam, M. Klene, C. Adamo, R. Cammi, 
 J. W. Ochterski, R. L. Martin, K. Morokuma, O. Farkas, 
 J. B. Foresman, and D. J. Fox, Gaussian, Inc., Wallingford CT, 2019.
 
 ******************************************
 Gaussian 16:  AS64L-G16RevC.01  3-Jul-2019
                21-Apr-2025 
 ******************************************
 %mem=20GB
 %nprocshared=32
 Will use up to   32 processors via shared memory.
 %chk=4-f-phboh2-opt-freq-thf.chk
 ----------------------------------------------------------------------
 # opt=(calcfc,tight) freq 6-311+g(d,p) scrf=(smd,solvent=thf) nosymm s
 cf=(qc,fermi,xqc) geom=connectivity int=ultrafine m062x
 ----------------------------------------------------------------------
 1/7=10,10=4,18=20,19=15,26=6,38=1,57=2/1,3;
 2/9=110,12=2,15=1,17=6,18=5,40=1/2;
 3/5=4,6=6,7=111,11=2,25=1,30=1,70=32201,71=2,72=20,74=-55,75=-5,140=1/1,2,3;
 4//1;
 5/5=2,22=13,38=5,53=20/2;
 8/6=4,10=90,11=11/1;
 11/6=1,8=1,9=11,15=111,16=1,31=1/1,2,10;
 10/6=1,13=1,31=1/2;
 6/7=2,8=2,9=2,10=2,28=1/1;
 7/10=1,25=1,30=1/1,2,3,16;
 1/7=10,10=4,18=20,19=15,26=6/3(2);
 2/9=110,15=1/2;
 99//99;
 2/9=110,15=1/2;
 3/5=4,6=6,7=111,11=2,25=1,30=1,70=32205,71=1,72=20,74=-55,75=-5/1,2,3;
 4/5=5,16=3,69=1/1;
 5/5=2,22=13,38=5,53=20/2;
 7/30=1/1,2,3,16;
 1/7=10,18=20,19=15,26=6/3(-5);
 2/9=110,15=1/2;
 6/7=2,8=2,9=2,10=2,19=2,28=1/1;
 99/9=1/99;
 -------------------
 4-f-phboh2-opt-freq
 -------------------
 Symbolic Z-matrix:
 Charge =  0 Multiplicity = 1
 O                     8.68599   7.45661   5.54092 
 H                     9.49809   7.14844   5.95307 
 C                     6.24361   6.99432   5.17375 
 B                     7.63948   6.61526   5.77239 
 O                     7.87945   5.49263   6.51747 
 H                     7.11048   4.9435    6.67648 
 C                     5.11887   6.17056   5.2892 
 H                     5.1814    5.21613   5.80447 
 C                     3.88986   6.53206   4.75088 
 H                     3.01386   5.90164   4.83387 
 C                     3.80073   7.74279   4.0868 
 C                     4.88289   8.59363   3.94217 
 H                     4.75886   9.52932   3.41189 
 C                     6.09975   8.20786   4.48858 
 H                     6.9623    8.85636   4.38674 
 F                     2.61869   8.10413   3.56264 
 

 GradGradGradGradGradGradGradGradGradGradGradGradGradGradGradGradGradGrad
 Berny optimization.
 Initialization pass.
                           ----------------------------
                           !    Initial Parameters    !
                           ! (Angstroms and Degrees)  !
 --------------------------                            --------------------------
 ! Name  Definition              Value          Derivative Info.                !
 --------------------------------------------------------------------------------
 ! R1    R(1,2)                  0.9614         calculate D2E/DX2 analytically  !
 ! R2    R(1,4)                  1.3626         calculate D2E/DX2 analytically  !
 ! R3    R(3,4)                  1.5654         calculate D2E/DX2 analytically  !
 ! R4    R(3,7)                  1.3989         calculate D2E/DX2 analytically  !
 ! R5    R(3,14)                 1.401          calculate D2E/DX2 analytically  !
 ! R6    R(4,5)                  1.3686         calculate D2E/DX2 analytically  !
 ! R7    R(5,6)                  0.9582         calculate D2E/DX2 analytically  !
 ! R8    R(7,8)                  1.0864         calculate D2E/DX2 analytically  !
 ! R9    R(7,9)                  1.3896         calculate D2E/DX2 analytically  !
 ! R10   R(9,10)                 1.0824         calculate D2E/DX2 analytically  !
 ! R11   R(9,11)                 1.3838         calculate D2E/DX2 analytically  !
 ! R12   R(11,12)                1.3842         calculate D2E/DX2 analytically  !
 ! R13   R(11,16)                1.3426         calculate D2E/DX2 analytically  !
 ! R14   R(12,13)                1.0826         calculate D2E/DX2 analytically  !
 ! R15   R(12,14)                1.3886         calculate D2E/DX2 analytically  !
 ! R16   R(14,15)                1.0839         calculate D2E/DX2 analytically  !
 ! A1    A(2,1,4)              112.2103         calculate D2E/DX2 analytically  !
 ! A2    A(4,3,7)              122.8737         calculate D2E/DX2 analytically  !
 ! A3    A(4,3,14)             119.2307         calculate D2E/DX2 analytically  !
 ! A4    A(7,3,14)             117.8955         calculate D2E/DX2 analytically  !
 ! A5    A(1,4,3)              118.0587         calculate D2E/DX2 analytically  !
 ! A6    A(1,4,5)              117.6658         calculate D2E/DX2 analytically  !
 ! A7    A(3,4,5)              124.2754         calculate D2E/DX2 analytically  !
 ! A8    A(4,5,6)              114.8172         calculate D2E/DX2 analytically  !
 ! A9    A(3,7,8)              120.6756         calculate D2E/DX2 analytically  !
 ! A10   A(3,7,9)              121.7318         calculate D2E/DX2 analytically  !
 ! A11   A(8,7,9)              117.592          calculate D2E/DX2 analytically  !
 ! A12   A(7,9,10)             122.3133         calculate D2E/DX2 analytically  !
 ! A13   A(7,9,11)             118.0672         calculate D2E/DX2 analytically  !
 ! A14   A(10,9,11)            119.6194         calculate D2E/DX2 analytically  !
 ! A15   A(9,11,12)            122.5211         calculate D2E/DX2 analytically  !
 ! A16   A(9,11,16)            118.6566         calculate D2E/DX2 analytically  !
 ! A17   A(12,11,16)           118.8223         calculate D2E/DX2 analytically  !
 ! A18   A(11,12,13)           119.5294         calculate D2E/DX2 analytically  !
 ! A19   A(11,12,14)           118.2453         calculate D2E/DX2 analytically  !
 ! A20   A(13,12,14)           122.2253         calculate D2E/DX2 analytically  !
 ! A21   A(3,14,12)            121.5386         calculate D2E/DX2 analytically  !
 ! A22   A(3,14,15)            118.8464         calculate D2E/DX2 analytically  !
 ! A23   A(12,14,15)           119.615          calculate D2E/DX2 analytically  !
 ! D1    D(2,1,4,3)            179.4141         calculate D2E/DX2 analytically  !
 ! D2    D(2,1,4,5)             -0.467          calculate D2E/DX2 analytically  !
 ! D3    D(7,3,4,1)            176.551          calculate D2E/DX2 analytically  !
 ! D4    D(7,3,4,5)             -3.5764         calculate D2E/DX2 analytically  !
 ! D5    D(14,3,4,1)            -3.3813         calculate D2E/DX2 analytically  !
 ! D6    D(14,3,4,5)           176.4914         calculate D2E/DX2 analytically  !
 ! D7    D(4,3,7,8)             -0.4124         calculate D2E/DX2 analytically  !
 ! D8    D(4,3,7,9)            179.8567         calculate D2E/DX2 analytically  !
 ! D9    D(14,3,7,8)           179.5207         calculate D2E/DX2 analytically  !
 ! D10   D(14,3,7,9)            -0.2102         calculate D2E/DX2 analytically  !
 ! D11   D(4,3,14,12)         -179.7998         calculate D2E/DX2 analytically  !
 ! D12   D(4,3,14,15)            0.1631         calculate D2E/DX2 analytically  !
 ! D13   D(7,3,14,12)            0.2646         calculate D2E/DX2 analytically  !
 ! D14   D(7,3,14,15)         -179.7725         calculate D2E/DX2 analytically  !
 ! D15   D(1,4,5,6)            178.3057         calculate D2E/DX2 analytically  !
 ! D16   D(3,4,5,6)             -1.5674         calculate D2E/DX2 analytically  !
 ! D17   D(3,7,9,10)           179.9437         calculate D2E/DX2 analytically  !
 ! D18   D(3,7,9,11)             0.0471         calculate D2E/DX2 analytically  !
 ! D19   D(8,7,9,10)             0.2048         calculate D2E/DX2 analytically  !
 ! D20   D(8,7,9,11)          -179.6917         calculate D2E/DX2 analytically  !
 ! D21   D(7,9,11,12)            0.0719         calculate D2E/DX2 analytically  !
 ! D22   D(7,9,11,16)         -179.9669         calculate D2E/DX2 analytically  !
 ! D23   D(10,9,11,12)        -179.8275         calculate D2E/DX2 analytically  !
 ! D24   D(10,9,11,16)           0.1337         calculate D2E/DX2 analytically  !
 ! D25   D(9,11,12,13)         179.9193         calculate D2E/DX2 analytically  !
 ! D26   D(9,11,12,14)          -0.0195         calculate D2E/DX2 analytically  !
 ! D27   D(16,11,12,13)         -0.0418         calculate D2E/DX2 analytically  !
 ! D28   D(16,11,12,14)       -179.9806         calculate D2E/DX2 analytically  !
 ! D29   D(11,12,14,3)          -0.1538         calculate D2E/DX2 analytically  !
 ! D30   D(11,12,14,15)        179.8836         calculate D2E/DX2 analytically  !
 ! D31   D(13,12,14,3)         179.9091         calculate D2E/DX2 analytically  !
 ! D32   D(13,12,14,15)         -0.0534         calculate D2E/DX2 analytically  !
 --------------------------------------------------------------------------------
 Trust Radius=3.00D-01 FncErr=5.00D-06 GrdErr=5.00D-06 EigMax=2.50D+02 EigMin=1.00D-04
 Number of steps in this run=     81 maximum allowed number of steps=    100.
 GradGradGradGradGradGradGradGradGradGradGradGradGradGradGradGradGradGrad

                          Input orientation:                          
 ---------------------------------------------------------------------
 Center     Atomic      Atomic             Coordinates (Angstroms)
 Number     Number       Type             X           Y           Z
 ---------------------------------------------------------------------
      1          8           0        8.685989    7.456609    5.540917
      2          1           0        9.498093    7.148444    5.953071
      3          6           0        6.243614    6.994317    5.173753
      4          5           0        7.639479    6.615265    5.772389
      5          8           0        7.879450    5.492628    6.517465
      6          1           0        7.110482    4.943503    6.676481
      7          6           0        5.118873    6.170561    5.289201
      8          1           0        5.181397    5.216127    5.804473
      9          6           0        3.889861    6.532061    4.750875
     10          1           0        3.013860    5.901642    4.833865
     11          6           0        3.800725    7.742786    4.086801
     12          6           0        4.882894    8.593630    3.942172
     13          1           0        4.758859    9.529324    3.411891
     14          6           0        6.099751    8.207863    4.488579
     15          1           0        6.962295    8.856361    4.386741
     16          9           0        2.618689    8.104127    3.562637
 ---------------------------------------------------------------------
                    Distance matrix (angstroms):
                    1          2          3          4          5
     1  O    0.000000
     2  H    0.961431   0.000000
     3  C    2.512711   3.350034   0.000000
     4  B    1.362579   1.942002   1.565402   0.000000
     5  O    2.336958   2.383332   2.595494   1.368590   0.000000
     6  H    3.176071   3.329530   2.686166   1.972817   0.958194
     7  C    3.800210   4.535917   1.398908   2.604743   3.096613
     8  H    4.167900   4.731786   2.165196   2.828566   2.804336
     9  C    4.947909   5.768663   2.435705   3.887165   4.485318
    10  H    5.923757   6.697195   3.426481   4.773514   5.164859
    11  C    5.105111   6.024633   2.776577   4.341491   5.254268
    12  C    4.279291   5.237589   2.434369   3.855176   5.022718
    13  H    4.924556   5.881031   3.425626   4.728812   5.973072
    14  C    2.891440   3.849134   1.401019   2.560332   3.828343
    15  H    2.502509   3.435206   2.145483   2.720498   4.086057
    16  F    6.414437   7.345319   4.119157   5.684017   6.574689
                    6          7          8          9         10
     6  H    0.000000
     7  C    2.719692   0.000000
     8  H    2.134500   1.086443   0.000000
     9  C    4.074785   1.389585   2.123633   0.000000
    10  H    4.592992   2.170421   2.471887   1.082448   0.000000
    11  C    5.049447   2.378060   3.352709   1.383761   2.137071
    12  C    5.075630   2.782344   3.868436   2.426970   3.396352
    13  H    6.100609   3.864608   4.950420   3.395824   4.269322
    14  C    4.057652   2.398691   3.394913   2.785808   3.867894
    15  H    4.536003   3.380260   4.293351   3.869731   4.951810
    16  F    6.313618   3.601475   4.464733   2.345033   2.573542
                   11         12         13         14         15
    11  C    0.000000
    12  C    1.384176   0.000000
    13  H    2.136643   1.082638   0.000000
    14  C    2.379757   1.388567   2.168757   0.000000
    15  H    3.365344   2.142563   2.501668   1.083929   0.000000
    16  F    1.342581   2.347399   2.575702   3.603599   4.484631
                   16
    16  F    0.000000
 Symmetry turned off by external request.
 Stoichiometry    C6H6BFO2
 Framework group  C1[X(C6H6BFO2)]
 Deg. of freedom    42
 Full point group                 C1      NOp   1
 Rotational constants (GHZ):           3.6893609           0.7259788           0.6067893
 Standard basis: 6-311+G(d,p) (5D, 7F)
   256 basis functions,   408 primitive gaussians,   266 cartesian basis functions
    36 alpha electrons       36 beta electrons
       nuclear repulsion energy       475.0556688650 Hartrees.
 NAtoms=   16 NActive=   16 NUniq=   16 SFac= 1.00D+00 NAtFMM=   60 NAOKFM=F Big=F
 Integral buffers will be    131072 words long.
 Raffenetti 2 integral format.
 Two-electron integral symmetry is turned off.
 Force inversion solution in PCM.
 ------------------------------------------------------------------------------
 Polarizable Continuum Model (PCM)
 =================================
 Model                : PCM.
 Atomic radii         : SMD-Coulomb.
 Polarization charges : Total charges.
 Charge compensation  : None.
 Solution method      : Matrix inversion.
 Cavity type          : VdW (van der Waals Surface) (Alpha=1.000).
 Cavity algorithm     : GePol (No added spheres)
                        Default sphere list used, NSphG=   16.
                        Lebedev-Laikov grids with approx.  5.0 points / Ang**2.
                        Smoothing algorithm: York/Karplus (Gamma=1.0000).
                        Polarization charges: spherical gaussians, with
                                              point-specific exponents (IZeta= 3).
                        Self-potential: point-specific (ISelfS= 7).
                        Self-field    : sphere-specific E.n sum rule (ISelfD= 2).
 1st derivatives      : Analytical E(r).r(x)/FMM algorithm (CHGder, D1EAlg=3).
                        Cavity 1st derivative terms included.
 2nd derivatives      : Analytical E(r).r(xy)/FMM algorithm (CHGder, D2EAlg=3).
                        Cavity 2nd derivative terms included.
 Solvent              : TetraHydroFuran, Eps=   7.425700 Eps(inf)=   1.974025
 ------------------------------------------------------------------------------
 Spheres list:
 ISph  on   Nord     Re0    Alpha      Xe            Ye            Ze
    1   O      1    2.2940  1.000      8.685989      7.456609      5.540917
    2   H      2    1.2000  1.000      9.498093      7.148444      5.953071
    3   C      3    1.8500  1.000      6.243614      6.994317      5.173753
    4   B      4    1.8000  1.000      7.639479      6.615265      5.772389
    5   O      5    2.2940  1.000      7.879450      5.492628      6.517465
    6   H      6    1.2000  1.000      7.110482      4.943503      6.676481
    7   C      7    1.8500  1.000      5.118873      6.170561      5.289201
    8   H      8    1.2000  1.000      5.181397      5.216127      5.804473
    9   C      9    1.8500  1.000      3.889861      6.532061      4.750875
   10   H     10    1.2000  1.000      3.013860      5.901642      4.833865
   11   C     11    1.8500  1.000      3.800725      7.742786      4.086801
   12   C     12    1.8500  1.000      4.882894      8.593630      3.942172
   13   H     13    1.2000  1.000      4.758859      9.529324      3.411891
   14   C     14    1.8500  1.000      6.099751      8.207863      4.488579
   15   H     15    1.2000  1.000      6.962295      8.856361      4.386741
   16   F     16    1.7300  1.000      2.618689      8.104127      3.562637
 ------------------------------------------------------------------------------
 ------------------------------------------------------------------------------
 Atomic radii for non-electrostatic terms: SMD-CDS.
 ------------------------------------------------------------------------------
 Nuclear repulsion after PCM non-electrostatic terms =      475.0526762552 Hartrees.
 One-electron integrals computed using PRISM.
 NBasis=   256 RedAO= T EigKep=  2.49D-06  NBF=   256
 NBsUse=   256 1.00D-06 EigRej= -1.00D+00 NBFU=   256
 ExpMin= 3.15D-02 ExpMax= 1.14D+04 ExpMxC= 1.72D+03 IAcc=3 IRadAn=         5 AccDes= 0.00D+00
 Harris functional with IExCor= 1009 and IRadAn=       5 diagonalized for initial guess.
 HarFok:  IExCor= 1009 AccDes= 0.00D+00 IRadAn=         5 IDoV= 1 UseB2=F ITyADJ=14
 ICtDFT=  3500011 ScaDFX=  1.000000  1.000000  1.000000  1.000000
 FoFCou: FMM=F IPFlag=           0 FMFlag=      100000 FMFlg1=           0
         NFxFlg=           0 DoJE=T BraDBF=F KetDBF=T FulRan=T
         wScrn=  0.000000 ICntrl=       500 IOpCl=  0 I1Cent=   200000004 NGrid=           0
         NMat0=    1 NMatS0=      1 NMatT0=    0 NMatD0=    1 NMtDS0=    0 NMtDT0=    0
 Symmetry not used in FoFCou.
 Requested convergence on RMS density matrix=1.00D-08 within 128 cycles.
 Requested convergence on MAX density matrix=1.00D-06.
 Requested convergence on             energy=1.00D-06.
 Level shift goal  0.100 maximum shift  0.100.
 No special actions if energy rises.
 Dynamic level shift is on during FON iterations.
 Inv3:  Mode=1 IEnd=     6500352.
 Iteration    1 A*A^-1 deviation from unit magnitude is 6.88D-15 for   1469.
 Iteration    1 A*A^-1 deviation from orthogonality  is 1.49D-15 for    439     24.
 Iteration    1 A^-1*A deviation from unit magnitude is 6.66D-15 for   1469.
 Iteration    1 A^-1*A deviation from orthogonality  is 1.12D-15 for    612    497.
 Error on total polarization charges =  0.02142
 SCF Done:  E(RM062X) =  -507.480169047     A.U. after   13 cycles
            NFock= 13  Conv=0.96D-08     -V/T= 2.0033
 SMD-CDS (non-electrostatic) energy       (kcal/mol) =      -1.88
 (included in total energy above)
 DoSCS=F DFT=T ScalE2(SS,OS)=  1.000000  1.000000
 Range of M.O.s used for correlation:     1   256
 NBasis=   256 NAE=    36 NBE=    36 NFC=     0 NFV=     0
 NROrb=    256 NOA=    36 NOB=    36 NVA=   220 NVB=   220

 **** Warning!!: The largest alpha MO coefficient is  0.13439841D+03

 Symmetrizing basis deriv contribution to polar:
 IMax=3 JMax=2 DiffMx= 0.00D+00
 G2DrvN: will do    17 centers at a time, making    1 passes.
 Calling FoFCou, ICntrl=  3107 FMM=F I1Cent=   0 AccDes= 0.00D+00.
 NEqPCM:  Using equilibrium solvation (IEInf=0, Eps=   7.4257, EpsInf=   1.9740)
 G2PCM: DoFxE=T DoFxN=T DoGrad=T DoDP/DQ/DG/TGxP=FFFF NFrqRd=   0 IEInf=0 SqF1=F DoCFld=F IF1Alg=4.
 End of G2Drv F.D. properties file   721 does not exist.
 End of G2Drv F.D. properties file   722 does not exist.
 End of G2Drv F.D. properties file   788 does not exist.
          IDoAtm=1111111111111111
 NEqPCM:  Using equilibrium solvation (IEInf=0, Eps=   7.4257, EpsInf=   1.9740)
          Differentiating once with respect to nuclear coordinates.
 Keep R1 ints in memory in canonical form, NReq=576114704.
          There are    51 degrees of freedom in the 1st order CPHF.  IDoFFX=6 NUNeed=     0.
     45 vectors produced by pass  0 Test12= 1.55D-14 1.96D-09 XBig12= 1.35D-01 1.21D-01.
 AX will form    45 AO Fock derivatives at one time.
     45 vectors produced by pass  1 Test12= 1.55D-14 1.96D-09 XBig12= 8.97D-03 3.11D-02.
     45 vectors produced by pass  2 Test12= 1.55D-14 1.96D-09 XBig12= 2.60D-04 2.50D-03.
     45 vectors produced by pass  3 Test12= 1.55D-14 1.96D-09 XBig12= 1.66D-06 2.07D-04.
     45 vectors produced by pass  4 Test12= 1.55D-14 1.96D-09 XBig12= 1.35D-08 1.61D-05.
     45 vectors produced by pass  5 Test12= 1.55D-14 1.96D-09 XBig12= 7.31D-11 9.76D-07.
     41 vectors produced by pass  6 Test12= 1.55D-14 1.96D-09 XBig12= 3.27D-13 7.02D-08.
      9 vectors produced by pass  7 Test12= 1.55D-14 1.96D-09 XBig12= 1.27D-15 3.85D-09.
 InvSVY:  IOpt=1 It=  1 EMax= 4.44D-16
 Solved reduced A of dimension   320 with    51 vectors.
 End of Minotr F.D. properties file   721 does not exist.
 End of Minotr F.D. properties file   722 does not exist.
 End of Minotr F.D. properties file   788 does not exist.

 **********************************************************************

            Population analysis using the SCF Density.

 **********************************************************************

 Alpha  occ. eigenvalues --  -25.26141 -19.63660 -19.63138 -10.63636 -10.55896
 Alpha  occ. eigenvalues --  -10.55429 -10.55242 -10.55119 -10.53336  -7.08490
 Alpha  occ. eigenvalues --   -1.38324  -1.16820  -1.13140  -0.97446  -0.85986
 Alpha  occ. eigenvalues --   -0.85228  -0.71707  -0.71077  -0.65494  -0.63745
 Alpha  occ. eigenvalues --   -0.62554  -0.58198  -0.57723  -0.55945  -0.52000
 Alpha  occ. eigenvalues --   -0.50157  -0.49072  -0.48128  -0.47615  -0.45737
 Alpha  occ. eigenvalues --   -0.43867  -0.40780  -0.40567  -0.39537  -0.32206
 Alpha  occ. eigenvalues --   -0.31024
 Alpha virt. eigenvalues --   -0.00194   0.00061   0.00790   0.02091   0.02308
 Alpha virt. eigenvalues --    0.03114   0.04089   0.04586   0.05244   0.07682
 Alpha virt. eigenvalues --    0.07926   0.08173   0.09376   0.10816   0.11480
 Alpha virt. eigenvalues --    0.12157   0.12653   0.13783   0.14132   0.14524
 Alpha virt. eigenvalues --    0.15176   0.15250   0.16909   0.17586   0.17692
 Alpha virt. eigenvalues --    0.17905   0.18520   0.19420   0.19996   0.20720
 Alpha virt. eigenvalues --    0.22677   0.23188   0.23488   0.24068   0.24456
 Alpha virt. eigenvalues --    0.24703   0.25161   0.25252   0.25663   0.26636
 Alpha virt. eigenvalues --    0.27543   0.28718   0.30014   0.31218   0.32353
 Alpha virt. eigenvalues --    0.33082   0.33261   0.34898   0.36928   0.37708
 Alpha virt. eigenvalues --    0.39417   0.40853   0.41028   0.44413   0.44941
 Alpha virt. eigenvalues --    0.45253   0.48336   0.49280   0.49926   0.51157
 Alpha virt. eigenvalues --    0.53588   0.54790   0.56444   0.56771   0.58781
 Alpha virt. eigenvalues --    0.59624   0.61393   0.62792   0.63900   0.64319
 Alpha virt. eigenvalues --    0.64779   0.67016   0.68363   0.70191   0.70683
 Alpha virt. eigenvalues --    0.71744   0.72793   0.73372   0.77837   0.78159
 Alpha virt. eigenvalues --    0.80909   0.83864   0.85904   0.87529   0.89763
 Alpha virt. eigenvalues --    0.90034   0.90478   0.91686   0.92599   0.95181
 Alpha virt. eigenvalues --    0.98076   1.00433   1.02500   1.04544   1.06533
 Alpha virt. eigenvalues --    1.07821   1.08299   1.08415   1.11141   1.12893
 Alpha virt. eigenvalues --    1.13152   1.13392   1.20043   1.20189   1.23780
 Alpha virt. eigenvalues --    1.26140   1.31054   1.33517   1.35446   1.38732
 Alpha virt. eigenvalues --    1.45102   1.45995   1.48117   1.49514   1.50116
 Alpha virt. eigenvalues --    1.51200   1.53446   1.53633   1.58177   1.60012
 Alpha virt. eigenvalues --    1.60751   1.61283   1.65306   1.66831   1.68885
 Alpha virt. eigenvalues --    1.70545   1.70933   1.76625   1.78287   1.80096
 Alpha virt. eigenvalues --    1.80618   1.84887   1.86800   1.91437   1.95483
 Alpha virt. eigenvalues --    1.96205   1.97076   1.99062   2.00278   2.01670
 Alpha virt. eigenvalues --    2.01974   2.08116   2.10800   2.10945   2.12938
 Alpha virt. eigenvalues --    2.15347   2.16805   2.21817   2.28340   2.33234
 Alpha virt. eigenvalues --    2.35912   2.43125   2.43928   2.48345   2.57336
 Alpha virt. eigenvalues --    2.58837   2.61552   2.63907   2.65914   2.68557
 Alpha virt. eigenvalues --    2.70871   2.73302   2.75583   2.78467   2.78844
 Alpha virt. eigenvalues --    2.79287   2.80889   2.83454   2.84343   2.94273
 Alpha virt. eigenvalues --    2.94913   2.98575   3.07335   3.11282   3.13669
 Alpha virt. eigenvalues --    3.19482   3.24241   3.26730   3.26869   3.31482
 Alpha virt. eigenvalues --    3.39801   3.42109   3.48598   3.54091   3.55548
 Alpha virt. eigenvalues --    3.61113   3.63683   3.66579   3.73917   3.87764
 Alpha virt. eigenvalues --    3.91688   3.94427   3.95614   4.03713   4.07901
 Alpha virt. eigenvalues --    4.11180   4.18465   4.21617   4.22613   4.85191
 Alpha virt. eigenvalues --    4.93974   5.08300   5.09240   5.39255   5.49752
 Alpha virt. eigenvalues --    5.69112   5.76917   6.45579   6.58373   6.87837
 Alpha virt. eigenvalues --   14.79777  23.64733  24.00153  24.03564  24.13633
 Alpha virt. eigenvalues --   24.18238  24.26263  50.00122  50.05647  66.93090
          Condensed to atoms (all electrons):
               1          2          3          4          5          6
     1  O    7.805657   0.280925   0.020994   0.437257  -0.116876   0.016975
     2  H    0.280925   0.417738   0.042007  -0.006666  -0.031602   0.002888
     3  C    0.020994   0.042007   8.229050   0.246452  -0.154464  -0.000662
     4  B    0.437257  -0.006666   0.246452   3.325677   0.378641   0.012710
     5  O   -0.116876  -0.031602  -0.154464   0.378641   7.986063   0.275266
     6  H    0.016975   0.002888  -0.000662   0.012710   0.275266   0.394530
     7  C    0.072050  -0.002062  -0.775696   0.089070  -0.034840  -0.024205
     8  H    0.001789  -0.000022   0.008431   0.009298  -0.003721   0.008386
     9  C    0.041212   0.003954  -0.334007   0.071203  -0.001633   0.043679
    10  H   -0.000027  -0.000001   0.005818   0.000173   0.000249  -0.000034
    11  C   -0.009252  -0.000856  -0.696832   0.000215   0.001141  -0.000441
    12  C   -0.001633  -0.013959  -0.523973   0.011341   0.038641  -0.007665
    13  H    0.000303   0.000000   0.015068   0.000430  -0.000011   0.000002
    14  C   -0.142832  -0.022975   0.221080  -0.068645   0.070733  -0.003915
    15  H    0.004518  -0.000347   0.028703  -0.009052   0.001834  -0.000060
    16  F    0.000016   0.000000  -0.021343  -0.001057  -0.000007  -0.000002
               7          8          9         10         11         12
     1  O    0.072050   0.001789   0.041212  -0.000027  -0.009252  -0.001633
     2  H   -0.002062  -0.000022   0.003954  -0.000001  -0.000856  -0.013959
     3  C   -0.775696   0.008431  -0.334007   0.005818  -0.696832  -0.523973
     4  B    0.089070   0.009298   0.071203   0.000173   0.000215   0.011341
     5  O   -0.034840  -0.003721  -0.001633   0.000249   0.001141   0.038641
     6  H   -0.024205   0.008386   0.043679  -0.000034  -0.000441  -0.007665
     7  C    9.192042   0.362965  -0.854123   0.051936   0.076438  -0.022429
     8  H    0.362965   0.477237  -0.004483  -0.004754  -0.008857  -0.005344
     9  C   -0.854123  -0.004483   8.526300   0.369013  -0.122340  -1.206446
    10  H    0.051936  -0.004754   0.369013   0.445298  -0.029884  -0.033686
    11  C    0.076438  -0.008857  -0.122340  -0.029884   6.655643  -0.058235
    12  C   -0.022429  -0.005344  -1.206446  -0.033686  -0.058235   8.335163
    13  H   -0.000683   0.000049  -0.034263  -0.000018  -0.041835   0.364512
    14  C   -1.780589  -0.019764  -0.474722  -0.000055   0.001545  -0.849839
    15  H   -0.016206  -0.000076   0.001829   0.000038  -0.005624  -0.013343
    16  F   -0.005088  -0.000432  -0.244037  -0.005614   0.504075  -0.239709
              13         14         15         16
     1  O    0.000303  -0.142832   0.004518   0.000016
     2  H    0.000000  -0.022975  -0.000347   0.000000
     3  C    0.015068   0.221080   0.028703  -0.021343
     4  B    0.000430  -0.068645  -0.009052  -0.001057
     5  O   -0.000011   0.070733   0.001834  -0.000007
     6  H    0.000002  -0.003915  -0.000060  -0.000002
     7  C   -0.000683  -1.780589  -0.016206  -0.005088
     8  H    0.000049  -0.019764  -0.000076  -0.000432
     9  C   -0.034263  -0.474722   0.001829  -0.244037
    10  H   -0.000018  -0.000055   0.000038  -0.005614
    11  C   -0.041835   0.001545  -0.005624   0.504075
    12  C    0.364512  -0.849839  -0.013343  -0.239709
    13  H    0.445080   0.059508  -0.004645  -0.005593
    14  C    0.059508   9.069811   0.356948   0.010453
    15  H   -0.004645   0.356948   0.450878  -0.000389
    16  F   -0.005593   0.010453  -0.000389   9.207269
 Mulliken charges:
               1
     1  O   -0.411075
     2  H    0.330976
     3  C   -0.310626
     4  B    0.502951
     5  O   -0.409415
     6  H    0.282548
     7  C   -0.328582
     8  H    0.179300
     9  C    0.218863
    10  H    0.201548
    11  C   -0.264900
    12  C    0.226604
    13  H    0.202094
    14  C   -0.426742
    15  H    0.204994
    16  F   -0.198542
 Sum of Mulliken charges =   0.00000
 Mulliken charges with hydrogens summed into heavy atoms:
               1
     1  O   -0.080098
     3  C   -0.310626
     4  B    0.502951
     5  O   -0.126867
     7  C   -0.149281
     9  C    0.420411
    11  C   -0.264900
    12  C    0.428699
    14  C   -0.221748
    16  F   -0.198542
 APT charges:
               1
     1  O   -0.564380
     2  H    2.059744
     3  C   -1.477209
     4  B   -0.315625
     5  O    1.268182
     6  H   -1.190143
     7  C   -0.389428
     8  H   -0.159884
     9  C   -0.010026
    10  H   -0.821846
    11  C   -0.246427
    12  C   -0.905032
    13  H    1.233786
    14  C   -0.178317
    15  H    1.911484
    16  F   -0.214877
 Sum of APT charges =   0.00000
 APT charges with hydrogens summed into heavy atoms:
               1
     1  O    1.495364
     3  C   -1.477209
     4  B   -0.315625
     5  O    0.078039
     7  C   -0.549313
     9  C   -0.831873
    11  C   -0.246427
    12  C    0.328753
    14  C    1.733167
    16  F   -0.214877
 Electronic spatial extent (au):  <R**2>=          29544.9559
 Charge=              0.0000 electrons
 Dipole moment (field-independent basis, Debye):
    X=              0.5285    Y=             -1.7510    Z=              1.2580  Tot=              2.2199
 Quadrupole moment (field-independent basis, Debye-Ang):
   XX=            -53.4815   YY=            -76.3651   ZZ=            -46.0435
   XY=             -2.1718   XZ=              8.0156   YZ=             -3.3931
 Traceless Quadrupole moment (field-independent basis, Debye-Ang):
   XX=              5.1485   YY=            -17.7351   ZZ=             12.5865
   XY=             -2.1718   XZ=              8.0156   YZ=             -3.3931
 Octapole moment (field-independent basis, Debye-Ang**2):
  XXX=           -930.6205  YYY=          -1377.0493  ZZZ=           -771.4138  XYY=           -359.9655
  XXY=           -403.6980  XXZ=           -227.6018  XZZ=           -264.9179  YZZ=           -410.4688
  YYZ=           -365.5347  XYZ=              8.7543
 Hexadecapole moment (field-independent basis, Debye-Ang**3):
 XXXX=         -11574.0632 YYYY=         -18889.7871 ZZZZ=          -8232.6521 XXXY=          -6606.5816
 XXXZ=          -4487.1431 YYYX=          -7125.0075 YYYZ=          -6806.0902 ZZZX=          -4670.8471
 ZZZY=          -5899.0606 XXYY=          -5120.2383 XXZZ=          -3106.7282 YYZZ=          -4869.5736
 XXYZ=          -1760.0738 YYXZ=          -1856.1971 ZZXY=          -2192.1146
 N-N= 4.750526762552D+02 E-N=-2.140923744118D+03  KE= 5.057916674062D+02
  Exact polarizability:       0.000       0.000       0.000       0.000       0.000       0.000
 Approx polarizability:     125.258       4.386     109.409      14.423     -22.562      81.587
 D2PCM: PCM CHGder 2nd derivatives, FixD1E=F FixD2E=F DoIter=F DoCFld=F I1PDM=0
 Calling FoFJK, ICntrl=    100127 FMM=F ISym2X=0 I1Cent= 0 IOpClX= 0 NMat=1 NMatS=1 NMatT=0.
 -------------------------------------------------------------------
 Center     Atomic                   Forces (Hartrees/Bohr)
 Number     Number              X              Y              Z
 -------------------------------------------------------------------
      1        8          -0.000896220    0.001680620   -0.001353541
      2        1           0.002498194   -0.000687906    0.001106287
      3        6          -0.000551152    0.000727036   -0.000597482
      4        5          -0.000493813   -0.001953828    0.001133189
      5        8           0.002750394    0.002567936   -0.000905800
      6        1          -0.002961209   -0.002142869    0.000501801
      7        6           0.000099702   -0.001764345    0.000837051
      8        1          -0.000259145    0.000035672    0.000105897
      9        6          -0.001048579    0.000897197   -0.000753600
     10        1          -0.000187597   -0.000717142    0.000290906
     11        6           0.005852952   -0.002005851    0.002740207
     12        6          -0.001239871    0.000942691   -0.000873422
     13        1           0.000307263    0.000654920   -0.000242304
     14        6           0.000536289   -0.000459483    0.000383741
     15        1          -0.000488222    0.000854045   -0.000527283
     16        9          -0.003918986    0.001371308   -0.001845645
 -------------------------------------------------------------------
 Cartesian Forces:  Max     0.005852952 RMS     0.001630640
 FormGI is forming the generalized inverse of G from B-inverse, IUseBI=4.

 GradGradGradGradGradGradGradGradGradGradGradGradGradGradGradGradGradGrad
 Berny optimization.
 Internal  Forces:  Max     0.004539907 RMS     0.000928883
 Search for a local minimum.
 Step number   1 out of a maximum of   81
 All quantities printed in internal units (Hartrees-Bohrs-Radians)
 Mixed Optimization -- En-DIIS/RFO-DIIS
 Second derivative matrix not updated -- analytic derivatives used.
 ITU=  0
     Eigenvalues ---    0.00142   0.00998   0.01246   0.01438   0.01756
     Eigenvalues ---    0.01789   0.02117   0.02280   0.02489   0.02784
     Eigenvalues ---    0.02925   0.03552   0.03897   0.10315   0.10536
     Eigenvalues ---    0.10841   0.11322   0.11943   0.12615   0.15860
     Eigenvalues ---    0.17484   0.18441   0.18657   0.18974   0.19892
     Eigenvalues ---    0.21956   0.29052   0.29583   0.35882   0.36568
     Eigenvalues ---    0.36783   0.36899   0.38706   0.39185   0.42505
     Eigenvalues ---    0.45085   0.48335   0.48618   0.49455   0.53297
     Eigenvalues ---    0.54651   0.55751
 RFO step:  Lambda=-1.90230907D-04 EMin= 1.41965083D-03
 Linear search not attempted -- first point.
 Iteration  1 RMS(Cart)=  0.01665289 RMS(Int)=  0.00012738
 Iteration  2 RMS(Cart)=  0.00017740 RMS(Int)=  0.00000158
 Iteration  3 RMS(Cart)=  0.00000002 RMS(Int)=  0.00000158
 Variable       Old X    -DE/DX   Delta X   Delta X   Delta X     New X
                                 (Linear)    (Quad)   (Total)
    R1        1.81684   0.00281   0.00000   0.00504   0.00504   1.82188
    R2        2.57490   0.00187   0.00000   0.00418   0.00418   2.57908
    R3        2.95818   0.00111   0.00000   0.00499   0.00499   2.96317
    R4        2.64355   0.00116   0.00000   0.00279   0.00279   2.64634
    R5        2.64754   0.00122   0.00000   0.00130   0.00130   2.64884
    R6        2.58626  -0.00060   0.00000  -0.00216  -0.00216   2.58410
    R7        1.81072   0.00370   0.00000   0.00666   0.00666   1.81739
    R8        2.05308   0.00000   0.00000  -0.00047  -0.00047   2.05261
    R9        2.62594   0.00048   0.00000   0.00182   0.00182   2.62776
   R10        2.04553   0.00059   0.00000   0.00133   0.00133   2.04686
   R11        2.61493   0.00008   0.00000  -0.00162  -0.00161   2.61332
   R12        2.61571  -0.00015   0.00000  -0.00170  -0.00170   2.61402
   R13        2.53711   0.00454   0.00000   0.01303   0.01303   2.55014
   R14        2.04589   0.00065   0.00000   0.00129   0.00129   2.04718
   R15        2.62401   0.00030   0.00000   0.00192   0.00192   2.62593
   R16        2.04833   0.00017   0.00000   0.00051   0.00051   2.04884
    A1        1.95844   0.00046   0.00000   0.00203   0.00203   1.96047
    A2        2.14455  -0.00094   0.00000  -0.00447  -0.00447   2.14008
    A3        2.08097   0.00064   0.00000   0.00284   0.00284   2.08381
    A4        2.05767   0.00029   0.00000   0.00163   0.00163   2.05929
    A5        2.06051   0.00027   0.00000  -0.00100  -0.00100   2.05952
    A6        2.05365   0.00009   0.00000   0.00092   0.00092   2.05457
    A7        2.16901  -0.00035   0.00000   0.00008   0.00008   2.16910
    A8        2.00394  -0.00007   0.00000  -0.00060  -0.00060   2.00334
    A9        2.10619   0.00057   0.00000   0.00400   0.00400   2.11018
   A10        2.12462  -0.00067   0.00000  -0.00242  -0.00243   2.12219
   A11        2.05237   0.00010   0.00000  -0.00156  -0.00156   2.05081
   A12        2.13477  -0.00043   0.00000  -0.00328  -0.00328   2.13149
   A13        2.06066  -0.00021   0.00000  -0.00224  -0.00224   2.05842
   A14        2.08775   0.00064   0.00000   0.00552   0.00552   2.09327
   A15        2.13840   0.00134   0.00000   0.00735   0.00735   2.14575
   A16        2.07095  -0.00043   0.00000  -0.00304  -0.00304   2.06791
   A17        2.07384  -0.00092   0.00000  -0.00431  -0.00431   2.06952
   A18        2.08618   0.00083   0.00000   0.00644   0.00644   2.09262
   A19        2.06377  -0.00082   0.00000  -0.00533  -0.00532   2.05845
   A20        2.13323  -0.00001   0.00000  -0.00112  -0.00112   2.13211
   A21        2.12125   0.00006   0.00000   0.00101   0.00101   2.12226
   A22        2.07426   0.00109   0.00000   0.00785   0.00785   2.08211
   A23        2.08768  -0.00115   0.00000  -0.00887  -0.00886   2.07881
    D1        3.13137   0.00003   0.00000   0.00571   0.00571   3.13708
    D2       -0.00815  -0.00003   0.00000   0.00390   0.00390  -0.00425
    D3        3.08140   0.00001   0.00000   0.02567   0.02567   3.10706
    D4       -0.06242   0.00009   0.00000   0.02761   0.02761  -0.03481
    D5       -0.05901   0.00000   0.00000   0.02571   0.02571  -0.03330
    D6        3.08036   0.00008   0.00000   0.02765   0.02765   3.10801
    D7       -0.00720   0.00008   0.00000   0.00557   0.00557  -0.00162
    D8        3.13909   0.00003   0.00000   0.00192   0.00192   3.14101
    D9        3.13323   0.00009   0.00000   0.00553   0.00553   3.13876
   D10       -0.00367   0.00004   0.00000   0.00188   0.00188  -0.00179
   D11       -3.13810  -0.00002   0.00000  -0.00236  -0.00236  -3.14046
   D12        0.00285  -0.00003   0.00000  -0.00244  -0.00244   0.00041
   D13        0.00462  -0.00003   0.00000  -0.00231  -0.00231   0.00231
   D14       -3.13762  -0.00004   0.00000  -0.00239  -0.00239  -3.14002
   D15        3.11202   0.00012   0.00000   0.01412   0.01412   3.12614
   D16       -0.02736   0.00005   0.00000   0.01219   0.01218  -0.01517
   D17        3.14061  -0.00001   0.00000   0.00023   0.00023   3.14084
   D18        0.00082  -0.00002   0.00000  -0.00027  -0.00027   0.00055
   D19        0.00357  -0.00006   0.00000  -0.00332  -0.00332   0.00025
   D20       -3.13621  -0.00007   0.00000  -0.00382  -0.00382  -3.14003
   D21        0.00125  -0.00001   0.00000  -0.00101  -0.00101   0.00025
   D22       -3.14102   0.00000   0.00000  -0.00059  -0.00059   3.14158
   D23       -3.13858  -0.00002   0.00000  -0.00148  -0.00148  -3.14007
   D24        0.00233  -0.00001   0.00000  -0.00106  -0.00106   0.00127
   D25        3.14018   0.00002   0.00000   0.00124   0.00124   3.14142
   D26       -0.00034   0.00002   0.00000   0.00058   0.00058   0.00024
   D27       -0.00073   0.00001   0.00000   0.00082   0.00082   0.00009
   D28       -3.14125   0.00001   0.00000   0.00016   0.00016  -3.14109
   D29       -0.00268   0.00001   0.00000   0.00113   0.00113  -0.00155
   D30        3.13956   0.00001   0.00000   0.00121   0.00121   3.14077
   D31        3.14001   0.00000   0.00000   0.00045   0.00045   3.14046
   D32       -0.00093   0.00001   0.00000   0.00053   0.00053  -0.00041
         Item               Value     Threshold  Converged?
 Maximum Force            0.004540     0.000015     NO 
 RMS     Force            0.000929     0.000010     NO 
 Maximum Displacement     0.076401     0.000060     NO 
 RMS     Displacement     0.016678     0.000040     NO 
 Predicted change in Energy=-9.550566D-05
 GradGradGradGradGradGradGradGradGradGradGradGradGradGradGradGradGradGrad

                          Input orientation:                          
 ---------------------------------------------------------------------
 Center     Atomic      Atomic             Coordinates (Angstroms)
 Number     Number       Type             X           Y           Z
 ---------------------------------------------------------------------
      1          8           0        8.684130    7.468384    5.564902
      2          1           0        9.500461    7.156497    5.972099
      3          6           0        6.243232    6.997652    5.175884
      4          5           0        7.640174    6.615196    5.776752
      5          8           0        7.882637    5.480944    6.501041
      6          1           0        7.115322    4.917112    6.636051
      7          6           0        5.117225    6.174344    5.299782
      8          1           0        5.175195    5.225131    5.824617
      9          6           0        3.888005    6.535015    4.758891
     10          1           0        3.011810    5.904630    4.848980
     11          6           0        3.804462    7.740898    4.087105
     12          6           0        4.883467    8.592726    3.933495
     13          1           0        4.762432    9.526258    3.397353
     14          6           0        6.100274    8.207834    4.483204
     15          1           0        6.958751    8.860857    4.373350
     16          9           0        2.616734    8.101768    3.557805
 ---------------------------------------------------------------------
                    Distance matrix (angstroms):
                    1          2          3          4          5
     1  O    0.000000
     2  H    0.964096   0.000000
     3  C    2.516129   3.356894   0.000000
     4  B    1.364791   1.947264   1.568044   0.000000
     5  O    2.338518   2.388434   2.596939   1.367447   0.000000
     6  H    3.180803   3.338348   2.687243   1.974172   0.961721
     7  C    3.803635   4.541959   1.400385   2.605210   3.093756
     8  H    4.172800   4.739183   2.168729   2.830316   2.802361
     9  C    4.952135   5.775619   2.436187   3.888604   4.483663
    10  H    5.927317   6.703071   3.426901   4.773617   5.160792
    11  C    5.105811   6.028195   2.772265   4.339908   5.250332
    12  C    4.286102   5.247408   2.436545   3.861043   5.026977
    13  H    4.930804   5.890162   3.427797   4.734683   5.977719
    14  C    2.897096   3.857900   1.401708   2.565357   3.832025
    15  H    2.517083   3.452699   2.151177   2.734386   4.099323
    16  F    6.422064   7.355818   4.121740   5.689338   6.577316
                    6          7          8          9         10
     6  H    0.000000
     7  C    2.712680   0.000000
     8  H    2.125416   1.086194   0.000000
     9  C    4.069018   1.390550   2.123305   0.000000
    10  H    4.583408   2.169964   2.468567   1.083153   0.000000
    11  C    5.043083   2.376558   3.350663   1.382907   2.140242
    12  C    5.078890   2.787465   3.873260   2.430309   3.401041
    13  H    6.104874   3.870458   4.955974   3.400874   4.276458
    14  C    4.061271   2.401722   3.398776   2.787196   3.870033
    15  H    4.549446   3.386274   4.301831   3.871391   4.954175
    16  F    6.313076   3.605816   4.467573   2.348075   2.578883
                   11         12         13         14         15
    11  C    0.000000
    12  C    1.383278   0.000000
    13  H    2.140321   1.083319   0.000000
    14  C    2.376063   1.389583   2.169594   0.000000
    15  H    3.359432   2.138263   2.493822   1.084200   0.000000
    16  F    1.349475   2.349524   2.580491   3.605921   4.482682
                   16
    16  F    0.000000
 Symmetry turned off by external request.
 Stoichiometry    C6H6BFO2
 Framework group  C1[X(C6H6BFO2)]
 Deg. of freedom    42
 Full point group                 C1      NOp   1
 Rotational constants (GHZ):           3.6802945           0.7252816           0.6059352
 Standard basis: 6-311+G(d,p) (5D, 7F)
   256 basis functions,   408 primitive gaussians,   266 cartesian basis functions
    36 alpha electrons       36 beta electrons
       nuclear repulsion energy       474.6439288620 Hartrees.
 NAtoms=   16 NActive=   16 NUniq=   16 SFac= 1.00D+00 NAtFMM=   60 NAOKFM=F Big=F
 Integral buffers will be    131072 words long.
 Raffenetti 2 integral format.
 Two-electron integral symmetry is turned off.
 ------------------------------------------------------------------------------
 Polarizable Continuum Model (PCM)
 =================================
 Model                : PCM.
 Atomic radii         : SMD-Coulomb.
 Polarization charges : Total charges.
 Charge compensation  : None.
 Solution method      : Matrix inversion.
 Cavity type          : VdW (van der Waals Surface) (Alpha=1.000).
 Cavity algorithm     : GePol (No added spheres)
                        Default sphere list used, NSphG=   16.
                        Lebedev-Laikov grids with approx.  5.0 points / Ang**2.
                        Smoothing algorithm: York/Karplus (Gamma=1.0000).
                        Polarization charges: spherical gaussians, with
                                              point-specific exponents (IZeta= 3).
                        Self-potential: point-specific (ISelfS= 7).
                        Self-field    : sphere-specific E.n sum rule (ISelfD= 2).
 1st derivatives      : Analytical E(r).r(x)/FMM algorithm (CHGder, D1EAlg=3).
                        Cavity 1st derivative terms included.
 Solvent              : TetraHydroFuran, Eps=   7.425700 Eps(inf)=   1.974025
 ------------------------------------------------------------------------------
 Spheres list:
 ISph  on   Nord     Re0    Alpha      Xe            Ye            Ze
    1   O      1    2.2940  1.000      8.684130      7.468384      5.564902
    2   H      2    1.2000  1.000      9.500461      7.156497      5.972099
    3   C      3    1.8500  1.000      6.243232      6.997652      5.175884
    4   B      4    1.8000  1.000      7.640174      6.615196      5.776752
    5   O      5    2.2940  1.000      7.882637      5.480944      6.501041
    6   H      6    1.2000  1.000      7.115322      4.917112      6.636051
    7   C      7    1.8500  1.000      5.117225      6.174344      5.299782
    8   H      8    1.2000  1.000      5.175195      5.225131      5.824617
    9   C      9    1.8500  1.000      3.888005      6.535015      4.758891
   10   H     10    1.2000  1.000      3.011810      5.904630      4.848980
   11   C     11    1.8500  1.000      3.804462      7.740898      4.087105
   12   C     12    1.8500  1.000      4.883467      8.592726      3.933495
   13   H     13    1.2000  1.000      4.762432      9.526258      3.397353
   14   C     14    1.8500  1.000      6.100274      8.207834      4.483204
   15   H     15    1.2000  1.000      6.958751      8.860857      4.373350
   16   F     16    1.7300  1.000      2.616734      8.101768      3.557805
 ------------------------------------------------------------------------------
 ------------------------------------------------------------------------------
 Atomic radii for non-electrostatic terms: SMD-CDS.
 ------------------------------------------------------------------------------
 Nuclear repulsion after PCM non-electrostatic terms =      474.6409373961 Hartrees.
 One-electron integrals computed using PRISM.
 NBasis=   256 RedAO= T EigKep=  2.49D-06  NBF=   256
 NBsUse=   256 1.00D-06 EigRej= -1.00D+00 NBFU=   256
 Initial guess from the checkpoint file:  "4-f-phboh2-opt-freq-thf.chk"
 B after Tr=     0.027171    0.004706   -0.035747
         Rot=    0.999999   -0.000869    0.000646   -0.000556 Ang=  -0.14 deg.
 ExpMin= 3.15D-02 ExpMax= 1.14D+04 ExpMxC= 1.72D+03 IAcc=3 IRadAn=         5 AccDes= 0.00D+00
 Harris functional with IExCor= 1009 and IRadAn=       5 diagonalized for initial guess.
 HarFok:  IExCor= 1009 AccDes= 0.00D+00 IRadAn=         5 IDoV= 1 UseB2=F ITyADJ=14
 ICtDFT=  3500011 ScaDFX=  1.000000  1.000000  1.000000  1.000000
 FoFCou: FMM=F IPFlag=           0 FMFlag=      100000 FMFlg1=           0
         NFxFlg=           0 DoJE=T BraDBF=F KetDBF=T FulRan=T
         wScrn=  0.000000 ICntrl=       500 IOpCl=  0 I1Cent=   200000004 NGrid=           0
         NMat0=    1 NMatS0=      1 NMatT0=    0 NMatD0=    1 NMtDS0=    0 NMtDT0=    0
 Symmetry not used in FoFCou.
 Requested convergence on RMS density matrix=1.00D-08 within 128 cycles.
 Requested convergence on MAX density matrix=1.00D-06.
 Requested convergence on             energy=1.00D-06.
 Level shift goal  0.100 maximum shift  0.100.
 No special actions if energy rises.
 Dynamic level shift is on during FON iterations.
 Inv3:  Mode=1 IEnd=     6473883.
 Iteration    1 A*A^-1 deviation from unit magnitude is 4.55D-15 for   1465.
 Iteration    1 A*A^-1 deviation from orthogonality  is 1.75D-15 for   1452   1450.
 Iteration    1 A^-1*A deviation from unit magnitude is 5.00D-15 for   1465.
 Iteration    1 A^-1*A deviation from orthogonality  is 1.83D-15 for    836    178.
 Error on total polarization charges =  0.02144
 SCF Done:  E(RM062X) =  -507.480265194     A.U. after   10 cycles
            NFock= 10  Conv=0.87D-08     -V/T= 2.0034
 SMD-CDS (non-electrostatic) energy       (kcal/mol) =      -1.88
 (included in total energy above)
 D1PCM: PCM CHGder 1st derivatives, ID1Alg=3 FixD1E=F DoIter=F DoCFld=F I1PDM=0.
 Calling FoFJK, ICntrl=      2127 FMM=F ISym2X=0 I1Cent= 0 IOpClX= 0 NMat=1 NMatS=1 NMatT=0.
 -------------------------------------------------------------------
 Center     Atomic                   Forces (Hartrees/Bohr)
 Number     Number              X              Y              Z
 -------------------------------------------------------------------
      1        8          -0.000013065    0.000024788   -0.000006214
      2        1           0.000021128   -0.000005699    0.000016965
      3        6          -0.000000070   -0.000003094   -0.000011196
      4        5           0.000000374   -0.000007323   -0.000003032
      5        8           0.000043682    0.000032818    0.000019051
      6        1          -0.000040899   -0.000037694   -0.000008464
      7        6          -0.000004298   -0.000005521    0.000006988
      8        1          -0.000000857   -0.000002462   -0.000003594
      9        6          -0.000007119   -0.000002639   -0.000013649
     10        1           0.000002122   -0.000007342   -0.000005949
     11        6           0.000105502   -0.000034740    0.000048849
     12        6          -0.000012665    0.000005456   -0.000003771
     13        1           0.000000784    0.000004670    0.000003793
     14        6           0.000010509    0.000003558    0.000003770
     15        1          -0.000006141    0.000006538    0.000004296
     16        9          -0.000098985    0.000028686   -0.000047844
 -------------------------------------------------------------------
 Cartesian Forces:  Max     0.000105502 RMS     0.000027714

 GradGradGradGradGradGradGradGradGradGradGradGradGradGradGradGradGradGrad
 Berny optimization.
 Using GEDIIS/GDIIS optimizer.
 FormGI is forming the generalized inverse of G from B-inverse, IUseBI=4.
 Internal  Forces:  Max     0.000113555 RMS     0.000016013
 Search for a local minimum.
 Step number   2 out of a maximum of   81
 All quantities printed in internal units (Hartrees-Bohrs-Radians)
 Mixed Optimization -- En-DIIS/RFO-DIIS
 Swapping is turned off.
 Update second derivatives using D2CorX and points    1    2
 DE= -9.61D-05 DEPred=-9.55D-05 R= 1.01D+00
 TightC=F SS=  1.41D+00  RLast= 6.39D-02 DXNew= 5.0454D-01 1.9172D-01
 Trust test= 1.01D+00 RLast= 6.39D-02 DXMaxT set to 3.00D-01
 ITU=  1  0
     Eigenvalues ---    0.00142   0.00996   0.01247   0.01438   0.01756
     Eigenvalues ---    0.01789   0.02116   0.02280   0.02489   0.02784
     Eigenvalues ---    0.02925   0.03552   0.03898   0.10315   0.10534
     Eigenvalues ---    0.10842   0.11325   0.11943   0.12618   0.15860
     Eigenvalues ---    0.17491   0.18409   0.18656   0.18955   0.19887
     Eigenvalues ---    0.21960   0.29053   0.29584   0.35882   0.36569
     Eigenvalues ---    0.36763   0.36892   0.38725   0.38976   0.42505
     Eigenvalues ---    0.45059   0.48328   0.48589   0.49454   0.53206
     Eigenvalues ---    0.54612   0.55651
 En-DIIS/RFO-DIIS/Sim-DIIS IScMMF=       -3 using points:     2    1
 RFO step:  Lambda=-1.14377714D-07.
 DidBck=F Rises=F RFO-DIIS coefs:    1.06901   -0.06901
 Iteration  1 RMS(Cart)=  0.00134834 RMS(Int)=  0.00000107
 Iteration  2 RMS(Cart)=  0.00000130 RMS(Int)=  0.00000011
 Iteration  3 RMS(Cart)=  0.00000000 RMS(Int)=  0.00000011
 Variable       Old X    -DE/DX   Delta X   Delta X   Delta X     New X
                                 (Linear)    (Quad)   (Total)
    R1        1.82188   0.00003   0.00035  -0.00030   0.00005   1.82193
    R2        2.57908   0.00002   0.00029  -0.00025   0.00004   2.57912
    R3        2.96317   0.00002   0.00034  -0.00026   0.00009   2.96326
    R4        2.64634   0.00001   0.00019  -0.00016   0.00003   2.64637
    R5        2.64884   0.00001   0.00009  -0.00007   0.00002   2.64887
    R6        2.58410   0.00001  -0.00015   0.00017   0.00003   2.58413
    R7        1.81739   0.00005   0.00046  -0.00036   0.00010   1.81749
    R8        2.05261   0.00000  -0.00003   0.00002  -0.00001   2.05260
    R9        2.62776   0.00001   0.00013  -0.00011   0.00002   2.62778
   R10        2.04686   0.00000   0.00009  -0.00009   0.00000   2.04686
   R11        2.61332   0.00000  -0.00011   0.00008  -0.00003   2.61329
   R12        2.61402   0.00000  -0.00012   0.00009  -0.00003   2.61399
   R13        2.55014   0.00011   0.00090  -0.00060   0.00030   2.55044
   R14        2.04718   0.00000   0.00009  -0.00009   0.00000   2.04718
   R15        2.62593   0.00001   0.00013  -0.00010   0.00003   2.62596
   R16        2.04884   0.00000   0.00004  -0.00004   0.00000   2.04884
    A1        1.96047   0.00000   0.00014  -0.00016  -0.00002   1.96045
    A2        2.14008   0.00000  -0.00031   0.00039   0.00008   2.14017
    A3        2.08381   0.00000   0.00020  -0.00026  -0.00006   2.08375
    A4        2.05929   0.00000   0.00011  -0.00013  -0.00002   2.05927
    A5        2.05952   0.00000  -0.00007   0.00002  -0.00005   2.05946
    A6        2.05457   0.00000   0.00006  -0.00008  -0.00002   2.05455
    A7        2.16910   0.00000   0.00001   0.00006   0.00007   2.16917
    A8        2.00334  -0.00001  -0.00004  -0.00001  -0.00005   2.00329
    A9        2.11018   0.00000   0.00028  -0.00021   0.00006   2.11024
   A10        2.12219   0.00000  -0.00017   0.00018   0.00002   2.12221
   A11        2.05081   0.00000  -0.00011   0.00003  -0.00008   2.05073
   A12        2.13149   0.00000  -0.00023   0.00021  -0.00002   2.13147
   A13        2.05842   0.00000  -0.00015   0.00012  -0.00004   2.05839
   A14        2.09327   0.00000   0.00038  -0.00033   0.00005   2.09333
   A15        2.14575   0.00001   0.00051  -0.00044   0.00006   2.14582
   A16        2.06791   0.00000  -0.00021   0.00018  -0.00003   2.06788
   A17        2.06952   0.00000  -0.00030   0.00026  -0.00003   2.06949
   A18        2.09262   0.00000   0.00044  -0.00039   0.00005   2.09267
   A19        2.05845   0.00000  -0.00037   0.00033  -0.00003   2.05841
   A20        2.13211   0.00000  -0.00008   0.00006  -0.00002   2.13210
   A21        2.12226   0.00000   0.00007  -0.00006   0.00001   2.12227
   A22        2.08211   0.00001   0.00054  -0.00050   0.00004   2.08216
   A23        2.07881   0.00000  -0.00061   0.00056  -0.00005   2.07876
    D1        3.13708   0.00000   0.00039  -0.00003   0.00037   3.13745
    D2       -0.00425   0.00000   0.00027   0.00032   0.00059  -0.00365
    D3        3.10706   0.00001   0.00177   0.00069   0.00246   3.10952
    D4       -0.03481   0.00000   0.00191   0.00032   0.00222  -0.03259
    D5       -0.03330   0.00000   0.00177   0.00022   0.00199  -0.03131
    D6        3.10801   0.00000   0.00191  -0.00016   0.00175   3.10976
    D7       -0.00162   0.00000   0.00038  -0.00059  -0.00020  -0.00183
    D8        3.14101   0.00000   0.00013  -0.00045  -0.00032   3.14069
    D9        3.13876   0.00000   0.00038  -0.00012   0.00026   3.13902
   D10       -0.00179   0.00000   0.00013   0.00002   0.00015  -0.00165
   D11       -3.14046   0.00001  -0.00016   0.00049   0.00033  -3.14013
   D12        0.00041   0.00000  -0.00017   0.00046   0.00029   0.00070
   D13        0.00231   0.00000  -0.00016   0.00004  -0.00012   0.00218
   D14       -3.14002   0.00000  -0.00017   0.00001  -0.00016  -3.14017
   D15        3.12614   0.00001   0.00097   0.00061   0.00159   3.12772
   D16       -0.01517   0.00001   0.00084   0.00099   0.00183  -0.01334
   D17        3.14084   0.00000   0.00002   0.00003   0.00005   3.14089
   D18        0.00055   0.00000  -0.00002  -0.00009  -0.00011   0.00044
   D19        0.00025   0.00000  -0.00023   0.00017  -0.00006   0.00019
   D20       -3.14003   0.00000  -0.00026   0.00004  -0.00022  -3.14025
   D21        0.00025   0.00000  -0.00007   0.00012   0.00005   0.00030
   D22        3.14158   0.00000  -0.00004   0.00012   0.00008  -3.14153
   D23       -3.14007   0.00000  -0.00010   0.00000  -0.00010  -3.14017
   D24        0.00127   0.00000  -0.00007  -0.00001  -0.00008   0.00119
   D25        3.14142   0.00000   0.00009  -0.00003   0.00005   3.14148
   D26        0.00024   0.00000   0.00004  -0.00007  -0.00003   0.00021
   D27        0.00009   0.00000   0.00006  -0.00003   0.00003   0.00012
   D28       -3.14109   0.00000   0.00001  -0.00007  -0.00005  -3.14115
   D29       -0.00155   0.00000   0.00008  -0.00001   0.00007  -0.00149
   D30        3.14077   0.00000   0.00008   0.00002   0.00010   3.14087
   D31        3.14046   0.00000   0.00003  -0.00005  -0.00002   3.14044
   D32       -0.00041   0.00000   0.00004  -0.00002   0.00002  -0.00039
         Item               Value     Threshold  Converged?
 Maximum Force            0.000114     0.000015     NO 
 RMS     Force            0.000016     0.000010     NO 
 Maximum Displacement     0.006237     0.000060     NO 
 RMS     Displacement     0.001348     0.000040     NO 
 Predicted change in Energy=-5.718946D-08
 GradGradGradGradGradGradGradGradGradGradGradGradGradGradGradGradGradGrad

                          Input orientation:                          
 ---------------------------------------------------------------------
 Center     Atomic      Atomic             Coordinates (Angstroms)
 Number     Number       Type             X           Y           Z
 ---------------------------------------------------------------------
      1          8           0        8.683582    7.469589    5.566842
      2          1           0        9.500022    7.157607    5.973814
      3          6           0        6.243244    6.997536    5.175798
      4          5           0        7.640163    6.615288    5.776973
      5          8           0        7.883078    5.480382    6.500110
      6          1           0        7.116370    4.915073    6.632751
      7          6           0        5.116996    6.174629    5.300355
      8          1           0        5.174678    5.225738    5.825791
      9          6           0        3.887776    6.535350    4.759475
     10          1           0        3.011414    5.905276    4.850126
     11          6           0        3.804476    7.740935    4.087154
     12          6           0        4.883647    8.592415    3.932912
     13          1           0        4.762769    9.525756    3.396399
     14          6           0        6.100460    8.207460    4.482604
     15          1           0        6.959038    8.860276    4.372331
     16          9           0        2.616599    8.101938    3.557877
 ---------------------------------------------------------------------
                    Distance matrix (angstroms):
                    1          2          3          4          5
     1  O    0.000000
     2  H    0.964123   0.000000
     3  C    2.516148   3.356941   0.000000
     4  B    1.364811   1.947289   1.568090   0.000000
     5  O    2.338534   2.388427   2.597040   1.367460   0.000000
     6  H    3.180860   3.338406   2.687325   1.974195   0.961773
     7  C    3.803744   4.542104   1.400401   2.605324   3.093962
     8  H    4.173048   4.739475   2.168777   2.830520   2.802673
     9  C    4.952211   5.775736   2.436220   3.888714   4.483883
    10  H    5.927414   6.703211   3.426925   4.773727   5.161016
    11  C    5.105760   6.028184   2.772251   4.339938   5.250472
    12  C    4.286020   5.247368   2.436577   3.861084   5.027111
    13  H    4.930661   5.890056   3.427821   4.734696   5.977826
    14  C    2.896989   3.857839   1.401721   2.565363   3.832103
    15  H    2.516926   3.452597   2.151213   2.734396   4.099387
    16  F    6.422156   7.355952   4.121884   5.689527   6.577621
                    6          7          8          9         10
     6  H    0.000000
     7  C    2.712795   0.000000
     8  H    2.125527   1.086188   0.000000
     9  C    4.069187   1.390559   2.123260   0.000000
    10  H    4.583549   2.169961   2.468482   1.083153   0.000000
    11  C    5.043234   2.376527   3.350602   1.382892   2.140261
    12  C    5.079078   2.787479   3.873268   2.430325   3.401066
    13  H    6.105064   3.870475   4.955983   3.400899   4.276498
    14  C    4.061406   2.401732   3.398807   2.787217   3.870055
    15  H    4.549602   3.386302   4.301901   3.871409   4.954194
    16  F    6.313391   3.605931   4.467632   2.348175   2.578975
                   11         12         13         14         15
    11  C    0.000000
    12  C    1.383264   0.000000
    13  H    2.140339   1.083320   0.000000
    14  C    2.376040   1.389599   2.169599   0.000000
    15  H    3.359391   2.138243   2.493773   1.084198   0.000000
    16  F    1.349633   2.349623   2.580577   3.606043   4.482766
                   16
    16  F    0.000000
 Symmetry turned off by external request.
 Stoichiometry    C6H6BFO2
 Framework group  C1[X(C6H6BFO2)]
 Deg. of freedom    42
 Full point group                 C1      NOp   1
 Rotational constants (GHZ):           3.6802444           0.7252499           0.6059051
 Standard basis: 6-311+G(d,p) (5D, 7F)
   256 basis functions,   408 primitive gaussians,   266 cartesian basis functions
    36 alpha electrons       36 beta electrons
       nuclear repulsion energy       474.6348881880 Hartrees.
 NAtoms=   16 NActive=   16 NUniq=   16 SFac= 1.00D+00 NAtFMM=   60 NAOKFM=F Big=F
 Integral buffers will be    131072 words long.
 Raffenetti 2 integral format.
 Two-electron integral symmetry is turned off.
 ------------------------------------------------------------------------------
 Polarizable Continuum Model (PCM)
 =================================
 Model                : PCM.
 Atomic radii         : SMD-Coulomb.
 Polarization charges : Total charges.
 Charge compensation  : None.
 Solution method      : Matrix inversion.
 Cavity type          : VdW (van der Waals Surface) (Alpha=1.000).
 Cavity algorithm     : GePol (No added spheres)
                        Default sphere list used, NSphG=   16.
                        Lebedev-Laikov grids with approx.  5.0 points / Ang**2.
                        Smoothing algorithm: York/Karplus (Gamma=1.0000).
                        Polarization charges: spherical gaussians, with
                                              point-specific exponents (IZeta= 3).
                        Self-potential: point-specific (ISelfS= 7).
                        Self-field    : sphere-specific E.n sum rule (ISelfD= 2).
 1st derivatives      : Analytical E(r).r(x)/FMM algorithm (CHGder, D1EAlg=3).
                        Cavity 1st derivative terms included.
 Solvent              : TetraHydroFuran, Eps=   7.425700 Eps(inf)=   1.974025
 ------------------------------------------------------------------------------
 Spheres list:
 ISph  on   Nord     Re0    Alpha      Xe            Ye            Ze
    1   O      1    2.2940  1.000      8.683582      7.469589      5.566842
    2   H      2    1.2000  1.000      9.500022      7.157607      5.973814
    3   C      3    1.8500  1.000      6.243244      6.997536      5.175798
    4   B      4    1.8000  1.000      7.640163      6.615288      5.776973
    5   O      5    2.2940  1.000      7.883078      5.480382      6.500110
    6   H      6    1.2000  1.000      7.116370      4.915073      6.632751
    7   C      7    1.8500  1.000      5.116996      6.174629      5.300355
    8   H      8    1.2000  1.000      5.174678      5.225738      5.825791
    9   C      9    1.8500  1.000      3.887776      6.535350      4.759475
   10   H     10    1.2000  1.000      3.011414      5.905276      4.850126
   11   C     11    1.8500  1.000      3.804476      7.740935      4.087154
   12   C     12    1.8500  1.000      4.883647      8.592415      3.932912
   13   H     13    1.2000  1.000      4.762769      9.525756      3.396399
   14   C     14    1.8500  1.000      6.100460      8.207460      4.482604
   15   H     15    1.2000  1.000      6.959038      8.860276      4.372331
   16   F     16    1.7300  1.000      2.616599      8.101938      3.557877
 ------------------------------------------------------------------------------
 ------------------------------------------------------------------------------
 Atomic radii for non-electrostatic terms: SMD-CDS.
 ------------------------------------------------------------------------------
 Nuclear repulsion after PCM non-electrostatic terms =      474.6318968106 Hartrees.
 One-electron integrals computed using PRISM.
 NBasis=   256 RedAO= T EigKep=  2.48D-06  NBF=   256
 NBsUse=   256 1.00D-06 EigRej= -1.00D+00 NBFU=   256
 Initial guess from the checkpoint file:  "4-f-phboh2-opt-freq-thf.chk"
 B after Tr=     0.001765    0.000344   -0.002186
         Rot=    1.000000   -0.000057    0.000040   -0.000040 Ang=  -0.01 deg.
 Requested convergence on RMS density matrix=1.00D-08 within 128 cycles.
 Requested convergence on MAX density matrix=1.00D-06.
 Requested convergence on             energy=1.00D-06.
 Level shift goal  0.100 maximum shift  0.100.
 No special actions if energy rises.
 Dynamic level shift is on during FON iterations.
 Inv3:  Mode=1 IEnd=     6491523.
 Iteration    1 A*A^-1 deviation from unit magnitude is 4.33D-15 for   1460.
 Iteration    1 A*A^-1 deviation from orthogonality  is 1.89D-15 for    843    371.
 Iteration    1 A^-1*A deviation from unit magnitude is 4.55D-15 for   1460.
 Iteration    1 A^-1*A deviation from orthogonality  is 1.80D-15 for   1460   1325.
 Error on total polarization charges =  0.02144
 SCF Done:  E(RM062X) =  -507.480265256     A.U. after    8 cycles
            NFock=  8  Conv=0.35D-08     -V/T= 2.0034
 SMD-CDS (non-electrostatic) energy       (kcal/mol) =      -1.88
 (included in total energy above)
 D1PCM: PCM CHGder 1st derivatives, ID1Alg=3 FixD1E=F DoIter=F DoCFld=F I1PDM=0.
 Calling FoFJK, ICntrl=      2127 FMM=F ISym2X=0 I1Cent= 0 IOpClX= 0 NMat=1 NMatS=1 NMatT=0.
 -------------------------------------------------------------------
 Center     Atomic                   Forces (Hartrees/Bohr)
 Number     Number              X              Y              Z
 -------------------------------------------------------------------
      1        8          -0.000001942    0.000004117    0.000005789
      2        1          -0.000002226    0.000004009    0.000007240
      3        6           0.000000498    0.000000043   -0.000000599
      4        5          -0.000000023    0.000001949    0.000001103
      5        8           0.000001490    0.000001998    0.000003686
      6        1          -0.000001173   -0.000003424   -0.000004270
      7        6           0.000000512   -0.000002191   -0.000002115
      8        1           0.000002099   -0.000002664   -0.000004893
      9        6           0.000001674   -0.000002653   -0.000005969
     10        1           0.000002441   -0.000004540   -0.000008135
     11        6           0.000002566   -0.000002401   -0.000001222
     12        6          -0.000000338    0.000000816    0.000001444
     13        1          -0.000001195    0.000001646    0.000003377
     14        6          -0.000000928    0.000001565    0.000003329
     15        1          -0.000002034    0.000003265    0.000006334
     16        9          -0.000001422   -0.000001535   -0.000005097
 -------------------------------------------------------------------
 Cartesian Forces:  Max     0.000008135 RMS     0.000003226

 GradGradGradGradGradGradGradGradGradGradGradGradGradGradGradGradGradGrad
 Berny optimization.
 Using GEDIIS/GDIIS optimizer.
 FormGI is forming the generalized inverse of G from B-inverse, IUseBI=4.
 Internal  Forces:  Max     0.000002842 RMS     0.000000652
 Search for a local minimum.
 Step number   3 out of a maximum of   81
 All quantities printed in internal units (Hartrees-Bohrs-Radians)
 Mixed Optimization -- En-DIIS/RFO-DIIS
 Swapping is turned off.
 Update second derivatives using D2CorX and points    1    2    3
 DE= -6.20D-08 DEPred=-5.72D-08 R= 1.08D+00
 Trust test= 1.08D+00 RLast= 5.01D-03 DXMaxT set to 3.00D-01
 ITU=  0  1  0
     Eigenvalues ---    0.00136   0.00939   0.01242   0.01439   0.01756
     Eigenvalues ---    0.01788   0.02115   0.02280   0.02486   0.02785
     Eigenvalues ---    0.02924   0.03552   0.03898   0.10315   0.10529
     Eigenvalues ---    0.10847   0.11315   0.11941   0.12619   0.15861
     Eigenvalues ---    0.17490   0.18442   0.18661   0.19019   0.19877
     Eigenvalues ---    0.21958   0.29053   0.29591   0.35883   0.36569
     Eigenvalues ---    0.36788   0.36905   0.38718   0.39281   0.42510
     Eigenvalues ---    0.45068   0.48336   0.48630   0.49456   0.53310
     Eigenvalues ---    0.54704   0.55628
 En-DIIS/RFO-DIIS/Sim-DIIS IScMMF=       -3 using points:     3    2    1
 RFO step:  Lambda=-2.13072919D-10.
 DidBck=F Rises=F RFO-DIIS coefs:    1.14479   -0.14561    0.00083
 Iteration  1 RMS(Cart)=  0.00018081 RMS(Int)=  0.00000002
 Iteration  2 RMS(Cart)=  0.00000002 RMS(Int)=  0.00000000
 Variable       Old X    -DE/DX   Delta X   Delta X   Delta X     New X
                                 (Linear)    (Quad)   (Total)
    R1        1.82193   0.00000   0.00000   0.00000   0.00000   1.82193
    R2        2.57912   0.00000   0.00000   0.00000   0.00000   2.57912
    R3        2.96326   0.00000   0.00001   0.00000   0.00000   2.96327
    R4        2.64637   0.00000   0.00000   0.00000   0.00000   2.64638
    R5        2.64887   0.00000   0.00000   0.00000   0.00000   2.64887
    R6        2.58413   0.00000   0.00001   0.00000   0.00000   2.58413
    R7        1.81749   0.00000   0.00001   0.00000   0.00001   1.81749
    R8        2.05260   0.00000   0.00000   0.00000   0.00000   2.05260
    R9        2.62778   0.00000   0.00000   0.00000   0.00000   2.62778
   R10        2.04686   0.00000   0.00000   0.00000   0.00000   2.04686
   R11        2.61329   0.00000   0.00000   0.00000   0.00000   2.61328
   R12        2.61399   0.00000   0.00000   0.00000   0.00000   2.61399
   R13        2.55044   0.00000   0.00003  -0.00002   0.00001   2.55045
   R14        2.04718   0.00000   0.00000   0.00000   0.00000   2.04718
   R15        2.62596   0.00000   0.00000   0.00000   0.00000   2.62596
   R16        2.04884   0.00000   0.00000   0.00000   0.00000   2.04884
    A1        1.96045   0.00000   0.00000   0.00000   0.00000   1.96044
    A2        2.14017   0.00000   0.00002  -0.00001   0.00001   2.14017
    A3        2.08375   0.00000  -0.00001   0.00000  -0.00001   2.08374
    A4        2.05927   0.00000   0.00000   0.00000   0.00000   2.05927
    A5        2.05946   0.00000  -0.00001   0.00000  -0.00001   2.05946
    A6        2.05455   0.00000   0.00000   0.00000   0.00000   2.05455
    A7        2.16917   0.00000   0.00001  -0.00001   0.00000   2.16917
    A8        2.00329   0.00000  -0.00001   0.00000  -0.00001   2.00328
    A9        2.11024   0.00000   0.00001   0.00000   0.00000   2.11025
   A10        2.12221   0.00000   0.00000   0.00000   0.00000   2.12221
   A11        2.05073   0.00000  -0.00001   0.00001   0.00000   2.05073
   A12        2.13147   0.00000   0.00000   0.00000   0.00000   2.13147
   A13        2.05839   0.00000   0.00000   0.00000   0.00000   2.05839
   A14        2.09333   0.00000   0.00000   0.00000   0.00000   2.09333
   A15        2.14582   0.00000   0.00000   0.00000   0.00000   2.14582
   A16        2.06788   0.00000   0.00000   0.00000   0.00000   2.06788
   A17        2.06949   0.00000   0.00000   0.00000   0.00000   2.06949
   A18        2.09267   0.00000   0.00000   0.00000   0.00000   2.09267
   A19        2.05841   0.00000   0.00000   0.00000   0.00000   2.05841
   A20        2.13210   0.00000   0.00000   0.00000   0.00000   2.13210
   A21        2.12227   0.00000   0.00000   0.00000   0.00000   2.12227
   A22        2.08216   0.00000   0.00000   0.00000   0.00000   2.08215
   A23        2.07876   0.00000   0.00000   0.00000   0.00000   2.07876
    D1        3.13745   0.00000   0.00005   0.00000   0.00005   3.13750
    D2       -0.00365   0.00000   0.00008  -0.00001   0.00008  -0.00358
    D3        3.10952   0.00000   0.00034  -0.00002   0.00031   3.10984
    D4       -0.03259   0.00000   0.00030  -0.00001   0.00028  -0.03231
    D5       -0.03131   0.00000   0.00027  -0.00001   0.00026  -0.03105
    D6        3.10976   0.00000   0.00023   0.00000   0.00023   3.10999
    D7       -0.00183   0.00000  -0.00003   0.00002  -0.00001  -0.00184
    D8        3.14069   0.00000  -0.00005   0.00002  -0.00003   3.14067
    D9        3.13902   0.00000   0.00003   0.00001   0.00004   3.13906
   D10       -0.00165   0.00000   0.00002   0.00001   0.00003  -0.00162
   D11       -3.14013   0.00000   0.00005  -0.00002   0.00003  -3.14010
   D12        0.00070   0.00000   0.00004  -0.00002   0.00003   0.00072
   D13        0.00218   0.00000  -0.00002  -0.00001  -0.00002   0.00216
   D14       -3.14017   0.00000  -0.00002   0.00000  -0.00003  -3.14020
   D15        3.12772   0.00000   0.00022   0.00004   0.00026   3.12799
   D16       -0.01334   0.00000   0.00025   0.00004   0.00029  -0.01305
   D17        3.14089   0.00000   0.00001   0.00000   0.00000   3.14089
   D18        0.00044   0.00000  -0.00002   0.00000  -0.00002   0.00042
   D19        0.00019   0.00000  -0.00001  -0.00001  -0.00001   0.00018
   D20       -3.14025   0.00000  -0.00003   0.00000  -0.00003  -3.14029
   D21        0.00030   0.00000   0.00001   0.00000   0.00000   0.00031
   D22       -3.14153   0.00000   0.00001   0.00000   0.00001  -3.14152
   D23       -3.14017   0.00000  -0.00001   0.00000  -0.00002  -3.14018
   D24        0.00119   0.00000  -0.00001   0.00000  -0.00001   0.00118
   D25        3.14148   0.00000   0.00001   0.00000   0.00001   3.14148
   D26        0.00021   0.00000  -0.00001   0.00000   0.00000   0.00021
   D27        0.00012   0.00000   0.00000   0.00000   0.00000   0.00012
   D28       -3.14115   0.00000  -0.00001   0.00000  -0.00001  -3.14115
   D29       -0.00149   0.00000   0.00001   0.00000   0.00001  -0.00148
   D30        3.14087   0.00000   0.00001   0.00000   0.00001   3.14088
   D31        3.14044   0.00000   0.00000   0.00000   0.00000   3.14044
   D32       -0.00039   0.00000   0.00000   0.00000   0.00000  -0.00039
         Item               Value     Threshold  Converged?
 Maximum Force            0.000003     0.000015     YES
 RMS     Force            0.000001     0.000010     YES
 Maximum Displacement     0.000883     0.000060     NO 
 RMS     Displacement     0.000181     0.000040     NO 
 Predicted change in Energy=-7.056203D-10
 GradGradGradGradGradGradGradGradGradGradGradGradGradGradGradGradGradGrad

                          Input orientation:                          
 ---------------------------------------------------------------------
 Center     Atomic      Atomic             Coordinates (Angstroms)
 Number     Number       Type             X           Y           Z
 ---------------------------------------------------------------------
      1          8           0        8.683508    7.469743    5.567089
      2          1           0        9.499959    7.157746    5.974027
[...]
     1         16.03815801         19.37694389          0.05138191
     6         10.50730073         17.16857724         -2.13384199
     5         12.63750623         18.00384527         -0.25089438
     8         12.43167580         17.89156181          2.32257626
     1         10.83778865         17.26666515          2.93274904
     6          8.20202237         16.15438546         -1.32118349
     1          7.80601546         15.90472816          0.67731644
     6          6.33958715         15.42866622         -3.02701842
     1          4.55148710         14.64146554         -2.41655813
     6          6.82692502         15.73623662         -5.57597127
     6          9.06903478         16.72557148         -6.48542182
     1          9.35233826         16.92524924         -8.50304543
     6         10.89855426         17.43443754         -4.74013114
     1         12.66995743         18.21291426         -5.41380267
     9          5.03351827         15.03883117         -7.24991656

 Electric dipole moment (dipole orientation):
 (Debye = 10**-18 statcoulomb cm , SI units = C m)
                  (au)            (Debye)         (10**-30 SI)
   Tot        0.894423D+00      0.227340D+01      0.758323D+01
   x          0.000000D+00      0.000000D+00      0.000000D+00
   y          0.000000D+00      0.000000D+00      0.000000D+00
   z          0.894423D+00      0.227340D+01      0.758323D+01

 Dipole polarizability, Alpha (dipole orientation).
 (esu units = cm**3 , SI units = C**2 m**2 J**-1)
 Alpha(0;0):
               (au)            (10**-24 esu)      (10**-40 SI)
   iso        0.109402D+03      0.162117D+02      0.180380D+02
   aniso      0.689456D+02      0.102167D+02      0.113676D+02
   xx         0.123179D+03      0.182532D+02      0.203095D+02
   yx         0.246761D+02      0.365662D+01      0.406854D+01
   yy         0.745860D+02      0.110525D+02      0.122976D+02
   zx         0.725698D+01      0.107537D+01      0.119651D+01
   zy         0.788305D+00      0.116815D+00      0.129974D+00
   zz         0.130441D+03      0.193294D+02      0.215068D+02

 ----------------------------------------------------------------------
 Unable to Open any file for archive entry.
 1\1\GINC-CN013\Freq\RM062X\6-311+G(d,p)\C6H6B1F1O2\TAHMINAAFROZ\21-Apr
 -2025\0\\#N Geom=AllCheck Guess=TCheck SCRF=Check GenChk RM062X/6-311+
 G(d,p) Freq\\4-f-phboh2-opt-freq\\0,1\O,8.6835076838,7.4697428153,5.56
 70892416\H,9.499959012,7.1577464364,5.9740270669\C,6.2432430493,6.9975
 277421,5.1757976773\B,7.6401575824,6.6153042541,5.7770036238\O,7.88312
 68582,5.4803114598,6.4999909707\H,7.1165072257,4.9147971571,6.63228358
 54\C,5.1169661802,6.1746729805,5.3004419219\H,5.174613578,5.2258297867
 ,5.8259665704\C,3.8877498045,6.5353958127,4.7595530178\H,3.0113661825,
 5.9053622031,4.8502749092\C,3.8044763136,7.7409377355,4.0871533492\C,4
 .8836720633,8.5923723123,3.9328362827\H,4.762812857,9.5256846882,3.396
 2703763\C,6.100481201,8.2074146611,4.4825343947\H,6.9590751197,8.86020
 05215,4.3722129903\F,2.6165962888,8.1019474337,3.5578750218\\Version=A
 S64L-G16RevC.01\HF=-507.4802653\RMSD=1.949e-09\RMSF=3.077e-06\ZeroPoin
 t=0.1172193\Thermal=0.1259102\ETot=-507.3543551\HTot=-507.3534109\GTot
 =-507.3974011\Dipole=0.233217,-0.7128429,0.4872955\DipoleDeriv=-1.5970
 922,-0.3698991,-0.0468484,-0.4485568,-0.8694273,0.0121788,0.0025783,0.
 032124,-0.6539655,0.4421262,0.0441625,-0.0119449,0.0502241,0.3393135,0
 .0441074,-0.0192736,0.0439454,0.3607051,-0.7886154,0.1153338,-0.223656
 5,0.1015317,-0.3830685,0.1198879,-0.2117743,0.1278648,-0.3476427,2.298
 3094,-0.0067857,0.4416186,0.1117415,1.6776835,-0.5444954,0.3739805,-0.
 5749673,1.1243525,-0.8251222,0.1790432,-0.159232,0.1891061,-1.3619336,
 0.4769884,-0.167966,0.4697622,-0.9450891,0.2990706,-0.0398153,0.002236
 ,-0.072871,0.4582501,-0.0660059,0.0262683,-0.0552474,0.4188541,0.23720
 79,0.0004641,0.1161694,0.0494315,0.0498835,-0.1058401,0.0806568,-0.123
 5154,-0.0867409,0.1053308,0.0395512,-0.0379781,0.0219613,-0.0330461,0.
 1122664,-0.028665,0.1158447,0.0934767,-0.208316,0.0364531,-0.0324227,0
 .2731605,-0.2407934,0.1138949,-0.1573728,0.052305,-0.2415482,0.0323263
 ,-0.0557521,-0.0193065,-0.0655015,0.108117,0.0362816,-0.0138424,0.0385
 308,0.1840984,1.5858004,-0.2929165,0.5672377,-0.3171345,0.5352475,-0.3
 015903,0.5750768,-0.294971,0.4624449,-0.4102992,0.0553874,-0.0974237,-
 0.1416221,-0.089681,-0.081714,0.0116186,-0.0289742,-0.1504372,0.117220
 5,0.0082901,-0.0300122,0.0199976,0.0542918,0.0879172,-0.0364099,0.0851
 871,0.1513288,0.1655809,0.0172936,0.0813516,-0.0621578,0.0728943,-0.14
 59663,0.1234587,-0.1233756,-0.0615485,0.0443533,-0.0859245,0.0128699,-
 0.0655241,0.0725702,0.030684,0.0010738,0.0247836,0.1490724,-1.4978813,
 0.3551142,-0.5626583,0.3562134,-0.3903014,0.2114055,-0.5594078,0.21070
 33,-0.4573608\Polar=132.8133232,3.7406832,112.5570446,17.2652513,-25.3
 083043,82.8357245\Quadrupole=4.3581397,-13.6182833,9.2601436,-1.519887
 1,5.9696504,-2.895768\PG=C01 [X(C6H6B1F1O2)]\NImag=0\\0.63784624,0.025
 40199,0.28362423,0.15187970,-0.13938718,0.15556063,-0.37472896,0.11810
 650,-0.16873103,0.40275775,0.14875825,-0.08149072,0.08182715,-0.126163
 25,0.07503044,-0.18660655,0.07339226,-0.10606147,0.18181712,-0.0732399
 0,0.10227360,-0.03052787,-0.00220036,-0.00932314,0.00011194,-0.0022152
 1,0.00013704,0.60994612,-0.01791984,0.00739889,-0.00428055,-0.00321807
 ,-0.00082016,0.00202237,0.06708513,0.53514402,-0.00029886,-0.00001781,
 0.00844597,0.00071434,0.00231355,0.00304928,0.09910103,-0.20054368,0.2
 6592484,-0.22999384,-0.11064447,0.01405535,-0.03308325,-0.02239586,0.0
 0338983,-0.16868755,0.02669669,-0.04465853,0.52658138,-0.13457709,-0.1
 6264003,0.03017005,0.00497732,0.00794054,-0.00216057,0.02605038,-0.077
 21277,0.01591050,0.07202486,0.48913692,0.02803376,0.03679619,-0.060795
 92,-0.01251370,-0.00963613,0.00411051,-0.04440663,0.01603888,-0.082506
 49,0.06256574,-0.17977580,0.26469700,0.00336234,-0.03491194,0.01787930
 ,0.00481688,0.00189134,0.00095719,0.00120374,0.02123907,-0.01633964,-0
 .09048848,0.02580448,-0.02766432,0.43638828,-0.02470348,-0.04684859,0.
 02718853,0.00585912,-0.00044349,0.00032977,0.00529380,-0.00725803,0.01
 501828,0.05654835,-0.23464329,0.12663484,0.20374398,0.48240023,0.01208
 477,0.02443805,0.00059512,-0.00139431,-0.00080366,-0.00255313,-0.00700
 467,0.01935774,0.00304068,-0.04562692,0.11883545,-0.12336288,-0.011607
 55,-0.21416639,0.15034091,0.00301719,0.00265181,-0.00237452,-0.0000322
 5,0.00036076,0.00001470,-0.00139677,0.00110931,-0.00032916,0.00417919,
 0.00160696,0.00096062,-0.35061465,-0.24911865,0.05736267,0.34703577,0.
 00099949,-0.00010321,0.00396398,0.00036353,-0.00051379,-0.00010568,0.0
 0031708,0.00146283,-0.00223917,-0.02414515,-0.02125485,0.00430154,-0.2
 1955806,-0.19271574,0.05112562,0.24249700,0.21174153,-0.00149931,0.004
 31648,0.00342082,0.00003924,-0.00008465,-0.00081734,0.00005621,-0.0020
 1365,-0.00125652,0.01606559,0.01079007,-0.00519814,0.04000710,0.043849
 93,-0.02383385,-0.05390845,-0.05687521,0.02684186,-0.00053634,0.001182
 50,-0.00110357,-0.00068138,-0.00036245,-0.00000954,-0.24824621,-0.0764
 0847,-0.01189122,-0.02033335,-0.00845460,-0.00158342,0.00151680,-0.003
 17659,0.00254947,0.00100396,0.00038749,-0.00004489,0.63382253,0.005140
 09,0.00012869,0.00176224,0.00036382,0.00041803,0.00007208,-0.12370449,
 -0.17968309,0.02865440,-0.00081883,0.01033973,-0.00520021,0.00062867,-
 0.00360419,0.00167961,0.00288427,0.00012595,0.00119219,0.04805805,0.60
 528543,-0.00315362,0.00072676,-0.00040624,-0.00047691,-0.00011277,0.00
 038132,0.01362495,0.04185953,-0.08060087,-0.00557348,-0.00731953,0.003
 59768,0.00043277,0.00036066,-0.00160049,-0.00152838,0.00042278,-0.0001
 1493,0.11371243,-0.23620055,0.29967748,0.00045804,0.00031863,-0.000114
 61,-0.00005811,-0.00004932,-0.00004413,0.00721722,-0.01993676,0.012201
 54,-0.00024350,-0.00062699,0.00114338,0.00039193,-0.00017910,-0.000970
 62,-0.00254966,0.00062889,-0.00155112,-0.05904913,0.00905034,-0.010528
 46,0.06025071,-0.00019627,0.00037292,-0.00017027,-0.00011198,0.0000084
 9,0.00006695,0.00237985,-0.01072859,0.00755352,0.00141130,-0.00224384,
 0.00000164,0.00036880,0.00143024,-0.00012803,-0.00095109,0.00083051,-0
 .00034668,0.01291217,-0.26697786,0.12582239,-0.01164965,0.27869111,0.0
 0022755,0.00000343,0.00024471,-0.00000735,0.00009033,0.00013484,0.0002
 9724,0.00124187,0.00148198,0.00003764,-0.00060988,-0.00275138,-0.00123
 774,-0.00026534,-0.00193765,-0.00067062,0.00026567,0.00059230,-0.01278
 414,0.12451983,-0.10972855,0.01760117,-0.13972765,0.10701242,-0.003045
 90,0.00006802,-0.00075196,0.00004511,-0.00010256,0.00018741,-0.0523251
 3,-0.03621602,0.00241436,0.00167409,-0.00622096,0.00221995,0.00032589,
 0.00118181,-0.00062794,-0.00034633,0.00015793,0.00000071,-0.29786176,0
 .07356145,-0.10681084,0.00118251,-0.00147275,-0.00024593,0.71450429,0.
 00080973,0.00074473,-0.00041133,-0.00040652,-0.00011484,-0.00023664,0.
 00921404,0.05057780,-0.02009171,-0.00520185,0.00073814,0.00125597,0.00
 020526,-0.00023538,0.00023718,-0.00063731,0.00012464,-0.00066042,0.008
 53893,-0.12917904,0.03995381,0.02576146,-0.00390412,0.01201952,0.10297
 961,0.59564287,-0.00126973,-0.00056721,-0.00033965,0.00034382,-0.00022
 115,-0.00025744,-0.02219623,-0.03271682,0.02017979,0.00164677,0.000917
 41,0.00568690,-0.00005396,0.00050137,-0.00021487,0.00046800,-0.0003845
 3,-0.00022906,-0.07179368,0.05822343,-0.11083915,-0.01487883,0.0042940
 9,-0.00167376,0.11119922,-0.22414180,0.27633327,-0.00068277,-0.0000067
 2,-0.00013615,-0.00002193,-0.00003667,0.00003362,-0.00259986,0.0017639
 6,-0.00382639,0.00043323,-0.00094808,0.00053456,-0.00014574,0.00030730
 ,-0.00021768,-0.00002506,-0.00010217,0.00005422,-0.01462276,-0.0162532
 7,0.00383144,0.00083420,0.00054584,0.00118415,-0.24474985,-0.14141863,
 0.01667949,0.25507848,0.00020328,-0.00005570,0.00000346,0.00003760,0.0
 0000171,-0.00002334,0.00164360,0.00197167,0.00342275,0.00016801,0.0004
 4532,-0.00000562,-0.00002712,-0.00005396,0.00003154,0.00003038,0.00001
 165,-0.00000300,0.00878116,0.00972689,-0.00126544,0.00006305,-0.000405
 93,-0.00211416,-0.14035822,-0.15421274,0.02452692,0.15138116,0.1552774
 9,-0.00025739,-0.00005075,-0.00019499,-0.00001528,-0.00004252,-0.00003
 511,-0.00370327,0.00346664,0.00456054,-0.00006947,-0.00031807,0.000499
 36,-0.00003449,0.00012891,-0.00006099,-0.00002039,-0.00004444,0.000005
 52,-0.00962231,-0.00835781,0.00451888,0.00142912,-0.00197308,-0.002902
 47,0.01606248,0.02421271,-0.04307156,-0.01615995,-0.02761271,0.0344483
 8,0.00178485,0.00075905,0.00014775,-0.00013972,0.00001926,-0.00007856,
 -0.00976344,-0.03106812,0.01545752,-0.00575277,-0.00030693,-0.00153562
 ,0.00151607,-0.00191143,0.00154912,0.00014382,0.00054429,-0.00032090,0
 .02978918,0.03256992,-0.00896113,-0.00303408,0.00001771,-0.00320949,-0
 .11889427,0.02312912,-0.02751594,0.00401403,-0.02299816,0.01217334,0.6
 3841620,-0.00215302,-0.00022679,-0.00054583,0.00017981,-0.00009719,0.0
 0010355,-0.03167750,-0.06247800,0.02229345,0.00084844,-0.00361390,0.00
 230046,0.00035623,0.00028282,-0.00017667,0.00010562,0.00014816,0.00010
 325,0.09373478,0.00296264,0.02429804,-0.00071570,0.00344434,0.00239811
 ,-0.05402272,-0.28443144,0.10250272,0.00328432,-0.01001499,0.00892644,
 0.08079390,0.60164968,0.00170206,0.00020502,0.00008560,-0.00014925,0.0
 0009404,-0.00000496,0.01562962,0.02232938,-0.01249094,-0.00214229,0.00
 199051,-0.00141593,0.00030415,-0.00078722,0.00036404,-0.00010280,0.000
 20119,0.00007718,-0.04181289,0.00709199,-0.01642354,-0.00280480,0.0025
 8582,0.00606704,0.01394818,0.12436162,-0.12871903,-0.00198694,0.001452
 36,0.00344486,0.09285166,-0.21772357,0.29797190,-0.00047154,-0.0005118
 7,0.00015584,0.00011308,0.00014105,-0.00001665,0.02215881,0.07373888,-
 0.03630275,0.00593100,0.00051292,-0.00020240,-0.00111008,0.00159838,-0
 .00083281,-0.00005616,-0.00050500,0.00021972,-0.07383205,-0.01494094,-
 0.01224531,-0.00110843,0.00001561,0.00004505,0.04583340,-0.05973253,0.
 04309620,0.00124901,0.00082216,-0.00169771,-0.23134879,-0.07567196,-0.
 00598639,0.65745591,-0.00041038,0.00056653,-0.00050469,0.00014574,0.00
 013357,-0.00003096,0.02908205,0.00442027,0.01071547,-0.00126220,-0.002
 90029,0.00436209,0.00158029,-0.00047807,0.00014097,-0.00010101,0.00031
 053,-0.00018446,-0.01541649,-0.00430233,-0.00293169,0.00013704,0.00008
 079,-0.00074171,-0.01189468,-0.03128099,0.01742099,0.00061647,-0.00270
 759,0.00467430,-0.15286930,-0.21378427,0.03637546,0.05032351,0.6314301
 7,0.00008997,-0.00053867,0.00016715,-0.00004966,-0.00004162,0.00001430
 ,-0.01201863,0.02350566,-0.00675258,0.00070714,0.00481818,0.00338389,-
 0.00080190,0.00000151,-0.00143757,0.00002803,-0.00022821,0.00025100,-0
 .01200824,-0.00279624,-0.00361393,-0.00000066,-0.00077923,-0.00095001,
 0.01725012,0.00393013,0.01007258,-0.00158671,0.00472525,0.00265531,0.0
 3569837,0.05813167,-0.08717338,0.12248866,-0.25745668,0.29978252,-0.00
 027803,-0.00015569,0.00001245,0.00001634,0.00000255,-0.00000436,-0.004
 02240,0.00034254,-0.00345362,0.00092588,0.00079552,-0.00023962,-0.0005
 3722,0.00038014,-0.00032055,-0.00003038,-0.00012228,0.00006129,-0.0013
 7456,-0.00004226,-0.00006366,0.00009744,0.00014826,0.00017870,-0.00361
 318,-0.00348254,-0.00074813,0.00026746,-0.00102200,0.00060607,0.006101
 55,-0.02114199,0.01175935,-0.05912107,0.02307450,-0.01919156,0.0551461
 4,0.00019751,0.00004530,0.00002812,-0.00001993,0.00000522,0.00000458,0
 .00038950,0.00295732,0.00263209,-0.00050617,0.00001574,-0.00001572,0.0
 0015610,-0.00018386,0.00003519,0.00000050,0.00004632,-0.00001578,-0.00
 041481,0.00025225,-0.00082934,0.00013439,-0.00023470,-0.00027960,-0.00
 366164,0.00038526,0.00182503,0.00023567,-0.00048891,0.00036495,0.00514
 628,-0.01136089,0.01013167,0.02186664,-0.27023510,0.13266153,-0.024486
 26,0.28036987,-0.00017754,-0.00006736,-0.00000959,0.00000879,0.0000094
 0,0.00002073,-0.00349927,0.00259921,0.00525239,0.00046393,0.00034610,0
 .00019192,-0.00017273,0.00008925,-0.00031512,-0.00001065,-0.00004329,0
 .00004664,0.00014828,-0.00070619,-0.00064008,0.00018671,-0.00027274,-0
 .00062322,-0.00064477,0.00188373,0.00449047,-0.00007020,0.00001276,0.0
 0003850,-0.00239436,0.00271715,0.00263485,-0.01856358,0.13298703,-0.11
 243878,0.02186672,-0.14464160,0.10891433,-0.00195160,0.00006418,-0.000
 41654,0.00060136,0.00018916,0.00007826,-0.12256401,-0.01408504,-0.0085
 8678,0.00124738,0.02017929,-0.01102712,-0.00510343,0.00213117,-0.00321
 155,-0.00035891,-0.00075978,0.00038456,0.04533777,-0.01708697,0.020826
 70,-0.00348005,-0.00415958,-0.00081913,-0.02420534,0.02825443,-0.02155
 497,0.00000679,0.00116551,-0.00029894,-0.06008899,-0.04604426,0.008067
 51,-0.29514181,0.07866394,-0.10806857,0.00301913,-0.00086258,0.0004283
 7,0.69757470,-0.00274916,-0.00246500,0.00045656,-0.00031434,-0.0004181
 4,0.00005632,0.03466106,-0.25708757,0.11370784,0.01094292,-0.00247773,
 0.00519791,-0.00210158,0.00236797,-0.00110090,-0.00021987,-0.00048825,
 0.00019500,-0.06129145,-0.03842919,0.00562425,-0.00381291,0.00088424,0
 .00239011,0.02849423,-0.03588901,0.02636076,0.00075128,-0.00064832,-0.
 00005196,0.01451456,0.06078064,-0.02888980,0.01358138,-0.13495773,0.04
 333952,0.02420735,-0.00128572,0.00914039,0.09279592,0.57264070,0.00114
 485,0.00112896,-0.00072590,0.00037338,0.00017242,-0.00017659,-0.034984
 84,0.09996227,-0.12784366,-0.00612786,0.00789275,-0.00440855,-0.000720
 15,0.00016528,0.00118357,-0.00001979,0.00001692,-0.00000418,0.04471713
 ,0.01803452,0.00686893,-0.00100843,0.00230532,0.00584590,-0.02167609,0
 .02629534,-0.02218093,-0.00007953,0.00006973,-0.00118856,-0.02475311,-
 0.04604336,0.01739621,-0.07287248,0.06175757,-0.11498228,-0.01302756,0
 .00206703,-0.00180192,0.10526994,-0.20413942,0.28471511,-0.00072807,0.
 00071588,-0.00066802,-0.00007765,-0.00001466,0.00004557,0.00656218,0.0
 0234476,-0.00016770,-0.00025974,0.00095766,0.00024110,0.00016169,-0.00
 041485,0.00015631,0.00001396,0.00002818,0.00000269,0.00166284,0.000656
 44,-0.00188261,0.00029628,0.00022955,-0.00005776,-0.00022262,0.0007798
 7,-0.00008101,-0.00006570,0.00000405,0.00019020,-0.00095953,0.00151003
 ,-0.00347815,-0.01646093,-0.01682258,0.00307145,0.00089560,0.00061953,
 0.00117652,-0.23696912,-0.13903778,0.01975848,0.24824546,-0.00001464,0
 .00056318,-0.00028359,0.00029518,0.00032811,-0.00020563,-0.02065868,-0
 .01112381,0.00160828,-0.00139636,-0.00212114,-0.00079961,0.00018585,0.
 00055605,-0.00001109,-0.00008538,0.00003645,-0.00007977,0.00063902,-0.
 00252997,0.00537511,-0.00108205,-0.00062924,0.00007289,0.00088720,-0.0
 0043954,-0.00028174,-0.00001256,-0.00010953,-0.00034760,0.00106744,0.0
 0198943,0.00381139,0.00913094,0.00933103,0.00015997,0.00005257,-0.0005
 3091,-0.00211121,-0.13906079,-0.15874206,0.02443995,0.14906442,0.16315
 483,-0.00023696,-0.00001267,0.00011395,-0.00011397,-0.00029529,-0.0001
 1454,0.01216743,0.00807534,0.00170447,0.00154817,-0.00017420,-0.002455
 62,-0.00020386,-0.00011193,0.00049240,0.00005729,-0.00005078,-0.000006
 31,-0.00188435,0.00537163,0.00367281,0.00064858,0.00044727,0.00002104,
 -0.00014838,-0.00031211,-0.00129916,0.00020099,-0.00034077,-0.00050453
 ,-0.00324138,0.00392854,0.00548709,-0.01090489,-0.00715122,0.00563091,
 0.00147332,-0.00194878,-0.00299798,0.01980249,0.02437646,-0.04852338,-
 0.01814305,-0.03130666,0.03913149,-0.00352375,-0.00083750,-0.00051085,
 0.00036077,-0.00002239,0.00009906,-0.00706677,0.00453198,-0.00403412,0
 .00787033,-0.00177472,0.00347372,-0.00168402,0.00246006,-0.00188772,0.
 00001626,-0.00073143,0.00043333,0.00340445,-0.00006629,-0.00120390,-0.
 00120537,0.00051223,-0.00053934,-0.01830092,0.01120694,-0.01334101,0.0
 0103044,0.00010554,0.00141798,-0.25178412,0.05061402,-0.08579903,-0.05
 409036,0.01515310,-0.02560781,0.00250728,0.00120527,0.00125379,0.00207
 612,-0.01042161,0.00400606,-0.00209467,0.00098785,-0.00102142,0.322484
 33,0.00121355,0.00038557,0.00018334,-0.00009453,0.00003221,-0.00004519
 ,0.00433976,0.00245921,-0.00093774,-0.00226968,0.00049146,-0.00145642,
 0.00043864,-0.00057271,0.00050540,-0.00013330,0.00023726,-0.00018331,-
 0.00870923,-0.00453394,0.00421599,0.00195869,-0.00061837,0.00073657,0.
 04661931,-0.00852635,0.02174053,-0.00010790,0.00126295,-0.00297501,0.0
 5059241,-0.08525024,0.03677012,-0.02036917,0.01437346,-0.00943276,0.00
 144959,0.00024280,-0.00194262,-0.00138459,-0.00378481,0.00587471,-0.00
 062051,0.00026713,-0.00049483,-0.07292303,0.08353437,-0.00166269,-0.00
 036550,-0.00010020,0.00015480,-0.00002920,0.00003601,-0.00387684,-0.00
 090419,-0.00218888,0.00371841,-0.00131297,0.00072765,-0.00074418,0.001
 06255,-0.00070017,0.00007346,-0.00032638,0.00022501,0.00341093,0.00665
 909,0.00525069,-0.00130883,0.00032069,-0.00083319,-0.03237651,0.011703
 99,-0.00793838,0.00154508,-0.00287972,-0.00221315,-0.08586728,0.036786
 06,-0.08730100,-0.00638051,0.00056750,0.00539087,0.00109115,-0.0020193
 7,-0.00276314,-0.00087422,0.00333694,0.00582624,-0.00016401,-0.0000407
 0,-0.00035263,0.12326125,-0.05255878,0.08693426\\0.00000170,-0.0000037
 0,-0.00000643,0.00000208,-0.00000431,-0.00000729,0.00000012,-0.0000003
 4,-0.00000058,0.00000066,-0.00000152,-0.00000245,0.00000023,-0.0000002
 4,-0.00000052,-0.00000073,0.00000131,0.00000239,-0.00000099,0.00000191
 ,0.00000343,-0.00000172,0.00000296,0.00000540,-0.00000153,0.00000282,0
 .00000508,-0.00000240,0.00000457,0.00000818,-0.00000007,0.00000133,0.0
 0000282,0.00000048,-0.00000067,-0.00000147,0.00000109,-0.00000169,-0.0
 0000327,0.00000096,-0.00000165,-0.00000298,0.00000182,-0.00000337,-0.0
 0000612,-0.00000168,0.00000259,0.00000382\\\@
 The archive entry for this job was punched.


 TRUTH, IN SCIENCE, CAN BE DEFINED AS THE WORKING HYPOTHESIS 
 BEST FITTED TO OPEN THE WAY TO THE NEXT BETTER ONE.

                              -- KONRAD LORENZ
 Job cpu time:       0 days  0 hours 37 minutes  5.7 seconds.
 Elapsed time:       0 days  0 hours  1 minutes 13.4 seconds.
 File lengths (MBytes):  RWF=    147 Int=      0 D2E=      0 Chk=     14 Scr=      1
 Normal termination of Gaussian 16 at Mon Apr 21 11:31:52 2025.
