/home/tahminaafroz
cn011.cluster.local
tahminaafroz
Wed Apr 30 05:07:29 CDT 2025
 Entering Gaussian System, Link 0=g16
 Initial command:
 /home/apps/g16/l1.exe "/tmp/4-OH-phboh2-opt-freq/Gau-270878.inp" -scrdir="/tmp/4-OH-phboh2-opt-freq/"
 Entering Link 1 = /home/apps/g16/l1.exe PID=    270879.
  
 Copyright (c) 1988-2019, Gaussian, Inc.  All Rights Reserved.
  
 This is part of the Gaussian(R) 16 program.  It is based on
 the Gaussian(R) 09 system (copyright 2009, Gaussian, Inc.),
 the Gaussian(R) 03 system (copyright 2003, Gaussian, Inc.),
 the Gaussian(R) 98 system (copyright 1998, Gaussian, Inc.),
 the Gaussian(R) 94 system (copyright 1995, Gaussian, Inc.),
 the Gaussian 92(TM) system (copyright 1992, Gaussian, Inc.),
 the Gaussian 90(TM) system (copyright 1990, Gaussian, Inc.),
 the Gaussian 88(TM) system (copyright 1988, Gaussian, Inc.),
 the Gaussian 86(TM) system (copyright 1986, Carnegie Mellon
 University), and the Gaussian 82(TM) system (copyright 1983,
 Carnegie Mellon University). Gaussian is a federally registered
 trademark of Gaussian, Inc.
  
 This software contains proprietary and confidential information,
 including trade secrets, belonging to Gaussian, Inc.
  
 This software is provided under written license and may be
 used, copied, transmitted, or stored only in accord with that
 written license.
  
 The following legend is applicable only to US Government
 contracts under FAR:
  
                    RESTRICTED RIGHTS LEGEND
  
 Use, reproduction and disclosure by the US Government is
 subject to restrictions as set forth in subparagraphs (a)
 and (c) of the Commercial Computer Software - Restricted
 Rights clause in FAR 52.227-19.
  
 Gaussian, Inc.
 340 Quinnipiac St., Bldg. 40, Wallingford CT 06492
  
  
 ---------------------------------------------------------------
 Warning -- This program may not be used in any manner that
 competes with the business of Gaussian, Inc. or will provide
 assistance to any competitor of Gaussian, Inc.  The licensee
 of this program is prohibited from giving any competitor of
 Gaussian, Inc. access to this program.  By using this program,
 the user acknowledges that Gaussian, Inc. is engaged in the
 business of creating and licensing software in the field of
 computational chemistry and represents and warrants to the
 licensee that it is not a competitor of Gaussian, Inc. and that
 it will not use this program in any manner prohibited above.
 ---------------------------------------------------------------
  

 Cite this work as:
 Gaussian 16, Revision C.01,
 M. J. Frisch, G. W. Trucks, H. B. Schlegel, G. E. Scuseria, 
 M. A. Robb, J. R. Cheeseman, G. Scalmani, V. Barone, 
 G. A. Petersson, H. Nakatsuji, X. Li, M. Caricato, A. V. Marenich, 
 J. Bloino, B. G. Janesko, R. Gomperts, B. Mennucci, H. P. Hratchian, 
 J. V. Ortiz, A. F. Izmaylov, J. L. Sonnenberg, D. Williams-Young, 
 F. Ding, F. Lipparini, F. Egidi, J. Goings, B. Peng, A. Petrone, 
 T. Henderson, D. Ranasinghe, V. G. Zakrzewski, J. Gao, N. Rega, 
 G. Zheng, W. Liang, M. Hada, M. Ehara, K. Toyota, R. Fukuda, 
 J. Hasegawa, M. Ishida, T. Nakajima, Y. Honda, O. Kitao, H. Nakai, 
 T. Vreven, K. Throssell, J. A. Montgomery, Jr., J. E. Peralta, 
 F. Ogliaro, M. J. Bearpark, J. J. Heyd, E. N. Brothers, K. N. Kudin, 
 V. N. Staroverov, T. A. Keith, R. Kobayashi, J. Normand, 
 K. Raghavachari, A. P. Rendell, J. C. Burant, S. S. Iyengar, 
 J. Tomasi, M. Cossi, J. M. Millam, M. Klene, C. Adamo, R. Cammi, 
 J. W. Ochterski, R. L. Martin, K. Morokuma, O. Farkas, 
 J. B. Foresman, and D. J. Fox, Gaussian, Inc., Wallingford CT, 2019.
 
 ******************************************
 Gaussian 16:  AS64L-G16RevC.01  3-Jul-2019
                30-Apr-2025 
 ******************************************
 %mem=20GB
 %nprocshared=32
 Will use up to   32 processors via shared memory.
 %chk=4-OH-phboh2-opt-freq.chk
 ----------------------------------------------------------------------
 # opt=(calcfc,tight) freq 6-311+g(d,p) nosymm scf=(qc,fermi,xqc) geom=
 connectivity int=ultrafine m062x
 ----------------------------------------------------------------------
 1/7=10,10=4,18=20,19=15,26=4,38=1,57=2/1,3;
 2/9=110,12=2,15=1,17=6,18=5,40=1/2;
 3/5=4,6=6,7=111,11=2,25=1,30=1,71=2,74=-55,75=-5,140=1/1,2,3;
 4//1;
 5/5=2,22=13,38=5/2;
 8/6=4,10=90,11=11/1;
 11/6=1,8=1,9=11,15=111,16=1,31=1/1,2,10;
 10/6=1,13=1,31=1/2;
 6/7=2,8=2,9=2,10=2,28=1/1;
 7/10=1,25=1,30=1/1,2,3,16;
 1/7=10,10=4,18=20,19=15,26=4/3(2);
 2/9=110,15=1/2;
 99//99;
 2/9=110,15=1/2;
 3/5=4,6=6,7=111,11=2,25=1,30=1,71=1,74=-55,75=-5/1,2,3;
 4/5=5,16=3,69=1/1;
 5/5=2,22=13,38=5/2;
 7/30=1/1,2,3,16;
 1/7=10,18=20,19=15,26=4/3(-5);
 2/9=110,15=1/2;
 6/7=2,8=2,9=2,10=2,19=2,28=1/1;
 99/9=1/99;
 --------------------
 4-OH-phboh2-opt-freq
 --------------------
 Symbolic Z-matrix:
 Charge =  0 Multiplicity = 1
 O                     8.66698   7.53064   5.47881 
 H                     9.4676    7.37846   5.98861 
 C                     6.26035   6.86267   5.17548 
 B                     7.64029   6.73213   5.89222 
 O                     7.89484   5.8628    6.92112 
 H                     7.1404    5.33704   7.19071 
 C                     5.15404   6.05732   5.48701 
 H                     5.22623   5.29146   6.25509 
 C                     3.94258   6.19849   4.8367 
 H                     3.08871   5.57684   5.07592 
 C                     3.8008    7.16644   3.83729 
 C                     4.88182   7.98207   3.50209 
 H                     4.79563   8.73655   2.73196 
 C                     6.09104   7.81853   4.17197 
 H                     6.93016   8.45312   3.90899 
 O                     2.58002   7.23596   3.25347 
 H                     2.44875   7.89011   2.56322 
 

 GradGradGradGradGradGradGradGradGradGradGradGradGradGradGradGradGradGrad
 Berny optimization.
 Initialization pass.
                           ----------------------------
                           !    Initial Parameters    !
                           ! (Angstroms and Degrees)  !
 --------------------------                            --------------------------
 ! Name  Definition              Value          Derivative Info.                !
 --------------------------------------------------------------------------------
 ! R1    R(1,2)                  0.9613         calculate D2E/DX2 analytically  !
 ! R2    R(1,4)                  1.3648         calculate D2E/DX2 analytically  !
 ! R3    R(3,4)                  1.5604         calculate D2E/DX2 analytically  !
 ! R4    R(3,7)                  1.4034         calculate D2E/DX2 analytically  !
 ! R5    R(3,14)                 1.3962         calculate D2E/DX2 analytically  !
 ! R6    R(4,5)                  1.3708         calculate D2E/DX2 analytically  !
 ! R7    R(5,6)                  0.9583         calculate D2E/DX2 analytically  !
 ! R8    R(7,8)                  1.0871         calculate D2E/DX2 analytically  !
 ! R9    R(7,9)                  1.3822         calculate D2E/DX2 analytically  !
 ! R10   R(9,10)                 1.0829         calculate D2E/DX2 analytically  !
 ! R11   R(9,11)                 1.3985         calculate D2E/DX2 analytically  !
 ! R12   R(11,12)                1.3951         calculate D2E/DX2 analytically  !
 ! R13   R(11,16)                1.355          calculate D2E/DX2 analytically  !
 ! R14   R(12,13)                1.0816         calculate D2E/DX2 analytically  !
 ! R15   R(12,14)                1.392          calculate D2E/DX2 analytically  !
 ! R16   R(14,15)                1.0844         calculate D2E/DX2 analytically  !
 ! R17   R(16,17)                0.96           calculate D2E/DX2 analytically  !
 ! A1    A(2,1,4)              111.9177         calculate D2E/DX2 analytically  !
 ! A2    A(4,3,7)              123.1715         calculate D2E/DX2 analytically  !
 ! A3    A(4,3,14)             119.646          calculate D2E/DX2 analytically  !
 ! A4    A(7,3,14)             117.1825         calculate D2E/DX2 analytically  !
 ! A5    A(1,4,3)              118.5009         calculate D2E/DX2 analytically  !
 ! A6    A(1,4,5)              117.3037         calculate D2E/DX2 analytically  !
 ! A7    A(3,4,5)              124.1953         calculate D2E/DX2 analytically  !
 ! A8    A(4,5,6)              114.387          calculate D2E/DX2 analytically  !
 ! A9    A(3,7,8)              120.5832         calculate D2E/DX2 analytically  !
 ! A10   A(3,7,9)              121.8623         calculate D2E/DX2 analytically  !
 ! A11   A(8,7,9)              117.5542         calculate D2E/DX2 analytically  !
 ! A12   A(7,9,10)             121.9055         calculate D2E/DX2 analytically  !
 ! A13   A(7,9,11)             119.7201         calculate D2E/DX2 analytically  !
 ! A14   A(10,9,11)            118.3743         calculate D2E/DX2 analytically  !
 ! A15   A(9,11,12)            119.8549         calculate D2E/DX2 analytically  !
 ! A16   A(9,11,16)            115.7696         calculate D2E/DX2 analytically  !
 ! A17   A(12,11,16)           124.3755         calculate D2E/DX2 analytically  !
 ! A18   A(11,12,13)           121.1437         calculate D2E/DX2 analytically  !
 ! A19   A(11,12,14)           119.2625         calculate D2E/DX2 analytically  !
 ! A20   A(13,12,14)           119.5938         calculate D2E/DX2 analytically  !
 ! A21   A(3,14,12)            122.1173         calculate D2E/DX2 analytically  !
 ! A22   A(3,14,15)            118.7572         calculate D2E/DX2 analytically  !
 ! A23   A(12,14,15)           119.1254         calculate D2E/DX2 analytically  !
 ! A24   A(11,16,17)           117.9013         calculate D2E/DX2 analytically  !
 ! D1    D(2,1,4,3)            179.4421         calculate D2E/DX2 analytically  !
 ! D2    D(2,1,4,5)             -0.4564         calculate D2E/DX2 analytically  !
 ! D3    D(7,3,4,1)            177.5606         calculate D2E/DX2 analytically  !
 ! D4    D(7,3,4,5)             -2.5484         calculate D2E/DX2 analytically  !
 ! D5    D(14,3,4,1)            -2.4278         calculate D2E/DX2 analytically  !
 ! D6    D(14,3,4,5)           177.4631         calculate D2E/DX2 analytically  !
 ! D7    D(4,3,7,8)             -0.3585         calculate D2E/DX2 analytically  !
 ! D8    D(4,3,7,9)            179.8396         calculate D2E/DX2 analytically  !
 ! D9    D(14,3,7,8)           179.6302         calculate D2E/DX2 analytically  !
 ! D10   D(14,3,7,9)            -0.1717         calculate D2E/DX2 analytically  !
 ! D11   D(4,3,14,12)         -179.7981         calculate D2E/DX2 analytically  !
 ! D12   D(4,3,14,15)            0.1364         calculate D2E/DX2 analytically  !
 ! D13   D(7,3,14,12)            0.2128         calculate D2E/DX2 analytically  !
 ! D14   D(7,3,14,15)         -179.8527         calculate D2E/DX2 analytically  !
 ! D15   D(1,4,5,6)            178.6813         calculate D2E/DX2 analytically  !
 ! D16   D(3,4,5,6)             -1.2109         calculate D2E/DX2 analytically  !
 ! D17   D(3,7,9,10)           179.9449         calculate D2E/DX2 analytically  !
 ! D18   D(3,7,9,11)             0.0413         calculate D2E/DX2 analytically  !
 ! D19   D(8,7,9,10)             0.1372         calculate D2E/DX2 analytically  !
 ! D20   D(8,7,9,11)          -179.7663         calculate D2E/DX2 analytically  !
 ! D21   D(7,9,11,12)            0.0561         calculate D2E/DX2 analytically  !
 ! D22   D(7,9,11,16)         -179.9708         calculate D2E/DX2 analytically  !
 ! D23   D(10,9,11,12)        -179.8508         calculate D2E/DX2 analytically  !
 ! D24   D(10,9,11,16)           0.1222         calculate D2E/DX2 analytically  !
 ! D25   D(9,11,12,13)         179.9405         calculate D2E/DX2 analytically  !
 ! D26   D(9,11,12,14)          -0.0169         calculate D2E/DX2 analytically  !
 ! D27   D(16,11,12,13)         -0.0301         calculate D2E/DX2 analytically  !
 ! D28   D(16,11,12,14)       -179.9875         calculate D2E/DX2 analytically  !
 ! D29   D(9,11,16,17)         179.9927         calculate D2E/DX2 analytically  !
 ! D30   D(12,11,16,17)         -0.0356         calculate D2E/DX2 analytically  !
 ! D31   D(11,12,14,3)          -0.1224         calculate D2E/DX2 analytically  !
 ! D32   D(11,12,14,15)        179.9434         calculate D2E/DX2 analytically  !
 ! D33   D(13,12,14,3)         179.9196         calculate D2E/DX2 analytically  !
 ! D34   D(13,12,14,15)         -0.0147         calculate D2E/DX2 analytically  !
 --------------------------------------------------------------------------------
 Trust Radius=3.00D-01 FncErr=1.00D-07 GrdErr=1.00D-06 EigMax=2.50D+02 EigMin=1.00D-04
 Number of steps in this run=     85 maximum allowed number of steps=    102.
 GradGradGradGradGradGradGradGradGradGradGradGradGradGradGradGradGradGrad

                          Input orientation:                          
 ---------------------------------------------------------------------
 Center     Atomic      Atomic             Coordinates (Angstroms)
 Number     Number       Type             X           Y           Z
 ---------------------------------------------------------------------
      1          8           0        8.666976    7.530645    5.478809
      2          1           0        9.467602    7.378460    5.988610
      3          6           0        6.260349    6.862668    5.175479
      4          5           0        7.640289    6.732129    5.892222
      5          8           0        7.894844    5.862804    6.921118
      6          1           0        7.140400    5.337038    7.190707
      7          6           0        5.154045    6.057321    5.487008
      8          1           0        5.226232    5.291461    6.255088
      9          6           0        3.942583    6.198486    4.836703
     10          1           0        3.088712    5.576837    5.075923
     11          6           0        3.800802    7.166441    3.837290
     12          6           0        4.881817    7.982073    3.502086
     13          1           0        4.795625    8.736553    2.731955
     14          6           0        6.091041    7.818533    4.171973
     15          1           0        6.930162    8.453124    3.908985
     16          8           0        2.580017    7.235957    3.253471
     17          1           0        2.448751    7.890114    2.563218
 ---------------------------------------------------------------------
                    Distance matrix (angstroms):
                    1          2          3          4          5
     1  O    0.000000
     2  H    0.961280   0.000000
     3  C    2.515960   3.348686   0.000000
     4  B    1.364780   1.940646   1.560447   0.000000
     5  O    2.336266   2.374943   2.592018   1.370821   0.000000
     6  H    3.173790   3.320890   2.676412   1.970338   0.958277
     7  C    3.809388   4.539139   1.403404   2.607868   3.099433
     8  H    4.177951   4.734532   2.168789   2.834584   2.809185
     9  C    4.950438   5.765853   2.434737   3.882258   4.480830
    10  H    5.924248   6.690970   3.423822   4.766329   5.156106
    11  C    5.148483   6.065126   2.816452   4.376418   5.288728
    12  C    4.294025   5.251340   2.440013   3.858015   5.025874
    13  H    4.897630   5.854706   3.409937   4.700757   5.950855
    14  C    2.902782   3.859404   1.396197   2.557284   3.825752
    15  H    2.516314   3.452296   2.140609   2.720172   4.088192
    16  O    6.487684   7.412160   4.168729   5.729154   6.601861
    17  H    6.877223   7.826836   4.733690   6.274971   7.263690
                    6          7          8          9         10
     6  H    0.000000
     7  C    2.714223   0.000000
     8  H    2.131079   1.087060   0.000000
     9  C    4.063184   1.382195   2.117136   0.000000
    10  H    4.576679   2.159967   2.457816   1.082945   0.000000
    11  C    5.073957   2.404783   3.375374   1.398522   2.137317
    12  C    5.069845   2.778254   3.864846   2.417550   3.387824
    13  H    6.077429   3.859672   4.946367   3.405793   4.288536
    14  C    4.046199   2.389382   3.387234   2.771694   3.854388
    15  H    4.530330   3.374110   4.289952   3.856123   4.938776
    16  O    6.317026   3.606035   4.448958   2.332286   2.516502
    17  H    7.067065   4.384779   5.300688   3.203415   3.474836
                   11         12         13         14         15
    11  C    0.000000
    12  C    1.395067   0.000000
    13  H    2.162566   1.081559   0.000000
    14  C    2.404669   1.392019   2.143482   0.000000
    15  H    3.384315   2.140835   2.453972   1.084432   0.000000
    16  O    1.354988   2.432444   2.726295   3.675640   4.564532
    17  H    1.993740   2.609547   2.500549   3.982397   4.712866
                   16         17
    16  O    0.000000
    17  H    0.960000   0.000000
 Symmetry turned off by external request.
 Stoichiometry    C6H7BO3
 Framework group  C1[X(C6H7BO3)]
 Deg. of freedom    45
 Full point group                 C1      NOp   1
 Rotational constants (GHZ):           3.6864787           0.7393109           0.6159063
 Standard basis: 6-311+G(d,p) (5D, 7F)
   262 basis functions,   416 primitive gaussians,   272 cartesian basis functions
    36 alpha electrons       36 beta electrons
       nuclear repulsion energy       476.1785137018 Hartrees.
 NAtoms=   17 NActive=   17 NUniq=   17 SFac= 1.00D+00 NAtFMM=   60 NAOKFM=F Big=F
 Integral buffers will be    131072 words long.
 Raffenetti 2 integral format.
 Two-electron integral symmetry is turned off.
 One-electron integrals computed using PRISM.
 NBasis=   262 RedAO= T EigKep=  2.29D-06  NBF=   262
 NBsUse=   262 1.00D-06 EigRej= -1.00D+00 NBFU=   262
 ExpMin= 3.15D-02 ExpMax= 8.59D+03 ExpMxC= 1.30D+03 IAcc=3 IRadAn=         5 AccDes= 0.00D+00
 Harris functional with IExCor= 1009 and IRadAn=       5 diagonalized for initial guess.
 HarFok:  IExCor= 1009 AccDes= 0.00D+00 IRadAn=         5 IDoV= 1 UseB2=F ITyADJ=14
 ICtDFT=  3500011 ScaDFX=  1.000000  1.000000  1.000000  1.000000
 FoFCou: FMM=F IPFlag=           0 FMFlag=      100000 FMFlg1=           0
         NFxFlg=           0 DoJE=T BraDBF=F KetDBF=T FulRan=T
         wScrn=  0.000000 ICntrl=       500 IOpCl=  0 I1Cent=   200000004 NGrid=           0
         NMat0=    1 NMatS0=      1 NMatT0=    0 NMatD0=    1 NMtDS0=    0 NMtDT0=    0
 Symmetry not used in FoFCou.
 Requested convergence on RMS density matrix=1.00D-08 within 128 cycles.
 Requested convergence on MAX density matrix=1.00D-06.
 Requested convergence on             energy=1.00D-06.
 Level shift goal  0.100 maximum shift  0.100.
 No special actions if energy rises.
 Dynamic level shift is on during FON iterations.
 SCF Done:  E(RM062X) =  -483.448906299     A.U. after   14 cycles
            NFock= 14  Conv=0.45D-08     -V/T= 2.0035
 DoSCS=F DFT=T ScalE2(SS,OS)=  1.000000  1.000000
 Range of M.O.s used for correlation:     1   262
 NBasis=   262 NAE=    36 NBE=    36 NFC=     0 NFV=     0
 NROrb=    262 NOA=    36 NOB=    36 NVA=   226 NVB=   226

 **** Warning!!: The largest alpha MO coefficient is  0.15463271D+03

 Symmetrizing basis deriv contribution to polar:
 IMax=3 JMax=2 DiffMx= 0.00D+00
 G2DrvN: will do    18 centers at a time, making    1 passes.
 Calling FoFCou, ICntrl=  3107 FMM=F I1Cent=   0 AccDes= 0.00D+00.
 End of G2Drv F.D. properties file   721 does not exist.
 End of G2Drv F.D. properties file   722 does not exist.
 End of G2Drv F.D. properties file   788 does not exist.
          IDoAtm=11111111111111111
          Differentiating once with respect to nuclear coordinates.
 Keep R1 ints in memory in canonical form, NReq=628810612.
          There are    54 degrees of freedom in the 1st order CPHF.  IDoFFX=6 NUNeed=     0.
     48 vectors produced by pass  0 Test12= 1.51D-14 1.85D-09 XBig12= 1.33D-01 1.05D-01.
 AX will form    48 AO Fock derivatives at one time.
     48 vectors produced by pass  1 Test12= 1.51D-14 1.85D-09 XBig12= 9.55D-03 2.89D-02.
     48 vectors produced by pass  2 Test12= 1.51D-14 1.85D-09 XBig12= 2.51D-04 3.37D-03.
     48 vectors produced by pass  3 Test12= 1.51D-14 1.85D-09 XBig12= 1.95D-06 1.64D-04.
     48 vectors produced by pass  4 Test12= 1.51D-14 1.85D-09 XBig12= 1.24D-08 1.25D-05.
     48 vectors produced by pass  5 Test12= 1.51D-14 1.85D-09 XBig12= 5.01D-11 8.79D-07.
     46 vectors produced by pass  6 Test12= 1.51D-14 1.85D-09 XBig12= 2.04D-13 6.37D-08.
      8 vectors produced by pass  7 Test12= 1.51D-14 1.85D-09 XBig12= 8.36D-16 3.40D-09.
 InvSVY:  IOpt=1 It=  1 EMax= 4.44D-16
 Solved reduced A of dimension   342 with    54 vectors.
 End of Minotr F.D. properties file   721 does not exist.
 End of Minotr F.D. properties file   722 does not exist.
 End of Minotr F.D. properties file   788 does not exist.

 **********************************************************************

            Population analysis using the SCF Density.

 **********************************************************************

 Alpha  occ. eigenvalues --  -19.66159 -19.63662 -19.62851 -10.61872 -10.55611
 Alpha  occ. eigenvalues --  -10.54999 -10.54802 -10.54456 -10.52528  -7.08143
 Alpha  occ. eigenvalues --   -1.19676  -1.16678  -1.12949  -0.96286  -0.85382
 Alpha  occ. eigenvalues --   -0.84364  -0.72511  -0.69600  -0.65527  -0.63696
 Alpha  occ. eigenvalues --   -0.62781  -0.55930  -0.55101  -0.52021  -0.50337
 Alpha  occ. eigenvalues --   -0.49623  -0.47680  -0.47544  -0.46171  -0.45399
 Alpha  occ. eigenvalues --   -0.41474  -0.40320  -0.40235  -0.39178  -0.31656
 Alpha  occ. eigenvalues --   -0.28747
 Alpha virt. eigenvalues --   -0.00236   0.00538   0.00661   0.01267   0.01802
 Alpha virt. eigenvalues --    0.03235   0.03410   0.03994   0.04974   0.06979
 Alpha virt. eigenvalues --    0.07715   0.07897   0.09392   0.10837   0.11013
 Alpha virt. eigenvalues --    0.11677   0.12894   0.13003   0.14048   0.14129
 Alpha virt. eigenvalues --    0.15250   0.15420   0.16148   0.16770   0.17516
 Alpha virt. eigenvalues --    0.17971   0.18341   0.18862   0.19958   0.20159
 Alpha virt. eigenvalues --    0.21017   0.22616   0.23014   0.23764   0.23894
 Alpha virt. eigenvalues --    0.24356   0.24847   0.25280   0.25650   0.25965
 Alpha virt. eigenvalues --    0.26598   0.27700   0.28334   0.29468   0.29875
 Alpha virt. eigenvalues --    0.30653   0.31927   0.32514   0.34064   0.35784
 Alpha virt. eigenvalues --    0.37644   0.38704   0.39830   0.40049   0.41904
 Alpha virt. eigenvalues --    0.44085   0.45576   0.48420   0.49746   0.50217
 Alpha virt. eigenvalues --    0.51589   0.53896   0.54965   0.56560   0.57050
 Alpha virt. eigenvalues --    0.58671   0.59271   0.60129   0.61525   0.63296
 Alpha virt. eigenvalues --    0.63787   0.64658   0.66740   0.67728   0.68767
 Alpha virt. eigenvalues --    0.69999   0.70731   0.71894   0.73000   0.73672
 Alpha virt. eigenvalues --    0.76625   0.78414   0.81029   0.83637   0.86151
 Alpha virt. eigenvalues --    0.87947   0.89246   0.90364   0.90627   0.90930
 Alpha virt. eigenvalues --    0.91820   0.95441   0.95809   1.00144   1.02972
 Alpha virt. eigenvalues --    1.04547   1.06501   1.07395   1.08648   1.08980
 Alpha virt. eigenvalues --    1.11273   1.12388   1.12688   1.13569   1.14318
 Alpha virt. eigenvalues --    1.15918   1.20194   1.20339   1.24634   1.26789
 Alpha virt. eigenvalues --    1.29564   1.32443   1.33957   1.35235   1.39041
 Alpha virt. eigenvalues --    1.45713   1.47277   1.47562   1.50231   1.50888
 Alpha virt. eigenvalues --    1.53210   1.55941   1.58867   1.60170   1.60831
 Alpha virt. eigenvalues --    1.61749   1.65350   1.67846   1.69166   1.71021
 Alpha virt. eigenvalues --    1.71284   1.75658   1.77826   1.80354   1.80615
 Alpha virt. eigenvalues --    1.85548   1.86822   1.87413   1.91883   1.94981
 Alpha virt. eigenvalues --    1.96138   1.97590   1.99705   2.00332   2.01426
 Alpha virt. eigenvalues --    2.02424   2.09161   2.10534   2.10821   2.14302
 Alpha virt. eigenvalues --    2.16730   2.17607   2.21480   2.27425   2.35730
 Alpha virt. eigenvalues --    2.37098   2.43196   2.44426   2.47611   2.56605
 Alpha virt. eigenvalues --    2.58944   2.60781   2.62831   2.64064   2.66014
 Alpha virt. eigenvalues --    2.70511   2.70858   2.72853   2.76020   2.77429
 Alpha virt. eigenvalues --    2.78000   2.78292   2.80494   2.82373   2.84170
 Alpha virt. eigenvalues --    2.94215   2.95327   2.98383   3.07621   3.11449
 Alpha virt. eigenvalues --    3.11983   3.13004   3.14306   3.24330   3.26713
 Alpha virt. eigenvalues --    3.26721   3.27561   3.31222   3.38053   3.41136
 Alpha virt. eigenvalues --    3.46502   3.48939   3.53905   3.56533   3.61365
 Alpha virt. eigenvalues --    3.62968   3.66796   3.67711   3.92089   3.95052
 Alpha virt. eigenvalues --    3.99058   4.03965   4.10629   4.17300   4.19751
 Alpha virt. eigenvalues --    4.22128   4.85868   5.08372   5.09439   5.11218
 Alpha virt. eigenvalues --    5.39697   5.49524   5.50416   5.69161   5.76736
 Alpha virt. eigenvalues --    5.89046  14.80226  23.66133  24.00754  24.02584
 Alpha virt. eigenvalues --   24.13140  24.18715  24.26068  50.00344  50.04305
 Alpha virt. eigenvalues --   50.05860
          Condensed to atoms (all electrons):
               1          2          3          4          5          6
     1  O    7.785284   0.265616   0.037703   0.442818  -0.120270   0.019356
     2  H    0.265616   0.456701   0.053091  -0.005030  -0.035260   0.003373
     3  C    0.037703   0.053091   8.696235   0.259585  -0.203625   0.003880
     4  B    0.442818  -0.005030   0.259585   3.346815   0.365096   0.014167
     5  O   -0.120270  -0.035260  -0.203625   0.365096   7.995427   0.257764
     6  H    0.019356   0.003373   0.003880   0.014167   0.257764   0.435516
     7  C    0.065052  -0.005824  -0.942114   0.070236   0.003380  -0.031608
     8  H    0.002208  -0.000041   0.060217   0.012966  -0.006495   0.011821
     9  C    0.042816   0.004291  -0.346464   0.088308   0.017172   0.052186
    10  H   -0.000034  -0.000001  -0.016596  -0.000134   0.000278  -0.000046
    11  C   -0.012194  -0.001308  -0.708744   0.003757   0.008521  -0.001818
    12  C   -0.009866  -0.017323  -0.829114   0.018071   0.041042  -0.010192
    13  H    0.000527   0.000002   0.027295   0.000877  -0.000008   0.000003
    14  C   -0.141814  -0.024436   0.130978  -0.078591   0.043289  -0.005769
    15  H    0.003676  -0.000780   0.039747  -0.008554   0.002167  -0.000100
    16  O    0.000038   0.000002   0.000669  -0.001315   0.000022  -0.000009
    17  H   -0.000006   0.000000   0.009854   0.000325   0.000007   0.000000
               7          8          9         10         11         12
     1  O    0.065052   0.002208   0.042816  -0.000034  -0.012194  -0.009866
     2  H   -0.005824  -0.000041   0.004291  -0.000001  -0.001308  -0.017323
     3  C   -0.942114   0.060217  -0.346464  -0.016596  -0.708744  -0.829114
     4  B    0.070236   0.012966   0.088308  -0.000134   0.003757   0.018071
     5  O    0.003380  -0.006495   0.017172   0.000278   0.008521   0.041042
     6  H   -0.031608   0.011821   0.052186  -0.000046  -0.001818  -0.010192
     7  C    9.842542   0.301422  -1.800003   0.054158   0.388872   0.012872
     8  H    0.301422   0.547368   0.005159  -0.006665  -0.027272  -0.003576
     9  C   -1.800003   0.005159   9.000902   0.293410  -0.209703  -0.322168
    10  H    0.054158  -0.006665   0.293410   0.490067   0.065306  -0.034723
    11  C    0.388872  -0.027272  -0.209703   0.065306   6.166974   0.298502
    12  C    0.012872  -0.003576  -0.322168  -0.034723   0.298502   7.635499
    13  H    0.002945   0.000081  -0.058639  -0.000066  -0.079682   0.288347
    14  C   -1.564375  -0.021099  -0.951443   0.001678   0.003752  -1.234023
    15  H   -0.008833  -0.000147   0.002026   0.000048   0.009355   0.017468
    16  O    0.023787  -0.000827  -0.237119  -0.008286   0.349075  -0.076364
    17  H   -0.023935   0.000009   0.064554   0.000310   0.012806  -0.057326
              13         14         15         16         17
     1  O    0.000527  -0.141814   0.003676   0.000038  -0.000006
     2  H    0.000002  -0.024436  -0.000780   0.000002   0.000000
     3  C    0.027295   0.130978   0.039747   0.000669   0.009854
     4  B    0.000877  -0.078591  -0.008554  -0.001315   0.000325
     5  O   -0.000008   0.043289   0.002167   0.000022   0.000007
     6  H    0.000003  -0.005769  -0.000100  -0.000009   0.000000
     7  C    0.002945  -1.564375  -0.008833   0.023787  -0.023935
     8  H    0.000081  -0.021099  -0.000147  -0.000827   0.000009
     9  C   -0.058639  -0.951443   0.002026  -0.237119   0.064554
    10  H   -0.000066   0.001678   0.000048  -0.008286   0.000310
    11  C   -0.079682   0.003752   0.009355   0.349075   0.012806
    12  C    0.288347  -1.234023   0.017468  -0.076364  -0.057326
    13  H    0.513493   0.172059  -0.006412  -0.006925   0.002075
    14  C    0.172059   9.950674   0.289879   0.009652  -0.008832
    15  H   -0.006412   0.289879   0.479507  -0.000676   0.000036
    16  O   -0.006925   0.009652  -0.000676   7.989999   0.263385
    17  H    0.002075  -0.008832   0.000036   0.263385   0.461645
 Mulliken charges:
               1
     1  O   -0.380909
     2  H    0.306929
     3  C   -0.272598
     4  B    0.470604
     5  O   -0.368508
     6  H    0.251478
     7  C   -0.388574
     8  H    0.124872
     9  C    0.354713
    10  H    0.161295
    11  C   -0.266198
    12  C    0.282873
    13  H    0.144027
    14  C   -0.571580
    15  H    0.181592
    16  O   -0.305110
    17  H    0.275093
 Sum of Mulliken charges =   0.00000
 Mulliken charges with hydrogens summed into heavy atoms:
               1
     1  O   -0.073980
     3  C   -0.272598
     4  B    0.470604
     5  O   -0.117030
     7  C   -0.263702
     9  C    0.516008
    11  C   -0.266198
    12  C    0.426900
    14  C   -0.389988
    16  O   -0.030017
 APT charges:
               1
     1  O   -0.857611
     2  H    2.253504
     3  C   -1.558639
     4  B   -0.391645
     5  O    1.380197
     6  H   -0.923554
     7  C   -0.029354
     8  H    0.217867
     9  C    0.059703
    10  H   -0.640615
    11  C   -0.227045
    12  C   -1.375875
    13  H    0.818448
    14  C   -0.154553
    15  H    1.693010
    16  O   -0.889144
    17  H    0.625306
 Sum of APT charges =   0.00000
 APT charges with hydrogens summed into heavy atoms:
               1
     1  O    1.395893
     3  C   -1.558639
     4  B   -0.391645
     5  O    0.456643
     7  C    0.188513
     9  C   -0.580912
    11  C   -0.227045
    12  C   -0.557427
    14  C    1.538457
    16  O   -0.263839
 Electronic spatial extent (au):  <R**2>=          28581.6837
 Charge=              0.0000 electrons
 Dipole moment (field-independent basis, Debye):
    X=             -0.7836    Y=              0.2555    Z=             -0.4339  Tot=              0.9314
 Quadrupole moment (field-independent basis, Debye-Ang):
   XX=            -66.1878   YY=            -51.3880   ZZ=            -56.6895
   XY=             -5.9539   XZ=             -2.2367   YZ=             -9.4678
 Traceless Quadrupole moment (field-independent basis, Debye-Ang):
   XX=             -8.0994   YY=              6.7005   ZZ=              1.3989
   XY=             -5.9539   XZ=             -2.2367   YZ=             -9.4678
 Octapole moment (field-independent basis, Debye-Ang**2):
  XXX=          -1027.2242  YYY=          -1110.2956  ZZZ=           -807.8183  XYY=           -366.0721
  XXY=           -458.8444  XXZ=           -295.3632  XZZ=           -319.3751  YZZ=           -453.4072
  YYZ=           -378.1874  XYZ=            -44.0405
 Hexadecapole moment (field-independent basis, Debye-Ang**3):
 XXXX=         -12318.1063 YYYY=         -15896.9849 ZZZZ=          -8359.1939 XXXY=          -7015.4354
 XXXZ=          -4990.6888 YYYX=          -7032.9556 YYYZ=          -6581.4535 ZZZX=          -4908.2001
 ZZZY=          -5922.2882 XXYY=          -5319.3688 XXZZ=          -3480.3276 YYZZ=          -4969.9334
 XXYZ=          -2074.7034 YYXZ=          -2154.7470 ZZXY=          -2447.6577
 N-N= 4.761785137018D+02 E-N=-2.084020309689D+03  KE= 4.817560320650D+02
  Exact polarizability:       0.000       0.000       0.000       0.000       0.000       0.000
 Approx polarizability:     133.938       9.432      99.935      18.602     -27.360     102.901
 Calling FoFJK, ICntrl=    100127 FMM=F ISym2X=0 I1Cent= 0 IOpClX= 0 NMat=1 NMatS=1 NMatT=0.
 -------------------------------------------------------------------
 Center     Atomic                   Forces (Hartrees/Bohr)
 Number     Number              X              Y              Z
 -------------------------------------------------------------------
      1        8          -0.000214337   -0.000055051   -0.000034330
      2        1           0.000021316    0.000014234   -0.000008360
      3        6          -0.000990185   -0.001423348    0.000960374
      4        5           0.000265547   -0.000078609    0.000187563
      5        8          -0.000116068    0.000083132   -0.000139369
      6        1           0.000036666   -0.000023955    0.000046519
      7        6           0.002208025    0.000766827    0.000200102
      8        1          -0.000042126    0.000051993   -0.000066905
      9        6          -0.002038622    0.001358912   -0.002194517
     10        1           0.000085176    0.000031429    0.000008734
     11        6           0.002888597    0.003303957   -0.001966824
     12        6           0.000388906   -0.002560075    0.002620547
     13        1          -0.002240915    0.001018326   -0.001938056
     14        6          -0.001006803    0.001403517   -0.001759932
     15        1           0.000007395    0.000002055   -0.000000569
     16        8          -0.010842491   -0.006971430    0.002196321
     17        1           0.011589919    0.003078085    0.001888703
 -------------------------------------------------------------------
 Cartesian Forces:  Max     0.011589919 RMS     0.002770374
 FormGI is forming the generalized inverse of G from B-inverse, IUseBI=4.

 GradGradGradGradGradGradGradGradGradGradGradGradGradGradGradGradGradGrad
 Berny optimization.
 Internal  Forces:  Max     0.021964692 RMS     0.002781654
 Search for a local minimum.
 Step number   1 out of a maximum of   85
 All quantities printed in internal units (Hartrees-Bohrs-Radians)
 Mixed Optimization -- RFO/linear search
 Second derivative matrix not updated -- analytic derivatives used.
 ITU=  0
     Eigenvalues ---    0.00048   0.00571   0.00984   0.01177   0.01484
     Eigenvalues ---    0.01650   0.01781   0.02015   0.02212   0.02334
     Eigenvalues ---    0.02726   0.02813   0.03171   0.03989   0.10288
     Eigenvalues ---    0.10762   0.11128   0.11250   0.12010   0.12615
     Eigenvalues ---    0.13762   0.15813   0.17327   0.18431   0.18974
     Eigenvalues ---    0.19229   0.19676   0.21583   0.29362   0.29663
     Eigenvalues ---    0.35436   0.36369   0.36650   0.36777   0.38563
     Eigenvalues ---    0.38961   0.42253   0.45749   0.47025   0.48387
     Eigenvalues ---    0.49382   0.52749   0.55104   0.55226   0.56250
 RFO step:  Lambda=-3.84883188D-03 EMin= 4.76391097D-04
 Linear search not attempted -- first point.
 Iteration  1 RMS(Cart)=  0.04090231 RMS(Int)=  0.00328024
 Iteration  2 RMS(Cart)=  0.00325963 RMS(Int)=  0.00001291
 Iteration  3 RMS(Cart)=  0.00001958 RMS(Int)=  0.00000435
 Iteration  4 RMS(Cart)=  0.00000000 RMS(Int)=  0.00000435
 Variable       Old X    -DE/DX   Delta X   Delta X   Delta X     New X
                                 (Linear)    (Quad)   (Total)
    R1        1.81656   0.00001   0.00000   0.00003   0.00003   1.81658
    R2        2.57906  -0.00015   0.00000  -0.00042  -0.00042   2.57865
    R3        2.94882   0.00002   0.00000   0.00079   0.00079   2.94961
    R4        2.65205  -0.00072   0.00000  -0.00465  -0.00466   2.64739
    R5        2.63843   0.00127   0.00000   0.00615   0.00615   2.64458
    R6        2.59048  -0.00012   0.00000  -0.00088  -0.00088   2.58959
    R7        1.81088  -0.00001   0.00000  -0.00004  -0.00004   1.81084
    R8        2.05425  -0.00009   0.00000  -0.00019  -0.00019   2.05405
    R9        2.61197   0.00151   0.00000   0.00688   0.00688   2.61885
   R10        2.04647  -0.00008   0.00000  -0.00021  -0.00021   2.04626
   R11        2.64282  -0.00261   0.00000  -0.01006  -0.01006   2.63276
   R12        2.63629  -0.00319   0.00000  -0.00306  -0.00305   2.63325
   R13        2.56056  -0.00263   0.00000   0.00603   0.00603   2.56659
   R14        2.04385   0.00227   0.00000   0.00776   0.00776   2.05161
   R15        2.63053  -0.00173   0.00000  -0.00772  -0.00771   2.62282
   R16        2.04928   0.00001   0.00000  -0.00037  -0.00037   2.04891
   R17        1.81414  -0.00085   0.00000   0.00232   0.00232   1.81646
    A1        1.95333   0.00005   0.00000   0.00113   0.00113   1.95446
    A2        2.14975   0.00011   0.00000  -0.00012  -0.00012   2.14963
    A3        2.08822  -0.00007   0.00000  -0.00258  -0.00258   2.08564
    A4        2.04522  -0.00004   0.00000   0.00271   0.00269   2.04791
    A5        2.06823  -0.00025   0.00000  -0.00252  -0.00252   2.06571
    A6        2.04734   0.00014   0.00000   0.00110   0.00110   2.04843
    A7        2.16762   0.00011   0.00000   0.00142   0.00142   2.16904
    A8        1.99643   0.00012   0.00000   0.00166   0.00166   1.99809
    A9        2.10457   0.00006   0.00000  -0.00136  -0.00135   2.10322
   A10        2.12690  -0.00005   0.00000   0.00289   0.00287   2.12977
   A11        2.05171  -0.00001   0.00000  -0.00153  -0.00152   2.05019
   A12        2.12765   0.00063   0.00000  -0.00005  -0.00005   2.12761
   A13        2.08951  -0.00135   0.00000  -0.00831  -0.00832   2.08119
   A14        2.06602   0.00072   0.00000   0.00836   0.00836   2.07438
   A15        2.09186   0.00178   0.00000   0.00592   0.00594   2.09780
   A16        2.02056   0.00362   0.00000   0.02665   0.02664   2.04720
   A17        2.17076  -0.00540   0.00000  -0.03257  -0.03258   2.13818
   A18        2.11436  -0.00258   0.00000  -0.02167  -0.02167   2.09268
   A19        2.08152   0.00074   0.00000   0.00559   0.00560   2.08712
   A20        2.08731   0.00184   0.00000   0.01608   0.01607   2.10338
   A21        2.13135  -0.00107   0.00000  -0.00879  -0.00879   2.12256
   A22        2.07270   0.00053   0.00000   0.00196   0.00196   2.07467
   A23        2.07913   0.00054   0.00000   0.00682   0.00682   2.08595
   A24        2.05777  -0.02196   0.00000  -0.15357  -0.15357   1.90420
    D1        3.13185   0.00000   0.00000  -0.00010  -0.00010   3.13176
    D2       -0.00797   0.00000   0.00000  -0.00008  -0.00008  -0.00804
    D3        3.09902   0.00000   0.00000  -0.00157  -0.00157   3.09745
    D4       -0.04448   0.00000   0.00000  -0.00159  -0.00159  -0.04607
    D5       -0.04237   0.00000   0.00000  -0.00134  -0.00134  -0.04372
    D6        3.09732   0.00000   0.00000  -0.00136  -0.00136   3.09595
    D7       -0.00626   0.00000   0.00000   0.00018   0.00018  -0.00607
    D8        3.13879   0.00001   0.00000   0.00021   0.00021   3.13901
    D9        3.13514   0.00000   0.00000  -0.00004  -0.00004   3.13510
   D10       -0.00300   0.00000   0.00000  -0.00001  -0.00001  -0.00301
   D11       -3.13807  -0.00001   0.00000  -0.00023  -0.00023  -3.13830
   D12        0.00238   0.00000   0.00000  -0.00004  -0.00004   0.00234
   D13        0.00371  -0.00001   0.00000  -0.00002  -0.00002   0.00370
   D14       -3.13902   0.00000   0.00000   0.00017   0.00017  -3.13885
   D15        3.11858   0.00000   0.00000  -0.00089  -0.00089   3.11768
   D16       -0.02113   0.00000   0.00000  -0.00087  -0.00087  -0.02200
   D17        3.14063   0.00000   0.00000   0.00013   0.00013   3.14076
   D18        0.00072   0.00000   0.00000  -0.00009  -0.00009   0.00063
   D19        0.00240   0.00000   0.00000   0.00016   0.00015   0.00255
   D20       -3.13751   0.00001   0.00000  -0.00006  -0.00006  -3.13758
   D21        0.00098   0.00000   0.00000   0.00020   0.00020   0.00118
   D22       -3.14108  -0.00001   0.00000   0.00009   0.00009  -3.14099
   D23       -3.13899   0.00000   0.00000   0.00000   0.00000  -3.13899
   D24        0.00213   0.00000   0.00000  -0.00011  -0.00011   0.00202
   D25        3.14055   0.00000   0.00000  -0.00021  -0.00021   3.14034
   D26       -0.00029   0.00000   0.00000  -0.00021  -0.00021  -0.00050
   D27       -0.00053   0.00001   0.00000  -0.00011  -0.00011  -0.00064
   D28       -3.14137   0.00000   0.00000  -0.00011  -0.00011  -3.14148
   D29        3.14147   0.00002   0.00000  -0.00389  -0.00389   3.13758
   D30       -0.00062   0.00001   0.00000  -0.00399  -0.00399  -0.00461
   D31       -0.00214   0.00001   0.00000   0.00012   0.00012  -0.00201
   D32        3.14060   0.00000   0.00000  -0.00006  -0.00007   3.14054
   D33        3.14019   0.00001   0.00000   0.00014   0.00014   3.14033
   D34       -0.00026   0.00000   0.00000  -0.00005  -0.00005  -0.00030
         Item               Value     Threshold  Converged?
 Maximum Force            0.021965     0.000015     NO 
 RMS     Force            0.002782     0.000010     NO 
 Maximum Displacement     0.307500     0.000060     NO 
 RMS     Displacement     0.041665     0.000040     NO 
 Predicted change in Energy=-1.976141D-03
 GradGradGradGradGradGradGradGradGradGradGradGradGradGradGradGradGradGrad

                          Input orientation:                          
 ---------------------------------------------------------------------
 Center     Atomic      Atomic             Coordinates (Angstroms)
 Number     Number       Type             X           Y           Z
 ---------------------------------------------------------------------
      1          8           0        8.653586    7.536585    5.465590
      2          1           0        9.458022    7.390568    5.971208
      3          6           0        6.249834    6.859380    5.174160
      4          5           0        7.632951    6.734730    5.886730
      5          8           0        7.895345    5.869675    6.916631
      6          1           0        7.144889    5.341568    7.192629
      7          6           0        5.149593    6.051590    5.489710
      8          1           0        5.228609    5.287425    6.258660
      9          6           0        3.930813    6.184656    4.843642
     10          1           0        3.081906    5.558668    5.088630
     11          6           0        3.789829    7.149292    3.848350
     12          6           0        4.865007    7.967944    3.508473
     13          1           0        4.750202    8.717316    2.731344
     14          6           0        6.076777    7.816632    4.168086
     15          1           0        6.912936    8.453538    3.902078
     16          8           0        2.578474    7.245964    3.241780
     17          1           0        2.611473    7.945112    2.582947
 ---------------------------------------------------------------------
                    Distance matrix (angstroms):
                    1          2          3          4          5
     1  O    0.000000
     2  H    0.961295   0.000000
     3  C    2.514271   3.348121   0.000000
     4  B    1.364560   1.941171   1.560866   0.000000
     5  O    2.336458   2.376742   2.592957   1.370354   0.000000
     6  H    3.174417   3.322778   2.679383   1.970908   0.958256
     7  C    3.805753   4.537319   1.400938   2.606026   3.099734
     8  H    4.173505   4.732206   2.165660   2.830880   2.807742
     9  C    4.951678   5.768507   2.437694   3.885413   4.484864
    10  H    5.924346   6.692508   3.425630   4.767819   5.158246
    11  C    5.140193   6.057487   2.809527   4.369946   5.282709
    12  C    4.285990   5.243493   2.433347   3.852069   5.020082
    13  H    4.909851   5.866903   3.415871   4.711406   5.959665
    14  C    2.898601   3.855593   1.399452   2.558500   3.827836
    15  H    2.513013   3.447995   2.144583   2.722418   4.090111
    16  O    6.475861   7.402626   4.166824   5.727552   6.608163
    17  H    6.706985   7.659182   4.596833   6.131495   7.141957
                    6          7          8          9         10
     6  H    0.000000
     7  C    2.717585   0.000000
     8  H    2.132454   1.086957   0.000000
     9  C    4.069254   1.385834   2.119334   0.000000
    10  H    4.580587   2.163138   2.459853   1.082832   0.000000
    11  C    5.070354   2.397492   3.368416   1.393198   2.137647
    12  C    5.066431   2.771047   3.857579   2.415680   3.388356
    13  H    6.085496   3.856708   4.943176   3.398171   4.279845
    14  C    4.051501   2.392015   3.389215   2.779367   3.862002
    15  H    4.534962   3.376286   4.291236   3.863602   4.946208
    16  O    6.331515   3.618062   4.467735   2.349714   2.551719
    17  H    6.969897   4.298459   5.236752   3.154457   3.492115
                   11         12         13         14         15
    11  C    0.000000
    12  C    1.393455   0.000000
    13  H    2.151446   1.085665   0.000000
    14  C    2.403685   1.387938   2.152966   0.000000
    15  H    3.384928   2.141201   2.473382   1.084238   0.000000
    16  O    1.358181   2.412594   2.672419   3.663581   4.547723
    17  H    1.903444   2.436295   2.278701   3.812808   4.527823
                   16         17
    16  O    0.000000
    17  H    0.961227   0.000000
 Symmetry turned off by external request.
 Stoichiometry    C6H7BO3
 Framework group  C1[X(C6H7BO3)]
 Deg. of freedom    45
 Full point group                 C1      NOp   1
 Rotational constants (GHZ):           3.6829671           0.7414239           0.6172802
 Standard basis: 6-311+G(d,p) (5D, 7F)
   262 basis functions,   416 primitive gaussians,   272 cartesian basis functions
    36 alpha electrons       36 beta electrons
       nuclear repulsion energy       476.6095146322 Hartrees.
 NAtoms=   17 NActive=   17 NUniq=   17 SFac= 1.00D+00 NAtFMM=   60 NAOKFM=F Big=F
 Integral buffers will be    131072 words long.
 Raffenetti 2 integral format.
 Two-electron integral symmetry is turned off.
 One-electron integrals computed using PRISM.
 NBasis=   262 RedAO= T EigKep=  2.28D-06  NBF=   262
 NBsUse=   262 1.00D-06 EigRej= -1.00D+00 NBFU=   262
 Initial guess from the checkpoint file:  "4-OH-phboh2-opt-freq.chk"
 B after Tr=    -0.006952   -0.021387    0.016873
         Rot=    1.000000    0.000325   -0.000530   -0.000581 Ang=   0.10 deg.
 ExpMin= 3.15D-02 ExpMax= 8.59D+03 ExpMxC= 1.30D+03 IAcc=3 IRadAn=         5 AccDes= 0.00D+00
 Harris functional with IExCor= 1009 and IRadAn=       5 diagonalized for initial guess.
 HarFok:  IExCor= 1009 AccDes= 0.00D+00 IRadAn=         5 IDoV= 1 UseB2=F ITyADJ=14
 ICtDFT=  3500011 ScaDFX=  1.000000  1.000000  1.000000  1.000000
 FoFCou: FMM=F IPFlag=           0 FMFlag=      100000 FMFlg1=           0
         NFxFlg=           0 DoJE=T BraDBF=F KetDBF=T FulRan=T
         wScrn=  0.000000 ICntrl=       500 IOpCl=  0 I1Cent=   200000004 NGrid=           0
         NMat0=    1 NMatS0=      1 NMatT0=    0 NMatD0=    1 NMtDS0=    0 NMtDT0=    0
 Symmetry not used in FoFCou.
 Requested convergence on RMS density matrix=1.00D-08 within 128 cycles.
 Requested convergence on MAX density matrix=1.00D-06.
 Requested convergence on             energy=1.00D-06.
 Level shift goal  0.100 maximum shift  0.100.
 No special actions if energy rises.
 Dynamic level shift is on during FON iterations.
 SCF Done:  E(RM062X) =  -483.450716440     A.U. after   12 cycles
            NFock= 12  Conv=0.53D-08     -V/T= 2.0035
 Calling FoFJK, ICntrl=      2127 FMM=F ISym2X=0 I1Cent= 0 IOpClX= 0 NMat=1 NMatS=1 NMatT=0.
 -------------------------------------------------------------------
 Center     Atomic                   Forces (Hartrees/Bohr)
 Number     Number              X              Y              Z
 -------------------------------------------------------------------
      1        8          -0.000008175   -0.000007784   -0.000001304
      2        1           0.000002429   -0.000000753    0.000001347
      3        6          -0.000014812   -0.000019731    0.000015596
      4        5           0.000022651   -0.000004190    0.000010797
      5        8          -0.000014139    0.000002718   -0.000010861
      6        1          -0.000000638   -0.000002749    0.000006099
      7        6           0.000040717   -0.000020622    0.000031812
      8        1           0.000004304   -0.000003033    0.000004232
      9        6           0.000190207   -0.000077580    0.000152399
     10        1           0.000024631    0.000017533   -0.000005635
     11        6           0.000228057   -0.000770817    0.000864098
     12        6           0.000199652   -0.000125533    0.000196523
     13        1           0.000013661    0.000102312   -0.000098364
     14        6           0.000054414    0.000065115   -0.000024333
     15        1           0.000003306   -0.000003962    0.000005091
     16        8           0.000541772    0.001081890   -0.000779044
     17        1          -0.001288036   -0.000232816   -0.000368451
 -------------------------------------------------------------------
 Cartesian Forces:  Max     0.001288036 RMS     0.000328594

 GradGradGradGradGradGradGradGradGradGradGradGradGradGradGradGradGradGrad
 Berny optimization.
 Using GEDIIS/GDIIS optimizer.
 FormGI is forming the generalized inverse of G from B-inverse, IUseBI=4.
 Internal  Forces:  Max     0.002471976 RMS     0.000325459
 Search for a local minimum.
 Step number   2 out of a maximum of   85
 All quantities printed in internal units (Hartrees-Bohrs-Radians)
 Mixed Optimization -- En-DIIS/RFO-DIIS
 Update second derivatives using D2CorX and points    1    2
 DE= -1.81D-03 DEPred=-1.98D-03 R= 9.16D-01
 TightC=F SS=  1.41D+00  RLast= 1.64D-01 DXNew= 5.0454D-01 4.9183D-01
 Trust test= 9.16D-01 RLast= 1.64D-01 DXMaxT set to 4.92D-01
 ITU=  1  0
 Use linear search instead of GDIIS.
     Eigenvalues ---    0.00048   0.00571   0.00984   0.01177   0.01484
     Eigenvalues ---    0.01650   0.01781   0.02015   0.02212   0.02334
     Eigenvalues ---    0.02726   0.02813   0.03170   0.03989   0.10288
     Eigenvalues ---    0.10749   0.11123   0.11250   0.12010   0.12623
     Eigenvalues ---    0.15435   0.15812   0.17325   0.18424   0.18972
     Eigenvalues ---    0.19232   0.19677   0.21561   0.29359   0.29663
     Eigenvalues ---    0.35435   0.36369   0.36648   0.36747   0.38576
     Eigenvalues ---    0.38968   0.42257   0.45847   0.47024   0.48413
     Eigenvalues ---    0.49508   0.52875   0.55112   0.55226   0.56250
 RFO step:  Lambda=-6.11389999D-06 EMin= 4.76399719D-04
 Quartic linear search produced a step of -0.08062.
 Iteration  1 RMS(Cart)=  0.00385059 RMS(Int)=  0.00002009
 Iteration  2 RMS(Cart)=  0.00001864 RMS(Int)=  0.00000035
 Iteration  3 RMS(Cart)=  0.00000000 RMS(Int)=  0.00000035
 Variable       Old X    -DE/DX   Delta X   Delta X   Delta X     New X
                                 (Linear)    (Quad)   (Total)
    R1        1.81658   0.00000   0.00000   0.00000   0.00000   1.81659
    R2        2.57865   0.00000   0.00003  -0.00007  -0.00003   2.57861
    R3        2.94961   0.00001  -0.00006   0.00013   0.00006   2.94967
    R4        2.64739  -0.00003   0.00038  -0.00053  -0.00016   2.64723
    R5        2.64458   0.00000  -0.00050   0.00060   0.00011   2.64469
    R6        2.58959  -0.00001   0.00007  -0.00011  -0.00004   2.58955
    R7        1.81084   0.00000   0.00000   0.00000   0.00000   1.81084
    R8        2.05405   0.00001   0.00002  -0.00001   0.00001   2.05406
    R9        2.61885   0.00006  -0.00055   0.00074   0.00019   2.61903
   R10        2.04626  -0.00003   0.00002  -0.00010  -0.00008   2.04617
   R11        2.63276   0.00025   0.00081  -0.00062   0.00019   2.63295
   R12        2.63325   0.00021   0.00025   0.00013   0.00038   2.63362
   R13        2.56659   0.00124  -0.00049   0.00193   0.00144   2.56803
   R14        2.05161   0.00014  -0.00063   0.00094   0.00031   2.05192
   R15        2.62282   0.00003   0.00062  -0.00069  -0.00007   2.62275
   R16        2.04891   0.00000   0.00003  -0.00005  -0.00002   2.04889
   R17        1.81646   0.00004  -0.00019  -0.00014  -0.00033   1.81613
    A1        1.95446   0.00001  -0.00009   0.00017   0.00008   1.95454
    A2        2.14963   0.00001   0.00001  -0.00005  -0.00004   2.14959
    A3        2.08564   0.00000   0.00021  -0.00016   0.00005   2.08569
    A4        2.04791   0.00000  -0.00022   0.00020  -0.00001   2.04790
    A5        2.06571  -0.00001   0.00020  -0.00025  -0.00005   2.06567
    A6        2.04843   0.00001  -0.00009   0.00019   0.00010   2.04853
    A7        2.16904   0.00000  -0.00011   0.00006  -0.00005   2.16898
    A8        1.99809   0.00001  -0.00013   0.00017   0.00004   1.99812
    A9        2.10322  -0.00002   0.00011  -0.00012  -0.00002   2.10321
   A10        2.12977   0.00002  -0.00023   0.00037   0.00014   2.12992
   A11        2.05019   0.00000   0.00012  -0.00025  -0.00013   2.05006
   A12        2.12761  -0.00006   0.00000  -0.00019  -0.00018   2.12742
   A13        2.08119   0.00010   0.00067  -0.00054   0.00013   2.08133
   A14        2.07438  -0.00005  -0.00067   0.00073   0.00005   2.07443
   A15        2.09780  -0.00026  -0.00048  -0.00006  -0.00054   2.09725
   A16        2.04720   0.00021  -0.00215   0.00219   0.00004   2.04724
   A17        2.13818   0.00006   0.00263  -0.00212   0.00051   2.13869
   A18        2.09268  -0.00004   0.00175  -0.00222  -0.00047   2.09221
   A19        2.08712   0.00013  -0.00045   0.00093   0.00048   2.08760
   A20        2.10338  -0.00009  -0.00130   0.00129   0.00000   2.10338
   A21        2.12256   0.00001   0.00071  -0.00090  -0.00019   2.12237
   A22        2.07467  -0.00001  -0.00016   0.00022   0.00006   2.07473
   A23        2.08595   0.00000  -0.00055   0.00068   0.00013   2.08608
   A24        1.90420   0.00247   0.01238   0.00122   0.01360   1.91780
    D1        3.13176   0.00000   0.00001  -0.00071  -0.00070   3.13106
    D2       -0.00804   0.00000   0.00001  -0.00069  -0.00068  -0.00873
    D3        3.09745   0.00000   0.00013  -0.00440  -0.00427   3.09317
    D4       -0.04607   0.00000   0.00013  -0.00442  -0.00429  -0.05036
    D5       -0.04372   0.00000   0.00011  -0.00395  -0.00385  -0.04756
    D6        3.09595   0.00000   0.00011  -0.00398  -0.00387   3.09209
    D7       -0.00607   0.00000  -0.00001  -0.00021  -0.00023  -0.00630
    D8        3.13901   0.00000  -0.00002   0.00028   0.00026   3.13927
    D9        3.13510   0.00000   0.00000  -0.00065  -0.00064   3.13445
   D10       -0.00301   0.00000   0.00000  -0.00016  -0.00015  -0.00316
   D11       -3.13830  -0.00001   0.00002  -0.00031  -0.00030  -3.13860
   D12        0.00234   0.00000   0.00000  -0.00021  -0.00021   0.00213
   D13        0.00370  -0.00001   0.00000   0.00010   0.00011   0.00380
   D14       -3.13885   0.00000  -0.00001   0.00021   0.00020  -3.13866
   D15        3.11768   0.00000   0.00007  -0.00218  -0.00211   3.11557
   D16       -0.02200   0.00000   0.00007  -0.00216  -0.00209  -0.02409
   D17        3.14076   0.00000  -0.00001  -0.00025  -0.00026   3.14050
   D18        0.00063   0.00000   0.00001   0.00012   0.00013   0.00076
   D19        0.00255   0.00000  -0.00001   0.00023   0.00022   0.00277
   D20       -3.13758   0.00001   0.00000   0.00060   0.00060  -3.13697
   D21        0.00118   0.00000  -0.00002  -0.00003  -0.00005   0.00113
   D22       -3.14099  -0.00001  -0.00001  -0.00015  -0.00016  -3.14115
   D23       -3.13899   0.00000   0.00000   0.00032   0.00032  -3.13867
   D24        0.00202  -0.00001   0.00001   0.00020   0.00021   0.00223
   D25        3.14034   0.00000   0.00002  -0.00005  -0.00004   3.14031
   D26       -0.00050   0.00000   0.00002  -0.00002   0.00000  -0.00050
   D27       -0.00064   0.00001   0.00001   0.00007   0.00008  -0.00056
   D28       -3.14148   0.00001   0.00001   0.00011   0.00012  -3.14137
   D29        3.13758   0.00003   0.00031   0.00337   0.00368   3.14126
   D30       -0.00461   0.00002   0.00032   0.00325   0.00357  -0.00104
   D31       -0.00201   0.00001  -0.00001  -0.00002  -0.00003  -0.00205
   D32        3.14054   0.00000   0.00001  -0.00013  -0.00012   3.14042
   D33        3.14033   0.00001  -0.00001   0.00002   0.00001   3.14033
   D34       -0.00030   0.00000   0.00000  -0.00009  -0.00008  -0.00039
         Item               Value     Threshold  Converged?
 Maximum Force            0.002472     0.000015     NO 
 RMS     Force            0.000325     0.000010     NO 
 Maximum Displacement     0.022275     0.000060     NO 
 RMS     Displacement     0.003850     0.000040     NO 
 Predicted change in Energy=-1.929762D-05
 GradGradGradGradGradGradGradGradGradGradGradGradGradGradGradGradGradGrad

                          Input orientation:                          
 ---------------------------------------------------------------------
 Center     Atomic      Atomic             Coordinates (Angstroms)
 Number     Number       Type             X           Y           Z
 ---------------------------------------------------------------------
      1          8           0        8.655726    7.532993    5.463599
      2          1           0        9.459923    7.387244    5.969677
      3          6           0        6.250691    6.859440    5.174479
      4          5           0        7.633812    6.733977    5.886968
      5          8           0        7.894855    5.870902    6.918846
      6          1           0        7.143050    5.346124    7.197507
      7          6           0        5.150636    6.051077    5.488844
      8          1           0        5.229831    5.285712    6.256586
      9          6           0        3.931785    6.184504    4.842774
     10          1           0        3.083270    5.557737    5.086933
     11          6           0        3.790440    7.150153    3.848379
     12          6           0        4.865892    7.969331    3.509819
     13          1           0        4.750879    8.719551    2.733307
     14          6           0        6.077635    7.817757    4.169340
     15          1           0        6.913701    8.455073    3.904059
     16          8           0        2.578437    7.246971    3.241414
     17          1           0        2.599686    7.942099    2.578114
 ---------------------------------------------------------------------
                    Distance matrix (angstroms):
                    1          2          3          4          5
     1  O    0.000000
     2  H    0.961296   0.000000
     3  C    2.514251   3.348147   0.000000
     4  B    1.364543   1.941206   1.560899   0.000000
     5  O    2.336496   2.376899   2.592933   1.370333   0.000000
     6  H    3.174432   3.322896   2.679379   1.970912   0.958256
     7  C    3.805571   4.537234   1.400855   2.605958   3.099694
     8  H    4.173231   4.732064   2.165579   2.830761   2.807737
     9  C    4.951714   5.768605   2.437805   3.885520   4.484902
    10  H    5.924170   6.692387   3.425588   4.767707   5.158036
    11  C    5.140673   6.057983   2.809963   4.370418   5.283037
    12  C    4.286082   5.243553   2.433232   3.852054   5.019909
    13  H    4.910218   5.867216   3.415958   4.711622   5.959708
    14  C    2.898750   3.855700   1.399508   2.558615   3.827834
    15  H    2.513374   3.448229   2.144666   2.722619   4.090176
    16  O    6.477141   7.403914   4.168017   5.728781   6.609188
    17  H    6.720790   7.672901   4.609023   6.144143   7.153365
                    6          7          8          9         10
     6  H    0.000000
     7  C    2.717756   0.000000
     8  H    2.132929   1.086961   0.000000
     9  C    4.069382   1.385932   2.119344   0.000000
    10  H    4.580515   2.163082   2.459637   1.082787   0.000000
    11  C    5.070619   2.397755   3.368598   1.393298   2.137731
    12  C    5.066133   2.770797   3.857330   2.415561   3.388335
    13  H    6.085357   3.856623   4.943090   3.398122   4.279900
    14  C    4.051403   2.391981   3.389192   2.779515   3.862110
    15  H    4.534860   3.376260   4.291229   3.863740   4.946306
    16  O    6.332423   3.619021   4.468522   2.350476   2.552314
    17  H    6.979974   4.307628   5.244541   3.161062   3.494740
                   11         12         13         14         15
    11  C    0.000000
    12  C    1.393654   0.000000
    13  H    2.151473   1.085831   0.000000
    14  C    2.404158   1.387900   2.153069   0.000000
    15  H    3.385362   2.141236   2.473541   1.084228   0.000000
    16  O    1.358944   2.413772   2.673232   3.664864   4.548969
    17  H    1.912758   2.450409   2.292629   3.826695   4.542246
                   16         17
    16  O    0.000000
    17  H    0.961052   0.000000
 Symmetry turned off by external request.
 Stoichiometry    C6H7BO3
 Framework group  C1[X(C6H7BO3)]
 Deg. of freedom    45
 Full point group                 C1      NOp   1
 Rotational constants (GHZ):           3.6832764           0.7411244           0.6170997
 Standard basis: 6-311+G(d,p) (5D, 7F)
   262 basis functions,   416 primitive gaussians,   272 cartesian basis functions
    36 alpha electrons       36 beta electrons
       nuclear repulsion energy       476.5429980789 Hartrees.
 NAtoms=   17 NActive=   17 NUniq=   17 SFac= 1.00D+00 NAtFMM=   60 NAOKFM=F Big=F
 Integral buffers will be    131072 words long.
 Raffenetti 2 integral format.
 Two-electron integral symmetry is turned off.
 One-electron integrals computed using PRISM.
 NBasis=   262 RedAO= T EigKep=  2.29D-06  NBF=   262
 NBsUse=   262 1.00D-06 EigRej= -1.00D+00 NBFU=   262
 Initial guess from the checkpoint file:  "4-OH-phboh2-opt-freq.chk"
 B after Tr=    -0.004076    0.002597    0.002543
         Rot=    1.000000    0.000082   -0.000011    0.000189 Ang=   0.02 deg.
 ExpMin= 3.15D-02 ExpMax= 8.59D+03 ExpMxC= 1.30D+03 IAcc=3 IRadAn=         5 AccDes= 0.00D+00
 Harris functional with IExCor= 1009 and IRadAn=       5 diagonalized for initial guess.
 HarFok:  IExCor= 1009 AccDes= 0.00D+00 IRadAn=         5 IDoV= 1 UseB2=F ITyADJ=14
 ICtDFT=  3500011 ScaDFX=  1.000000  1.000000  1.000000  1.000000
 FoFCou: FMM=F IPFlag=           0 FMFlag=      100000 FMFlg1=           0
         NFxFlg=           0 DoJE=T BraDBF=F KetDBF=T FulRan=T
         wScrn=  0.000000 ICntrl=       500 IOpCl=  0 I1Cent=   200000004 NGrid=           0
         NMat0=    1 NMatS0=      1 NMatT0=    0 NMatD0=    1 NMtDS0=    0 NMtDT0=    0
 Symmetry not used in FoFCou.
 Requested convergence on RMS density matrix=1.00D-08 within 128 cycles.
 Requested convergence on MAX density matrix=1.00D-06.
 Requested convergence on             energy=1.00D-06.
 Level shift goal  0.100 maximum shift  0.100.
 No special actions if energy rises.
 Dynamic level shift is on during FON iterations.
 SCF Done:  E(RM062X) =  -483.450733808     A.U. after    9 cycles
            NFock=  9  Conv=0.92D-08     -V/T= 2.0035
 Calling FoFJK, ICntrl=      2127 FMM=F ISym2X=0 I1Cent= 0 IOpClX= 0 NMat=1 NMatS=1 NMatT=0.
 -------------------------------------------------------------------
 Center     Atomic                   Forces (Hartrees/Bohr)
 Number     Number              X              Y              Z
 -------------------------------------------------------------------
      1        8           0.000002452   -0.000000682    0.000002596
      2        1          -0.000000660   -0.000004176    0.000002371
      3        6           0.000014292    0.000009412   -0.000002679
      4        5          -0.000005704   -0.000000086   -0.000002362
      5        8          -0.000000075   -0.000002133    0.000006737
      6        1          -0.000003557   -0.000000931   -0.000001634
      7        6          -0.000014620   -0.000007615    0.000003860
      8        1          -0.000002638    0.000001259    0.000000916
      9        6           0.000004153   -0.000007346    0.000010255
     10        1          -0.000003216    0.000003414   -0.000001915
     11        6          -0.000055508    0.000055951   -0.000079454
     12        6          -0.000036521    0.000013407   -0.000025065
     13        1           0.000029433    0.000000030    0.000012066
     14        6           0.000006658   -0.000015729    0.000009520
     15        1           0.000001384   -0.000000387   -0.000001953
     16        8           0.000021251   -0.000051127    0.000061352
     17        1           0.000042878    0.000006741    0.000005387
 -------------------------------------------------------------------
 Cartesian Forces:  Max     0.000079454 RMS     0.000022469

 GradGradGradGradGradGradGradGradGradGradGradGradGradGradGradGradGradGrad
 Berny optimization.
 Using GEDIIS/GDIIS optimizer.
 FormGI is forming the generalized inverse of G from B-inverse, IUseBI=4.
 Internal  Forces:  Max     0.000089192 RMS     0.000015912
 Search for a local minimum.
 Step number   3 out of a maximum of   85
 All quantities printed in internal units (Hartrees-Bohrs-Radians)
 Mixed Optimization -- En-DIIS/RFO-DIIS
 Swapping is turned off.
 Update second derivatives using D2CorX and points    1    2    3
 DE= -1.74D-05 DEPred=-1.93D-05 R= 9.00D-01
 TightC=F SS=  1.41D+00  RLast= 1.71D-02 DXNew= 8.2716D-01 5.1313D-02
 Trust test= 9.00D-01 RLast= 1.71D-02 DXMaxT set to 4.92D-01
 ITU=  1  1  0
     Eigenvalues ---    0.00048   0.00572   0.00984   0.01177   0.01484
     Eigenvalues ---    0.01650   0.01781   0.02015   0.02212   0.02334
     Eigenvalues ---    0.02726   0.02813   0.03170   0.03989   0.10288
     Eigenvalues ---    0.10753   0.11127   0.11255   0.12010   0.12627
     Eigenvalues ---    0.15810   0.16769   0.17535   0.18426   0.18971
     Eigenvalues ---    0.19227   0.19694   0.21596   0.29360   0.29663
     Eigenvalues ---    0.35435   0.36369   0.36648   0.36759   0.38655
     Eigenvalues ---    0.39020   0.42257   0.45932   0.47029   0.48428
     Eigenvalues ---    0.49569   0.52838   0.55115   0.55226   0.56250
 En-DIIS/RFO-DIIS/Sim-DIIS IScMMF=       -3 using points:     3    2
 RFO step:  Lambda=-1.20337817D-07.
 DidBck=T Rises=F RFO-DIIS coefs:    0.71903    0.28097
 Iteration  1 RMS(Cart)=  0.00249110 RMS(Int)=  0.00000306
 Iteration  2 RMS(Cart)=  0.00000417 RMS(Int)=  0.00000001
 Iteration  3 RMS(Cart)=  0.00000000 RMS(Int)=  0.00000001
 Variable       Old X    -DE/DX   Delta X   Delta X   Delta X     New X
                                 (Linear)    (Quad)   (Total)
    R1        1.81659   0.00000   0.00000   0.00000   0.00000   1.81659
    R2        2.57861   0.00000   0.00001   0.00000   0.00001   2.57862
    R3        2.94967   0.00000  -0.00002   0.00001  -0.00001   2.94966
    R4        2.64723   0.00001   0.00004   0.00000   0.00005   2.64728
    R5        2.64469   0.00000  -0.00003  -0.00001  -0.00004   2.64465
    R6        2.58955   0.00000   0.00001   0.00000   0.00001   2.58956
    R7        1.81084   0.00000   0.00000   0.00000   0.00000   1.81084
    R8        2.05406   0.00000   0.00000   0.00000   0.00000   2.05406
    R9        2.61903  -0.00001  -0.00005   0.00000  -0.00005   2.61898
   R10        2.04617   0.00000   0.00002  -0.00002   0.00000   2.04618
   R11        2.63295   0.00002  -0.00005   0.00014   0.00009   2.63304
   R12        2.63362   0.00000  -0.00011   0.00009  -0.00002   2.63360
   R13        2.56803  -0.00009  -0.00041   0.00023  -0.00017   2.56786
   R14        2.05192  -0.00001  -0.00009   0.00005  -0.00004   2.05189
   R15        2.62275   0.00002   0.00002   0.00005   0.00007   2.62282
   R16        2.04889   0.00000   0.00001   0.00000   0.00000   2.04890
   R17        1.81613   0.00000   0.00009  -0.00008   0.00001   1.81614
    A1        1.95454   0.00000  -0.00002   0.00000  -0.00002   1.95452
    A2        2.14959   0.00000   0.00001   0.00004   0.00005   2.14964
    A3        2.08569   0.00000  -0.00001   0.00002   0.00000   2.08570
    A4        2.04790   0.00000   0.00000  -0.00006  -0.00005   2.04785
    A5        2.06567   0.00000   0.00001   0.00000   0.00001   2.06568
    A6        2.04853   0.00000  -0.00003  -0.00001  -0.00004   2.04850
    A7        2.16898   0.00000   0.00001   0.00001   0.00003   2.16901
    A8        1.99812   0.00000  -0.00001   0.00002   0.00001   1.99813
    A9        2.10321   0.00000   0.00000   0.00005   0.00005   2.10326
   A10        2.12992   0.00000  -0.00004   0.00001  -0.00003   2.12988
   A11        2.05006   0.00000   0.00004  -0.00005  -0.00002   2.05004
   A12        2.12742   0.00000   0.00005  -0.00005   0.00000   2.12743
   A13        2.08133   0.00001  -0.00004   0.00013   0.00009   2.08142
   A14        2.07443  -0.00001  -0.00001  -0.00008  -0.00009   2.07434
   A15        2.09725   0.00000   0.00015  -0.00020  -0.00005   2.09720
   A16        2.04724  -0.00003  -0.00001  -0.00012  -0.00013   2.04711
   A17        2.13869   0.00003  -0.00014   0.00032   0.00018   2.13887
   A18        2.09221   0.00003   0.00013   0.00017   0.00030   2.09251
   A19        2.08760  -0.00001  -0.00013   0.00007  -0.00006   2.08754
   A20        2.10338  -0.00002   0.00000  -0.00024  -0.00024   2.10314
   A21        2.12237   0.00001   0.00005   0.00005   0.00011   2.12248
   A22        2.07473   0.00000  -0.00002   0.00000  -0.00002   2.07472
   A23        2.08608  -0.00001  -0.00004  -0.00005  -0.00009   2.08599
   A24        1.91780  -0.00008  -0.00382   0.00346  -0.00036   1.91744
    D1        3.13106   0.00000   0.00020   0.00057   0.00077   3.13183
    D2       -0.00873   0.00000   0.00019   0.00046   0.00066  -0.00807
    D3        3.09317   0.00000   0.00120   0.00302   0.00422   3.09739
    D4       -0.05036   0.00000   0.00121   0.00314   0.00434  -0.04602
    D5       -0.04756   0.00000   0.00108   0.00300   0.00408  -0.04349
    D6        3.09209   0.00000   0.00109   0.00312   0.00420   3.09629
    D7       -0.00630   0.00000   0.00006   0.00041   0.00048  -0.00583
    D8        3.13927   0.00000  -0.00007   0.00020   0.00013   3.13940
    D9        3.13445   0.00000   0.00018   0.00043   0.00061   3.13507
   D10       -0.00316   0.00000   0.00004   0.00022   0.00027  -0.00290
   D11       -3.13860   0.00000   0.00008  -0.00023  -0.00015  -3.13875
   D12        0.00213   0.00000   0.00006  -0.00020  -0.00014   0.00199
   D13        0.00380   0.00000  -0.00003  -0.00025  -0.00028   0.00352
   D14       -3.13866   0.00000  -0.00006  -0.00022  -0.00027  -3.13893
   D15        3.11557   0.00000   0.00059   0.00164   0.00224   3.11781
   D16       -0.02409   0.00000   0.00059   0.00153   0.00211  -0.02198
   D17        3.14050   0.00000   0.00007   0.00000   0.00007   3.14057
   D18        0.00076   0.00000  -0.00004  -0.00003  -0.00007   0.00069
   D19        0.00277   0.00000  -0.00006  -0.00020  -0.00026   0.00250
   D20       -3.13697   0.00000  -0.00017  -0.00023  -0.00040  -3.13738
   D21        0.00113   0.00000   0.00001  -0.00014  -0.00013   0.00101
   D22       -3.14115   0.00000   0.00004  -0.00009  -0.00004  -3.14120
   D23       -3.13867   0.00000  -0.00009  -0.00017  -0.00026  -3.13893
   D24        0.00223   0.00000  -0.00006  -0.00012  -0.00018   0.00206
   D25        3.14031   0.00000   0.00001   0.00016   0.00017   3.14047
   D26       -0.00050   0.00000   0.00000   0.00011   0.00011  -0.00039
   D27       -0.00056   0.00000  -0.00002   0.00010   0.00008  -0.00048
   D28       -3.14137   0.00000  -0.00003   0.00006   0.00002  -3.14134
   D29        3.14126   0.00000  -0.00103   0.00137   0.00034  -3.14159
   D30       -0.00104   0.00000  -0.00100   0.00142   0.00042  -0.00062
   D31       -0.00205   0.00000   0.00001   0.00009   0.00010  -0.00195
   D32        3.14042   0.00000   0.00003   0.00005   0.00009   3.14050
   D33        3.14033   0.00000   0.00000   0.00004   0.00004   3.14038
   D34       -0.00039   0.00000   0.00002   0.00001   0.00003  -0.00036
         Item               Value     Threshold  Converged?
 Maximum Force            0.000089     0.000015     NO 
 RMS     Force            0.000016     0.000010     NO 
 Maximum Displacement     0.010270     0.000060     NO 
 RMS     Displacement     0.002491     0.000040     NO 
 Predicted change in Energy=-6.017151D-08
 GradGradGradGradGradGradGradGradGradGradGradGradGradGradGradGradGradGrad

                          Input orientation:                          
 ---------------------------------------------------------------------
 Center     Atomic      Atomic             Coordinates (Angstroms)
 Number     Number       Type             X           Y           Z
 ---------------------------------------------------------------------
      1          8           0        8.654550    7.535977    5.466315
      2          1           0        9.459022    7.389503    5.971745
      3          6           0        6.250552    6.859737    5.174784
      4          5           0        7.633687    6.734323    5.887246
      5          8           0        7.895821    5.868710    6.916724
      6          1           0        7.145228    5.340690    7.192511
      7          6           0        5.150092    6.052227    5.490028
      8          1           0        5.228772    5.287854    6.258812
      9          6           0        3.931345    6.185571    4.843801
     10          1           0        3.082488    5.559534    5.088655
     11          6           0        3.790360    7.150276    3.848374
     12          6           0        4.866123    7.968724    3.509086
     13          1           0        4.751712    8.718381    2.731969
     14          6           0        6.077794    7.817233    4.168843
     15          1           0        6.914068    8.454057    3.903027
     16          8           0        2.578412    7.246785    3.241454
     17          1           0        2.600222    7.941062    2.577272
 ---------------------------------------------------------------------
                    Distance matrix (angstroms):
                    1          2          3          4          5
     1  O    0.000000
     2  H    0.961296   0.000000
     3  C    2.514258   3.348145   0.000000
     4  B    1.364548   1.941197   1.560895   0.000000
     5  O    2.336480   2.376845   2.592952   1.370338   0.000000
     6  H    3.174444   3.322882   2.679398   1.970920   0.958255
     7  C    3.805694   4.537316   1.400880   2.606009   3.099705
     8  H    4.173495   4.732267   2.165633   2.830892   2.807738
     9  C    4.951746   5.768615   2.437780   3.885517   4.484917
    10  H    5.924257   6.692444   3.425577   4.767734   5.158061
    11  C    5.140705   6.058025   2.810040   4.370490   5.283181
    12  C    4.286046   5.243558   2.433320   3.852116   5.020073
    13  H    4.909875   5.866927   3.415908   4.711480   5.959717
    14  C    2.898657   3.855660   1.399486   2.558595   3.827900
    15  H    2.513169   3.448139   2.144638   2.722583   4.090260
    16  O    6.477120   7.403894   4.167995   5.728755   6.609201
    17  H    6.720532   7.672666   4.608822   6.143933   7.153241
                    6          7          8          9         10
     6  H    0.000000
     7  C    2.717592   0.000000
     8  H    2.132462   1.086961   0.000000
     9  C    4.069313   1.385905   2.119308   0.000000
    10  H    4.580388   2.163060   2.459595   1.082790   0.000000
    11  C    5.070799   2.397835   3.368658   1.393344   2.137719
    12  C    5.066410   2.770872   3.857404   2.415556   3.388302
    13  H    6.085570   3.856680   4.943149   3.398230   4.280023
    14  C    4.051575   2.391947   3.389184   2.779412   3.862009
    15  H    4.535107   3.376236   4.291245   3.863640   4.946208
    16  O    6.332445   3.618921   4.468362   2.350344   2.552070
    17  H    6.979932   4.307399   5.244284   3.160821   3.494468
                   11         12         13         14         15
    11  C    0.000000
    12  C    1.393643   0.000000
    13  H    2.151630   1.085812   0.000000
    14  C    2.404139   1.387939   2.152944   0.000000
    15  H    3.385319   2.141218   2.473263   1.084231   0.000000
    16  O    1.358853   2.413803   2.673649   3.664851   4.548966
    17  H    1.912451   2.450173   2.292829   3.826478   4.542032
                   16         17
    16  O    0.000000
    17  H    0.961059   0.000000
 Symmetry turned off by external request.
 Stoichiometry    C6H7BO3
 Framework group  C1[X(C6H7BO3)]
 Deg. of freedom    45
 Full point group                 C1      NOp   1
 Rotational constants (GHZ):           3.6833108           0.7411327           0.6170868
 Standard basis: 6-311+G(d,p) (5D, 7F)
   262 basis functions,   416 primitive gaussians,   272 cartesian basis functions
    36 alpha electrons       36 beta electrons
       nuclear repulsion energy       476.5442259008 Hartrees.
 NAtoms=   17 NActive=   17 NUniq=   17 SFac= 1.00D+00 NAtFMM=   60 NAOKFM=F Big=F
 Integral buffers will be    131072 words long.
 Raffenetti 2 integral format.
 Two-electron integral symmetry is turned off.
 One-electron integrals computed using PRISM.
 NBasis=   262 RedAO= T EigKep=  2.28D-06  NBF=   262
 NBsUse=   262 1.00D-06 EigRej= -1.00D+00 NBFU=   262
 Initial guess from the checkpoint file:  "4-OH-phboh2-opt-freq.chk"
 B after Tr=     0.003246    0.000855   -0.004408
         Rot=    1.000000   -0.000155    0.000030   -0.000109 Ang=  -0.02 deg.
 Requested convergence on RMS density matrix=1.00D-08 within 128 cycles.
 Requested convergence on MAX density matrix=1.00D-06.
 Requested convergence on             energy=1.00D-06.
 Level shift goal  0.100 maximum shift  0.100.
 No special actions if energy rises.
 Dynamic level shift is on during FON iterations.
 SCF Done:  E(RM062X) =  -483.450733863     A.U. after    9 cycles
            NFock=  9  Conv=0.40D-08     -V/T= 2.0035
 Calling FoFJK, ICntrl=      2127 FMM=F ISym2X=0 I1Cent= 0 IOpClX= 0 NMat=1 NMatS=1 NMatT=0.
 -------------------------------------------------------------------
 Center     Atomic                   Forces (Hartrees/Bohr)
 Number     Number              X              Y              Z
 -------------------------------------------------------------------
      1        8           0.000000264   -0.000003089    0.000001550
      2        1          -0.000000275   -0.000002886    0.000002092
      3        6          -0.000000759   -0.000000301    0.000000145
      4        5          -0.000000814   -0.000001327    0.000002172
      5        8          -0.000002276   -0.000001508   -0.000000195
      6        1          -0.000002937    0.000000219    0.000003269
      7        6          -0.000001022    0.000001513   -0.000000607
      8        1          -0.000002641    0.000000832    0.000000211
      9        6          -0.000001515    0.000002916   -0.000000911
     10        1          -0.000001588    0.000002503   -0.000000988
     11        6           0.000001200    0.000000109   -0.000000070
     12        6           0.000001924    0.000000028   -0.000000510
     13        1           0.000001812   -0.000000408   -0.000001110
     14        6           0.000000724   -0.000001387   -0.000000910
     15        1           0.000001890   -0.000001618    0.000000094
     16        8           0.000002258    0.000002565   -0.000000200
     17        1           0.000003757    0.000001840   -0.000004033
 -------------------------------------------------------------------
 Cartesian Forces:  Max     0.000004033 RMS     0.000001756

 GradGradGradGradGradGradGradGradGradGradGradGradGradGradGradGradGradGrad
 Berny optimization.
 Using GEDIIS/GDIIS optimizer.
 FormGI is forming the generalized inverse of G from B-inverse, IUseBI=4.
 Internal  Forces:  Max     0.000002852 RMS     0.000000822
 Search for a local minimum.
 Step number   4 out of a maximum of   85
 All quantities printed in internal units (Hartrees-Bohrs-Radians)
 Mixed Optimization -- En-DIIS/RFO-DIIS
 Swapping is turned off.
 Update second derivatives using D2CorX and points    1    2    3    4
 DE= -5.41D-08 DEPred=-6.02D-08 R= 8.98D-01
[...]
   yy         0.693567D+02      0.102776D+02      0.114354D+02
   zx         0.262014D+01      0.388264D+00      0.432002D+00
   zy         0.130772D+02      0.193785D+01      0.215614D+01
   zz         0.119962D+03      0.177765D+02      0.197790D+02

 ----------------------------------------------------------------------
 Unable to Open any file for archive entry.
 1\1\GINC-CN011\Freq\RM062X\6-311+G(d,p)\C6H7B1O3\TAHMINAAFROZ\30-Apr-2
 025\0\\#N Geom=AllCheck Guess=TCheck SCRF=Check GenChk RM062X/6-311+G(
 d,p) Freq\\4-OH-phboh2-opt-freq\\0,1\O,8.6547978742,7.5353485583,5.465
 7328865\H,9.4592120528,7.3890170398,5.9712962283\C,6.2505756839,6.8596
 794289,5.1747223106\B,7.6337145034,6.7342432323,5.8871705849\O,7.89563
 4188,5.8691394054,6.9171313711\H,7.1447813501,5.3418210044,7.193553222
 2\C,5.150192496,6.0519960311,5.4897933146\H,5.2289808571,5.2874041821,
 6.2583475566\C,3.9314274723,6.1853743013,4.843607061\H,3.0826387301,5.
 5591830114,5.0883034998\C,3.7903549708,7.1502803508,3.8483895025\C,4.8
 660464593,7.9688873129,3.5092599735\H,4.7515567834,8.7186987584,2.7323
 039281\C,6.077741059,7.8173477319,4.1689586436\H,6.9139668123,8.454279
 6383,3.9032510779\O,2.5783998785,7.2468274767,3.2414976017\H,2.6002262
 688,7.941116066,2.577326687\\Version=AS64L-G16RevC.01\HF=-483.4507339\
 RMSD=4.996e-09\RMSF=1.635e-06\ZeroPoint=0.1300779\Thermal=0.1392294\ET
 ot=-483.3115044\HTot=-483.3105603\GTot=-483.3557292\Dipole=-0.1891727,
 0.0905009,-0.1080901\DipoleDeriv=-1.3513108,-0.3264782,0.0116218,-0.42
 59653,-0.728044,0.0197024,0.1254027,0.0605564,-0.5546715,0.3554744,0.0
 320444,-0.0303624,0.0528424,0.3226299,0.0457281,-0.0606793,0.0378415,0
 .2781003,-0.7646799,0.0186191,-0.2702454,-0.0148609,-0.2973302,0.11726
 04,-0.2283408,0.1349882,-0.404305,2.0253041,0.119261,0.4885446,0.21634
 71,1.079277,-0.4826705,0.3868731,-0.5180067,1.2644042,-0.7180866,0.169
 0635,-0.2613196,0.1606525,-0.8580407,0.4164499,-0.2553371,0.4118778,-1
 .07949,0.236078,-0.0892213,0.0623518,-0.0794969,0.3297164,-0.0448717,0
 .0602155,-0.0445379,0.3942828,0.306288,0.0782848,0.1092684,0.0944353,0
 .0234148,-0.1078987,0.0763018,-0.1202415,0.0161702,0.0767376,0.0172612
 ,-0.0352634,0.0168589,-0.0024598,0.1265126,-0.0339717,0.1250509,-0.017
 2417,-0.2236501,0.0461575,-0.070376,0.3026215,-0.1218237,0.0910068,-0.
 3137811,-0.0120922,-0.2826732,0.0064057,-0.06273,-0.002969,-0.0667961,
 0.0786625,0.0471373,0.001209,0.0483561,0.1103396,1.347098,-0.1386085,0
 .6624287,-0.1756372,0.1576018,-0.1296955,0.6928961,-0.1161169,0.507885
 9,-0.4525052,0.0747709,-0.1913073,-0.1606485,-0.065683,-0.1717041,0.04
 34351,-0.0705657,-0.0858802,0.0503789,0.0159114,-0.0600062,0.0182367,0
 .0438713,0.1159319,-0.062221,0.1148757,0.0170868,0.1538607,-0.0057294,
 0.1153424,-0.017565,0.0346409,-0.1497164,0.1235549,-0.1471761,0.085008
 6,0.0463809,-0.0597187,0.0245693,-0.0592801,0.0602799,0.037207,0.02205
 47,0.0370261,0.0975959,-1.4193119,0.2091633,-0.6416343,0.2165623,-0.31
 40743,0.0232222,-0.6476979,0.020268,-0.6790998,0.3255382,-0.0980508,0.
 0893564,-0.0783067,0.2573613,0.0463983,0.0700861,0.0378964,0.3324872\P
 olar=112.622354,5.4261836,76.4098992,20.2114276,-21.5047851,82.1181178
 \Quadrupole=-5.3263724,4.1410255,1.1853469,-2.7050954,-0.6461691,-6.31
 46391\PG=C01 [X(C6H7B1O3)]\NImag=0\\0.63817148,0.09304939,0.20627689,0
 .16048223,-0.14394148,0.25905647,-0.37881367,0.04863026,-0.21100460,0.
 40546123,0.07317354,-0.03615259,0.05652154,-0.05228193,0.03243545,-0.2
 3750046,0.04586351,-0.16523225,0.22759840,-0.04642957,0.15892164,-0.02
 883380,-0.00664551,-0.00880434,-0.00001869,-0.00218620,0.00053071,0.60
 002567,-0.01812238,0.00615558,-0.00457077,-0.00337776,0.00026694,0.002
 59157,0.10637945,0.41486392,0.00311998,0.00013337,0.01024324,0.0017897
 3,0.00310842,0.00145674,0.09744000,-0.23741659,0.39951702,-0.23177394,
 -0.10908241,0.03941048,-0.03041488,-0.02182328,0.00903904,-0.17286488,
 0.00723778,-0.05425783,0.53523203,-0.13165674,-0.15087523,0.05164463,0
 .00188448,0.00515876,-0.00137104,0.00661524,-0.06943304,0.01090967,0.1
 0239821,0.38681039,0.06366903,0.06143916,-0.08837905,-0.01641773,-0.01
 156793,0.00845624,-0.05414299,0.01093498,-0.09504285,0.05356136,-0.209
 56457,0.39328045,0.00680604,-0.02698963,0.02597154,0.00377998,0.002719
 47,0.00014952,0.00136174,0.01544508,-0.02288954,-0.09465920,0.01524749
 ,-0.03636340,0.43727916,-0.01671270,-0.02729321,0.03558216,0.00439150,
 -0.00135184,-0.00027790,0.00333427,0.00494537,0.01385283,0.04010714,-0
 .15886043,0.13795920,0.20582387,0.35659833,0.01534342,0.03142184,-0.01
 458634,-0.00170073,-0.00106163,-0.00295867,-0.00965429,0.01897254,-0.0
 0749426,-0.06340758,0.12836930,-0.20777523,-0.06181582,-0.27303051,0.2
 9847389,0.00238090,0.00117178,-0.00271328,0.00017250,0.00044877,-0.000
 06233,-0.00171667,0.00082349,-0.00034802,0.00457990,0.00277963,-0.0002
 9870,-0.34935854,-0.23757901,0.12379451,0.34545168,0.00002420,0.001591
 63,0.00480954,0.00064168,-0.00044065,-0.00012000,0.00033167,-0.0003121
 2,-0.00262401,-0.01907177,-0.01431227,0.00555114,-0.21339887,-0.173785
 66,0.09522607,0.23218480,0.18573594,-0.00166966,0.00515434,0.00000785,
 -0.00022562,-0.00016809,-0.00075232,-0.00003994,-0.00236915,-0.0001495
 9,0.02345381,0.01370593,-0.00771604,0.09778759,0.08621566,-0.06395007,
 -0.11861267,-0.10238676,0.07154490,0.00014001,0.00086672,-0.00146528,-
 0.00081809,-0.00035194,0.00004712,-0.23859809,-0.08257010,0.00401100,-
 0.02174465,-0.00870284,-0.00095167,0.00124585,-0.00324918,0.00440005,0
 .00127955,0.00061514,-0.00010557,0.62991110,0.00381539,0.00086417,0.00
 177524,0.00032747,0.00047379,0.00008726,-0.12012121,-0.15987019,0.0461
 6755,-0.00378961,0.00654304,-0.00781730,0.00048901,-0.00421601,0.00326
 316,0.00301283,0.00105667,0.00098341,0.09336324,0.45949751,-0.00402719
 ,0.00064713,-0.00116671,-0.00078480,-0.00019329,0.00037716,0.04041346,
 0.06172132,-0.10303900,-0.00578534,-0.00974697,0.00730517,0.00074683,0
 .00149155,-0.00219243,-0.00260059,-0.00032337,-0.00068639,0.11781294,-
 0.27095972,0.44963608,0.00032194,0.00031977,-0.00027235,-0.00004482,-0
 .00009315,-0.00001452,0.00757276,-0.01493576,0.01686676,-0.00002162,-0
 .00039056,0.00154121,-0.00006856,0.00067772,-0.00026121,-0.00200320,-0
 .00032719,-0.00161201,-0.05928393,0.00861260,-0.01702993,0.05975992,-0
 .00015160,0.00050528,-0.00042563,-0.00016125,0.00000943,0.00011394,0.0
 0297697,-0.00877401,0.01152486,0.00178313,-0.00290967,0.00096117,0.000
 79221,0.00119577,-0.00145480,-0.00165642,0.00092870,-0.00040432,0.0116
 8571,-0.18453752,0.14541558,-0.00950218,0.18909971,0.00030081,-0.00016
 033,0.00045447,0.00005854,0.00015358,0.00006891,-0.00022591,0.00404540
 ,-0.00215356,-0.00053169,-0.00004698,-0.00308954,-0.00058012,-0.001529
 21,0.00061957,-0.00018659,0.00036431,0.00096223,-0.02021606,0.14368578
 ,-0.18538814,0.02422445,-0.16197866,0.19108497,-0.00283153,-0.00012605
 ,-0.00079315,-0.00001011,-0.00006921,0.00019631,-0.05147770,-0.0376360
 6,0.01140671,0.00245632,-0.00597381,0.00454996,0.00047712,0.00144853,-
 0.00143282,-0.00058471,0.00016868,-0.00005415,-0.30272581,0.02930816,-
 0.13288834,0.00148152,-0.00162358,0.00023416,0.70590415,0.00076070,0.0
 0072011,-0.00091559,-0.00039202,-0.00026220,-0.00017971,-0.00061729,0.
 03064859,-0.02245630,-0.00559621,0.00070663,0.00231401,0.00061208,0.00
 031311,0.00026602,-0.00061558,-0.00038812,-0.00083332,-0.02182554,-0.0
 9865403,0.03248135,0.02030450,0.00084685,0.01238277,0.14134338,0.45152
 827,-0.00189488,-0.00122718,0.00007961,0.00050715,-0.00015147,-0.00009
 382,-0.02459166,-0.03791353,0.03451288,0.00420773,0.00206832,0.0051439
 1,-0.00058780,0.00057798,-0.00059145,0.00081654,-0.00037258,0.00006333
 ,-0.08339594,0.05411491,-0.14335690,-0.02095296,0.00298202,-0.00719006
 ,0.11131212,-0.26043615,0.42016610,-0.00059821,-0.00002999,-0.00012946
 ,-0.00004858,-0.00002349,0.00003865,-0.00246516,0.00042027,-0.00477888
 ,0.00034504,-0.00086721,0.00075545,-0.00014439,0.00025331,-0.00030743,
 -0.00004470,-0.00008989,0.00006729,-0.01475827,-0.01598867,0.00830886,
 0.00036715,0.00113026,0.00095610,-0.23098894,-0.13634769,0.04838774,0.
 24165998,0.00007314,-0.00010191,-0.00006310,0.00003556,-0.00002295,-0.
 00002949,0.00004778,0.00431921,0.00332343,0.00010850,0.00042386,0.0001
 7738,-0.00005615,-0.00002194,-0.00002314,0.00003144,0.00000278,0.00001
 954,0.00456614,0.00553424,-0.00141888,0.00070608,-0.00156940,-0.002478
 27,-0.13506941,-0.14622297,0.05054480,0.14736898,0.14708589,-0.0002440
 3,-0.00010151,-0.00019844,-0.00003652,-0.00005592,-0.00002223,-0.00432
 759,0.00352289,0.00246798,-0.00019605,-0.00023731,0.00070285,-0.000011
 27,0.00011959,-0.00013343,-0.00004426,-0.00004348,0.00001541,-0.011622
 13,-0.01018851,0.00697994,0.00134662,-0.00226682,-0.00166443,0.0471415
 3,0.04989164,-0.06286803,-0.05012719,-0.05606412,0.05732720,0.00277359
 ,0.00132652,-0.00015938,-0.00027246,-0.00004403,-0.00007534,-0.0041788
 6,-0.02383686,0.02308342,-0.00833701,-0.00070534,-0.00282330,0.0020851
 4,-0.00185855,0.00282898,0.00016614,0.00057223,-0.00059248,0.02435486,
 0.03124123,-0.01905819,-0.00363605,-0.00116852,-0.00399202,-0.11951625
 ,0.01623083,-0.03892725,0.00482719,-0.01947854,0.01882618,0.65637568,-
 0.00154130,-0.00025376,-0.00030651,0.00012829,-0.00005338,0.00007538,-
 0.02426534,-0.04793469,0.03288111,0.00005809,-0.00263136,0.00239676,0.
 00051600,-0.00003788,0.00003149,0.00012938,0.00032470,0.00010389,0.076
 25037,0.01500742,0.01568092,-0.00157054,0.00493864,0.00262520,-0.04087
 610,-0.20103123,0.11483595,0.00253671,-0.00756536,0.01317215,0.1043244
 8,0.47121860,0.00268076,0.00080153,0.00020265,-0.00023207,0.00005652,-
 0.00007018,0.02326968,0.03285976,-0.02578187,-0.00361661,0.00210442,-0
 .00363460,0.00052967,-0.00091960,0.00101201,-0.00024338,0.00022113,-0.
 00007399,-0.06266097,-0.00333192,-0.02535547,-0.00354865,0.00273946,0.
 00415489,0.01636651,0.13923000,-0.19279864,-0.00246947,0.00371833,0.00
 013002,0.11018586,-0.26172495,0.45683963,-0.00093789,-0.00079090,0.000
 45805,0.00016938,0.00015017,-0.00006020,0.01706889,0.06010295,-0.05524
 295,0.00737880,0.00076145,0.00000553,-0.00153544,0.00146967,-0.0015285
 9,-0.00005610,-0.00050507,0.00039781,-0.06832249,-0.02090247,-0.007821
 19,-0.00120584,-0.00010727,-0.00001193,0.04412721,-0.03819215,0.053891
 62,0.00124628,0.00031590,-0.00218969,-0.22196434,-0.06793278,-0.001588
 42,0.64210793,-0.00056820,0.00018810,-0.00076114,0.00014253,0.00013352
 ,-0.00000558,0.02279649,0.01526649,0.00346551,-0.00015467,-0.00040824,
 0.00604516,0.00113309,0.00006763,-0.00065126,-0.00016900,0.00005400,-0
 .00012518,-0.01766596,-0.00799831,-0.00160916,-0.00003547,-0.00015756,
 -0.00086662,-0.00464424,-0.02397262,0.02575836,-0.00004549,0.00017041,
 0.00527232,-0.12918431,-0.17615759,0.05646856,0.09482611,0.45662125,0.
 00016839,-0.00090158,0.00057522,-0.00011138,-0.00000709,0.00006059,-0.
 01873064,0.01962758,-0.01790056,0.00094595,0.00635453,-0.00003155,-0.0
 0123009,-0.00069107,-0.00112543,0.00014804,-0.00015588,0.00034744,-0.0
 1094660,-0.00296609,-0.00368671,-0.00005621,-0.00088295,-0.00019963,0.
 02125242,0.01152714,0.00240342,-0.00182978,0.00541595,-0.00041771,0.05
 792516,0.08243320,-0.11738391,0.12888807,-0.28862615,0.45295668,-0.000
 33485,-0.00021642,0.00010109,0.00001665,0.00001355,-0.00002104,-0.0039
 5686,-0.00105646,-0.00380222,0.00103193,0.00081285,-0.00054513,-0.0006
 0622,0.00023744,-0.00040594,-0.00001348,-0.00010386,0.00009509,-0.0015
 7297,-0.00026964,-0.00009487,0.00002141,0.00024575,0.00016177,-0.00307
 746,-0.00401279,0.00020305,0.00032044,-0.00080403,0.00093976,0.0050753
 3,-0.01632275,0.01644140,-0.05912754,0.01344835,-0.02384866,0.05729257
 ,0.00020436,0.00003819,-0.00000007,-0.00002557,0.00000534,0.00001418,-
 0.00058677,0.00459651,0.00256865,-0.00048251,0.00015429,0.00007606,0.0
 0018457,-0.00020499,0.00000595,-0.00002381,0.00004828,-0.00002080,-0.0
 0059532,-0.00012737,-0.00085473,0.00021688,-0.00045603,-0.00037155,-0.
 00438590,0.00127343,0.00241207,0.00025796,-0.00057215,0.00060731,0.006
 03747,-0.00864813,0.01456016,0.01329107,-0.18110271,0.14908868,-0.0141
 9557,0.18598580,-0.00031002,-0.00017086,0.00000312,0.00001699,0.000029
 07,0.00000893,-0.00430676,0.00234070,0.00340536,0.00072257,0.00062104,
 0.00013423,-0.00030217,0.00001007,-0.00044813,0.00000746,-0.00003675,0
 .00009522,0.00024913,-0.00070817,0.00005273,0.00019114,-0.00035262,-0.
 00050942,0.00056056,0.00257427,0.00339308,-0.00009024,0.00015915,-0.00
 025222,-0.00531203,0.00507288,-0.00346287,-0.02366460,0.14918414,-0.18
 838012,0.02819063,-0.16428447,0.19460067,-0.00154123,-0.00029621,-0.00
 032790,0.00049534,0.00029605,0.00001221,-0.11955004,-0.01418831,-0.009
 71061,-0.00051603,0.01692644,-0.01713868,-0.00469502,0.00017646,-0.003
 30632,-0.00034018,-0.00046635,0.00044723,0.04425057,-0.00705370,0.0240
 5305,-0.00315389,-0.00482002,0.00031995,-0.02509381,0.01743266,-0.0271
 7342,0.00012558,0.00115200,-0.00061833,-0.05815326,-0.04430352,0.01953
 143,-0.29332618,0.03343534,-0.13208370,0.00247173,-0.00062399,0.000514
 63,0.68109514,-0.00296576,-0.00243832,0.00121589,-0.00011096,-0.000369
 74,-0.00000689,0.02514703,-0.18953696,0.13401099,0.00994195,0.00245208
 ,0.00247161,-0.00284715,0.00198258,-0.00135576,-0.00026623,-0.00051168
 ,0.00033027,-0.04346745,-0.03218123,0.01634060,-0.00446039,0.00179371,
 0.00328595,0.02026171,-0.01747417,0.02460949,0.00076047,-0.00062898,-0
 .00004410,0.00106266,0.03426040,-0.03537371,-0.01790742,-0.10029551,0.
 03426863,0.02051316,0.00096504,0.01026454,0.13474777,0.45383397,0.0024
 3659,0.00230399,-0.00132425,0.00045200,0.00013140,-0.00030317,-0.04802
 757,0.11733927,-0.19776361,-0.01064590,0.00554548,-0.00901130,0.000020
 27,0.00004740,0.00178042,0.00003906,0.00018550,-0.00015836,0.05939006,
 0.03167563,-0.00209810,-0.00002385,0.00310353,0.00414757,-0.02988569,0
 .02340130,-0.03640197,-0.00025710,0.00013790,-0.00121354,-0.02468425,-
 0.05471745,0.03993343,-0.08198129,0.05614493,-0.14597007,-0.01997888,0
 .00132185,-0.00715626,0.09630362,-0.24549339,0.42249577,-0.00120821,0.
 00023705,-0.00066076,-0.00004561,0.00000889,0.00006081,0.00657398,0.00
 248744,-0.00080694,0.00041789,0.00133300,0.00004310,0.00002013,-0.0004
 1459,0.00024328,0.00002620,0.00000015,0.00003556,0.00182170,0.00004934
 ,-0.00227353,0.00031899,0.00025551,-0.00015427,-0.00017613,0.00086716,
 -0.00038723,-0.00010458,0.00011048,0.00019589,-0.00185463,0.00016577,-
 0.00441202,-0.01507850,-0.01620489,0.00737827,0.00042318,0.00110318,0.
 00094493,-0.22673616,-0.13311345,0.05085094,0.23695168,0.00014910,0.00
 049351,-0.00056801,0.00019360,0.00016850,-0.00029808,-0.01622999,-0.00
 854251,0.00410577,-0.00115549,-0.00259436,-0.00063952,0.00020905,0.000
 59708,-0.00003733,-0.00010266,-0.00000676,-0.00009749,-0.00004319,0.00
 073916,0.00618821,-0.00088082,-0.00053123,0.00026105,0.00086244,-0.000
 51051,-0.00036820,0.00008909,-0.00035350,-0.00041736,0.00004351,0.0042
 4836,0.00388994,0.00438121,0.00638416,0.00022297,0.00069064,-0.0016076
 4,-0.00238239,-0.13249501,-0.14925180,0.04921968,0.14397769,0.15071578
 ,-0.00050111,-0.00048654,0.00019989,-0.00010602,-0.00037340,0.00005452
 ,0.01724709,0.01198001,-0.00160822,0.00252624,0.00038143,-0.00219297,-
 0.00042594,-0.00021062,0.00054851,0.00011734,-0.00005104,0.00007449,-0
 .00219159,0.00621201,0.00012291,0.00095269,0.00075234,-0.00019196,-0.0
 0041110,-0.00035920,-0.00108724,0.00021946,-0.00040228,-0.00033194,-0.
 00433023,0.00389112,0.00259579,-0.01260252,-0.00846932,0.00761520,0.00
 134861,-0.00219849,-0.00163801,0.05035258,0.04891227,-0.06744543,-0.05
 146642,-0.05883475,0.06320905,-0.00397591,-0.00146089,-0.00016073,0.00
 043209,0.00008746,0.00006836,-0.00906216,0.00339425,-0.00648855,0.0093
 9596,-0.00048579,0.00478776,-0.00220158,0.00206980,-0.00308504,0.00007
 624,-0.00063316,0.00070581,0.00350280,-0.00299169,0.00209767,-0.000052
 14,0.00026476,-0.00024926,-0.01178439,0.01093722,-0.01871726,0.0002811
 4,0.00065400,0.00093601,-0.27523015,-0.02013086,-0.07851795,-0.0520934
 8,0.00082911,-0.02666301,0.00275301,0.00127344,0.00150328,0.00536675,-
 0.00756038,0.00611863,-0.00145938,0.00032723,-0.00078842,0.37666155,0.
 00076475,0.00041139,-0.00000583,-0.00005221,-0.00002102,-0.00004486,0.
 00365834,0.00314271,-0.00307275,-0.00120822,-0.00016576,-0.00108116,0.
 00025250,-0.00003689,0.00027280,-0.00015843,0.00003852,-0.00015710,-0.
 00862325,-0.00263432,0.00399012,0.00123013,-0.00030154,0.00074789,0.03
 714479,-0.00007330,0.02295143,0.00049761,-0.00038874,-0.00267583,0.014
 32851,-0.08111011,0.04254187,-0.02579934,0.00893910,-0.01084909,0.0007
 5848,-0.00013856,-0.00312934,-0.00015646,-0.00140349,0.00937190,-0.000
 70843,0.00003673,-0.00067194,0.02311385,0.35923931,-0.00245816,-0.0009
 1755,0.00005026,0.00025202,0.00000628,0.00001379,-0.00672571,-0.003217
 55,-0.00138071,0.00549134,-0.00077553,0.00229816,-0.00123544,0.0010276
 0,-0.00145646,0.00019239,-0.00032289,0.00042822,0.00762099,0.00636906,
 0.00226096,-0.00117893,0.00032318,-0.00091421,-0.04414406,0.01182120,-
 0.02282547,0.00106998,-0.00259396,-0.00037650,-0.11195629,0.02796356,-
 0.11795822,-0.00080638,0.00041981,0.00823622,0.00198507,-0.00292467,-0
 .00002611,-0.00107920,0.00627546,0.00182880,0.00021771,-0.00023092,-0.
 00002704,0.12611577,-0.31310173,0.38331018,0.00025527,0.00003652,0.000
 06784,-0.00004026,-0.00002469,-0.00000725,0.00011985,-0.00056704,0.000
 60792,-0.00050566,0.00002351,-0.00023183,0.00021376,-0.00017569,0.0002
 9554,-0.00001552,0.00005761,-0.00007809,0.00131784,0.00089774,-0.00106
 884,-0.00037364,0.00005652,-0.00010793,-0.00617945,-0.00088926,-0.0026
 9756,-0.00001998,0.00023815,0.00003108,-0.00251490,0.03283411,-0.03171
 579,0.00154931,0.00206123,-0.00120625,-0.00071687,-0.00164949,0.001084
 51,-0.00069934,0.00026444,-0.00012665,0.00010944,-0.00001638,0.0000593
 4,-0.04261034,-0.04504263,0.02663889,0.05011048,-0.00029590,-0.0001298
 5,0.00000913,0.00002633,0.00002264,0.00001726,-0.00063493,0.00019820,-
 0.00048251,0.00072937,-0.00005868,0.00034383,-0.00013263,0.00010898,-0
 .00021474,-0.00001098,-0.00002396,0.00004918,-0.00025256,0.00050297,0.
 00114938,0.00012839,-0.00008115,-0.00012032,-0.00013335,0.00255216,-0.
 00038622,0.00007779,-0.00008849,-0.00049095,0.00110871,-0.00457461,0.0
 0215851,-0.00316115,0.00226790,-0.00385879,0.00026131,-0.00020928,0.00
 080875,0.00023686,-0.00119589,0.00028108,-0.00015429,0.00001502,-0.000
 07161,-0.00968834,-0.28553404,0.26987864,0.01189536,0.28622809,0.00040
 431,0.00014215,0.00001428,-0.00005535,0.00000160,0.00001413,0.00067646
 ,-0.00044844,0.00071100,-0.00091755,0.00003765,-0.00044788,0.00023615,
 -0.00022513,0.00027748,-0.00000553,0.00007906,-0.00005231,0.00002453,0
 .00163769,0.00023488,-0.00017225,-0.00015028,-0.00019166,-0.00341099,-
 0.00070944,0.00145124,0.00018601,-0.00042324,-0.00014492,-0.00093886,0
 .01558529,-0.01834868,0.00385669,-0.00164439,0.00290093,-0.00076973,-0
 .00000013,0.00017979,-0.00009655,0.00028816,-0.00133994,0.00019069,-0.
 00001358,0.00010244,-0.00766308,0.25491363,-0.25346187,0.00845506,-0.2
 6907061,0.26810110\\-0.00000018,0.00000266,-0.00000146,0.00000023,0.00
 000319,-0.00000203,0.00000063,0.00000054,-0.00000050,0.00000080,0.0000
 0144,-0.00000127,0.00000235,0.00000114,-0.00000199,0.00000297,0.000000
 20,-0.00000172,0.00000098,-0.00000099,0.00000001,0.00000252,-0.0000011
 9,-0.00000062,0.00000090,-0.00000196,0.00000079,0.00000153,-0.00000269
 ,0.00000076,-0.00000173,-0.00000047,-0.00000015,-0.00000241,0.00000006
 ,0.00000056,-0.00000247,0.00000018,0.00000160,-0.00000123,0.00000078,0
 .00000043,-0.00000207,0.00000180,0.00000004,-0.00000095,-0.00000297,0.
 00000284,-0.00000188,-0.00000170,0.00000270\\\@
 The archive entry for this job was punched.


 OLD AGE AND TREACHERY WILL ALWAYS PREVAIL OVER YOUTH AND SKILL.
 Job cpu time:       0 days  0 hours 42 minutes 42.2 seconds.
 Elapsed time:       0 days  0 hours  1 minutes 21.9 seconds.
 File lengths (MBytes):  RWF=    116 Int=      0 D2E=      0 Chk=      7 Scr=      1
 Normal termination of Gaussian 16 at Wed Apr 30 05:10:53 2025.
