/home/tahminaafroz
cn013.cluster.local
tahminaafroz
Sun May 11 03:59:01 CDT 2025
 Entering Gaussian System, Link 0=g16
 Initial command:
 /home/apps/g16/l1.exe "/tmp/4-OH-ph-opt-freq-thf/Gau-500967.inp" -scrdir="/tmp/4-OH-ph-opt-freq-thf/"
 Entering Link 1 = /home/apps/g16/l1.exe PID=    500968.
  
 Copyright (c) 1988-2019, Gaussian, Inc.  All Rights Reserved.
  
 This is part of the Gaussian(R) 16 program.  It is based on
 the Gaussian(R) 09 system (copyright 2009, Gaussian, Inc.),
 the Gaussian(R) 03 system (copyright 2003, Gaussian, Inc.),
 the Gaussian(R) 98 system (copyright 1998, Gaussian, Inc.),
 the Gaussian(R) 94 system (copyright 1995, Gaussian, Inc.),
 the Gaussian 92(TM) system (copyright 1992, Gaussian, Inc.),
 the Gaussian 90(TM) system (copyright 1990, Gaussian, Inc.),
 the Gaussian 88(TM) system (copyright 1988, Gaussian, Inc.),
 the Gaussian 86(TM) system (copyright 1986, Carnegie Mellon
 University), and the Gaussian 82(TM) system (copyright 1983,
 Carnegie Mellon University). Gaussian is a federally registered
 trademark of Gaussian, Inc.
  
 This software contains proprietary and confidential information,
 including trade secrets, belonging to Gaussian, Inc.
  
 This software is provided under written license and may be
 used, copied, transmitted, or stored only in accord with that
 written license.
  
 The following legend is applicable only to US Government
 contracts under FAR:
  
                    RESTRICTED RIGHTS LEGEND
  
 Use, reproduction and disclosure by the US Government is
 subject to restrictions as set forth in subparagraphs (a)
 and (c) of the Commercial Computer Software - Restricted
 Rights clause in FAR 52.227-19.
  
 Gaussian, Inc.
 340 Quinnipiac St., Bldg. 40, Wallingford CT 06492
  
  
 ---------------------------------------------------------------
 Warning -- This program may not be used in any manner that
 competes with the business of Gaussian, Inc. or will provide
 assistance to any competitor of Gaussian, Inc.  The licensee
 of this program is prohibited from giving any competitor of
 Gaussian, Inc. access to this program.  By using this program,
 the user acknowledges that Gaussian, Inc. is engaged in the
 business of creating and licensing software in the field of
 computational chemistry and represents and warrants to the
 licensee that it is not a competitor of Gaussian, Inc. and that
 it will not use this program in any manner prohibited above.
 ---------------------------------------------------------------
  

 Cite this work as:
 Gaussian 16, Revision C.01,
 M. J. Frisch, G. W. Trucks, H. B. Schlegel, G. E. Scuseria, 
 M. A. Robb, J. R. Cheeseman, G. Scalmani, V. Barone, 
 G. A. Petersson, H. Nakatsuji, X. Li, M. Caricato, A. V. Marenich, 
 J. Bloino, B. G. Janesko, R. Gomperts, B. Mennucci, H. P. Hratchian, 
 J. V. Ortiz, A. F. Izmaylov, J. L. Sonnenberg, D. Williams-Young, 
 F. Ding, F. Lipparini, F. Egidi, J. Goings, B. Peng, A. Petrone, 
 T. Henderson, D. Ranasinghe, V. G. Zakrzewski, J. Gao, N. Rega, 
 G. Zheng, W. Liang, M. Hada, M. Ehara, K. Toyota, R. Fukuda, 
 J. Hasegawa, M. Ishida, T. Nakajima, Y. Honda, O. Kitao, H. Nakai, 
 T. Vreven, K. Throssell, J. A. Montgomery, Jr., J. E. Peralta, 
 F. Ogliaro, M. J. Bearpark, J. J. Heyd, E. N. Brothers, K. N. Kudin, 
 V. N. Staroverov, T. A. Keith, R. Kobayashi, J. Normand, 
 K. Raghavachari, A. P. Rendell, J. C. Burant, S. S. Iyengar, 
 J. Tomasi, M. Cossi, J. M. Millam, M. Klene, C. Adamo, R. Cammi, 
 J. W. Ochterski, R. L. Martin, K. Morokuma, O. Farkas, 
 J. B. Foresman, and D. J. Fox, Gaussian, Inc., Wallingford CT, 2019.
 
 ******************************************
 Gaussian 16:  AS64L-G16RevC.01  3-Jul-2019
                11-May-2025 
 ******************************************
 %mem=20GB
 %nprocshared=32
 Will use up to   32 processors via shared memory.
 %chk=4-OH-ph-opt-freq-thf.chk
 ----------------------------------------------------------------------
 # opt=(calcfc,tight) freq 6-311+g(d,p) scrf=(smd,solvent=thf) nosymm s
 cf=(qc,fermi,xqc) geom=connectivity int=ultrafine m062x
 ----------------------------------------------------------------------
 1/7=10,10=4,18=20,19=15,26=6,38=1,57=2/1,3;
 2/9=110,12=2,15=1,17=6,18=5,40=1/2;
 3/5=4,6=6,7=111,11=2,25=1,30=1,70=32201,71=2,72=20,74=-55,75=-5,140=1/1,2,3;
 4//1;
 5/5=2,22=13,38=5,53=20/2;
 8/6=4,10=90,11=11/1;
 11/6=1,8=1,9=11,15=111,16=1,31=1/1,2,10;
 10/6=1,13=1,31=1/2;
 6/7=2,8=2,9=2,10=2,28=1/1;
 7/10=1,25=1,30=1/1,2,3,16;
 1/7=10,10=4,18=20,19=15,26=6/3(2);
 2/9=110,15=1/2;
 99//99;
 2/9=110,15=1/2;
 3/5=4,6=6,7=111,11=2,25=1,30=1,70=32205,71=1,72=20,74=-55,75=-5/1,2,3;
 4/5=5,16=3,69=1/1;
 5/5=2,22=13,38=5,53=20/2;
 7/30=1/1,2,3,16;
 1/7=10,18=20,19=15,26=6/3(-5);
 2/9=110,15=1/2;
 6/7=2,8=2,9=2,10=2,19=2,28=1/1;
 99/9=1/99;
 --------------------
 4-OH-ph-opt-freq-thf
 --------------------
 Symbolic Z-matrix:
 Charge =  0 Multiplicity = 2
 C                     6.24937   6.87091   5.18072 
 C                     5.14103   6.08264   5.52149 
 H                     5.2104    5.34384   6.31552 
 C                     3.92195   6.21268   4.87265 
 H                     3.06982   5.60013   5.14302 
 C                     3.78778   7.15195   3.85072 
 C                     4.87035   7.95313   3.48795 
 H                     4.76013   8.68286   2.6914 
 C                     6.08083   7.8073    4.15238 
 H                     6.91707   8.4354    3.86475 
 O                     2.57912   7.24585   3.24177 
 H                     2.61013   7.92309   2.55514 
 

 GradGradGradGradGradGradGradGradGradGradGradGradGradGradGradGradGradGrad
 Berny optimization.
 Initialization pass.
                           ----------------------------
                           !    Initial Parameters    !
                           ! (Angstroms and Degrees)  !
 --------------------------                            --------------------------
 ! Name  Definition              Value          Derivative Info.                !
 --------------------------------------------------------------------------------
 ! R1    R(1,2)                  1.4021         calculate D2E/DX2 analytically  !
 ! R2    R(1,9)                  1.401          calculate D2E/DX2 analytically  !
 ! R3    R(2,3)                  1.0868         calculate D2E/DX2 analytically  !
 ! R4    R(2,4)                  1.3871         calculate D2E/DX2 analytically  !
 ! R5    R(4,5)                  1.0837         calculate D2E/DX2 analytically  !
 ! R6    R(4,6)                  1.3945         calculate D2E/DX2 analytically  !
 ! R7    R(6,7)                  1.3948         calculate D2E/DX2 analytically  !
 ! R8    R(6,11)                 1.3566         calculate D2E/DX2 analytically  !
 ! R9    R(7,8)                  1.0859         calculate D2E/DX2 analytically  !
 ! R10   R(7,9)                  1.3885         calculate D2E/DX2 analytically  !
 ! R11   R(9,10)                 1.0847         calculate D2E/DX2 analytically  !
 ! R12   R(11,12)                0.9649         calculate D2E/DX2 analytically  !
 ! A1    A(2,1,9)              117.327          calculate D2E/DX2 analytically  !
 ! A2    A(1,2,3)              120.6169         calculate D2E/DX2 analytically  !
 ! A3    A(1,2,4)              121.893          calculate D2E/DX2 analytically  !
 ! A4    A(3,2,4)              117.4897         calculate D2E/DX2 analytically  !
 ! A5    A(2,4,5)              121.4237         calculate D2E/DX2 analytically  !
 ! A6    A(2,4,6)              119.3734         calculate D2E/DX2 analytically  !
 ! A7    A(5,4,6)              119.2029         calculate D2E/DX2 analytically  !
 ! A8    A(4,6,7)              120.1877         calculate D2E/DX2 analytically  !
 ! A9    A(4,6,11)             117.4696         calculate D2E/DX2 analytically  !
 ! A10   A(7,6,11)             122.3427         calculate D2E/DX2 analytically  !
 ! A11   A(6,7,8)              119.8693         calculate D2E/DX2 analytically  !
 ! A12   A(6,7,9)              119.4614         calculate D2E/DX2 analytically  !
 ! A13   A(8,7,9)              120.6693         calculate D2E/DX2 analytically  !
 ! A14   A(1,9,7)              121.7572         calculate D2E/DX2 analytically  !
 ! A15   A(1,9,10)             119.2703         calculate D2E/DX2 analytically  !
 ! A16   A(7,9,10)             118.9725         calculate D2E/DX2 analytically  !
 ! A17   A(6,11,12)            109.8377         calculate D2E/DX2 analytically  !
 ! D1    D(9,1,2,3)           -179.6142         calculate D2E/DX2 analytically  !
 ! D2    D(9,1,2,4)              0.1317         calculate D2E/DX2 analytically  !
 ! D3    D(2,1,9,7)             -0.2306         calculate D2E/DX2 analytically  !
 ! D4    D(2,1,9,10)           179.854          calculate D2E/DX2 analytically  !
 ! D5    D(1,2,4,5)           -179.9298         calculate D2E/DX2 analytically  !
 ! D6    D(1,2,4,6)              0.0282         calculate D2E/DX2 analytically  !
 ! D7    D(3,2,4,5)             -0.1764         calculate D2E/DX2 analytically  !
 ! D8    D(3,2,4,6)            179.7817         calculate D2E/DX2 analytically  !
 ! D9    D(2,4,6,7)             -0.0969         calculate D2E/DX2 analytically  !
 ! D10   D(2,4,6,11)           179.9473         calculate D2E/DX2 analytically  !
 ! D11   D(5,4,6,7)            179.8621         calculate D2E/DX2 analytically  !
 ! D12   D(5,4,6,11)            -0.0937         calculate D2E/DX2 analytically  !
 ! D13   D(4,6,7,8)            179.9979         calculate D2E/DX2 analytically  !
 ! D14   D(4,6,7,9)              0.0011         calculate D2E/DX2 analytically  !
 ! D15   D(11,6,7,8)            -0.0485         calculate D2E/DX2 analytically  !
 ! D16   D(11,6,7,9)           179.9547         calculate D2E/DX2 analytically  !
 ! D17   D(4,6,11,12)         -179.8335         calculate D2E/DX2 analytically  !
 ! D18   D(7,6,11,12)            0.2117         calculate D2E/DX2 analytically  !
 ! D19   D(6,7,9,1)              0.1678         calculate D2E/DX2 analytically  !
 ! D20   D(6,7,9,10)          -179.9166         calculate D2E/DX2 analytically  !
 ! D21   D(8,7,9,1)           -179.829          calculate D2E/DX2 analytically  !
 ! D22   D(8,7,9,10)             0.0867         calculate D2E/DX2 analytically  !
 --------------------------------------------------------------------------------
 Trust Radius=3.00D-01 FncErr=5.00D-06 GrdErr=5.00D-06 EigMax=2.50D+02 EigMin=1.00D-04
 Number of steps in this run=     61 maximum allowed number of steps=    100.
 GradGradGradGradGradGradGradGradGradGradGradGradGradGradGradGradGradGrad

                          Input orientation:                          
 ---------------------------------------------------------------------
 Center     Atomic      Atomic             Coordinates (Angstroms)
 Number     Number       Type             X           Y           Z
 ---------------------------------------------------------------------
      1          6           0        6.249369    6.870905    5.180720
      2          6           0        5.141028    6.082638    5.521494
      3          1           0        5.210401    5.343840    6.315523
      4          6           0        3.921946    6.212678    4.872653
      5          1           0        3.069823    5.600129    5.143023
      6          6           0        3.787784    7.151949    3.850719
      7          6           0        4.870347    7.953133    3.487947
      8          1           0        4.760130    8.682864    2.691398
      9          6           0        6.080826    7.807296    4.152379
     10          1           0        6.917069    8.435397    3.864751
     11          8           0        2.579123    7.245845    3.241771
     12          1           0        2.610125    7.923090    2.555141
 ---------------------------------------------------------------------
                    Distance matrix (angstroms):
                    1          2          3          4          5
     1  C    0.000000
     2  C    1.402110   0.000000
     3  H    2.167755   1.086792   0.000000
     4  C    2.438251   1.387107   2.120582   0.000000
     5  H    3.424296   2.160080   2.454081   1.083711   0.000000
     6  C    2.811990   2.401288   3.371699   1.394481   2.143283
     7  C    2.436883   2.776208   3.862542   2.417862   3.393787
     8  H    3.420198   3.862085   4.948344   3.400330   4.286124
     9  C    1.400971   2.394189   3.391968   2.778914   3.862525
    10  H    2.150635   3.381508   4.298456   3.863562   4.947123
    11  O    4.167830   3.621263   4.470928   2.351677   2.562016
    12  H    4.609214   4.311842   5.249232   3.165003   3.507792
                    6          7          8          9         10
     6  C    0.000000
     7  C    1.394791   0.000000
     8  H    2.152483   1.085885   0.000000
     9  C    2.403855   1.388524   2.155301   0.000000
    10  H    3.382286   2.136266   2.467870   1.084686   0.000000
    11  O    1.356649   2.410512   2.669218   3.661469   4.541026
    12  H    1.913129   2.445329   2.284369   3.822348   4.530707
                   11         12
    11  O    0.000000
    12  H    0.964926   0.000000
 Symmetry turned off by external request.
 Stoichiometry    C6H5O(2)
 Framework group  C1[X(C6H5O)]
 Deg. of freedom    30
 Full point group                 C1      NOp   1
 Rotational constants (GHZ):           5.6916324           2.7545201           1.8561975
 Standard basis: 6-311+G(d,p) (5D, 7F)
   184 basis functions,   292 primitive gaussians,   191 cartesian basis functions
    25 alpha electrons       24 beta electrons
       nuclear repulsion energy       261.3897049424 Hartrees.
 NAtoms=   12 NActive=   12 NUniq=   12 SFac= 1.00D+00 NAtFMM=   60 NAOKFM=F Big=F
 Integral buffers will be    131072 words long.
 Raffenetti 2 integral format.
 Two-electron integral symmetry is turned off.
 Force inversion solution in PCM.
 ------------------------------------------------------------------------------
 Polarizable Continuum Model (PCM)
 =================================
 Model                : PCM.
 Atomic radii         : SMD-Coulomb.
 Polarization charges : Total charges.
 Charge compensation  : None.
 Solution method      : Matrix inversion.
 Cavity type          : VdW (van der Waals Surface) (Alpha=1.000).
 Cavity algorithm     : GePol (No added spheres)
                        Default sphere list used, NSphG=   12.
                        Lebedev-Laikov grids with approx.  5.0 points / Ang**2.
                        Smoothing algorithm: York/Karplus (Gamma=1.0000).
                        Polarization charges: spherical gaussians, with
                                              point-specific exponents (IZeta= 3).
                        Self-potential: point-specific (ISelfS= 7).
                        Self-field    : sphere-specific E.n sum rule (ISelfD= 2).
 1st derivatives      : Analytical E(r).r(x)/FMM algorithm (CHGder, D1EAlg=3).
                        Cavity 1st derivative terms included.
 2nd derivatives      : Analytical E(r).r(xy)/FMM algorithm (CHGder, D2EAlg=3).
                        Cavity 2nd derivative terms included.
 Solvent              : TetraHydroFuran, Eps=   7.425700 Eps(inf)=   1.974025
 ------------------------------------------------------------------------------
 Spheres list:
 ISph  on   Nord     Re0    Alpha      Xe            Ye            Ze
    1   C      1    1.8500  1.000      6.249369      6.870905      5.180720
    2   C      2    1.8500  1.000      5.141028      6.082638      5.521494
    3   H      3    1.2000  1.000      5.210401      5.343840      6.315523
    4   C      4    1.8500  1.000      3.921946      6.212678      4.872653
    5   H      5    1.2000  1.000      3.069823      5.600129      5.143023
    6   C      6    1.8500  1.000      3.787784      7.151949      3.850719
    7   C      7    1.8500  1.000      4.870347      7.953133      3.487947
    8   H      8    1.2000  1.000      4.760130      8.682864      2.691398
    9   C      9    1.8500  1.000      6.080826      7.807296      4.152379
   10   H     10    1.2000  1.000      6.917069      8.435397      3.864751
   11   O     11    2.2940  1.000      2.579123      7.245845      3.241771
   12   H     12    1.2000  1.000      2.610125      7.923090      2.555141
 ------------------------------------------------------------------------------
 ------------------------------------------------------------------------------
 Atomic radii for non-electrostatic terms: SMD-CDS.
 ------------------------------------------------------------------------------
 Nuclear repulsion after PCM non-electrostatic terms =      261.3862959385 Hartrees.
 One-electron integrals computed using PRISM.
 NBasis=   184 RedAO= T EigKep=  4.13D-06  NBF=   184
 NBsUse=   184 1.00D-06 EigRej= -1.00D+00 NBFU=   184
 ExpMin= 4.38D-02 ExpMax= 8.59D+03 ExpMxC= 1.30D+03 IAcc=3 IRadAn=         5 AccDes= 0.00D+00
 Harris functional with IExCor= 1009 and IRadAn=       5 diagonalized for initial guess.
 HarFok:  IExCor= 1009 AccDes= 0.00D+00 IRadAn=         5 IDoV= 1 UseB2=F ITyADJ=14
 ICtDFT=  3500011 ScaDFX=  1.000000  1.000000  1.000000  1.000000
 FoFCou: FMM=F IPFlag=           0 FMFlag=      100000 FMFlg1=           0
         NFxFlg=           0 DoJE=T BraDBF=F KetDBF=T FulRan=T
         wScrn=  0.000000 ICntrl=       500 IOpCl=  0 I1Cent=   200000004 NGrid=           0
         NMat0=    1 NMatS0=      1 NMatT0=    0 NMatD0=    1 NMtDS0=    0 NMtDT0=    0
 Symmetry not used in FoFCou.
 Initial guess <Sx>= 0.0000 <Sy>= 0.0000 <Sz>= 0.5000 <S**2>= 0.7500 S= 0.5000
 Keep R1 and R2 ints in memory in canonical form, NReq=322296923.
 Requested convergence on RMS density matrix=1.00D-08 within 128 cycles.
 Requested convergence on MAX density matrix=1.00D-06.
 Requested convergence on             energy=1.00D-06.
 Level shift goal  0.100 maximum shift  0.100.
 No special actions if energy rises.
 Dynamic level shift is on during FON iterations.
 Inv3:  Mode=1 IEnd=     3696300.
 Iteration    1 A*A^-1 deviation from unit magnitude is 4.22D-15 for   1097.
 Iteration    1 A*A^-1 deviation from orthogonality  is 1.73D-15 for   1098    998.
 Iteration    1 A^-1*A deviation from unit magnitude is 4.00D-15 for   1097.
 Iteration    1 A^-1*A deviation from orthogonality  is 1.66D-15 for   1098    998.
 Error on total polarization charges =  0.02763
 SCF Done:  E(UM062X) =  -306.742442350     A.U. after   16 cycles
            NFock= 16  Conv=0.58D-08     -V/T= 2.0040
 <Sx>= 0.0000 <Sy>= 0.0000 <Sz>= 0.5000 <S**2>= 0.7636 S= 0.5068
 <L.S>=  0.00000000000    
 SMD-CDS (non-electrostatic) energy       (kcal/mol) =      -2.14
 (included in total energy above)
 Annihilation of the first spin contaminant:
 S**2 before annihilation     0.7636,   after     0.7501
 DoSCS=F DFT=T ScalE2(SS,OS)=  1.000000  1.000000
 Range of M.O.s used for correlation:     1   184
 NBasis=   184 NAE=    25 NBE=    24 NFC=     0 NFV=     0
 NROrb=    184 NOA=    25 NOB=    24 NVA=   159 NVB=   160

 **** Warning!!: The largest alpha MO coefficient is  0.10140670D+03


 **** Warning!!: The largest beta MO coefficient is  0.12177464D+03

 Symmetrizing basis deriv contribution to polar:
 IMax=3 JMax=2 DiffMx= 0.00D+00
 G2DrvN: will do    13 centers at a time, making    1 passes.
 Calling FoFCou, ICntrl=  3107 FMM=F I1Cent=   0 AccDes= 0.00D+00.
 NEqPCM:  Using equilibrium solvation (IEInf=0, Eps=   7.4257, EpsInf=   1.9740)
 G2PCM: DoFxE=T DoFxN=T DoGrad=T DoDP/DQ/DG/TGxP=FFFF NFrqRd=   0 IEInf=0 SqF1=F DoCFld=F IF1Alg=4.
 End of G2Drv F.D. properties file   721 does not exist.
 End of G2Drv F.D. properties file   722 does not exist.
 End of G2Drv F.D. properties file   788 does not exist.
          IDoAtm=111111111111
 NEqPCM:  Using equilibrium solvation (IEInf=0, Eps=   7.4257, EpsInf=   1.9740)
          Differentiating once with respect to nuclear coordinates.
 Keep R1 and R2 ints in memory in canonical form, NReq=322197104.
          There are    39 degrees of freedom in the 1st order CPHF.  IDoFFX=6 NUNeed=     0.
     33 vectors produced by pass  0 Test12= 2.00D-14 2.56D-09 XBig12= 2.29D-01 9.57D-02.
 AX will form    33 AO Fock derivatives at one time.
     33 vectors produced by pass  1 Test12= 2.00D-14 2.56D-09 XBig12= 2.66D-02 5.25D-02.
     33 vectors produced by pass  2 Test12= 2.00D-14 2.56D-09 XBig12= 5.70D-04 6.12D-03.
     33 vectors produced by pass  3 Test12= 2.00D-14 2.56D-09 XBig12= 1.40D-05 1.23D-03.
     33 vectors produced by pass  4 Test12= 2.00D-14 2.56D-09 XBig12= 2.48D-07 1.58D-04.
     33 vectors produced by pass  5 Test12= 2.00D-14 2.56D-09 XBig12= 3.71D-09 1.01D-05.
     33 vectors produced by pass  6 Test12= 2.00D-14 2.56D-09 XBig12= 3.73D-11 8.43D-07.
     19 vectors produced by pass  7 Test12= 2.00D-14 2.56D-09 XBig12= 2.04D-13 4.13D-08.
      2 vectors produced by pass  8 Test12= 2.00D-14 2.56D-09 XBig12= 1.34D-15 4.59D-09.
 InvSVY:  IOpt=1 It=  1 EMax= 1.33D-15
 Solved reduced A of dimension   252 with    33 vectors.
 End of Minotr F.D. properties file   721 does not exist.
 End of Minotr F.D. properties file   722 does not exist.
 End of Minotr F.D. properties file   788 does not exist.

 **********************************************************************

            Population analysis using the SCF Density.

 **********************************************************************

 Alpha  occ. eigenvalues --  -19.65758 -10.61192 -10.57588 -10.55696 -10.55607
 Alpha  occ. eigenvalues --  -10.55084 -10.54720  -1.19411  -0.96779  -0.85688
 Alpha  occ. eigenvalues --   -0.83962  -0.71604  -0.68951  -0.62956  -0.56516
 Alpha  occ. eigenvalues --   -0.53545  -0.50662  -0.50112  -0.49630  -0.46715
 Alpha  occ. eigenvalues --   -0.42346  -0.40611  -0.33058  -0.31977  -0.29289
 Alpha virt. eigenvalues --    0.01160   0.01775   0.02304   0.03143   0.03484
 Alpha virt. eigenvalues --    0.05608   0.05807   0.06728   0.08380   0.09235
 Alpha virt. eigenvalues --    0.09462   0.09620   0.10803   0.13847   0.14338
 Alpha virt. eigenvalues --    0.14346   0.14905   0.15623   0.15715   0.15933
 Alpha virt. eigenvalues --    0.18610   0.19503   0.19904   0.21324   0.21669
 Alpha virt. eigenvalues --    0.22054   0.22126   0.23819   0.25196   0.25529
 Alpha virt. eigenvalues --    0.27046   0.27197   0.27404   0.29761   0.30487
 Alpha virt. eigenvalues --    0.33563   0.35326   0.37092   0.39420   0.39799
 Alpha virt. eigenvalues --    0.41126   0.50199   0.52110   0.53753   0.54694
 Alpha virt. eigenvalues --    0.56774   0.59876   0.59974   0.60120   0.60486
 Alpha virt. eigenvalues --    0.61700   0.63620   0.64936   0.65085   0.65218
 Alpha virt. eigenvalues --    0.68848   0.71732   0.73791   0.74870   0.77772
 Alpha virt. eigenvalues --    0.78443   0.82911   0.86447   0.86702   0.87945
 Alpha virt. eigenvalues --    0.89504   0.90144   0.91649   0.94528   0.97889
 Alpha virt. eigenvalues --    1.02910   1.04662   1.05000   1.12573   1.13092
 Alpha virt. eigenvalues --    1.16127   1.18203   1.20329   1.20997   1.26981
 Alpha virt. eigenvalues --    1.28040   1.37566   1.45694   1.50973   1.52556
 Alpha virt. eigenvalues --    1.53874   1.58116   1.60349   1.62820   1.65188
 Alpha virt. eigenvalues --    1.67773   1.68941   1.71597   1.74673   1.78056
 Alpha virt. eigenvalues --    1.80799   1.83811   1.89614   1.91257   1.92493
 Alpha virt. eigenvalues --    1.93791   1.95594   1.96711   1.96808   2.02720
 Alpha virt. eigenvalues --    2.04255   2.09577   2.10496   2.14669   2.22485
 Alpha virt. eigenvalues --    2.31895   2.34869   2.36150   2.41328   2.45576
 Alpha virt. eigenvalues --    2.53625   2.62010   2.63147   2.68773   2.69074
 Alpha virt. eigenvalues --    2.69933   2.73063   2.73437   2.75682   2.77652
 Alpha virt. eigenvalues --    2.79680   2.84018   2.91548   2.94330   2.96379
 Alpha virt. eigenvalues --    2.99981   3.12132   3.16024   3.16725   3.18610
 Alpha virt. eigenvalues --    3.25247   3.36785   3.43466   3.49568   3.54701
 Alpha virt. eigenvalues --    3.59984   3.66269   3.79019   3.95159   4.01901
 Alpha virt. eigenvalues --    4.14601   4.16819   4.18028   4.82345   5.11291
 Alpha virt. eigenvalues --    5.54671   5.84616  23.59551  23.95621  24.01788
 Alpha virt. eigenvalues --   24.09893  24.17468  24.23419  50.04219
  Beta  occ. eigenvalues --  -19.65778 -10.61227 -10.56524 -10.55688 -10.55597
  Beta  occ. eigenvalues --  -10.55009 -10.54643  -1.19472  -0.96027  -0.85338
  Beta  occ. eigenvalues --   -0.82545  -0.71082  -0.67810  -0.62766  -0.55550
  Beta  occ. eigenvalues --   -0.52265  -0.50217  -0.49708  -0.49093  -0.46115
  Beta  occ. eigenvalues --   -0.41573  -0.40127  -0.31991  -0.28027
  Beta virt. eigenvalues --   -0.06686   0.01052   0.01723   0.03246   0.03397
  Beta virt. eigenvalues --    0.03577   0.05656   0.06663   0.06707   0.08496
  Beta virt. eigenvalues --    0.09483   0.09623   0.09905   0.10524   0.13914
  Beta virt. eigenvalues --    0.14310   0.14401   0.14894   0.15509   0.15809
  Beta virt. eigenvalues --    0.15998   0.18740   0.19413   0.19810   0.21654
  Beta virt. eigenvalues --    0.21826   0.22192   0.22826   0.23878   0.25409
  Beta virt. eigenvalues --    0.26026   0.26413   0.27028   0.27484   0.29796
  Beta virt. eigenvalues --    0.30619   0.33654   0.36041   0.37757   0.39609
  Beta virt. eigenvalues --    0.39920   0.41691   0.47278   0.51966   0.53159
  Beta virt. eigenvalues --    0.54835   0.56968   0.58621   0.59928   0.60373
  Beta virt. eigenvalues --    0.60395   0.61027   0.63730   0.64960   0.65051
  Beta virt. eigenvalues --    0.65307   0.70026   0.71568   0.74041   0.74681
  Beta virt. eigenvalues --    0.77834   0.78481   0.82713   0.85213   0.86832
  Beta virt. eigenvalues --    0.88067   0.89130   0.90243   0.92457   0.93932
  Beta virt. eigenvalues --    0.98225   1.03318   1.04928   1.05138   1.12539
  Beta virt. eigenvalues --    1.13117   1.16256   1.18747   1.20232   1.22747
  Beta virt. eigenvalues --    1.27323   1.27966   1.37820   1.45677   1.51535
  Beta virt. eigenvalues --    1.53964   1.54183   1.59118   1.60744   1.62955
  Beta virt. eigenvalues --    1.65181   1.68557   1.69265   1.71651   1.75238
  Beta virt. eigenvalues --    1.78142   1.80808   1.83941   1.90115   1.91549
  Beta virt. eigenvalues --    1.92878   1.94434   1.96459   1.96955   1.97079
  Beta virt. eigenvalues --    2.03157   2.04082   2.09628   2.10486   2.14683
  Beta virt. eigenvalues --    2.22839   2.32623   2.35180   2.36579   2.41792
  Beta virt. eigenvalues --    2.45783   2.53528   2.62032   2.63331   2.68936
  Beta virt. eigenvalues --    2.69439   2.70392   2.73396   2.73626   2.75782
  Beta virt. eigenvalues --    2.77695   2.79788   2.83914   2.92151   2.94168
  Beta virt. eigenvalues --    2.96421   3.01575   3.12221   3.15966   3.17450
  Beta virt. eigenvalues --    3.19075   3.25128   3.37186   3.43699   3.49755
  Beta virt. eigenvalues --    3.54872   3.60593   3.66337   3.79595   3.95185
  Beta virt. eigenvalues --    4.01998   4.14589   4.17117   4.18108   4.82662
  Beta virt. eigenvalues --    5.11173   5.54645   5.84598  23.59757  23.96141
  Beta virt. eigenvalues --   24.01792  24.10224  24.17452  24.23484  50.04233
          Condensed to atoms (all electrons):
               1          2          3          4          5          6
     1  C    5.282285   0.163850  -0.001217   0.368631  -0.017681  -0.541765
     2  C    0.163850   5.606149   0.385656  -0.317670   0.048580   0.583308
     3  H   -0.001217   0.385656   0.458105  -0.041513  -0.005177  -0.000385
     4  C    0.368631  -0.317670  -0.041513   7.122251   0.359899  -0.579977
     5  H   -0.017681   0.048580  -0.005177   0.359899   0.446905   0.017021
     6  C   -0.541765   0.583308  -0.000385  -0.579977   0.017021   6.765703
     7  C    0.335570  -0.414691   0.004504  -0.287953  -0.048430  -0.659352
     8  H   -0.016455   0.011228   0.000034  -0.059280  -0.000029  -0.027530
     9  C    0.206618   0.442576  -0.003137  -0.597118   0.007802   0.449453
    10  H   -0.019478  -0.004640  -0.000078   0.002496   0.000033   0.015841
    11  O    0.024082  -0.015163  -0.000551  -0.300803  -0.005817   0.303070
    12  H   -0.002614  -0.002564   0.000005   0.100192   0.000364   0.064172
               7          8          9         10         11         12
     1  C    0.335570  -0.016455   0.206618  -0.019478   0.024082  -0.002614
     2  C   -0.414691   0.011228   0.442576  -0.004640  -0.015163  -0.002564
     3  H    0.004504   0.000034  -0.003137  -0.000078  -0.000551   0.000005
     4  C   -0.287953  -0.059280  -0.597118   0.002496  -0.300803   0.100192
     5  H   -0.048430  -0.000029   0.007802   0.000033  -0.005817   0.000364
     6  C   -0.659352  -0.027530   0.449453   0.015841   0.303070   0.064172
     7  C    6.766878   0.381002  -0.099208  -0.015235   0.038041  -0.147247
     8  H    0.381002   0.454567   0.075437  -0.004956  -0.009090   0.004011
     9  C   -0.099208   0.075437   5.671161   0.364950  -0.014583  -0.006360
    10  H   -0.015235  -0.004956   0.364950   0.457672  -0.000609   0.000021
    11  O    0.038041  -0.009090  -0.014583  -0.000609   8.010955   0.277462
    12  H   -0.147247   0.004011  -0.006360   0.000021   0.277462   0.422258
          Atomic-Atomic Spin Densities.
               1          2          3          4          5          6
     1  C    1.164736  -0.253984   0.011058   0.191960   0.003108  -0.228420
     2  C   -0.253984   0.331161  -0.012206  -0.295658  -0.007586   0.261537
     3  H    0.011058  -0.012206   0.021089   0.010274   0.000932  -0.012411
     4  C    0.191960  -0.295658   0.010274   0.349309   0.006104  -0.241620
     5  H    0.003108  -0.007586   0.000932   0.006104   0.002665  -0.003332
     6  C   -0.228420   0.261537  -0.012411  -0.241620  -0.003332   0.189396
     7  C    0.198545  -0.232130   0.008772   0.199280   0.003311  -0.258544
     8  H    0.003288  -0.002425   0.000011   0.002286   0.000027  -0.004907
     9  C   -0.241425   0.285541  -0.014202  -0.218164  -0.002212   0.259884
    10  H    0.011694  -0.014991   0.000124   0.008813   0.000010  -0.013936
    11  O    0.002092  -0.004264   0.000005   0.001362  -0.000414   0.014366
    12  H    0.000267  -0.000154   0.000000   0.001349   0.000036  -0.000673
               7          8          9         10         11         12
     1  C    0.198545   0.003288  -0.241425   0.011694   0.002092   0.000267
     2  C   -0.232130  -0.002425   0.285541  -0.014991  -0.004264  -0.000154
     3  H    0.008772   0.000011  -0.014202   0.000124   0.000005   0.000000
     4  C    0.199280   0.002286  -0.218164   0.008813   0.001362   0.001349
     5  H    0.003311   0.000027  -0.002212   0.000010  -0.000414   0.000036
     6  C   -0.258544  -0.004907   0.259884  -0.013936   0.014366  -0.000673
     7  C    0.352661   0.008241  -0.270501   0.008501   0.001515   0.000344
     8  H    0.008241   0.002494  -0.007131   0.000931  -0.000538   0.000189
     9  C   -0.270501  -0.007131   0.280244  -0.009503  -0.003946  -0.000794
    10  H    0.008501   0.000931  -0.009503   0.021744   0.000023   0.000004
    11  O    0.001515  -0.000538  -0.003946   0.000023  -0.014555  -0.000350
    12  H    0.000344   0.000189  -0.000794   0.000004  -0.000350   0.000328
 Mulliken charges and spin densities:
               1          2
     1  C    0.218173   0.862919
     2  C   -0.486619   0.054841
     3  H    0.203753   0.013446
     4  C    0.230844   0.015294
     5  H    0.196530   0.002650
     6  C   -0.389559  -0.038660
     7  C    0.146121   0.019996
     8  H    0.191061   0.002467
     9  C   -0.497591   0.057791
    10  H    0.203983   0.013414
    11  O   -0.306994  -0.004705
    12  H    0.290300   0.000547
 Sum of Mulliken charges =   0.00000   1.00000
 Mulliken charges and spin densities with hydrogens summed into heavy atoms:
               1          2
     1  C    0.218173   0.862919
     2  C   -0.282866   0.068287
     4  C    0.427374   0.017944
     6  C   -0.389559  -0.038660
     7  C    0.337182   0.022464
     9  C   -0.293608   0.071205
    11  O   -0.016695  -0.004158
 APT charges:
               1
     1  C    1.804438
     2  C   -1.393982
     3  H    0.367250
     4  C   -0.053219
     5  H   -0.600971
     6  C   -0.533108
     7  C   -0.353747
     8  H    0.757334
     9  C   -1.576646
    10  H    1.709003
    11  O   -0.981834
    12  H    0.855480
 Sum of APT charges =   0.00000
 APT charges with hydrogens summed into heavy atoms:
               1
     1  C    1.804438
     2  C   -1.026732
     4  C   -0.654190
     6  C   -0.533108
     7  C    0.403587
     9  C    0.132357
    11  O   -0.126353
 Electronic spatial extent (au):  <R**2>=          16196.7031
 Charge=              0.0000 electrons
 Dipole moment (field-independent basis, Debye):
    X=             -0.2392    Y=              1.3650    Z=             -1.4990  Tot=              2.0414
 Quadrupole moment (field-independent basis, Debye-Ang):
   XX=            -45.4524   YY=            -18.6544   ZZ=            -50.1617
   XY=              4.8190   XZ=             -7.2832   YZ=            -12.1549
 Traceless Quadrupole moment (field-independent basis, Debye-Ang):
   XX=             -7.3629   YY=             19.4351   ZZ=            -12.0722
   XY=              4.8190   XZ=             -7.2832   YZ=            -12.1549
 Octapole moment (field-independent basis, Debye-Ang**2):
  XXX=           -613.2070  YYY=           -597.2021  ZZZ=           -575.1215  XYY=            -99.8328
  XXY=           -281.7259  XXZ=           -226.1490  XZZ=           -239.7760  YZZ=           -389.3243
  YYZ=           -262.8961  XYZ=            -53.1857
 Hexadecapole moment (field-independent basis, Debye-Ang**3):
 XXXX=          -6065.3426 YYYY=          -9548.1365 ZZZZ=          -5022.3142 XXXY=          -4078.3360
 XXXZ=          -2881.4783 YYYX=          -2923.4795 YYYZ=          -4221.1228 ZZZX=          -2809.7904
 ZZZY=          -4278.1569 XXYY=          -2656.2017 XXZZ=          -2090.3741 YYZZ=          -3775.8008
 XXYZ=          -1539.7446 YYXZ=          -1194.4153 ZZXY=          -1830.2563
 N-N= 2.613862959385D+02 E-N=-1.237564591945D+03  KE= 3.055251285345D+02
  Exact polarizability:       0.000       0.000       0.000       0.000       0.000       0.000
 Approx polarizability:     103.788       8.702      79.695      12.421     -23.355      82.527
                          Isotropic Fermi Contact Couplings
        Atom                 a.u.       MegaHertz       Gauss      10(-4) cm-1
     1  C(13)              0.55728     626.48554     223.54562     208.97308
     2  C(13)              0.02558      28.75335      10.25991       9.59109
     3  H(1)               0.00898      40.12998      14.31937      13.38592
     4  C(13)              0.04211      47.33864      16.89160      15.79047
     5  H(1)               0.00154       6.86334       2.44901       2.28936
     6  C(13)             -0.01051     -11.81846      -4.21712      -3.94221
     7  C(13)              0.04201      47.22669      16.85166      15.75313
     8  H(1)               0.00140       6.24563       2.22860       2.08332
     9  C(13)              0.02571      28.90392      10.31364       9.64131
    10  H(1)               0.00919      41.09061      14.66215      13.70635
    11  O(17)              0.00223      -1.35149      -0.48224      -0.45081
    12  H(1)               0.00014       0.64431       0.22990       0.21492
 --------------------------------------------------------
       Center         ----  Spin Dipole Couplings  ----
                      3XX-RR        3YY-RR        3ZZ-RR
 --------------------------------------------------------
     1   Atom        0.569516     -0.435016     -0.134501
     2   Atom        0.084599     -0.032064     -0.052535
     3   Atom        0.001356      0.003741     -0.005097
     4   Atom        0.033784     -0.023710     -0.010074
     5   Atom        0.006619     -0.001969     -0.004650
     6   Atom        0.025497     -0.015142     -0.010355
     7   Atom        0.022641     -0.021078     -0.001563
     8   Atom       -0.002928      0.000018      0.002910
     9   Atom       -0.003077     -0.012860      0.015937
    10   Atom       -0.010350      0.006524      0.003826
    11   Atom        0.026648     -0.014881     -0.011766
    12   Atom        0.002784     -0.001787     -0.000997
 --------------------------------------------------------
                        XY            XZ            YZ
 --------------------------------------------------------
     1   Atom       -0.157573      0.554148      0.017409
     2   Atom        0.066614      0.009713     -0.043642
     3   Atom        0.014338     -0.008753     -0.011121
     4   Atom       -0.008301      0.025973      0.013180
     5   Atom        0.005664     -0.000926     -0.000693
     6   Atom        0.013892      0.020357     -0.036298
     7   Atom       -0.017290      0.030337      0.006668
     8   Atom       -0.002600      0.003511     -0.006197
     9   Atom       -0.008197      0.050789     -0.095788
    10   Atom        0.004710     -0.003599     -0.018117
    11   Atom        0.015807      0.018106     -0.033513
    12   Atom       -0.000169      0.001785      0.000727
 --------------------------------------------------------


 ---------------------------------------------------------------------------------
              Anisotropic Spin Dipole Couplings in Principal Axis System
 ---------------------------------------------------------------------------------

       Atom             a.u.   MegaHertz   Gauss  10(-4) cm-1        Axes

              Baa    -0.5342   -71.685   -25.579   -23.912  0.3904  0.7208 -0.5727
     1 C(13)  Bbb    -0.3526   -47.315   -16.883   -15.782 -0.2850  0.6862  0.6693
              Bcc     0.8868   119.000    42.462    39.694  0.8754 -0.0981  0.4733
 
              Baa    -0.1016   -13.635    -4.865    -4.548 -0.2813  0.6888  0.6682
     2 C(13)  Bbb    -0.0137    -1.844    -0.658    -0.615  0.3244 -0.5871  0.7417
              Bcc     0.1153    15.478     5.523     5.163  0.9031  0.4254 -0.0583
 
              Baa    -0.0129    -6.880    -2.455    -2.295 -0.2901  0.6919  0.6611
     3 H(1)   Bbb    -0.0109    -5.832    -2.081    -1.946  0.7467 -0.2684  0.6086
              Bcc     0.0238    12.713     4.536     4.241  0.5986  0.6702 -0.4388
 
              Baa    -0.0384    -5.155    -1.840    -1.720  0.3053  0.7253 -0.6170
     4 C(13)  Bbb    -0.0075    -1.005    -0.359    -0.335 -0.2825  0.6878  0.6687
              Bcc     0.0459     6.160     2.198     2.055  0.9094 -0.0299  0.4149
 
              Baa    -0.0050    -2.653    -0.947    -0.885 -0.2825  0.6874  0.6691
     5 H(1)   Bbb    -0.0046    -2.429    -0.867    -0.810  0.3524 -0.5744  0.7388
              Bcc     0.0095     5.082     1.813     1.695  0.8922  0.4445 -0.0800
 
              Baa    -0.0562    -7.546    -2.693    -2.517 -0.2834  0.6869  0.6692
     6 C(13)  Bbb     0.0213     2.859     1.020     0.954  0.3934  0.7197 -0.5721
              Bcc     0.0349     4.687     1.672     1.563  0.8746 -0.1011  0.4742
 
              Baa    -0.0375    -5.034    -1.796    -1.679  0.4695  0.7080 -0.5275
     7 C(13)  Bbb    -0.0075    -1.003    -0.358    -0.334 -0.2815  0.6864  0.6706
              Bcc     0.0450     6.037     2.154     2.014  0.8368 -0.1664  0.5216
 
              Baa    -0.0049    -2.636    -0.941    -0.879 -0.2693  0.6937  0.6681
     8 H(1)   Bbb    -0.0044    -2.367    -0.845    -0.790  0.9031  0.4228 -0.0749
              Bcc     0.0094     5.003     1.785     1.669  0.3345 -0.5831  0.7403
 
              Baa    -0.1033   -13.864    -4.947    -4.625 -0.2840  0.6849  0.6711
     9 C(13)  Bbb    -0.0118    -1.587    -0.566    -0.529  0.8901  0.4485 -0.0810
              Bcc     0.1151    15.451     5.513     5.154  0.3564 -0.5743  0.7370
 
              Baa    -0.0132    -7.024    -2.506    -2.343 -0.2910  0.6846  0.6683
    10 H(1)   Bbb    -0.0112    -5.966    -2.129    -1.990  0.9419  0.0826  0.3256
              Bcc     0.0243    12.990     4.635     4.333  0.1677  0.7242 -0.6688
 
              Baa    -0.0540     3.906     1.394     1.303 -0.2848  0.6876  0.6679
    11 O(17)  Bbb     0.0199    -1.441    -0.514    -0.481  0.1409  0.7192 -0.6803
              Bcc     0.0341    -2.465    -0.880    -0.822  0.9482  0.0996  0.3017
 
              Baa    -0.0025    -1.327    -0.474    -0.443  0.2413  0.7264 -0.6436
    12 H(1)   Bbb    -0.0010    -0.539    -0.192    -0.180 -0.2841  0.6870  0.6688
              Bcc     0.0035     1.866     0.666     0.622  0.9279  0.0215  0.3721
 

 ---------------------------------------------------------------------------------

 D2PCM: PCM CHGder 2nd derivatives, FixD1E=F FixD2E=F DoIter=F DoCFld=F I1PDM=0
 Calling FoFJK, ICntrl=    100127 FMM=F ISym2X=0 I1Cent= 0 IOpClX= 1 NMat=1 NMatS=1 NMatT=0.
 -------------------------------------------------------------------
 Center     Atomic                   Forces (Hartrees/Bohr)
 Number     Number              X              Y              Z
 -------------------------------------------------------------------
      1        6          -0.045750172    0.005121823   -0.024290125
      2        6           0.022359419   -0.005110535    0.015093037
      3        1           0.001315982    0.000349559   -0.000104968
      4        6           0.000022842    0.005931100   -0.006085342
      5        1           0.000970429   -0.000547393    0.000935626
      6        6           0.001424986    0.000013660    0.000541998
      7        6          -0.005876898   -0.004133031    0.001808581
      8        1           0.001451353    0.000196847    0.000435134
      9        6           0.026134180   -0.003456571    0.014214885
     10        1          -0.000028637    0.001354689   -0.001448265
     11        8          -0.001817357    0.000522825   -0.001275677
     12        1          -0.000206126   -0.000242973    0.000175116
 -------------------------------------------------------------------
 Cartesian Forces:  Max     0.045750172 RMS     0.011186797
 FormGI is forming the generalized inverse of G from B-inverse, IUseBI=4.

 GradGradGradGradGradGradGradGradGradGradGradGradGradGradGradGradGradGrad
 Berny optimization.
 Internal  Forces:  Max     0.028043410 RMS     0.006554306
 Search for a local minimum.
 Step number   1 out of a maximum of   61
 All quantities printed in internal units (Hartrees-Bohrs-Radians)
 Mixed Optimization -- RFO/linear search
 Second derivative matrix not updated -- analytic derivatives used.
 ITU=  0
     Eigenvalues ---    0.00533   0.01614   0.01804   0.01922   0.02177
     Eigenvalues ---    0.02584   0.03085   0.03178   0.03369   0.10540
     Eigenvalues ---    0.11002   0.11398   0.12223   0.15963   0.17045
     Eigenvalues ---    0.18913   0.20637   0.21582   0.27921   0.35502
     Eigenvalues ---    0.35853   0.36021   0.36553   0.38094   0.41716
     Eigenvalues ---    0.44386   0.45936   0.49457   0.52785   0.52963
 RFO step:  Lambda=-8.87831467D-03 EMin= 5.32565219D-03
 Linear search not attempted -- first point.
 Iteration  1 RMS(Cart)=  0.02584775 RMS(Int)=  0.00112393
 Iteration  2 RMS(Cart)=  0.00161332 RMS(Int)=  0.00039708
 Iteration  3 RMS(Cart)=  0.00000058 RMS(Int)=  0.00039708
 Variable       Old X    -DE/DX   Delta X   Delta X   Delta X     New X
                                 (Linear)    (Quad)   (Total)
    R1        2.64960  -0.01917   0.00000  -0.05304  -0.05246   2.59715
    R2        2.64745  -0.01930   0.00000  -0.05546  -0.05489   2.59256
    R3        2.05374  -0.00023   0.00000  -0.00479  -0.00479   2.04895
    R4        2.62125   0.00260   0.00000   0.01313   0.01314   2.63439
    R5        2.04792  -0.00022   0.00000   0.00053   0.00053   2.04845
    R6        2.63519   0.00233   0.00000   0.00135   0.00078   2.63597
    R7        2.63577   0.00191   0.00000  -0.00038  -0.00095   2.63482
    R8        2.56369   0.00232   0.00000   0.00954   0.00954   2.57323
    R9        2.05202  -0.00033   0.00000   0.00014   0.00014   2.05216
   R10        2.62393   0.00259   0.00000   0.01571   0.01570   2.63963
   R11        2.04976   0.00115   0.00000  -0.00089  -0.00089   2.04887
   R12        1.82345  -0.00031   0.00000  -0.00101  -0.00101   1.82243
    A1        2.04774   0.02804   0.00000   0.12265   0.12419   2.17193
    A2        2.10516   0.00591   0.00000   0.02649   0.02624   2.13140
    A3        2.12743  -0.01456   0.00000  -0.07359  -0.07307   2.05436
    A4        2.05058   0.00866   0.00000   0.04710   0.04685   2.09743
    A5        2.11924  -0.00162   0.00000  -0.00776  -0.00744   2.11180
    A6        2.08346   0.00028   0.00000   0.00695   0.00631   2.08977
    A7        2.08048   0.00134   0.00000   0.00081   0.00113   2.08161
    A8        2.09767   0.00041   0.00000   0.01083   0.00961   2.10728
    A9        2.05023  -0.00024   0.00000  -0.00636  -0.00575   2.04448
   A10        2.13528  -0.00017   0.00000  -0.00447  -0.00386   2.13142
   A11        2.09211   0.00156   0.00000   0.00272   0.00305   2.09517
   A12        2.08499  -0.00008   0.00000   0.00564   0.00497   2.08996
   A13        2.10608  -0.00148   0.00000  -0.00836  -0.00802   2.09806
   A14        2.12506  -0.01409   0.00000  -0.07248  -0.07200   2.05307
   A15        2.08166   0.00871   0.00000   0.04930   0.04906   2.13072
   A16        2.07646   0.00537   0.00000   0.02318   0.02294   2.09940
   A17        1.91703   0.00038   0.00000  -0.00082  -0.00082   1.91621
    D1       -3.13486  -0.00014   0.00000  -0.00538  -0.00543  -3.14029
    D2        0.00230  -0.00001   0.00000  -0.00182  -0.00187   0.00043
    D3       -0.00402   0.00006   0.00000   0.00319   0.00322  -0.00080
    D4        3.13904   0.00000   0.00000   0.00151   0.00157   3.14061
    D5       -3.14037  -0.00004   0.00000  -0.00121  -0.00125   3.14157
    D6        0.00049  -0.00001   0.00000  -0.00028  -0.00036   0.00013
    D7       -0.00308   0.00008   0.00000   0.00221   0.00220  -0.00088
    D8        3.13778   0.00012   0.00000   0.00313   0.00309   3.14087
    D9       -0.00169   0.00004   0.00000   0.00141   0.00141  -0.00029
   D10        3.14067   0.00002   0.00000   0.00081   0.00085   3.14152
   D11        3.13919   0.00007   0.00000   0.00232   0.00227   3.14146
   D12       -0.00163   0.00004   0.00000   0.00171   0.00171   0.00008
   D13        3.14156  -0.00003   0.00000  -0.00070  -0.00063   3.14093
   D14        0.00002   0.00000   0.00000  -0.00018  -0.00012  -0.00010
   D15       -0.00085   0.00000   0.00000  -0.00007  -0.00004  -0.00088
   D16        3.14080   0.00003   0.00000   0.00045   0.00047   3.14127
   D17       -3.13869   0.00001   0.00000   0.00062   0.00060  -3.13809
   D18        0.00370  -0.00001   0.00000   0.00000   0.00003   0.00372
   D19        0.00293  -0.00010   0.00000  -0.00242  -0.00231   0.00061
   D20       -3.14014  -0.00003   0.00000  -0.00071  -0.00067  -3.14081
   D21       -3.13861  -0.00007   0.00000  -0.00189  -0.00180  -3.14041
   D22        0.00151   0.00000   0.00000  -0.00019  -0.00016   0.00135
         Item               Value     Threshold  Converged?
 Maximum Force            0.028043     0.000015     NO 
 RMS     Force            0.006554     0.000010     NO 
 Maximum Displacement     0.137662     0.000060     NO 
 RMS     Displacement     0.025753     0.000040     NO 
 Predicted change in Energy=-4.609948D-03
 GradGradGradGradGradGradGradGradGradGradGradGradGradGradGradGradGradGrad

                          Input orientation:                          
 ---------------------------------------------------------------------
 Center     Atomic      Atomic             Coordinates (Angstroms)
 Number     Number       Type             X           Y           Z
 ---------------------------------------------------------------------
      1          6           0        6.176521    6.878256    5.145737
      2          6           0        5.137683    6.068085    5.537244
      3          1           0        5.243554    5.338652    6.332435
      4          6           0        3.919486    6.210373    4.874556
      5          1           0        3.064755    5.598845    5.140099
      6          6           0        3.793228    7.152281    3.853476
      7          6           0        4.872691    7.955095    3.487024
      8          1           0        4.762026    8.684381    2.690029
      9          6           0        6.095278    7.816690    4.148280
     10          1           0        6.940224    8.436912    3.870941
     11          8           0        2.580214    7.246719    3.242004
     12          1           0        2.612310    7.923474    2.555695
 ---------------------------------------------------------------------
                    Distance matrix (angstroms):
                    1          2          3          4          5
     1  C    0.000000
     2  C    1.374351   0.000000
     3  H    2.156168   1.084255   0.000000
     4  C    2.369350   1.394062   2.153710   0.000000
     5  H    3.364522   2.162161   2.497304   1.083994   0.000000
     6  C    2.724906   2.412077   3.396753   1.394896   2.144583
     7  C    2.368730   2.799005   3.883256   2.424438   3.399000
     8  H    3.360563   3.884939   4.969194   3.406280   4.290000
     9  C    1.371926   2.429779   3.411252   2.800322   3.884148
    10  H    2.153545   3.411313   4.305445   3.884531   4.968364
    11  O    4.085754   3.632898   4.503871   2.352208   2.559889
    12  H    4.528179   4.325461   5.279064   3.165523   3.505389
                    6          7          8          9         10
     6  C    0.000000
     7  C    1.394288   0.000000
     8  H    2.153951   1.085958   0.000000
     9  C    2.414080   1.396829   2.157995   0.000000
    10  H    3.399141   2.157366   2.490048   1.084217   0.000000
    11  O    1.361697   2.411905   2.670553   3.674490   4.563092
    12  H    1.916649   2.444933   2.284360   3.831291   4.552398
                   11         12
    11  O    0.000000
    12  H    0.964390   0.000000
 Symmetry turned off by external request.
 Stoichiometry    C6H5O(2)
 Framework group  C1[X(C6H5O)]
 Deg. of freedom    30
 Full point group                 C1      NOp   1
 Rotational constants (GHZ):           5.6115265           2.8035403           1.8695208
 Standard basis: 6-311+G(d,p) (5D, 7F)
   184 basis functions,   292 primitive gaussians,   191 cartesian basis functions
    25 alpha electrons       24 beta electrons
       nuclear repulsion energy       262.0992185368 Hartrees.
 NAtoms=   12 NActive=   12 NUniq=   12 SFac= 1.00D+00 NAtFMM=   60 NAOKFM=F Big=F
 Integral buffers will be    131072 words long.
 Raffenetti 2 integral format.
 Two-electron integral symmetry is turned off.
 ------------------------------------------------------------------------------
 Polarizable Continuum Model (PCM)
 =================================
 Model                : PCM.
 Atomic radii         : SMD-Coulomb.
 Polarization charges : Total charges.
 Charge compensation  : None.
 Solution method      : Matrix inversion.
 Cavity type          : VdW (van der Waals Surface) (Alpha=1.000).
 Cavity algorithm     : GePol (No added spheres)
                        Default sphere list used, NSphG=   12.
                        Lebedev-Laikov grids with approx.  5.0 points / Ang**2.
                        Smoothing algorithm: York/Karplus (Gamma=1.0000).
                        Polarization charges: spherical gaussians, with
                                              point-specific exponents (IZeta= 3).
                        Self-potential: point-specific (ISelfS= 7).
                        Self-field    : sphere-specific E.n sum rule (ISelfD= 2).
 1st derivatives      : Analytical E(r).r(x)/FMM algorithm (CHGder, D1EAlg=3).
                        Cavity 1st derivative terms included.
 Solvent              : TetraHydroFuran, Eps=   7.425700 Eps(inf)=   1.974025
 ------------------------------------------------------------------------------
 Spheres list:
 ISph  on   Nord     Re0    Alpha      Xe            Ye            Ze
    1   C      1    1.8500  1.000      6.176521      6.878256      5.145737
    2   C      2    1.8500  1.000      5.137683      6.068085      5.537244
    3   H      3    1.2000  1.000      5.243554      5.338652      6.332435
    4   C      4    1.8500  1.000      3.919486      6.210373      4.874556
    5   H      5    1.2000  1.000      3.064755      5.598845      5.140099
    6   C      6    1.8500  1.000      3.793228      7.152281      3.853476
    7   C      7    1.8500  1.000      4.872691      7.955095      3.487024
    8   H      8    1.2000  1.000      4.762026      8.684381      2.690029
    9   C      9    1.8500  1.000      6.095278      7.816690      4.148280
   10   H     10    1.2000  1.000      6.940224      8.436912      3.870941
   11   O     11    2.2940  1.000      2.580214      7.246719      3.242004
   12   H     12    1.2000  1.000      2.612310      7.923474      2.555695
 ------------------------------------------------------------------------------
 ------------------------------------------------------------------------------
 Atomic radii for non-electrostatic terms: SMD-CDS.
 ------------------------------------------------------------------------------
 Nuclear repulsion after PCM non-electrostatic terms =      262.0957525015 Hartrees.
 One-electron integrals computed using PRISM.
 NBasis=   184 RedAO= T EigKep=  3.61D-06  NBF=   184
 NBsUse=   184 1.00D-06 EigRej= -1.00D+00 NBFU=   184
 Initial guess from the checkpoint file:  "4-OH-ph-opt-freq-thf.chk"
 B after Tr=    -0.012632    0.004950   -0.008641
         Rot=    1.000000    0.000031    0.000333    0.000278 Ang=   0.05 deg.
 Initial guess <Sx>= 0.0000 <Sy>= 0.0000 <Sz>= 0.5000 <S**2>= 0.7633 S= 0.5066
 ExpMin= 4.38D-02 ExpMax= 8.59D+03 ExpMxC= 1.30D+03 IAcc=3 IRadAn=         5 AccDes= 0.00D+00
 Harris functional with IExCor= 1009 and IRadAn=       5 diagonalized for initial guess.
 HarFok:  IExCor= 1009 AccDes= 0.00D+00 IRadAn=         5 IDoV= 1 UseB2=F ITyADJ=14
 ICtDFT=  3500011 ScaDFX=  1.000000  1.000000  1.000000  1.000000
 FoFCou: FMM=F IPFlag=           0 FMFlag=      100000 FMFlg1=           0
         NFxFlg=           0 DoJE=T BraDBF=F KetDBF=T FulRan=T
         wScrn=  0.000000 ICntrl=       500 IOpCl=  0 I1Cent=   200000004 NGrid=           0
         NMat0=    1 NMatS0=      1 NMatT0=    0 NMatD0=    1 NMtDS0=    0 NMtDT0=    0
 Symmetry not used in FoFCou.
 Keep R1 and R2 ints in memory in canonical form, NReq=322296923.
 Requested convergence on RMS density matrix=1.00D-08 within 128 cycles.
 Requested convergence on MAX density matrix=1.00D-06.
 Requested convergence on             energy=1.00D-06.
 Level shift goal  0.100 maximum shift  0.100.
 No special actions if energy rises.
 Dynamic level shift is on during FON iterations.
 Inv3:  Mode=1 IEnd=     3649827.
 Iteration    1 A*A^-1 deviation from unit magnitude is 4.88D-15 for   1091.
 Iteration    1 A*A^-1 deviation from orthogonality  is 1.80D-15 for   1103    974.
 Iteration    1 A^-1*A deviation from unit magnitude is 5.33D-15 for   1102.
 Iteration    1 A^-1*A deviation from orthogonality  is 1.55D-15 for   1103    974.
 Error on total polarization charges =  0.02759
 SCF Done:  E(UM062X) =  -306.747044729     A.U. after   14 cycles
            NFock= 14  Conv=0.97D-08     -V/T= 2.0037
 <Sx>= 0.0000 <Sy>= 0.0000 <Sz>= 0.5000 <S**2>= 0.7619 S= 0.5059
 <L.S>=  0.00000000000    
 SMD-CDS (non-electrostatic) energy       (kcal/mol) =      -2.17
 (included in total energy above)
 Annihilation of the first spin contaminant:
 S**2 before annihilation     0.7619,   after     0.7501
 D1PCM: PCM CHGder 1st derivatives, ID1Alg=3 FixD1E=F DoIter=F DoCFld=F I1PDM=0.
 Calling FoFJK, ICntrl=      2127 FMM=F ISym2X=0 I1Cent= 0 IOpClX= 1 NMat=1 NMatS=1 NMatT=0.
 -------------------------------------------------------------------
 Center     Atomic                   Forces (Hartrees/Bohr)
 Number     Number              X              Y              Z
 -------------------------------------------------------------------
      1        6          -0.000987752    0.000094369   -0.000414997
      2        6           0.000201305   -0.001608928    0.001795713
      3        1           0.000045460   -0.000121987    0.000077913
      4        6          -0.000561429    0.000045116   -0.000257921
      5        1          -0.000037739   -0.000028737    0.000021625
      6        6          -0.000231918    0.000045727   -0.000160355
      7        6          -0.000526368    0.000181223   -0.000410235
      8        1           0.000026590    0.000036867   -0.000035007
      9        6           0.002150565    0.001145276   -0.000350955
     10        1          -0.000035083    0.000185702   -0.000256691
     11        8          -0.000058570    0.000012514   -0.000004081
     12        1           0.000014939    0.000012859   -0.000005010
 -------------------------------------------------------------------
 Cartesian Forces:  Max     0.002150565 RMS     0.000626908

 GradGradGradGradGradGradGradGradGradGradGradGradGradGradGradGradGradGrad
 Berny optimization.
 Using GEDIIS/GDIIS optimizer.
 FormGI is forming the generalized inverse of G from B-inverse, IUseBI=4.
 Internal  Forces:  Max     0.001417944 RMS     0.000464153
 Search for a local minimum.
 Step number   2 out of a maximum of   61
 All quantities printed in internal units (Hartrees-Bohrs-Radians)
 Mixed Optimization -- En-DIIS/RFO-DIIS
 Update second derivatives using D2CorX and points    1    2
 DE= -4.60D-03 DEPred=-4.61D-03 R= 9.98D-01
 TightC=F SS=  1.41D+00  RLast= 1.96D-01 DXNew= 5.0454D-01 5.8851D-01
 Trust test= 9.98D-01 RLast= 1.96D-01 DXMaxT set to 5.05D-01
 ITU=  1  0
 Use linear search instead of GDIIS.
     Eigenvalues ---    0.00533   0.01613   0.01803   0.01920   0.02176
     Eigenvalues ---    0.02584   0.03083   0.03176   0.03367   0.10537
     Eigenvalues ---    0.11001   0.11394   0.12223   0.15961   0.17042
     Eigenvalues ---    0.18775   0.20265   0.21553   0.27917   0.35532
     Eigenvalues ---    0.35864   0.36055   0.36556   0.38485   0.41711
     Eigenvalues ---    0.44987   0.45941   0.49491   0.52832   0.53051
 RFO step:  Lambda=-2.66968015D-05 EMin= 5.32564256D-03
 Quartic linear search produced a step of  0.03775.
 Iteration  1 RMS(Cart)=  0.00217849 RMS(Int)=  0.00001661
 Iteration  2 RMS(Cart)=  0.00000463 RMS(Int)=  0.00001611
 Iteration  3 RMS(Cart)=  0.00000000 RMS(Int)=  0.00001611
 Variable       Old X    -DE/DX   Delta X   Delta X   Delta X     New X
                                 (Linear)    (Quad)   (Total)
    R1        2.59715   0.00113  -0.00198   0.00423   0.00227   2.59941
    R2        2.59256   0.00115  -0.00207   0.00406   0.00201   2.59457
    R3        2.04895   0.00014  -0.00018   0.00015  -0.00003   2.04892
    R4        2.63439   0.00081   0.00050   0.00138   0.00187   2.63627
    R5        2.04845   0.00005   0.00002   0.00019   0.00021   2.04866
    R6        2.63597   0.00076   0.00003   0.00107   0.00108   2.63705
    R7        2.63482   0.00073  -0.00004   0.00095   0.00089   2.63571
    R8        2.57323   0.00005   0.00036   0.00004   0.00040   2.57363
    R9        2.05216   0.00005   0.00001   0.00019   0.00020   2.05236
   R10        2.63963   0.00083   0.00059   0.00168   0.00227   2.64189
   R11        2.04887   0.00015  -0.00003   0.00001  -0.00002   2.04885
   R12        1.82243   0.00001  -0.00004   0.00003  -0.00001   1.82243
    A1        2.17193   0.00142   0.00469   0.00235   0.00710   2.17903
    A2        2.13140   0.00050   0.00099   0.00063   0.00161   2.13301
    A3        2.05436  -0.00106  -0.00276  -0.00233  -0.00507   2.04929
    A4        2.09743   0.00056   0.00177   0.00170   0.00346   2.10089
    A5        2.11180  -0.00007  -0.00028   0.00036   0.00009   2.11189
    A6        2.08977   0.00011   0.00024   0.00043   0.00064   2.09041
    A7        2.08161  -0.00004   0.00004  -0.00079  -0.00073   2.08088
    A8        2.10728   0.00049   0.00036   0.00153   0.00184   2.10912
    A9        2.04448  -0.00025  -0.00022  -0.00085  -0.00104   2.04344
   A10        2.13142  -0.00024  -0.00015  -0.00068  -0.00080   2.13062
   A11        2.09517  -0.00002   0.00012  -0.00059  -0.00046   2.09471
   A12        2.08996   0.00008   0.00019   0.00048   0.00064   2.09060
   A13        2.09806  -0.00007  -0.00030   0.00011  -0.00018   2.09788
   A14        2.05307  -0.00104  -0.00272  -0.00245  -0.00515   2.04792
   A15        2.13072   0.00082   0.00185   0.00268   0.00452   2.13524
   A16        2.09940   0.00022   0.00087  -0.00023   0.00063   2.10003
   A17        1.91621  -0.00002  -0.00003  -0.00012  -0.00015   1.91607
    D1       -3.14029  -0.00004  -0.00020  -0.00190  -0.00211   3.14079
    D2        0.00043  -0.00002  -0.00007  -0.00106  -0.00113  -0.00070
    D3       -0.00080   0.00002   0.00012   0.00119   0.00132   0.00051
    D4        3.14061   0.00002   0.00006   0.00109   0.00116  -3.14141
    D5        3.14157  -0.00001  -0.00005  -0.00020  -0.00025   3.14132
    D6        0.00013   0.00000  -0.00001   0.00020   0.00018   0.00031
    D7       -0.00088   0.00002   0.00008   0.00063   0.00071  -0.00017
    D8        3.14087   0.00003   0.00012   0.00102   0.00113  -3.14118
    D9       -0.00029   0.00001   0.00005   0.00046   0.00051   0.00023
   D10        3.14152   0.00001   0.00003   0.00036   0.00039  -3.14127
   D11        3.14146   0.00002   0.00009   0.00085   0.00093  -3.14080
   D12        0.00008   0.00001   0.00006   0.00075   0.00081   0.00089
   D13        3.14093  -0.00001  -0.00002  -0.00040  -0.00042   3.14051
   D14       -0.00010   0.00000   0.00000  -0.00032  -0.00033  -0.00042
   D15       -0.00088   0.00000   0.00000  -0.00030  -0.00030  -0.00118
   D16        3.14127   0.00000   0.00002  -0.00022  -0.00020   3.14107
   D17       -3.13809   0.00001   0.00002   0.00093   0.00095  -3.13714
   D18        0.00372   0.00000   0.00000   0.00082   0.00083   0.00455
   D19        0.00061  -0.00001  -0.00009  -0.00046  -0.00055   0.00007
   D20       -3.14081  -0.00001  -0.00003  -0.00037  -0.00039  -3.14120
   D21       -3.14041  -0.00001  -0.00007  -0.00039  -0.00045  -3.14086
   D22        0.00135   0.00000  -0.00001  -0.00029  -0.00030   0.00105
         Item               Value     Threshold  Converged?
 Maximum Force            0.001418     0.000015     NO 
 RMS     Force            0.000464     0.000010     NO 
 Maximum Displacement     0.005519     0.000060     NO 
 RMS     Displacement     0.002177     0.000040     NO 
 Predicted change in Energy=-1.948660D-05
 GradGradGradGradGradGradGradGradGradGradGradGradGradGradGradGradGradGrad

                          Input orientation:                          
 ---------------------------------------------------------------------
 Center     Atomic      Atomic             Coordinates (Angstroms)
 Number     Number       Type             X           Y           Z
 ---------------------------------------------------------------------
      1          6           0        6.173601    6.878949    5.145234
      2          6           0        5.136747    6.065725    5.539874
      3          1           0        5.244752    5.336033    6.334520
      4          6           0        3.918695    6.209666    4.875192
      5          1           0        3.063006    5.598510    5.138943
      6          6           0        3.793779    7.152438    3.853964
      7          6           0        4.873073    7.955818    3.486468
      8          1           0        4.761210    8.684596    2.689033
      9          6           0        6.097477    7.818722    4.147171
     10          1           0        6.942101    8.438925    3.868864
     11          8           0        2.580525    7.247075    3.242530
     12          1           0        2.613007    7.923307    2.555726
 ---------------------------------------------------------------------
                    Distance matrix (angstroms):
                    1          2          3          4          5
     1  C    0.000000
     2  C    1.375551   0.000000
     3  H    2.158183   1.084241   0.000000
     4  C    2.367586   1.395053   2.156688   0.000000
     5  H    3.363832   2.163201   2.501663   1.084103   0.000000
     6  C    2.721346   2.413876   3.399677   1.395467   2.144736
     7  C    2.366965   2.803293   3.887521   2.426611   3.400576
     8  H    3.359782   3.889320   4.973557   3.407991   4.290674
     9  C    1.372988   2.436313   3.416925   2.804669   3.888569
    10  H    2.157137   3.418137   4.311426   3.888866   4.972770
    11  O    4.082401   3.634233   4.506728   2.352127   2.558699
    12  H    4.524827   4.327241   5.281984   3.165645   3.504310
                    6          7          8          9         10
     6  C    0.000000
     7  C    1.394758   0.000000
     8  H    2.154181   1.086063   0.000000
     9  C    2.415973   1.398030   2.159054   0.000000
    10  H    3.401059   2.158818   2.491714   1.084204   0.000000
    11  O    1.361909   2.411971   2.669872   3.676154   4.564663
    12  H    1.916738   2.444430   2.283005   3.832123   4.553158
                   11         12
    11  O    0.000000
    12  H    0.964388   0.000000
 Symmetry turned off by external request.
 Stoichiometry    C6H5O(2)
 Framework group  C1[X(C6H5O)]
 Deg. of freedom    30
 Full point group                 C1      NOp   1
 Rotational constants (GHZ):           5.5939522           2.8052465           1.8683231
 Standard basis: 6-311+G(d,p) (5D, 7F)
   184 basis functions,   292 primitive gaussians,   191 cartesian basis functions
    25 alpha electrons       24 beta electrons
       nuclear repulsion energy       261.9831541240 Hartrees.
 NAtoms=   12 NActive=   12 NUniq=   12 SFac= 1.00D+00 NAtFMM=   60 NAOKFM=F Big=F
 Integral buffers will be    131072 words long.
 Raffenetti 2 integral format.
 Two-electron integral symmetry is turned off.
 ------------------------------------------------------------------------------
 Polarizable Continuum Model (PCM)
 =================================
 Model                : PCM.
 Atomic radii         : SMD-Coulomb.
 Polarization charges : Total charges.
 Charge compensation  : None.
 Solution method      : Matrix inversion.
 Cavity type          : VdW (van der Waals Surface) (Alpha=1.000).
 Cavity algorithm     : GePol (No added spheres)
                        Default sphere list used, NSphG=   12.
                        Lebedev-Laikov grids with approx.  5.0 points / Ang**2.
                        Smoothing algorithm: York/Karplus (Gamma=1.0000).
                        Polarization charges: spherical gaussians, with
                                              point-specific exponents (IZeta= 3).
                        Self-potential: point-specific (ISelfS= 7).
                        Self-field    : sphere-specific E.n sum rule (ISelfD= 2).
 1st derivatives      : Analytical E(r).r(x)/FMM algorithm (CHGder, D1EAlg=3).
                        Cavity 1st derivative terms included.
 Solvent              : TetraHydroFuran, Eps=   7.425700 Eps(inf)=   1.974025
 ------------------------------------------------------------------------------
 Spheres list:
 ISph  on   Nord     Re0    Alpha      Xe            Ye            Ze
    1   C      1    1.8500  1.000      6.173601      6.878949      5.145234
    2   C      2    1.8500  1.000      5.136747      6.065725      5.539874
    3   H      3    1.2000  1.000      5.244752      5.336033      6.334520
    4   C      4    1.8500  1.000      3.918695      6.209666      4.875192
    5   H      5    1.2000  1.000      3.063006      5.598510      5.138943
    6   C      6    1.8500  1.000      3.793779      7.152438      3.853964
    7   C      7    1.8500  1.000      4.873073      7.955818      3.486468
    8   H      8    1.2000  1.000      4.761210      8.684596      2.689033
    9   C      9    1.8500  1.000      6.097477      7.818722      4.147171
   10   H     10    1.2000  1.000      6.942101      8.438925      3.868864
   11   O     11    2.2940  1.000      2.580525      7.247075      3.242530
   12   H     12    1.2000  1.000      2.613007      7.923307      2.555726
 ------------------------------------------------------------------------------
 ------------------------------------------------------------------------------
 Atomic radii for non-electrostatic terms: SMD-CDS.
 ------------------------------------------------------------------------------
 Nuclear repulsion after PCM non-electrostatic terms =      261.9796950219 Hartrees.
 One-electron integrals computed using PRISM.
 NBasis=   184 RedAO= T EigKep=  3.63D-06  NBF=   184
 NBsUse=   184 1.00D-06 EigRej= -1.00D+00 NBFU=   184
 Initial guess from the checkpoint file:  "4-OH-ph-opt-freq-thf.chk"
 B after Tr=    -0.000645    0.000524    0.000376
         Rot=    1.000000    0.000020    0.000035    0.000037 Ang=   0.01 deg.
 Initial guess <Sx>= 0.0000 <Sy>= 0.0000 <Sz>= 0.5000 <S**2>= 0.7619 S= 0.5059
 Keep R1 and R2 ints in memory in canonical form, NReq=322296923.
 Requested convergence on RMS density matrix=1.00D-08 within 128 cycles.
 Requested convergence on MAX density matrix=1.00D-06.
 Requested convergence on             energy=1.00D-06.
 Level shift goal  0.100 maximum shift  0.100.
 No special actions if energy rises.
 Dynamic level shift is on during FON iterations.
 Inv3:  Mode=1 IEnd=     3669708.
 Iteration    1 A*A^-1 deviation from unit magnitude is 3.55D-15 for   1091.
 Iteration    1 A*A^-1 deviation from orthogonality  is 1.82D-15 for   1097    962.
 Iteration    1 A^-1*A deviation from unit magnitude is 3.55D-15 for   1106.
 Iteration    1 A^-1*A deviation from orthogonality  is 1.43D-15 for   1097    962.
 Error on total polarization charges =  0.02761
 SCF Done:  E(UM062X) =  -306.747064116     A.U. after   12 cycles
            NFock= 12  Conv=0.83D-08     -V/T= 2.0038
 <Sx>= 0.0000 <Sy>= 0.0000 <Sz>= 0.5000 <S**2>= 0.7620 S= 0.5060
 <L.S>=  0.00000000000    
 SMD-CDS (non-electrostatic) energy       (kcal/mol) =      -2.17
 (included in total energy above)
 Annihilation of the first spin contaminant:
 S**2 before annihilation     0.7620,   after     0.7501
 D1PCM: PCM CHGder 1st derivatives, ID1Alg=3 FixD1E=F DoIter=F DoCFld=F I1PDM=0.
 Calling FoFJK, ICntrl=      2127 FMM=F ISym2X=0 I1Cent= 0 IOpClX= 1 NMat=1 NMatS=1 NMatT=0.
 -------------------------------------------------------------------
 Center     Atomic                   Forces (Hartrees/Bohr)
 Number     Number              X              Y              Z
 -------------------------------------------------------------------
      1        6          -0.000162313    0.000004646   -0.000087389
      2        6           0.000190314    0.000113051   -0.000025927
      3        1          -0.000010352   -0.000012321    0.000018238
      4        6          -0.000063743   -0.000028483    0.000012248
      5        1          -0.000016293    0.000015806    0.000002223
      6        6          -0.000027461    0.000009829   -0.000017538
      7        6          -0.000017502    0.000040507   -0.000059669
      8        1           0.000002711   -0.000004710   -0.000008119
      9        6           0.000083549   -0.000158717    0.000185813
     10        1           0.000013032   -0.000000443   -0.000022974
     11        8           0.000002416    0.000010871    0.000004222
     12        1           0.000005640    0.000009963   -0.000001127
 -------------------------------------------------------------------
 Cartesian Forces:  Max     0.000190314 RMS     0.000067545

 GradGradGradGradGradGradGradGradGradGradGradGradGradGradGradGradGradGrad
 Berny optimization.
 Using GEDIIS/GDIIS optimizer.
 FormGI is forming the generalized inverse of G from B-inverse, IUseBI=4.
 Internal  Forces:  Max     0.000158116 RMS     0.000037083
 Search for a local minimum.
 Step number   3 out of a maximum of   61
 All quantities printed in internal units (Hartrees-Bohrs-Radians)
 Mixed Optimization -- En-DIIS/RFO-DIIS
 Swapping is turned off.
 Update second derivatives using D2CorX and points    1    2    3
 DE= -1.94D-05 DEPred=-1.95D-05 R= 9.95D-01
 TightC=F SS=  1.41D+00  RLast= 1.34D-02 DXNew= 8.4853D-01 4.0263D-02
 Trust test= 9.95D-01 RLast= 1.34D-02 DXMaxT set to 5.05D-01
 ITU=  1  1  0
     Eigenvalues ---    0.00533   0.01614   0.01803   0.01920   0.02176
     Eigenvalues ---    0.02584   0.03083   0.03175   0.03366   0.10527
     Eigenvalues ---    0.10989   0.11389   0.12195   0.15961   0.17032
     Eigenvalues ---    0.18823   0.19736   0.21528   0.27916   0.35501
     Eigenvalues ---    0.35851   0.36044   0.36556   0.38730   0.41711
     Eigenvalues ---    0.45870   0.46309   0.49432   0.52829   0.53030
 En-DIIS/RFO-DIIS/Sim-DIIS IScMMF=       -3 using points:     3    2
 RFO step:  Lambda=-1.95763691D-07.
 DidBck=F Rises=F RFO-DIIS coefs:    1.01155   -0.01155
 Iteration  1 RMS(Cart)=  0.00008763 RMS(Int)=  0.00000002
 Iteration  2 RMS(Cart)=  0.00000001 RMS(Int)=  0.00000002
 Variable       Old X    -DE/DX   Delta X   Delta X   Delta X     New X
                                 (Linear)    (Quad)   (Total)
    R1        2.59941  -0.00016   0.00003  -0.00042  -0.00040   2.59902
    R2        2.59457  -0.00016   0.00002  -0.00043  -0.00041   2.59416
    R3        2.04892   0.00002   0.00000   0.00006   0.00006   2.04898
    R4        2.63627   0.00007   0.00002   0.00015   0.00017   2.63644
    R5        2.04866   0.00000   0.00000   0.00000   0.00000   2.04866
    R6        2.63705   0.00003   0.00001   0.00009   0.00010   2.63715
    R7        2.63571   0.00003   0.00001   0.00007   0.00008   2.63579
    R8        2.57363   0.00000   0.00000  -0.00001  -0.00001   2.57363
    R9        2.05236   0.00000   0.00000   0.00000   0.00000   2.05237
   R10        2.64189   0.00007   0.00003   0.00018   0.00020   2.64209
   R11        2.04885   0.00002   0.00000   0.00006   0.00006   2.04890
   R12        1.82243   0.00000   0.00000   0.00000   0.00000   1.82243
    A1        2.17903   0.00006   0.00008   0.00018   0.00026   2.17929
    A2        2.13301   0.00000   0.00002   0.00006   0.00007   2.13308
    A3        2.04929   0.00001  -0.00006   0.00004  -0.00002   2.04928
    A4        2.10089  -0.00001   0.00004  -0.00010  -0.00006   2.10083
    A5        2.11189   0.00002   0.00000   0.00013   0.00013   2.11202
    A6        2.09041  -0.00003   0.00001  -0.00013  -0.00012   2.09029
    A7        2.08088   0.00001  -0.00001   0.00000  -0.00001   2.08087
    A8        2.10912  -0.00003   0.00002  -0.00001   0.00001   2.10913
    A9        2.04344   0.00001  -0.00001   0.00000  -0.00001   2.04343
   A10        2.13062   0.00001  -0.00001   0.00000  -0.00001   2.13062
   A11        2.09471   0.00001  -0.00001   0.00000   0.00000   2.09470
   A12        2.09060  -0.00003   0.00001  -0.00012  -0.00012   2.09049
   A13        2.09788   0.00002   0.00000   0.00012   0.00012   2.09799
   A14        2.04792   0.00001  -0.00006   0.00003  -0.00003   2.04789
   A15        2.13524   0.00001   0.00005   0.00019   0.00024   2.13548
   A16        2.10003  -0.00002   0.00001  -0.00022  -0.00021   2.09981
   A17        1.91607   0.00000   0.00000  -0.00001  -0.00001   1.91606
    D1        3.14079   0.00000  -0.00002   0.00003   0.00001   3.14080
    D2       -0.00070   0.00000  -0.00001   0.00005   0.00004  -0.00066
    D3        0.00051   0.00000   0.00002  -0.00005  -0.00004   0.00048
    D4       -3.14141   0.00000   0.00001  -0.00003  -0.00001  -3.14142
    D5        3.14132   0.00000   0.00000   0.00001   0.00000   3.14133
    D6        0.00031   0.00000   0.00000  -0.00002  -0.00002   0.00029
    D7       -0.00017   0.00000   0.00001   0.00003   0.00004  -0.00014
    D8       -3.14118   0.00000   0.00001   0.00000   0.00001  -3.14117
    D9        0.00023   0.00000   0.00001  -0.00001   0.00000   0.00023
   D10       -3.14127   0.00000   0.00000   0.00001   0.00001  -3.14126
   D11       -3.14080   0.00000   0.00001  -0.00003  -0.00002  -3.14082
   D12        0.00089   0.00000   0.00001  -0.00002  -0.00001   0.00088
   D13        3.14051   0.00000   0.00000   0.00002   0.00002   3.14053
   D14       -0.00042   0.00000   0.00000   0.00001   0.00000  -0.00042
   D15       -0.00118   0.00000   0.00000   0.00001   0.00001  -0.00117
   D16        3.14107   0.00000   0.00000  -0.00001  -0.00001   3.14106
   D17       -3.13714   0.00000   0.00001   0.00005   0.00006  -3.13708
   D18        0.00455   0.00000   0.00001   0.00006   0.00007   0.00462
   D19        0.00007   0.00000  -0.00001   0.00002   0.00001   0.00008
   D20       -3.14120   0.00000   0.00000  -0.00001  -0.00001  -3.14121
   D21       -3.14086   0.00000  -0.00001   0.00000   0.00000  -3.14086
   D22        0.00105   0.00000   0.00000  -0.00002  -0.00003   0.00103
         Item               Value     Threshold  Converged?
 Maximum Force            0.000158     0.000015     NO 
 RMS     Force            0.000037     0.000010     NO 
 Maximum Displacement     0.000295     0.000060     NO 
 RMS     Displacement     0.000088     0.000040     NO 
 Predicted change in Energy=-9.788196D-08
 GradGradGradGradGradGradGradGradGradGradGradGradGradGradGradGradGradGrad

                          Input orientation:                          
 ---------------------------------------------------------------------
 Center     Atomic      Atomic             Coordinates (Angstroms)
 Number     Number       Type             X           Y           Z
 ---------------------------------------------------------------------
      1          6           0        6.173445    6.878938    5.145152
      2          6           0        5.136840    6.065783    5.539858
      3          1           0        5.244897    5.336074    6.334526
      4          6           0        3.918654    6.209629    4.875213
      5          1           0        3.062944    5.598498    5.138959
      6          6           0        3.793755    7.152443    3.853950
      7          6           0        4.873083    7.955852    3.486446
      8          1           0        4.761212    8.684644    2.689022
      9          6           0        6.097516    7.818626    4.147292
     10          1           0        6.942106    8.438890    3.868899
     11          8           0        2.580503    7.247095    3.242519
     12          1           0        2.613016    7.923292    2.555682
 ---------------------------------------------------------------------
                    Distance matrix (angstroms):
                    1          2          3          4          5
     1  C    0.000000
     2  C    1.375341   0.000000
     3  H    2.158064   1.084274   0.000000
     4  C    2.367472   1.395142   2.156760   0.000000
     5  H    3.363745   2.163358   2.501833   1.084104   0.000000
     6  C    2.721201   2.413916   3.399746   1.395520   2.144779
     7  C    2.366853   2.803289   3.887550   2.426707   3.400664
     8  H    3.359695   3.889318   4.973588   3.408084   4.290757
     9  C    1.372773   2.436103   3.416727   2.804672   3.888573
    10  H    2.157108   3.418000   4.311300   3.888899   4.972804
    11  O    4.082252   3.634297   4.506829   2.352164   2.558731
    12  H    4.524675   4.327277   5.282060   3.165684   3.504343
                    6          7          8          9         10
     6  C    0.000000
     7  C    1.394803   0.000000
     8  H    2.154221   1.086065   0.000000
     9  C    2.416023   1.398136   2.159224   0.000000
    10  H    3.401071   2.158808   2.491747   1.084233   0.000000
    11  O    1.361905   2.412003   2.669906   3.676227   4.564680
    12  H    1.916729   2.444439   2.283020   3.832221   4.553174
                   11         12
    11  O    0.000000
    12  H    0.964389   0.000000
 Symmetry turned off by external request.
[...]
   D16        3.14106   0.00000   0.00000   0.00000   0.00000   3.14106
   D17       -3.13708   0.00000   0.00000   0.00000   0.00000  -3.13708
   D18        0.00462   0.00000   0.00000   0.00000   0.00000   0.00462
   D19        0.00008   0.00000   0.00000   0.00000   0.00000   0.00009
   D20       -3.14121   0.00000   0.00000   0.00000   0.00000  -3.14121
   D21       -3.14086   0.00000   0.00000   0.00000   0.00000  -3.14086
   D22        0.00103   0.00000   0.00000   0.00000   0.00000   0.00103
         Item               Value     Threshold  Converged?
 Maximum Force            0.000012     0.000015     YES
 RMS     Force            0.000003     0.000010     YES
 Maximum Displacement     0.000036     0.000060     YES
 RMS     Displacement     0.000008     0.000040     YES
 Predicted change in Energy=-4.266144D-10
 Optimization completed.
    -- Stationary point found.
                           ----------------------------
                           !   Optimized Parameters   !
                           ! (Angstroms and Degrees)  !
 --------------------------                            --------------------------
 ! Name  Definition              Value          Derivative Info.                !
 --------------------------------------------------------------------------------
 ! R1    R(1,2)                  1.3753         -DE/DX =    0.0                 !
 ! R2    R(1,9)                  1.3728         -DE/DX =    0.0                 !
 ! R3    R(2,3)                  1.0843         -DE/DX =    0.0                 !
 ! R4    R(2,4)                  1.3951         -DE/DX =    0.0                 !
 ! R5    R(4,5)                  1.0841         -DE/DX =    0.0                 !
 ! R6    R(4,6)                  1.3955         -DE/DX =    0.0                 !
 ! R7    R(6,7)                  1.3948         -DE/DX =    0.0                 !
 ! R8    R(6,11)                 1.3619         -DE/DX =    0.0                 !
 ! R9    R(7,8)                  1.0861         -DE/DX =    0.0                 !
 ! R10   R(7,9)                  1.3981         -DE/DX =    0.0                 !
 ! R11   R(9,10)                 1.0842         -DE/DX =    0.0                 !
 ! R12   R(11,12)                0.9644         -DE/DX =    0.0                 !
 ! A1    A(2,1,9)              124.8643         -DE/DX =    0.0                 !
 ! A2    A(1,2,3)              122.2165         -DE/DX =    0.0                 !
 ! A3    A(1,2,4)              117.4148         -DE/DX =    0.0                 !
 ! A4    A(3,2,4)              120.3687         -DE/DX =    0.0                 !
 ! A5    A(2,4,5)              121.0099         -DE/DX =    0.0                 !
 ! A6    A(2,4,6)              119.7649         -DE/DX =    0.0                 !
 ! A7    A(5,4,6)              119.2252         -DE/DX =    0.0                 !
 ! A8    A(4,6,7)              120.8445         -DE/DX =    0.0                 !
 ! A9    A(4,6,11)             117.0801         -DE/DX =    0.0                 !
 ! A10   A(7,6,11)             122.0754         -DE/DX =    0.0                 !
 ! A11   A(6,7,8)              120.0177         -DE/DX =    0.0                 !
 ! A12   A(6,7,9)              119.776          -DE/DX =    0.0                 !
 ! A13   A(8,7,9)              120.2062         -DE/DX =    0.0                 !
 ! A14   A(1,9,7)              117.3354         -DE/DX =    0.0                 !
 ! A15   A(1,9,10)             122.3542         -DE/DX =    0.0                 !
 ! A16   A(7,9,10)             120.3103         -DE/DX =    0.0                 !
 ! A17   A(6,11,12)            109.7819         -DE/DX =    0.0                 !
 ! D1    D(9,1,2,3)            179.9543         -DE/DX =    0.0                 !
 ! D2    D(9,1,2,4)             -0.038          -DE/DX =    0.0                 !
 ! D3    D(2,1,9,7)              0.0273         -DE/DX =    0.0                 !
 ! D4    D(2,1,9,10)          -179.9903         -DE/DX =    0.0                 !
 ! D5    D(1,2,4,5)            179.9848         -DE/DX =    0.0                 !
 ! D6    D(1,2,4,6)              0.0167         -DE/DX =    0.0                 !
 ! D7    D(3,2,4,5)             -0.0077         -DE/DX =    0.0                 !
 ! D8    D(3,2,4,6)           -179.9758         -DE/DX =    0.0                 !
 ! D9    D(2,4,6,7)              0.0129         -DE/DX =    0.0                 !
 ! D10   D(2,4,6,11)          -179.9811         -DE/DX =    0.0                 !
 ! D11   D(5,4,6,7)           -179.9557         -DE/DX =    0.0                 !
 ! D12   D(5,4,6,11)             0.0503         -DE/DX =    0.0                 !
 ! D13   D(4,6,7,8)            179.9391         -DE/DX =    0.0                 !
 ! D14   D(4,6,7,9)             -0.024          -DE/DX =    0.0                 !
 ! D15   D(11,6,7,8)            -0.0673         -DE/DX =    0.0                 !
 ! D16   D(11,6,7,9)           179.9697         -DE/DX =    0.0                 !
 ! D17   D(4,6,11,12)         -179.7414         -DE/DX =    0.0                 !
 ! D18   D(7,6,11,12)            0.2647         -DE/DX =    0.0                 !
 ! D19   D(6,7,9,1)              0.0047         -DE/DX =    0.0                 !
 ! D20   D(6,7,9,10)          -179.9781         -DE/DX =    0.0                 !
 ! D21   D(8,7,9,1)           -179.9582         -DE/DX =    0.0                 !
 ! D22   D(8,7,9,10)             0.0589         -DE/DX =    0.0                 !
 --------------------------------------------------------------------------------
 GradGradGradGradGradGradGradGradGradGradGradGradGradGradGradGradGradGrad


 ----------------------------------------------------------------------

 Electric dipole moment (input orientation):
 (Debye = 10**-18 statcoulomb cm , SI units = C m)
                  (au)            (Debye)         (10**-30 SI)
   Tot        0.771963D+00      0.196213D+01      0.654497D+01
   x         -0.376906D-01     -0.957999D-01     -0.319554D+00
   y          0.526595D+00      0.133847D+01      0.446466D+01
   z         -0.563208D+00     -0.143153D+01     -0.477507D+01

 Dipole polarizability, Alpha (input orientation).
 (esu units = cm**3 , SI units = C**2 m**2 J**-1)
 Alpha(0;0):
               (au)            (10**-24 esu)      (10**-40 SI)
   iso        0.904197D+02      0.133988D+02      0.149082D+02
   aniso      0.547980D+02      0.812022D+01      0.903496D+01
   xx         0.103184D+03      0.152903D+02      0.170127D+02
   yx         0.983862D+01      0.145793D+01      0.162217D+01
   yy         0.830417D+02      0.123055D+02      0.136917D+02
   zx         0.108151D+02      0.160263D+01      0.178317D+01
   zy        -0.257680D+02     -0.381842D+01     -0.424857D+01
   zz         0.850336D+02      0.126007D+02      0.140201D+02

 ----------------------------------------------------------------------

 Dipole orientation:
     6         11.42564586        -16.35909818          1.20426413
     6          9.40343851        -15.70696585         -0.29249705
     1          9.50748261        -15.72733424         -2.33873376
     6          7.17113187        -15.00455104          0.92167505
     1          5.50972963        -14.46924155         -0.15079607
     6          7.06396677        -14.98583478          3.55658166
     6          9.16393326        -15.66112519          4.99933537
     1          9.05291366        -15.63579663          7.04854007
     6         11.40862150        -16.36801355          3.79835746
     1         13.05072241        -16.89665211          4.90382316
     8          4.83427124        -14.28424508          4.63351781
     1          4.98360507        -14.33407867          6.44913554

 Electric dipole moment (dipole orientation):
 (Debye = 10**-18 statcoulomb cm , SI units = C m)
                  (au)            (Debye)         (10**-30 SI)
   Tot        0.771963D+00      0.196213D+01      0.654497D+01
   x          0.000000D+00      0.000000D+00      0.000000D+00
   y          0.000000D+00      0.000000D+00      0.000000D+00
   z          0.771963D+00      0.196213D+01      0.654497D+01

 Dipole polarizability, Alpha (dipole orientation).
 (esu units = cm**3 , SI units = C**2 m**2 J**-1)
 Alpha(0;0):
               (au)            (10**-24 esu)      (10**-40 SI)
   iso        0.904197D+02      0.133988D+02      0.149082D+02
   aniso      0.547980D+02      0.812022D+01      0.903496D+01
   xx         0.102505D+03      0.151897D+02      0.169009D+02
   yx        -0.154447D+02     -0.228866D+01     -0.254648D+01
   yy         0.588401D+02      0.871920D+01      0.970142D+01
   zx        -0.851759D+00     -0.126218D+00     -0.140436D+00
   zy        -0.690773D-02     -0.102362D-02     -0.113893D-02
   zz         0.109914D+03      0.162875D+02      0.181223D+02

 ----------------------------------------------------------------------
 Unable to Open any file for archive entry.
 1\1\GINC-CN013\Freq\UM062X\6-311+G(d,p)\C6H5O1(2)\TAHMINAAFROZ\11-May-
 2025\0\\#N Geom=AllCheck Guess=TCheck SCRF=Check GenChk UM062X/6-311+G
 (d,p) Freq\\4-OH-ph-opt-freq-thf\\0,2\C,6.1734447253,6.878937974,5.145
 152466\C,5.1368397252,6.0657833891,5.5398579729\H,5.244897279,5.336073
 5794,6.3345263487\C,3.9186541088,6.2096285045,4.8752131305\H,3.0629439
 621,5.5984981577,5.1389587753\C,3.7937547853,7.1524430826,3.8539501478
 \C,4.8730827958,7.9558521551,3.4864461908\H,4.7612118278,8.6846436464,
 2.689021658\C,6.0975161346,7.8186264292,4.1472920271\H,6.9421060856,8.
 4388900942,3.8688985668\O,2.580503145,7.2470946614,3.2425192629\H,2.61
 30164255,7.9232923263,2.5556824532\\Version=AS64L-G16RevC.01\HF=-306.7
 470642\S2=0.761959\S2-1=0.\S2A=0.750064\RMSD=3.575e-09\RMSF=8.036e-06\
 ZeroPoint=0.0921298\Thermal=0.097642\ETot=-306.6494223\HTot=-306.64847
 81\GTot=-306.6845346\Dipole=-0.0376906,0.5265955,-0.5632076\DipoleDeri
 v=-0.2279926,-0.0086263,-0.0165226,-0.0244887,-0.2076339,0.0353763,-0.
 002735,0.0405341,-0.2057558,0.1341482,0.1430285,-0.0457752,0.066838,-0
 .0096289,-0.0733943,0.0316602,-0.0402759,-0.0528452,0.1435843,-0.00721
 2,-0.0183481,-0.0030636,0.1011823,0.1048006,-0.02271,0.1028082,0.08952
 94,-0.156499,-0.0469786,0.083019,0.2416377,-0.1240976,-0.0179265,-0.21
 08872,-0.1384399,-0.1897758,0.0136778,-0.0806563,0.0063391,-0.061326,0
 .1172051,0.0534271,-0.0131841,0.0447488,0.1433291,1.3924985,-0.1964733
 ,0.7513601,-0.2082897,0.0784908,-0.0626426,0.7615588,-0.0589459,0.4852
 682,-0.2483323,0.1970433,-0.2030832,-0.1131176,-0.1225121,-0.1786845,0
 .1153978,-0.0462459,-0.1517105,0.0799749,0.0229574,-0.0753712,0.007849
 7,0.0944181,0.1106158,-0.0568384,0.1146851,0.0576468,-0.0229828,-0.067
 7121,0.10427,0.030511,0.0187804,-0.1152663,0.0069729,-0.1551607,0.0547
 305,0.0565598,-0.0759132,0.014633,-0.0822349,0.1197707,0.0539781,0.020
 1036,0.0559697,0.1572773,-1.5193959,0.2098197,-0.6755437,0.2504497,-0.
 4113519,0.0819671,-0.7198607,0.0659379,-0.8071124,0.3547591,-0.0892772
 ,0.0750228,-0.1047656,0.345377,0.0077493,0.090522,0.0143843,0.4194183\
 Polar=103.1838831,9.8386191,83.0417059,10.8150896,-25.7679954,85.03357
 06\Quadrupole=-5.0404432,13.9374753,-8.8970321,4.334366,-4.8934191,-8.
 8732799\PG=C01 [X(C6H5O1)]\NImag=0\\0.38109792,0.14405614,0.38672143,-
 0.01646168,-0.26189124,0.33403626,-0.23487193,-0.10886728,0.03407279,0
 .58146006,-0.13379792,-0.16982741,0.06390420,0.10360062,0.45425035,0.0
 5965726,0.07446017,-0.10336156,0.08595326,-0.29090446,0.46296226,0.005
 95036,-0.01407325,0.01690081,-0.05579006,0.01438714,-0.02265896,0.0548
 1032,0.00084439,-0.00986328,0.01065001,0.01824242,-0.17649573,0.150605
 47,-0.01431897,0.17996537,0.00159420,0.00434578,-0.00359816,-0.0266013
 6,0.14897634,-0.20151221,0.02773404,-0.16598021,0.20630889,-0.06078716
 ,-0.04892752,0.01979889,-0.27821468,0.03505697,-0.13015247,0.00167122,
 -0.00166110,-0.00002190,0.68721667,-0.00505692,0.03048672,-0.02225254,
 -0.02011748,-0.09289707,0.03000652,0.01857675,0.00295037,0.01073065,0.
 14042326,0.42910726,-0.02528563,-0.04092592,0.04221393,-0.07358658,0.0
 5339052,-0.14127314,-0.02079251,0.00216656,-0.00528679,0.09602057,-0.2
 5695305,0.42615847,-0.00342853,-0.00073804,-0.00380514,-0.01511350,-0.
 01461305,0.00715609,0.00084739,0.00101371,0.00116417,-0.23264774,-0.13
 378010,0.05334689,0.24301296,0.00006996,0.00449215,0.00290117,0.004814
 72,0.00564173,-0.00029057,0.00051557,-0.00179686,-0.00238781,-0.132284
 50,-0.14009645,0.05158246,0.14386459,0.13938079,-0.00461874,0.00255436
 ,0.00271002,-0.01277077,-0.00851480,0.00669221,0.00167991,-0.00217718,
 -0.00138886,0.05183113,0.05091007,-0.06550665,-0.05461806,-0.05735860,
 0.05978594,-0.01144053,-0.02562289,0.02313570,0.02502358,0.02917038,-0
 .01897982,-0.00315483,-0.00135617,-0.00325043,-0.12014670,0.01331385,-
 0.03687788,0.00463644,-0.01783503,0.01819609,0.65156247,-0.02591311,-0
 .05082924,0.03722980,0.07161680,0.01635847,0.01281449,-0.00156301,0.00
 479920,0.00240471,-0.04079143,-0.19156183,0.11245280,0.00257142,-0.006
 23515,0.01246582,0.10413699,0.44870839,0.02338627,0.03735925,-0.032235
 47,-0.06255321,-0.00523950,-0.02197210,-0.00303476,0.00248482,0.003932
 82,0.01854453,0.13545258,-0.19726084,-0.00272365,0.00378867,-0.0002414
 2,0.10349433,-0.25767633,0.46454862,0.02442431,0.06847456,-0.06456725,
 -0.07047462,-0.02312730,-0.00668936,-0.00118444,-0.00028376,-0.0000482
 5,0.04307135,-0.03899281,0.05719309,0.00114813,0.00019651,-0.00197116,
 -0.22053902,-0.06676342,0.00179054,0.62252663,0.02373795,0.01186478,0.
 00911573,-0.02126577,-0.00536421,-0.00228501,0.00004152,0.00002119,-0.
 00039358,-0.00464247,-0.02549173,0.02693925,-0.00020608,0.00036217,0.0
 0497835,-0.12349983,-0.16986852,0.05729778,0.09533746,0.43694860,-0.01
 868752,0.02815822,-0.02583151,-0.00861197,-0.00308280,0.00071563,-0.00
 038459,-0.00053578,-0.00000202,0.02195767,0.01236911,-0.00068814,-0.00
 155309,0.00514667,-0.00065935,0.06004994,0.08138842,-0.12122909,0.1159
 9674,-0.28741892,0.46275249,-0.00347949,0.00027166,-0.00472410,-0.0008
 6006,-0.00043482,0.00044957,0.00005521,0.00015940,0.00006200,-0.002988
 69,-0.00357512,0.00013729,0.00037344,-0.00074888,0.00100291,0.00508053
 ,-0.01569140,0.01660164,-0.05823388,0.01360301,-0.02436169,0.05721342,
 -0.00050666,0.00435355,0.00251667,-0.00042727,-0.00027857,-0.00080220,
 0.00013080,-0.00025612,-0.00017697,-0.00397660,0.00134342,0.00244790,0
 .00028015,-0.00051068,0.00046512,0.00479958,-0.00696719,0.01335908,0.0
 1314113,-0.17462230,0.15002755,-0.01321014,0.17698861,-0.00391973,0.00
 281226,0.00243191,0.00045990,-0.00080686,0.00014550,0.00009463,-0.0001
 6354,-0.00027163,0.00053103,0.00260641,0.00289115,-0.00005600,0.000024
 48,-0.00022392,-0.00453811,0.00465651,-0.00267020,-0.02347626,0.150261
 78,-0.19884059,0.02809344,-0.16400491,0.20406019,-0.09813160,-0.017249
 21,-0.00234634,0.04501841,-0.00895475,0.02727126,-0.00297276,-0.003123
 25,-0.00033570,-0.02054926,0.01961093,-0.02948046,0.00059737,0.0007864
 7,-0.00014430,-0.05432968,-0.04005334,0.01855840,-0.27500070,0.0319264
 7,-0.12595842,0.00026599,-0.00135110,0.00008339,0.63038369,0.00776189,
 -0.20085419,0.15703987,-0.03935971,-0.02988287,0.01640963,-0.00439530,
 0.00139197,0.00215728,0.02055634,-0.01581238,0.02659514,0.00079192,-0.
 00058612,-0.00003734,0.00249683,0.03244066,-0.03345729,-0.02334117,-0.
 09039733,0.02690110,0.01835907,0.00190155,0.00924456,0.15278996,0.4439
 3965,-0.02793662,0.14643881,-0.21352982,0.05849498,0.02933581,-0.00288
 902,0.00098945,0.00271297,0.00296381,-0.03047512,0.02616020,-0.0382918
 1,-0.00015222,-0.00003768,-0.00097367,-0.02520158,-0.05155894,0.041071
 13,-0.06929275,0.05035470,-0.13568538,-0.02018620,0.00090561,-0.006128
 34,0.05737514,-0.26230770,0.41923751,0.00603149,0.00089952,0.00157870,
 0.00152465,0.00070816,-0.00240012,0.00023755,0.00024755,-0.00001080,-0
 .00032733,0.00042705,-0.00037829,-0.00007678,0.00003740,0.00012810,-0.
 00138903,0.00042277,-0.00415506,-0.01571707,-0.01641446,0.00776162,0.0
 0099810,0.00106385,0.00108478,-0.22778056,-0.13027531,0.05247304,0.237
 98102,-0.01397911,-0.00988414,0.00436434,-0.00053920,0.00052992,0.0048
 3206,-0.00052260,-0.00044633,-0.00010420,0.00075213,-0.00020817,0.0000
 4668,0.00000781,-0.00021547,-0.00025660,0.00017244,0.00420196,0.003319
 78,0.00369326,0.00655624,0.00068978,0.00061303,-0.00171922,-0.00221298
 ,-0.13407806,-0.14000998,0.04930715,0.14371150,0.14119209,0.01686029,0
 .01067216,-0.00366472,-0.00110094,0.00537400,-0.00053200,0.00077923,0.
 00022492,-0.00022756,-0.00072348,-0.00008727,-0.00069448,0.00015780,-0
 .00024319,-0.00015122,-0.00389330,0.00341321,0.00220314,-0.01285029,-0
 .00782244,0.00829150,0.00155322,-0.00202991,-0.00138820,0.05633114,0.0
 5090676,-0.06496615,-0.05642647,-0.05976243,0.06103678,-0.00539034,0.0
 0236604,-0.00418583,0.00127948,-0.00285465,0.00153762,-0.00014000,0.00
 019814,-0.00018998,-0.01042158,0.00992206,-0.01779100,0.00062991,0.000
 32701,0.00126411,-0.27151349,-0.01930216,-0.07714550,-0.05158904,-0.00
 040759,-0.02496714,0.00244484,0.00140040,0.00061554,0.00283961,-0.0057
 8093,0.00415753,-0.00162976,0.00016922,-0.00077710,0.37593713,0.003281
 78,0.00327791,-0.00332922,-0.00732544,-0.00271591,0.00430676,0.0011681
 2,-0.00021650,0.00054854,0.03594477,-0.00000041,0.02280078,0.00069009,
 -0.00029112,-0.00257243,0.01150273,-0.07705065,0.04114351,-0.02522857,
 0.00824317,-0.01055935,0.00034890,-0.00005941,-0.00287952,-0.00029514,
 -0.00138088,0.00865249,-0.00067562,0.00003532,-0.00055366,0.02831875,0
 .33095564,-0.00508466,-0.00368601,0.00028173,0.00610916,0.00620960,0.0
 0070138,-0.00119796,0.00014050,-0.00081004,-0.04453198,0.01172041,-0.0
 2359343,0.00092275,-0.00272605,0.00011881,-0.10907519,0.02815877,-0.11
 710494,0.00006013,-0.00001457,0.00844826,0.00204389,-0.00246124,-0.000
 07723,-0.00151693,0.00632276,0.00004627,0.00009796,-0.00019540,0.00001
 914,0.11970033,-0.30508457,0.39209396,0.00002552,-0.00058972,0.0006034
 5,0.00101868,0.00085922,-0.00114434,-0.00032996,0.00003765,-0.00009601
 ,-0.00587609,-0.00075147,-0.00250550,0.00002090,0.00025619,0.00002077,
 -0.00378974,0.03132989,-0.03276353,0.00156837,0.00178979,-0.00124155,-
 0.00086941,-0.00134414,0.00102739,-0.00034050,0.00039644,-0.00024564,0
 .00014771,-0.00000043,0.00008989,-0.04244675,-0.04773036,0.03247249,0.
 05087127,-0.00049837,0.00006172,-0.00024880,-0.00037239,0.00068130,0.0
 0084715,0.00005324,-0.00005328,-0.00012053,-0.00044984,0.00218026,-0.0
 0054312,0.00011758,-0.00014499,-0.00045678,0.00272113,-0.00399612,0.00
 216767,-0.00310589,0.00174795,-0.00308401,0.00030530,-0.00017365,0.000
 46180,-0.00000899,-0.00075008,0.00003656,-0.00015241,-0.00003222,-0.00
 009214,-0.01435629,-0.26079717,0.26161580,0.01574694,0.26127628,0.0004
 9656,-0.00029783,0.00054739,0.00013473,0.00135794,0.00032305,-0.000109
 30,-0.00012856,-0.00010826,-0.00277886,-0.00066308,0.00133170,0.000160
 45,-0.00039954,-0.00016189,-0.00305975,0.01425073,-0.01904163,0.003854
 82,-0.00101307,0.00272818,-0.00067198,-0.00024671,0.00007137,0.0001628
 2,0.00022524,-0.00085453,0.00024654,-0.00002820,0.00007378,-0.00221860
 ,0.24752667,-0.26012389,0.00378257,-0.26058360,0.27521473\\-0.00001257
 ,0.00001096,-0.00000663,0.00001608,0.00000671,-0.00000482,0.00001187,-
 0.00000227,-0.00000372,0.00000620,-0.00000691,-0.00000284,0.00000975,-
 0.00001383,-0.00000591,-0.00000043,-0.00000475,-0.00000077,-0.00000385
 ,0.00000471,0.00000286,-0.00001017,0.00000580,0.00000453,-0.00000308,0
 .00000214,0.00001297,-0.00000853,0.00001847,0.00000561,-0.00000096,-0.
 00001161,-0.00000187,-0.00000432,-0.00000941,0.00000060\\\@
 The archive entry for this job was punched.


 TO BEHOLD HARMS OF OUR OWN HANDS DOING,
 WHERE NONE BESIDE US WROUGHT,
 CAUSES SHARP RUING...

                                         SOPHOCLES
 Job cpu time:       0 days  0 hours 28 minutes 51.2 seconds.
 Elapsed time:       0 days  0 hours  0 minutes 57.1 seconds.
 File lengths (MBytes):  RWF=    106 Int=      0 D2E=      0 Chk=     11 Scr=      1
 Normal termination of Gaussian 16 at Sun May 11 04:01:36 2025.
