/home/tahminaafroz
cn018.cluster.local
tahminaafroz
Tue May 27 07:58:49 CDT 2025
 Entering Gaussian System, Link 0=g16
 Initial command:
 /home/apps/g16/l1.exe "/tmp/4-OH-ph-anion-opt-freq-thf/Gau-762768.inp" -scrdir="/tmp/4-OH-ph-anion-opt-freq-thf/"
 Entering Link 1 = /home/apps/g16/l1.exe PID=    762769.
  
 Copyright (c) 1988-2019, Gaussian, Inc.  All Rights Reserved.
  
 This is part of the Gaussian(R) 16 program.  It is based on
 the Gaussian(R) 09 system (copyright 2009, Gaussian, Inc.),
 the Gaussian(R) 03 system (copyright 2003, Gaussian, Inc.),
 the Gaussian(R) 98 system (copyright 1998, Gaussian, Inc.),
 the Gaussian(R) 94 system (copyright 1995, Gaussian, Inc.),
 the Gaussian 92(TM) system (copyright 1992, Gaussian, Inc.),
 the Gaussian 90(TM) system (copyright 1990, Gaussian, Inc.),
 the Gaussian 88(TM) system (copyright 1988, Gaussian, Inc.),
 the Gaussian 86(TM) system (copyright 1986, Carnegie Mellon
 University), and the Gaussian 82(TM) system (copyright 1983,
 Carnegie Mellon University). Gaussian is a federally registered
 trademark of Gaussian, Inc.
  
 This software contains proprietary and confidential information,
 including trade secrets, belonging to Gaussian, Inc.
  
 This software is provided under written license and may be
 used, copied, transmitted, or stored only in accord with that
 written license.
  
 The following legend is applicable only to US Government
 contracts under FAR:
  
                    RESTRICTED RIGHTS LEGEND
  
 Use, reproduction and disclosure by the US Government is
 subject to restrictions as set forth in subparagraphs (a)
 and (c) of the Commercial Computer Software - Restricted
 Rights clause in FAR 52.227-19.
  
 Gaussian, Inc.
 340 Quinnipiac St., Bldg. 40, Wallingford CT 06492
  
  
 ---------------------------------------------------------------
 Warning -- This program may not be used in any manner that
 competes with the business of Gaussian, Inc. or will provide
 assistance to any competitor of Gaussian, Inc.  The licensee
 of this program is prohibited from giving any competitor of
 Gaussian, Inc. access to this program.  By using this program,
 the user acknowledges that Gaussian, Inc. is engaged in the
 business of creating and licensing software in the field of
 computational chemistry and represents and warrants to the
 licensee that it is not a competitor of Gaussian, Inc. and that
 it will not use this program in any manner prohibited above.
 ---------------------------------------------------------------
  

 Cite this work as:
 Gaussian 16, Revision C.01,
 M. J. Frisch, G. W. Trucks, H. B. Schlegel, G. E. Scuseria, 
 M. A. Robb, J. R. Cheeseman, G. Scalmani, V. Barone, 
 G. A. Petersson, H. Nakatsuji, X. Li, M. Caricato, A. V. Marenich, 
 J. Bloino, B. G. Janesko, R. Gomperts, B. Mennucci, H. P. Hratchian, 
 J. V. Ortiz, A. F. Izmaylov, J. L. Sonnenberg, D. Williams-Young, 
 F. Ding, F. Lipparini, F. Egidi, J. Goings, B. Peng, A. Petrone, 
 T. Henderson, D. Ranasinghe, V. G. Zakrzewski, J. Gao, N. Rega, 
 G. Zheng, W. Liang, M. Hada, M. Ehara, K. Toyota, R. Fukuda, 
 J. Hasegawa, M. Ishida, T. Nakajima, Y. Honda, O. Kitao, H. Nakai, 
 T. Vreven, K. Throssell, J. A. Montgomery, Jr., J. E. Peralta, 
 F. Ogliaro, M. J. Bearpark, J. J. Heyd, E. N. Brothers, K. N. Kudin, 
 V. N. Staroverov, T. A. Keith, R. Kobayashi, J. Normand, 
 K. Raghavachari, A. P. Rendell, J. C. Burant, S. S. Iyengar, 
 J. Tomasi, M. Cossi, J. M. Millam, M. Klene, C. Adamo, R. Cammi, 
 J. W. Ochterski, R. L. Martin, K. Morokuma, O. Farkas, 
 J. B. Foresman, and D. J. Fox, Gaussian, Inc., Wallingford CT, 2019.
 
 ******************************************
 Gaussian 16:  AS64L-G16RevC.01  3-Jul-2019
                27-May-2025 
 ******************************************
 %mem=20GB
 %nprocshared=32
 Will use up to   32 processors via shared memory.
 %chk=4-OH-ph-anion-opt-freq-thf.chk
 ----------------------------------------------------------------------
 # opt=(calcfc,tight) freq 6-311+g(d,p) scrf=(smd,solvent=thf) nosymm s
 cf=(qc,fermi,xqc) geom=connectivity int=ultrafine m062x
 ----------------------------------------------------------------------
 1/7=10,10=4,18=20,19=15,26=6,38=1,57=2/1,3;
 2/9=110,12=2,15=1,17=6,18=5,40=1/2;
 3/5=4,6=6,7=111,11=2,25=1,30=1,70=32201,71=2,72=20,74=-55,75=-5,140=1/1,2,3;
 4//1;
 5/5=2,22=13,38=5,53=20/2;
 8/6=4,10=90,11=11/1;
 11/6=1,8=1,9=11,15=111,16=1,31=1/1,2,10;
 10/6=1,13=1,31=1/2;
 6/7=2,8=2,9=2,10=2,28=1/1;
 7/10=1,25=1,30=1/1,2,3,16;
 1/7=10,10=4,18=20,19=15,26=6/3(2);
 2/9=110,15=1/2;
 99//99;
 2/9=110,15=1/2;
 3/5=4,6=6,7=111,11=2,25=1,30=1,70=32205,71=1,72=20,74=-55,75=-5/1,2,3;
 4/5=5,16=3,69=1/1;
 5/5=2,22=13,38=5,53=20/2;
 7/30=1/1,2,3,16;
 1/7=10,18=20,19=15,26=6/3(-5);
 2/9=110,15=1/2;
 6/7=2,8=2,9=2,10=2,19=2,28=1/1;
 99/9=1/99;
 --------------------------
 4-OH-ph-anion-opt-freq-thf
 --------------------------
 Symbolic Z-matrix:
 Charge = -1 Multiplicity = 1
 C                     6.17345   6.87894   5.14515 
 C                     5.13684   6.06578   5.53986 
 H                     5.2449    5.33607   6.33453 
 C                     3.91865   6.20963   4.87521 
 H                     3.06294   5.5985    5.13896 
 C                     3.79376   7.15244   3.85395 
 C                     4.87308   7.95585   3.48645 
 H                     4.76121   8.68464   2.68902 
 C                     6.09752   7.81863   4.14729 
 H                     6.94211   8.43889   3.8689 
 O                     2.5805    7.24709   3.24252 
 H                     2.61302   7.92329   2.55568 
 

 GradGradGradGradGradGradGradGradGradGradGradGradGradGradGradGradGradGrad
 Berny optimization.
 Initialization pass.
                           ----------------------------
                           !    Initial Parameters    !
                           ! (Angstroms and Degrees)  !
 --------------------------                            --------------------------
 ! Name  Definition              Value          Derivative Info.                !
 --------------------------------------------------------------------------------
 ! R1    R(1,2)                  1.3753         calculate D2E/DX2 analytically  !
 ! R2    R(1,9)                  1.3728         calculate D2E/DX2 analytically  !
 ! R3    R(2,3)                  1.0843         calculate D2E/DX2 analytically  !
 ! R4    R(2,4)                  1.3951         calculate D2E/DX2 analytically  !
 ! R5    R(4,5)                  1.0841         calculate D2E/DX2 analytically  !
 ! R6    R(4,6)                  1.3955         calculate D2E/DX2 analytically  !
 ! R7    R(6,7)                  1.3948         calculate D2E/DX2 analytically  !
 ! R8    R(6,11)                 1.3619         calculate D2E/DX2 analytically  !
 ! R9    R(7,8)                  1.0861         calculate D2E/DX2 analytically  !
 ! R10   R(7,9)                  1.3981         calculate D2E/DX2 analytically  !
 ! R11   R(9,10)                 1.0842         calculate D2E/DX2 analytically  !
 ! R12   R(11,12)                0.9644         calculate D2E/DX2 analytically  !
 ! A1    A(2,1,9)              124.8643         calculate D2E/DX2 analytically  !
 ! A2    A(1,2,3)              122.2166         calculate D2E/DX2 analytically  !
 ! A3    A(1,2,4)              117.4148         calculate D2E/DX2 analytically  !
 ! A4    A(3,2,4)              120.3687         calculate D2E/DX2 analytically  !
 ! A5    A(2,4,5)              121.0099         calculate D2E/DX2 analytically  !
 ! A6    A(2,4,6)              119.7649         calculate D2E/DX2 analytically  !
 ! A7    A(5,4,6)              119.2252         calculate D2E/DX2 analytically  !
 ! A8    A(4,6,7)              120.8445         calculate D2E/DX2 analytically  !
 ! A9    A(4,6,11)             117.0801         calculate D2E/DX2 analytically  !
 ! A10   A(7,6,11)             122.0754         calculate D2E/DX2 analytically  !
 ! A11   A(6,7,8)              120.0177         calculate D2E/DX2 analytically  !
 ! A12   A(6,7,9)              119.776          calculate D2E/DX2 analytically  !
 ! A13   A(8,7,9)              120.2062         calculate D2E/DX2 analytically  !
 ! A14   A(1,9,7)              117.3354         calculate D2E/DX2 analytically  !
 ! A15   A(1,9,10)             122.3542         calculate D2E/DX2 analytically  !
 ! A16   A(7,9,10)             120.3103         calculate D2E/DX2 analytically  !
 ! A17   A(6,11,12)            109.7819         calculate D2E/DX2 analytically  !
 ! D1    D(9,1,2,3)            179.9544         calculate D2E/DX2 analytically  !
 ! D2    D(9,1,2,4)             -0.0381         calculate D2E/DX2 analytically  !
 ! D3    D(2,1,9,7)              0.0273         calculate D2E/DX2 analytically  !
 ! D4    D(2,1,9,10)          -179.9903         calculate D2E/DX2 analytically  !
 ! D5    D(1,2,4,5)            179.9847         calculate D2E/DX2 analytically  !
 ! D6    D(1,2,4,6)              0.0168         calculate D2E/DX2 analytically  !
 ! D7    D(3,2,4,5)             -0.0078         calculate D2E/DX2 analytically  !
 ! D8    D(3,2,4,6)           -179.9758         calculate D2E/DX2 analytically  !
 ! D9    D(2,4,6,7)              0.0129         calculate D2E/DX2 analytically  !
 ! D10   D(2,4,6,11)          -179.9811         calculate D2E/DX2 analytically  !
 ! D11   D(5,4,6,7)           -179.9557         calculate D2E/DX2 analytically  !
 ! D12   D(5,4,6,11)             0.0504         calculate D2E/DX2 analytically  !
 ! D13   D(4,6,7,8)            179.9391         calculate D2E/DX2 analytically  !
 ! D14   D(4,6,7,9)             -0.0239         calculate D2E/DX2 analytically  !
 ! D15   D(11,6,7,8)            -0.0672         calculate D2E/DX2 analytically  !
 ! D16   D(11,6,7,9)           179.9697         calculate D2E/DX2 analytically  !
 ! D17   D(4,6,11,12)         -179.7414         calculate D2E/DX2 analytically  !
 ! D18   D(7,6,11,12)            0.2647         calculate D2E/DX2 analytically  !
 ! D19   D(6,7,9,1)              0.0047         calculate D2E/DX2 analytically  !
 ! D20   D(6,7,9,10)          -179.9781         calculate D2E/DX2 analytically  !
 ! D21   D(8,7,9,1)           -179.9583         calculate D2E/DX2 analytically  !
 ! D22   D(8,7,9,10)             0.0589         calculate D2E/DX2 analytically  !
 --------------------------------------------------------------------------------
 Trust Radius=3.00D-01 FncErr=5.00D-06 GrdErr=5.00D-06 EigMax=2.50D+02 EigMin=1.00D-04
 Number of steps in this run=     61 maximum allowed number of steps=    100.
 GradGradGradGradGradGradGradGradGradGradGradGradGradGradGradGradGradGrad

                          Input orientation:                          
 ---------------------------------------------------------------------
 Center     Atomic      Atomic             Coordinates (Angstroms)
 Number     Number       Type             X           Y           Z
 ---------------------------------------------------------------------
      1          6           0        6.173445    6.878938    5.145152
      2          6           0        5.136840    6.065783    5.539858
      3          1           0        5.244897    5.336074    6.334526
      4          6           0        3.918654    6.209629    4.875213
      5          1           0        3.062944    5.598498    5.138959
      6          6           0        3.793755    7.152443    3.853950
      7          6           0        4.873083    7.955852    3.486446
      8          1           0        4.761212    8.684644    2.689022
      9          6           0        6.097516    7.818626    4.147292
     10          1           0        6.942106    8.438890    3.868899
     11          8           0        2.580503    7.247095    3.242519
     12          1           0        2.613016    7.923292    2.555682
 ---------------------------------------------------------------------
                    Distance matrix (angstroms):
                    1          2          3          4          5
     1  C    0.000000
     2  C    1.375341   0.000000
     3  H    2.158064   1.084273   0.000000
     4  C    2.367472   1.395142   2.156760   0.000000
     5  H    3.363745   2.163358   2.501832   1.084105   0.000000
     6  C    2.721200   2.413917   3.399745   1.395520   2.144779
     7  C    2.366852   2.803289   3.887550   2.426706   3.400665
     8  H    3.359695   3.889318   4.973587   3.408084   4.290758
     9  C    1.372772   2.436103   3.416726   2.804671   3.888573
    10  H    2.157107   3.418000   4.311299   3.888899   4.972804
    11  O    4.082252   3.634298   4.506829   2.352164   2.558731
    12  H    4.524675   4.327278   5.282060   3.165684   3.504343
                    6          7          8          9         10
     6  C    0.000000
     7  C    1.394803   0.000000
     8  H    2.154221   1.086065   0.000000
     9  C    2.416022   1.398136   2.159224   0.000000
    10  H    3.401071   2.158808   2.491747   1.084234   0.000000
    11  O    1.361906   2.412003   2.669906   3.676227   4.564680
    12  H    1.916730   2.444440   2.283020   3.832221   4.553175
                   11         12
    11  O    0.000000
    12  H    0.964388   0.000000
 Symmetry turned off by external request.
 Stoichiometry    C6H5O(1-)
 Framework group  C1[X(C6H5O)]
 Deg. of freedom    30
 Full point group                 C1      NOp   1
 Rotational constants (GHZ):           5.5941727           2.8052392           1.8683445
 Standard basis: 6-311+G(d,p) (5D, 7F)
   184 basis functions,   292 primitive gaussians,   191 cartesian basis functions
    25 alpha electrons       25 beta electrons
       nuclear repulsion energy       261.9850562133 Hartrees.
 NAtoms=   12 NActive=   12 NUniq=   12 SFac= 1.00D+00 NAtFMM=   60 NAOKFM=F Big=F
 Integral buffers will be    131072 words long.
 Raffenetti 2 integral format.
 Two-electron integral symmetry is turned off.
 Force inversion solution in PCM.
 ------------------------------------------------------------------------------
 Polarizable Continuum Model (PCM)
 =================================
 Model                : PCM.
 Atomic radii         : SMD-Coulomb.
 Polarization charges : Total charges.
 Charge compensation  : None.
 Solution method      : Matrix inversion.
 Cavity type          : VdW (van der Waals Surface) (Alpha=1.000).
 Cavity algorithm     : GePol (No added spheres)
                        Default sphere list used, NSphG=   12.
                        Lebedev-Laikov grids with approx.  5.0 points / Ang**2.
                        Smoothing algorithm: York/Karplus (Gamma=1.0000).
                        Polarization charges: spherical gaussians, with
                                              point-specific exponents (IZeta= 3).
                        Self-potential: point-specific (ISelfS= 7).
                        Self-field    : sphere-specific E.n sum rule (ISelfD= 2).
 1st derivatives      : Analytical E(r).r(x)/FMM algorithm (CHGder, D1EAlg=3).
                        Cavity 1st derivative terms included.
 2nd derivatives      : Analytical E(r).r(xy)/FMM algorithm (CHGder, D2EAlg=3).
                        Cavity 2nd derivative terms included.
 Solvent              : TetraHydroFuran, Eps=   7.425700 Eps(inf)=   1.974025
 ------------------------------------------------------------------------------
 Spheres list:
 ISph  on   Nord     Re0    Alpha      Xe            Ye            Ze
    1   C      1    1.8500  1.000      6.173445      6.878938      5.145152
    2   C      2    1.8500  1.000      5.136840      6.065783      5.539858
    3   H      3    1.2000  1.000      5.244897      5.336074      6.334526
    4   C      4    1.8500  1.000      3.918654      6.209629      4.875213
    5   H      5    1.2000  1.000      3.062944      5.598498      5.138959
    6   C      6    1.8500  1.000      3.793755      7.152443      3.853950
    7   C      7    1.8500  1.000      4.873083      7.955852      3.486446
    8   H      8    1.2000  1.000      4.761212      8.684644      2.689022
    9   C      9    1.8500  1.000      6.097516      7.818626      4.147292
   10   H     10    1.2000  1.000      6.942106      8.438890      3.868899
   11   O     11    2.2940  1.000      2.580503      7.247095      3.242519
   12   H     12    1.2000  1.000      2.613016      7.923292      2.555682
 ------------------------------------------------------------------------------
 ------------------------------------------------------------------------------
 Atomic radii for non-electrostatic terms: SMD-CDS.
 ------------------------------------------------------------------------------
 Nuclear repulsion after PCM non-electrostatic terms =      261.9815967814 Hartrees.
 One-electron integrals computed using PRISM.
 NBasis=   184 RedAO= T EigKep=  3.63D-06  NBF=   184
 NBsUse=   184 1.00D-06 EigRej= -1.00D+00 NBFU=   184
 ExpMin= 4.38D-02 ExpMax= 8.59D+03 ExpMxC= 1.30D+03 IAcc=3 IRadAn=         5 AccDes= 0.00D+00
 Harris functional with IExCor= 1009 and IRadAn=       5 diagonalized for initial guess.
 HarFok:  IExCor= 1009 AccDes= 0.00D+00 IRadAn=         5 IDoV= 1 UseB2=F ITyADJ=14
 ICtDFT=  3500011 ScaDFX=  1.000000  1.000000  1.000000  1.000000
 FoFCou: FMM=F IPFlag=           0 FMFlag=      100000 FMFlg1=           0
         NFxFlg=           0 DoJE=T BraDBF=F KetDBF=T FulRan=T
         wScrn=  0.000000 ICntrl=       500 IOpCl=  0 I1Cent=   200000004 NGrid=           0
         NMat0=    1 NMatS0=      1 NMatT0=    0 NMatD0=    1 NMtDS0=    0 NMtDT0=    0
 Symmetry not used in FoFCou.
 Keep R1 ints in memory in canonical form, NReq=177448213.
 Requested convergence on RMS density matrix=1.00D-08 within 128 cycles.
 Requested convergence on MAX density matrix=1.00D-06.
 Requested convergence on             energy=1.00D-06.
 Level shift goal  0.100 maximum shift  0.100.
 No special actions if energy rises.
 Dynamic level shift is on during FON iterations.
 Inv3:  Mode=1 IEnd=     3669708.
 Iteration    1 A*A^-1 deviation from unit magnitude is 4.44D-15 for   1096.
 Iteration    1 A*A^-1 deviation from orthogonality  is 1.59D-15 for   1090    937.
 Iteration    1 A^-1*A deviation from unit magnitude is 4.88D-15 for   1096.
 Iteration    1 A^-1*A deviation from orthogonality  is 1.73D-15 for    740    511.
 Error on total polarization charges =  0.05566
 SCF Done:  E(RM062X) =  -306.856453338     A.U. after   16 cycles
            NFock= 16  Conv=0.67D-08     -V/T= 2.0032
 SMD-CDS (non-electrostatic) energy       (kcal/mol) =      -2.17
 (included in total energy above)
 DoSCS=F DFT=T ScalE2(SS,OS)=  1.000000  1.000000
 Range of M.O.s used for correlation:     1   184
 NBasis=   184 NAE=    25 NBE=    25 NFC=     0 NFV=     0
 NROrb=    184 NOA=    25 NOB=    25 NVA=   159 NVB=   159

 **** Warning!!: The largest alpha MO coefficient is  0.12971038D+03

 Symmetrizing basis deriv contribution to polar:
 IMax=3 JMax=2 DiffMx= 0.00D+00
 G2DrvN: will do    13 centers at a time, making    1 passes.
 Calling FoFCou, ICntrl=  3107 FMM=F I1Cent=   0 AccDes= 0.00D+00.
 NEqPCM:  Using equilibrium solvation (IEInf=0, Eps=   7.4257, EpsInf=   1.9740)
 G2PCM: DoFxE=T DoFxN=T DoGrad=T DoDP/DQ/DG/TGxP=FFFF NFrqRd=   0 IEInf=0 SqF1=F DoCFld=F IF1Alg=4.
 End of G2Drv F.D. properties file   721 does not exist.
 End of G2Drv F.D. properties file   722 does not exist.
 End of G2Drv F.D. properties file   788 does not exist.
          IDoAtm=111111111111
 NEqPCM:  Using equilibrium solvation (IEInf=0, Eps=   7.4257, EpsInf=   1.9740)
          Differentiating once with respect to nuclear coordinates.
 Keep R1 ints in memory in canonical form, NReq=177348210.
          There are    39 degrees of freedom in the 1st order CPHF.  IDoFFX=6 NUNeed=     0.
     33 vectors produced by pass  0 Test12= 1.02D-14 2.56D-09 XBig12= 1.11D-01 1.04D-01.
 AX will form    33 AO Fock derivatives at one time.
     33 vectors produced by pass  1 Test12= 1.02D-14 2.56D-09 XBig12= 8.42D-03 3.00D-02.
     33 vectors produced by pass  2 Test12= 1.02D-14 2.56D-09 XBig12= 2.32D-04 4.27D-03.
     33 vectors produced by pass  3 Test12= 1.02D-14 2.56D-09 XBig12= 2.86D-06 2.80D-04.
     33 vectors produced by pass  4 Test12= 1.02D-14 2.56D-09 XBig12= 2.48D-08 2.33D-05.
     33 vectors produced by pass  5 Test12= 1.02D-14 2.56D-09 XBig12= 1.68D-10 1.97D-06.
     32 vectors produced by pass  6 Test12= 1.02D-14 2.56D-09 XBig12= 8.44D-13 1.20D-07.
     10 vectors produced by pass  7 Test12= 1.02D-14 2.56D-09 XBig12= 2.81D-15 7.71D-09.
 InvSVY:  IOpt=1 It=  1 EMax= 2.22D-15
 Solved reduced A of dimension   240 with    33 vectors.
 End of Minotr F.D. properties file   721 does not exist.
 End of Minotr F.D. properties file   722 does not exist.
 End of Minotr F.D. properties file   788 does not exist.

 **********************************************************************

            Population analysis using the SCF Density.

 **********************************************************************

 Alpha  occ. eigenvalues --  -19.62153 -10.56302 -10.50083 -10.49740 -10.48952
 Alpha  occ. eigenvalues --  -10.48895 -10.42983  -1.15705  -0.90621  -0.80257
 Alpha  occ. eigenvalues --   -0.77072  -0.66315  -0.62836  -0.58288  -0.50812
 Alpha  occ. eigenvalues --   -0.47721  -0.46253  -0.45296  -0.44596  -0.41667
 Alpha  occ. eigenvalues --   -0.36748  -0.35823  -0.27116  -0.23016  -0.16749
 Alpha virt. eigenvalues --    0.03555   0.05089   0.05132   0.05397   0.07520
 Alpha virt. eigenvalues --    0.07787   0.08398   0.09495   0.11260   0.11341
 Alpha virt. eigenvalues --    0.11634   0.12001   0.12592   0.16578   0.16807
 Alpha virt. eigenvalues --    0.16868   0.16876   0.17861   0.18271   0.18277
 Alpha virt. eigenvalues --    0.20874   0.21543   0.22651   0.23537   0.23768
 Alpha virt. eigenvalues --    0.24031   0.26151   0.26847   0.27441   0.27814
 Alpha virt. eigenvalues --    0.29232   0.29775   0.29837   0.32290   0.33660
 Alpha virt. eigenvalues --    0.36526   0.39176   0.42203   0.42902   0.44054
 Alpha virt. eigenvalues --    0.45605   0.55524   0.56920   0.57513   0.58930
 Alpha virt. eigenvalues --    0.61502   0.63330   0.63704   0.64572   0.64791
 Alpha virt. eigenvalues --    0.66807   0.68684   0.69506   0.69814   0.69864
 Alpha virt. eigenvalues --    0.75040   0.76342   0.78135   0.80174   0.81839
 Alpha virt. eigenvalues --    0.82798   0.86412   0.90230   0.90820   0.92221
 Alpha virt. eigenvalues --    0.92559   0.94726   0.97929   1.00257   1.02683
 Alpha virt. eigenvalues --    1.08143   1.08279   1.10820   1.15797   1.17190
 Alpha virt. eigenvalues --    1.19177   1.23932   1.26316   1.29022   1.30852
 Alpha virt. eigenvalues --    1.35137   1.40580   1.48688   1.55744   1.58738
 Alpha virt. eigenvalues --    1.60809   1.65009   1.66077   1.67558   1.68694
 Alpha virt. eigenvalues --    1.72171   1.75189   1.75678   1.79587   1.82031
 Alpha virt. eigenvalues --    1.84754   1.88232   1.95552   1.96131   1.99788
 Alpha virt. eigenvalues --    2.00030   2.00734   2.03051   2.05167   2.08678
 Alpha virt. eigenvalues --    2.09979   2.13970   2.15875   2.17945   2.29590
 Alpha virt. eigenvalues --    2.37991   2.42727   2.45678   2.47827   2.49664
 Alpha virt. eigenvalues --    2.61787   2.65865   2.67395   2.73906   2.74543
 Alpha virt. eigenvalues --    2.76344   2.77393   2.79396   2.80748   2.82378
 Alpha virt. eigenvalues --    2.86030   2.89674   2.99185   3.00122   3.01291
 Alpha virt. eigenvalues --    3.08153   3.18838   3.19974   3.23843   3.25968
 Alpha virt. eigenvalues --    3.28389   3.45063   3.47003   3.54668   3.60232
 Alpha virt. eigenvalues --    3.68783   3.73118   3.83494   3.98644   4.07506
 Alpha virt. eigenvalues --    4.20212   4.22719   4.24130   4.90641   5.14699
 Alpha virt. eigenvalues --    5.58006   5.87710  23.66173  24.03231  24.10845
 Alpha virt. eigenvalues --   24.21494  24.22814  24.34748  50.07679
          Condensed to atoms (all electrons):
               1          2          3          4          5          6
     1  C    9.058611  -1.558018  -0.164767   1.200130  -0.044048  -0.965757
     2  C   -1.558018   6.801245   0.560572  -1.085222   0.087451   0.924042
     3  H   -0.164767   0.560572   0.540081  -0.161315  -0.001000   0.046259
     4  C    1.200130  -1.085222  -0.161315   7.798060   0.295326  -0.843142
     5  H   -0.044048   0.087451  -0.001000   0.295326   0.500084   0.051060
     6  C   -0.965757   0.924042   0.046259  -0.843142   0.051060   6.827148
     7  C    1.211865  -0.998459  -0.034662   0.170580  -0.063047  -0.832031
     8  H   -0.036215   0.026819   0.000131  -0.079965   0.000077  -0.020277
     9  C   -1.539167   1.341167   0.058580  -1.196372   0.024510   0.819576
    10  H   -0.180623   0.057867   0.000377  -0.037322   0.000131   0.060913
    11  O    0.015472   0.001723  -0.001008  -0.323240  -0.007353   0.305682
    12  H   -0.002749  -0.003196   0.000027   0.098246   0.000645   0.056453
               7          8          9         10         11         12
     1  C    1.211865  -0.036215  -1.539167  -0.180623   0.015472  -0.002749
     2  C   -0.998459   0.026819   1.341167   0.057867   0.001723  -0.003196
     3  H   -0.034662   0.000131   0.058580   0.000377  -0.001008   0.000027
     4  C    0.170580  -0.079965  -1.196372  -0.037322  -0.323240   0.098246
     5  H   -0.063047   0.000077   0.024510   0.000131  -0.007353   0.000645
     6  C   -0.832031  -0.020277   0.819576   0.060913   0.305682   0.056453
     7  C    7.528466   0.329021  -1.060067  -0.155417   0.001001  -0.144713
     8  H    0.329021   0.509155   0.127659  -0.000790  -0.011510   0.005838
     9  C   -1.060067   0.127659   7.068272   0.557821  -0.007907  -0.000816
    10  H   -0.155417  -0.000790   0.557821   0.542037  -0.001145   0.000100
    11  O    0.001001  -0.011510  -0.007907  -0.001145   8.086843   0.273584
    12  H   -0.144713   0.005838  -0.000816   0.000100   0.273584   0.441232
 Mulliken charges:
               1
     1  C   -0.994733
     2  C   -0.155991
     3  H    0.156727
     4  C    0.164237
     5  H    0.156165
     6  C   -0.429926
     7  C    0.047463
     8  H    0.150058
     9  C   -0.193256
    10  H    0.156051
    11  O   -0.332142
    12  H    0.275348
 Sum of Mulliken charges =  -1.00000
 Mulliken charges with hydrogens summed into heavy atoms:
               1
     1  C   -0.994733
     2  C    0.000735
     4  C    0.320402
     6  C   -0.429926
     7  C    0.197521
     9  C   -0.037205
    11  O   -0.056794
 APT charges:
               1
     1  C   -3.001441
     2  C    1.068899
     3  H    0.544171
     4  C   -0.840871
     5  H   -0.533900
     6  C    0.151115
     7  C   -1.289805
     8  H    0.745897
     9  C    0.593539
    10  H    1.612176
    11  O   -0.870292
    12  H    0.820512
 Sum of APT charges =  -1.00000
 APT charges with hydrogens summed into heavy atoms:
               1
     1  C   -3.001441
     2  C    1.613070
     4  C   -1.374771
     6  C    0.151115
     7  C   -0.543907
     9  C    2.205715
    11  O   -0.049780
 Electronic spatial extent (au):  <R**2>=          16600.1107
 Charge=             -1.0000 electrons
 Dipole moment (field-independent basis, Debye):
    X=            -29.5036    Y=            -31.7766    Z=            -25.9656  Tot=             50.5414
 Quadrupole moment (field-independent basis, Debye-Ang):
   XX=           -237.7116   YY=           -253.8132   ZZ=           -183.1503
   XY=           -197.1255   XZ=           -160.4668   YZ=           -178.5747
 Traceless Quadrupole moment (field-independent basis, Debye-Ang):
   XX=            -12.8199   YY=            -28.9215   ZZ=             41.7414
   XY=           -197.1255   XZ=           -160.4668   YZ=           -178.5747
 Octapole moment (field-independent basis, Debye-Ang**2):
  XXX=          -1933.2465  YYY=          -2310.5673  ZZZ=          -1330.5249  XYY=          -1529.0347
  XXY=          -1607.2194  XXZ=          -1248.3569  XZZ=          -1085.4535  YZZ=          -1286.5891
  YYZ=          -1424.8070  XYZ=          -1098.6555
 Hexadecapole moment (field-independent basis, Debye-Ang**3):
 XXXX=         -15393.3567 YYYY=         -22353.5705 ZZZZ=          -9458.3459 XXXY=         -13166.4141
 XXXZ=          -9964.8703 YYYX=         -13286.8444 YYYZ=         -12535.9070 ZZZX=          -7654.6345
 ZZZY=          -9351.6785 XXYY=         -12009.2823 XXZZ=          -7779.1860 YYZZ=          -9981.9504
 XXYZ=          -8526.6413 YYXZ=          -8498.0396 ZZXY=          -7567.7675
 N-N= 2.619815967814D+02 E-N=-1.248930941778D+03  KE= 3.058717399783D+02
  Exact polarizability:       0.000       0.000       0.000       0.000       0.000       0.000
 Approx polarizability:     120.286       9.399      97.057      12.403     -25.539      99.836
 D2PCM: PCM CHGder 2nd derivatives, FixD1E=F FixD2E=F DoIter=F DoCFld=F I1PDM=0
 Calling FoFJK, ICntrl=    100127 FMM=F ISym2X=0 I1Cent= 0 IOpClX= 0 NMat=1 NMatS=1 NMatT=0.
 -------------------------------------------------------------------
 Center     Atomic                   Forces (Hartrees/Bohr)
 Number     Number              X              Y              Z
 -------------------------------------------------------------------
      1        6           0.072531607   -0.008479375    0.039569704
      2        6          -0.020297452    0.012169738   -0.021071501
      3        1          -0.001677786   -0.002041770    0.001436679
      4        6          -0.007778861   -0.005478982    0.002456695
      5        1          -0.004751578   -0.000166255   -0.001864717
      6        6           0.008742259   -0.001039611    0.004692486
      7        6          -0.001488475    0.006338401   -0.007130170
      8        1          -0.004320488    0.001426805   -0.003243562
      9        6          -0.030345841   -0.006052136   -0.006943671
     10        1           0.000608756    0.002211869   -0.002001466
     11        8          -0.012308011    0.001827165   -0.007111376
     12        1           0.001085869   -0.000715850    0.001210900
 -------------------------------------------------------------------
 Cartesian Forces:  Max     0.072531607 RMS     0.016229094
 FormGI is forming the generalized inverse of G from B-inverse, IUseBI=4.

 GradGradGradGradGradGradGradGradGradGradGradGradGradGradGradGradGradGrad
 Berny optimization.
 Internal  Forces:  Max     0.050885186 RMS     0.011301409
 Search for a local minimum.
 Step number   1 out of a maximum of   61
 All quantities printed in internal units (Hartrees-Bohrs-Radians)
 Mixed Optimization -- RFO/linear search
 Second derivative matrix not updated -- analytic derivatives used.
 ITU=  0
     Eigenvalues ---    0.00392   0.01153   0.01836   0.02238   0.02414
     Eigenvalues ---    0.02622   0.02979   0.03826   0.04070   0.10385
     Eigenvalues ---    0.10889   0.11662   0.12021   0.16543   0.18813
     Eigenvalues ---    0.19210   0.19885   0.21916   0.30408   0.35210
     Eigenvalues ---    0.35289   0.35762   0.36257   0.39540   0.42548
     Eigenvalues ---    0.46939   0.48473   0.50480   0.52996   0.53563
 RFO step:  Lambda=-2.44608268D-02 EMin= 3.91831488D-03
 Linear search not attempted -- first point.
 Maximum step size (   0.300) exceeded in Quadratic search.
    -- Step size scaled by   0.947
 Iteration  1 RMS(Cart)=  0.04384840 RMS(Int)=  0.00276163
 Iteration  2 RMS(Cart)=  0.00392837 RMS(Int)=  0.00089474
 Iteration  3 RMS(Cart)=  0.00000355 RMS(Int)=  0.00089474
 Iteration  4 RMS(Cart)=  0.00000000 RMS(Int)=  0.00089474
 Variable       Old X    -DE/DX   Delta X   Delta X   Delta X     New X
                                 (Linear)    (Quad)   (Total)
    R1        2.59902   0.02496   0.00000   0.05952   0.06072   2.65974
    R2        2.59416   0.02512   0.00000   0.06036   0.06155   2.65571
    R3        2.04898   0.00226   0.00000   0.00925   0.00925   2.05823
    R4        2.63644   0.01189   0.00000   0.00629   0.00633   2.64277
    R5        2.04866   0.00339   0.00000   0.00383   0.00383   2.05250
    R6        2.63715  -0.00518   0.00000  -0.01219  -0.01341   2.62374
    R7        2.63579  -0.00545   0.00000  -0.01054  -0.01178   2.62402
    R8        2.57363   0.01272   0.00000   0.02278   0.02278   2.59641
    R9        2.05237   0.00378   0.00000   0.00462   0.00462   2.05698
   R10        2.64209   0.01164   0.00000   0.00632   0.00632   2.64841
   R11        2.04890   0.00225   0.00000   0.00903   0.00903   2.05794
   R12        1.82243  -0.00131   0.00000  -0.00199  -0.00199   1.82044
    A1        2.17929  -0.05089   0.00000  -0.19969  -0.19606   1.98324
    A2        2.13308  -0.01096   0.00000  -0.04734  -0.04786   2.08522
    A3        2.04927   0.02602   0.00000   0.11658   0.11764   2.16691
    A4        2.10083  -0.01507   0.00000  -0.06925  -0.06978   2.03105
    A5        2.11202   0.00329   0.00000   0.00832   0.00905   2.12107
    A6        2.09029   0.00128   0.00000  -0.00414  -0.00560   2.08469
    A7        2.08087  -0.00457   0.00000  -0.00419  -0.00346   2.07742
    A8        2.10913  -0.00390   0.00000  -0.02483  -0.02758   2.08156
    A9        2.04343   0.00349   0.00000   0.01713   0.01850   2.06194
   A10        2.13062   0.00040   0.00000   0.00770   0.00907   2.13969
   A11        2.09470  -0.00503   0.00000  -0.00793  -0.00717   2.08753
   A12        2.09049   0.00166   0.00000  -0.00198  -0.00349   2.08700
   A13        2.09799   0.00337   0.00000   0.00990   0.01066   2.10865
   A14        2.04789   0.02581   0.00000   0.11405   0.11507   2.16296
   A15        2.13548  -0.01083   0.00000  -0.04485  -0.04536   2.09013
   A16        2.09981  -0.01498   0.00000  -0.06921  -0.06971   2.03010
   A17        1.91606  -0.00218   0.00000  -0.01404  -0.01404   1.90201
    D1        3.14080   0.00000   0.00000   0.00368   0.00345  -3.13894
    D2       -0.00066   0.00001   0.00000   0.00445   0.00432   0.00366
    D3        0.00048   0.00002   0.00000  -0.00530  -0.00517  -0.00470
    D4       -3.14142  -0.00004   0.00000  -0.00240  -0.00214   3.13962
    D5        3.14133  -0.00002   0.00000  -0.00142  -0.00157   3.13976
    D6        0.00029  -0.00001   0.00000  -0.00023  -0.00048  -0.00019
    D7       -0.00014  -0.00002   0.00000  -0.00066  -0.00072  -0.00086
    D8       -3.14117   0.00000   0.00000   0.00053   0.00037  -3.14080
    D9        0.00022   0.00000   0.00000  -0.00273  -0.00281  -0.00258
   D10       -3.14126   0.00001   0.00000  -0.00265  -0.00260   3.13933
   D11       -3.14082   0.00001   0.00000  -0.00157  -0.00175   3.14062
   D12        0.00088   0.00002   0.00000  -0.00149  -0.00154  -0.00066
   D13        3.14053   0.00004   0.00000   0.00133   0.00155  -3.14111
   D14       -0.00042   0.00004   0.00000   0.00188   0.00202   0.00160
   D15       -0.00117   0.00003   0.00000   0.00125   0.00133   0.00016
   D16        3.14106   0.00003   0.00000   0.00180   0.00180  -3.14032
   D17       -3.13708  -0.00001   0.00000   0.00152   0.00145  -3.13563
   D18        0.00462   0.00000   0.00000   0.00160   0.00167   0.00629
   D19        0.00008  -0.00006   0.00000   0.00192   0.00219   0.00227
   D20       -3.14121   0.00001   0.00000  -0.00093  -0.00075   3.14122
   D21       -3.14086  -0.00006   0.00000   0.00247   0.00267  -3.13819
   D22        0.00103   0.00001   0.00000  -0.00037  -0.00027   0.00076
         Item               Value     Threshold  Converged?
 Maximum Force            0.050885     0.000015     NO 
 RMS     Force            0.011301     0.000010     NO 
 Maximum Displacement     0.225007     0.000060     NO 
 RMS     Displacement     0.044197     0.000040     NO 
 Predicted change in Energy=-1.329484D-02
 GradGradGradGradGradGradGradGradGradGradGradGradGradGradGradGradGradGrad

                          Input orientation:                          
 ---------------------------------------------------------------------
 Center     Atomic      Atomic             Coordinates (Angstroms)
 Number     Number       Type             X           Y           Z
 ---------------------------------------------------------------------
      1          6           0        6.292514    6.862536    5.207124
      2          6           0        5.154271    6.094754    5.516798
      3          1           0        5.210509    5.347948    6.307621
      4          6           0        3.922036    6.220326    4.867483
      5          1           0        3.070755    5.603469    5.140422
      6          6           0        3.779417    7.152451    3.848406
      7          6           0        4.864217    7.944477    3.496233
      8          1           0        4.758475    8.677364    2.698394
      9          6           0        6.082292    7.789269    4.171769
     10          1           0        6.897363    8.437112    3.852535
     11          8           0        2.558027    7.251380    3.226970
     12          1           0        2.608097    7.928677    2.543762
 ---------------------------------------------------------------------
                    Distance matrix (angstroms):
                    1          2          3          4          5
     1  C    0.000000
     2  C    1.407474   0.000000
     3  H    2.162361   1.089166   0.000000
     4  C    2.479305   1.398493   2.120190   0.000000
     5  H    3.459686   2.173490   2.450753   1.086134   0.000000
     6  C    2.871553   2.406757   3.369272   1.388421   2.137954
     7  C    2.477453   2.754685   3.842627   2.395982   3.376415
     8  H    3.455517   3.843167   4.931112   3.382545   4.273257
     9  C    1.405342   2.354083   3.358857   2.759041   3.845174
    10  H    2.163340   3.360770   4.291370   3.846664   4.932657
    11  O    4.244832   3.649874   4.488778   2.369573   2.576780
    12  H    4.669591   4.322641   5.253508   3.169318   3.516147
                    6          7          8          9         10
     6  C    0.000000
     7  C    1.388569   0.000000
     8  H    2.146263   1.088509   0.000000
     9  C    2.411086   1.401480   2.170723   0.000000
    10  H    3.372233   2.122103   2.442254   1.089013   0.000000
    11  O    1.373959   2.423097   2.674845   3.688146   4.541710
    12  H    1.917450   2.448986   2.282229   3.839255   4.513225
                   11         12
    11  O    0.000000
    12  H    0.963334   0.000000
 Symmetry turned off by external request.
 Stoichiometry    C6H5O(1-)
 Framework group  C1[X(C6H5O)]
 Deg. of freedom    30
 Full point group                 C1      NOp   1
 Rotational constants (GHZ):           5.8128882           2.6814394           1.8349811
 Standard basis: 6-311+G(d,p) (5D, 7F)
   184 basis functions,   292 primitive gaussians,   191 cartesian basis functions
    25 alpha electrons       25 beta electrons
       nuclear repulsion energy       260.4207177896 Hartrees.
 NAtoms=   12 NActive=   12 NUniq=   12 SFac= 1.00D+00 NAtFMM=   60 NAOKFM=F Big=F
 Integral buffers will be    131072 words long.
 Raffenetti 2 integral format.
 Two-electron integral symmetry is turned off.
 ------------------------------------------------------------------------------
 Polarizable Continuum Model (PCM)
 =================================
 Model                : PCM.
 Atomic radii         : SMD-Coulomb.
 Polarization charges : Total charges.
 Charge compensation  : None.
 Solution method      : Matrix inversion.
 Cavity type          : VdW (van der Waals Surface) (Alpha=1.000).
 Cavity algorithm     : GePol (No added spheres)
                        Default sphere list used, NSphG=   12.
                        Lebedev-Laikov grids with approx.  5.0 points / Ang**2.
                        Smoothing algorithm: York/Karplus (Gamma=1.0000).
                        Polarization charges: spherical gaussians, with
                                              point-specific exponents (IZeta= 3).
                        Self-potential: point-specific (ISelfS= 7).
                        Self-field    : sphere-specific E.n sum rule (ISelfD= 2).
 1st derivatives      : Analytical E(r).r(x)/FMM algorithm (CHGder, D1EAlg=3).
                        Cavity 1st derivative terms included.
 Solvent              : TetraHydroFuran, Eps=   7.425700 Eps(inf)=   1.974025
 ------------------------------------------------------------------------------
 Spheres list:
 ISph  on   Nord     Re0    Alpha      Xe            Ye            Ze
    1   C      1    1.8500  1.000      6.292514      6.862536      5.207124
    2   C      2    1.8500  1.000      5.154271      6.094754      5.516798
    3   H      3    1.2000  1.000      5.210509      5.347948      6.307621
    4   C      4    1.8500  1.000      3.922036      6.220326      4.867483
    5   H      5    1.2000  1.000      3.070755      5.603469      5.140422
    6   C      6    1.8500  1.000      3.779417      7.152451      3.848406
    7   C      7    1.8500  1.000      4.864217      7.944477      3.496233
    8   H      8    1.2000  1.000      4.758475      8.677364      2.698394
    9   C      9    1.8500  1.000      6.082292      7.789269      4.171769
   10   H     10    1.2000  1.000      6.897363      8.437112      3.852535
   11   O     11    2.2940  1.000      2.558027      7.251380      3.226970
   12   H     12    1.2000  1.000      2.608097      7.928677      2.543762
 ------------------------------------------------------------------------------
 ------------------------------------------------------------------------------
 Atomic radii for non-electrostatic terms: SMD-CDS.
 ------------------------------------------------------------------------------
 Nuclear repulsion after PCM non-electrostatic terms =      260.4173846031 Hartrees.
 One-electron integrals computed using PRISM.
 NBasis=   184 RedAO= T EigKep=  4.49D-06  NBF=   184
 NBsUse=   184 1.00D-06 EigRej= -1.00D+00 NBFU=   184
 Initial guess from the checkpoint file:  "4-OH-ph-anion-opt-freq-thf.chk"
 B after Tr=     0.010578    0.002297    0.002999
         Rot=    1.000000   -0.000137    0.000040    0.000134 Ang=  -0.02 deg.
 ExpMin= 4.38D-02 ExpMax= 8.59D+03 ExpMxC= 1.30D+03 IAcc=3 IRadAn=         5 AccDes= 0.00D+00
 Harris functional with IExCor= 1009 and IRadAn=       5 diagonalized for initial guess.
 HarFok:  IExCor= 1009 AccDes= 0.00D+00 IRadAn=         5 IDoV= 1 UseB2=F ITyADJ=14
 ICtDFT=  3500011 ScaDFX=  1.000000  1.000000  1.000000  1.000000
 FoFCou: FMM=F IPFlag=           0 FMFlag=      100000 FMFlg1=           0
         NFxFlg=           0 DoJE=T BraDBF=F KetDBF=T FulRan=T
         wScrn=  0.000000 ICntrl=       500 IOpCl=  0 I1Cent=   200000004 NGrid=           0
         NMat0=    1 NMatS0=      1 NMatT0=    0 NMatD0=    1 NMtDS0=    0 NMtDT0=    0
 Symmetry not used in FoFCou.
 Keep R1 ints in memory in canonical form, NReq=177448213.
 Requested convergence on RMS density matrix=1.00D-08 within 128 cycles.
 Requested convergence on MAX density matrix=1.00D-06.
 Requested convergence on             energy=1.00D-06.
 Level shift goal  0.100 maximum shift  0.100.
 No special actions if energy rises.
 Dynamic level shift is on during FON iterations.
 Inv3:  Mode=1 IEnd=     3716307.
 Iteration    1 A*A^-1 deviation from unit magnitude is 3.55D-15 for   1098.
 Iteration    1 A*A^-1 deviation from orthogonality  is 1.58D-15 for   1110    972.
 Iteration    1 A^-1*A deviation from unit magnitude is 3.77D-15 for   1103.
 Iteration    1 A^-1*A deviation from orthogonality  is 1.78D-15 for   1108    629.
 Error on total polarization charges =  0.05162
 SCF Done:  E(RM062X) =  -306.869602418     A.U. after   14 cycles
            NFock= 14  Conv=0.34D-08     -V/T= 2.0037
 SMD-CDS (non-electrostatic) energy       (kcal/mol) =      -2.09
 (included in total energy above)
 D1PCM: PCM CHGder 1st derivatives, ID1Alg=3 FixD1E=F DoIter=F DoCFld=F I1PDM=0.
 Calling FoFJK, ICntrl=      2127 FMM=F ISym2X=0 I1Cent= 0 IOpClX= 0 NMat=1 NMatS=1 NMatT=0.
 -------------------------------------------------------------------
 Center     Atomic                   Forces (Hartrees/Bohr)
 Number     Number              X              Y              Z
 -------------------------------------------------------------------
      1        6           0.010408039   -0.000930248    0.005732110
      2        6          -0.002208202    0.001488662   -0.002717527
      3        1          -0.000674322   -0.000964707    0.000671124
      4        6          -0.001824027   -0.002238172    0.001606642
      5        1          -0.000792446   -0.000138089   -0.000200415
      6        6          -0.000190193    0.000005109   -0.000112098
      7        6           0.000815950    0.002417802   -0.002073304
      8        1          -0.000579698    0.000351605   -0.000532613
      9        6          -0.004073505   -0.001165610   -0.000843266
     10        1           0.000453111    0.000942889   -0.000766777
     11        8          -0.001636326    0.000203605   -0.000889819
     12        1           0.000301618    0.000027154    0.000125944
 -------------------------------------------------------------------
 Cartesian Forces:  Max     0.010408039 RMS     0.002389408

 GradGradGradGradGradGradGradGradGradGradGradGradGradGradGradGradGradGrad
 Berny optimization.
 Using GEDIIS/GDIIS optimizer.
 FormGI is forming the generalized inverse of G from B-inverse, IUseBI=4.
 Internal  Forces:  Max     0.005961830 RMS     0.001674197
 Search for a local minimum.
 Step number   2 out of a maximum of   61
 All quantities printed in internal units (Hartrees-Bohrs-Radians)
 Mixed Optimization -- RFO/linear search
 Update second derivatives using D2CorX and points    1    2
 DE= -1.31D-02 DEPred=-1.33D-02 R= 9.89D-01
 TightC=F SS=  1.41D+00  RLast= 3.00D-01 DXNew= 5.0454D-01 8.9997D-01
 Trust test= 9.89D-01 RLast= 3.00D-01 DXMaxT set to 5.05D-01
 ITU=  1  0
 Use linear search instead of GDIIS.
     Eigenvalues ---    0.00392   0.01152   0.01836   0.02238   0.02412
     Eigenvalues ---    0.02617   0.02977   0.03808   0.04062   0.10388
     Eigenvalues ---    0.10895   0.11662   0.12022   0.16546   0.18810
     Eigenvalues ---    0.19201   0.20531   0.21918   0.30404   0.35212
     Eigenvalues ---    0.35353   0.35747   0.36243   0.39621   0.42526
     Eigenvalues ---    0.46917   0.48339   0.50452   0.52605   0.53040
 RFO step:  Lambda=-5.76302065D-05 EMin= 3.91827322D-03
 Quartic linear search produced a step of  0.15226.
 Iteration  1 RMS(Cart)=  0.00693586 RMS(Int)=  0.00016083
 Iteration  2 RMS(Cart)=  0.00008874 RMS(Int)=  0.00014948
 Iteration  3 RMS(Cart)=  0.00000000 RMS(Int)=  0.00014948
 Variable       Old X    -DE/DX   Delta X   Delta X   Delta X     New X
                                 (Linear)    (Quad)   (Total)
    R1        2.65974   0.00501   0.00925   0.00273   0.01218   2.67192
    R2        2.65571   0.00490   0.00937   0.00258   0.01215   2.66786
    R3        2.05823   0.00111   0.00141   0.00259   0.00400   2.06222
    R4        2.64277   0.00245   0.00096   0.00252   0.00349   2.64626
    R5        2.05250   0.00065   0.00058   0.00050   0.00108   2.05357
    R6        2.62374   0.00141  -0.00204   0.00502   0.00278   2.62651
    R7        2.62402   0.00122  -0.00179   0.00500   0.00300   2.62702
    R8        2.59641   0.00156   0.00347  -0.00039   0.00308   2.59949
    R9        2.05698   0.00069   0.00070   0.00045   0.00115   2.05814
   R10        2.64841   0.00209   0.00096   0.00138   0.00234   2.65075
   R11        2.05794   0.00113   0.00138   0.00270   0.00407   2.06201
   R12        1.82044  -0.00007  -0.00030   0.00026  -0.00004   1.82039
    A1        1.98324  -0.00596  -0.02985   0.00182  -0.02742   1.95582
    A2        2.08522  -0.00087  -0.00729   0.00470  -0.00268   2.08254
    A3        2.16691   0.00329   0.01791  -0.00056   0.01753   2.18444
    A4        2.03105  -0.00242  -0.01062  -0.00414  -0.01485   2.01620
    A5        2.12107   0.00064   0.00138   0.00126   0.00276   2.12383
    A6        2.08469  -0.00026  -0.00085  -0.00150  -0.00260   2.08210
    A7        2.07742  -0.00038  -0.00053   0.00025  -0.00016   2.07726
    A8        2.08156  -0.00034  -0.00420   0.00175  -0.00291   2.07865
    A9        2.06194   0.00058   0.00282   0.00020   0.00325   2.06518
   A10        2.13969  -0.00025   0.00138  -0.00195  -0.00034   2.13936
   A11        2.08753  -0.00045  -0.00109   0.00019  -0.00077   2.08676
   A12        2.08700  -0.00021  -0.00053  -0.00169  -0.00248   2.08452
   A13        2.10865   0.00066   0.00162   0.00150   0.00325   2.11191
   A14        2.16296   0.00348   0.01752   0.00020   0.01789   2.18084
   A15        2.09013  -0.00105  -0.00691   0.00331  -0.00368   2.08644
   A16        2.03010  -0.00242  -0.01061  -0.00350  -0.01420   2.01590
   A17        1.90201  -0.00056  -0.00214  -0.00180  -0.00394   1.89807
    D1       -3.13894  -0.00005   0.00053  -0.00195  -0.00143  -3.14037
    D2        0.00366  -0.00010   0.00066  -0.00339  -0.00274   0.00092
    D3       -0.00470   0.00011  -0.00079   0.00371   0.00293  -0.00177
    D4        3.13962   0.00003  -0.00033   0.00184   0.00152   3.14115
    D5        3.13976   0.00004  -0.00024   0.00140   0.00115   3.14091
    D6       -0.00019   0.00003  -0.00007   0.00115   0.00106   0.00088
    D7       -0.00086  -0.00001  -0.00011   0.00000  -0.00011  -0.00097
    D8       -3.14080  -0.00002   0.00006  -0.00025  -0.00021  -3.14101
    D9       -0.00258   0.00002  -0.00043   0.00107   0.00065  -0.00194
   D10        3.13933   0.00002  -0.00040   0.00103   0.00064   3.13996
   D11        3.14062   0.00001  -0.00027   0.00083   0.00055   3.14117
   D12       -0.00066   0.00001  -0.00023   0.00078   0.00054  -0.00011
   D13       -3.14111   0.00001   0.00024  -0.00022   0.00003  -3.14108
   D14        0.00160   0.00000   0.00031  -0.00076  -0.00045   0.00116
   D15        0.00016   0.00001   0.00020  -0.00017   0.00003   0.00019
   D16       -3.14032  -0.00001   0.00027  -0.00071  -0.00044  -3.14076
   D17       -3.13563  -0.00001   0.00022  -0.00130  -0.00109  -3.13671
   D18        0.00629   0.00000   0.00025  -0.00135  -0.00109   0.00520
   D19        0.00227  -0.00005   0.00033  -0.00181  -0.00146   0.00081
   D20        3.14122   0.00002  -0.00011   0.00001  -0.00009   3.14113
   D21       -3.13819  -0.00006   0.00041  -0.00235  -0.00194  -3.14013
   D22        0.00076   0.00001  -0.00004  -0.00053  -0.00057   0.00019
         Item               Value     Threshold  Converged?
 Maximum Force            0.005962     0.000015     NO 
 RMS     Force            0.001674     0.000010     NO 
 Maximum Displacement     0.033668     0.000060     NO 
 RMS     Displacement     0.006935     0.000040     NO 
 Predicted change in Energy=-2.673430D-04
 GradGradGradGradGradGradGradGradGradGradGradGradGradGradGradGradGradGrad

                          Input orientation:                          
 ---------------------------------------------------------------------
 Center     Atomic      Atomic             Coordinates (Angstroms)
 Number     Number       Type             X           Y           Z
 ---------------------------------------------------------------------
      1          6           0        6.310330    6.861856    5.218022
      2          6           0        5.157859    6.098316    5.514646
      3          1           0        5.203202    5.347388    6.305182
      4          6           0        3.921812    6.219395    4.867746
      5          1           0        3.071135    5.601199    5.141809
      6          6           0        3.776684    7.151940    3.847407
      7          6           0        4.863690    7.943983    3.495806
      8          1           0        4.758252    8.677497    2.697670
      9          6           0        6.080721    7.785072    4.174926
     10          1           0        6.890536    8.438772    3.847020
     11          8           0        2.554481    7.252736    3.224266
     12          1           0        2.609269    7.931610    2.543019
 ---------------------------------------------------------------------
                    Distance matrix (angstroms):
                    1          2          3          4          5
     1  C    0.000000
     2  C    1.413919   0.000000
     3  H    2.168239   1.091281   0.000000
     4  C    2.498092   1.400340   2.113902   0.000000
     5  H    3.476700   2.177280   2.442042   1.086705   0.000000
     6  C    2.895185   2.407790   3.366306   1.389890   2.139643
     7  C    2.495955   2.751134   3.840594   2.396572   3.378049
     8  H    3.472416   3.840211   4.929680   3.383951   4.275954
     9  C    1.411771   2.343432   3.354152   2.755400   3.842105
    10  H    2.168629   3.355724   4.294917   3.844586   4.931138
    11  O    4.270158   3.654600   4.487552   2.374535   2.582920
    12  H    4.690188   4.322829   5.249816   3.171562   3.521057
                    6          7          8          9         10
     6  C    0.000000
     7  C    1.390158   0.000000
     8  H    2.147719   1.089120   0.000000
     9  C    2.411786   1.402719   2.174312   0.000000
    10  H    3.369275   2.115720   2.434056   1.091168   0.000000
    11  O    1.375589   2.425696   2.676537   3.690732   4.538268
    12  H    1.916291   2.447524   2.279998   3.838694   4.504096
                   11         12
    11  O    0.000000
    12  H    0.963311   0.000000
 Symmetry turned off by external request.
 Stoichiometry    C6H5O(1-)
 Framework group  C1[X(C6H5O)]
 Deg. of freedom    30
 Full point group                 C1      NOp   1
 Rotational constants (GHZ):           5.8298751           2.6617930           1.8274300
 Standard basis: 6-311+G(d,p) (5D, 7F)
   184 basis functions,   292 primitive gaussians,   191 cartesian basis functions
    25 alpha electrons       25 beta electrons
       nuclear repulsion energy       259.9830528974 Hartrees.
 NAtoms=   12 NActive=   12 NUniq=   12 SFac= 1.00D+00 NAtFMM=   60 NAOKFM=F Big=F
 Integral buffers will be    131072 words long.
 Raffenetti 2 integral format.
 Two-electron integral symmetry is turned off.
 ------------------------------------------------------------------------------
 Polarizable Continuum Model (PCM)
 =================================
 Model                : PCM.
 Atomic radii         : SMD-Coulomb.
 Polarization charges : Total charges.
 Charge compensation  : None.
 Solution method      : Matrix inversion.
 Cavity type          : VdW (van der Waals Surface) (Alpha=1.000).
 Cavity algorithm     : GePol (No added spheres)
                        Default sphere list used, NSphG=   12.
                        Lebedev-Laikov grids with approx.  5.0 points / Ang**2.
                        Smoothing algorithm: York/Karplus (Gamma=1.0000).
                        Polarization charges: spherical gaussians, with
                                              point-specific exponents (IZeta= 3).
                        Self-potential: point-specific (ISelfS= 7).
                        Self-field    : sphere-specific E.n sum rule (ISelfD= 2).
 1st derivatives      : Analytical E(r).r(x)/FMM algorithm (CHGder, D1EAlg=3).
                        Cavity 1st derivative terms included.
 Solvent              : TetraHydroFuran, Eps=   7.425700 Eps(inf)=   1.974025
 ------------------------------------------------------------------------------
 Spheres list:
 ISph  on   Nord     Re0    Alpha      Xe            Ye            Ze
    1   C      1    1.8500  1.000      6.310330      6.861856      5.218022
    2   C      2    1.8500  1.000      5.157859      6.098316      5.514646
    3   H      3    1.2000  1.000      5.203202      5.347388      6.305182
    4   C      4    1.8500  1.000      3.921812      6.219395      4.867746
    5   H      5    1.2000  1.000      3.071135      5.601199      5.141809
    6   C      6    1.8500  1.000      3.776684      7.151940      3.847407
    7   C      7    1.8500  1.000      4.863690      7.943983      3.495806
    8   H      8    1.2000  1.000      4.758252      8.677497      2.697670
    9   C      9    1.8500  1.000      6.080721      7.785072      4.174926
   10   H     10    1.2000  1.000      6.890536      8.438772      3.847020
   11   O     11    2.2940  1.000      2.554481      7.252736      3.224266
   12   H     12    1.2000  1.000      2.609269      7.931610      2.543019
 ------------------------------------------------------------------------------
 ------------------------------------------------------------------------------
 Atomic radii for non-electrostatic terms: SMD-CDS.
 ------------------------------------------------------------------------------
 Nuclear repulsion after PCM non-electrostatic terms =      259.9797503039 Hartrees.
 One-electron integrals computed using PRISM.
 NBasis=   184 RedAO= T EigKep=  4.77D-06  NBF=   184
 NBsUse=   184 1.00D-06 EigRej= -1.00D+00 NBFU=   184
 Initial guess from the checkpoint file:  "4-OH-ph-anion-opt-freq-thf.chk"
 B after Tr=     0.003928   -0.001522    0.001579
         Rot=    1.000000    0.000046    0.000058   -0.000030 Ang=   0.01 deg.
 ExpMin= 4.38D-02 ExpMax= 8.59D+03 ExpMxC= 1.30D+03 IAcc=3 IRadAn=         5 AccDes= 0.00D+00
 Harris functional with IExCor= 1009 and IRadAn=       5 diagonalized for initial guess.
 HarFok:  IExCor= 1009 AccDes= 0.00D+00 IRadAn=         5 IDoV= 1 UseB2=F ITyADJ=14
 ICtDFT=  3500011 ScaDFX=  1.000000  1.000000  1.000000  1.000000
 FoFCou: FMM=F IPFlag=           0 FMFlag=      100000 FMFlg1=           0
         NFxFlg=           0 DoJE=T BraDBF=F KetDBF=T FulRan=T
         wScrn=  0.000000 ICntrl=       500 IOpCl=  0 I1Cent=   200000004 NGrid=           0
         NMat0=    1 NMatS0=      1 NMatT0=    0 NMatD0=    1 NMtDS0=    0 NMtDT0=    0
 Symmetry not used in FoFCou.
 Keep R1 ints in memory in canonical form, NReq=177448213.
 Requested convergence on RMS density matrix=1.00D-08 within 128 cycles.
 Requested convergence on MAX density matrix=1.00D-06.
 Requested convergence on             energy=1.00D-06.
 Level shift goal  0.100 maximum shift  0.100.
 No special actions if energy rises.
 Dynamic level shift is on during FON iterations.
 Inv3:  Mode=1 IEnd=     3729675.
 Iteration    1 A*A^-1 deviation from unit magnitude is 4.00D-15 for   1100.
 Iteration    1 A*A^-1 deviation from orthogonality  is 1.83D-15 for    920    571.
 Iteration    1 A^-1*A deviation from unit magnitude is 3.77D-15 for   1100.
 Iteration    1 A^-1*A deviation from orthogonality  is 2.14D-15 for   1110    630.
 Error on total polarization charges =  0.05112
 SCF Done:  E(RM062X) =  -306.869875299     A.U. after   13 cycles
            NFock= 13  Conv=0.47D-08     -V/T= 2.0039
 SMD-CDS (non-electrostatic) energy       (kcal/mol) =      -2.07
 (included in total energy above)
 D1PCM: PCM CHGder 1st derivatives, ID1Alg=3 FixD1E=F DoIter=F DoCFld=F I1PDM=0.
 Calling FoFJK, ICntrl=      2127 FMM=F ISym2X=0 I1Cent= 0 IOpClX= 0 NMat=1 NMatS=1 NMatT=0.
 -------------------------------------------------------------------
 Center     Atomic                   Forces (Hartrees/Bohr)
 Number     Number              X              Y              Z
 -------------------------------------------------------------------
      1        6           0.000616153    0.000010778    0.000331828
      2        6          -0.000272156   -0.000355667    0.000258610
      3        1          -0.000026026   -0.000118552    0.000087671
      4        6          -0.000201484   -0.000095669    0.000011878
      5        1          -0.000055150   -0.000015687   -0.000025281
      6        6          -0.000085520    0.000003272   -0.000045200
      7        6          -0.000057312    0.000138597   -0.000152756
      8        1          -0.000014937    0.000037946   -0.000020593
      9        6          -0.000015617    0.000247069   -0.000399281
     10        1           0.000116013    0.000086383   -0.000009579
     11        8          -0.000022647    0.000032772   -0.000031713
     12        1           0.000018682    0.000028759   -0.000005583
 -------------------------------------------------------------------
 Cartesian Forces:  Max     0.000616153 RMS     0.000177667

 GradGradGradGradGradGradGradGradGradGradGradGradGradGradGradGradGradGrad
 Berny optimization.
 Using GEDIIS/GDIIS optimizer.
 FormGI is forming the generalized inverse of G from B-inverse, IUseBI=4.
 Internal  Forces:  Max     0.000674460 RMS     0.000153062
 Search for a local minimum.
 Step number   3 out of a maximum of   61
 All quantities printed in internal units (Hartrees-Bohrs-Radians)
 Mixed Optimization -- En-DIIS/RFO-DIIS
 Update second derivatives using D2CorX and points    1    2    3
 DE= -2.73D-04 DEPred=-2.67D-04 R= 1.02D+00
 TightC=F SS=  1.41D+00  RLast= 4.79D-02 DXNew= 8.4853D-01 1.4377D-01
 Trust test= 1.02D+00 RLast= 4.79D-02 DXMaxT set to 5.05D-01
 ITU=  1  1  0
 Use linear search instead of GDIIS.
     Eigenvalues ---    0.00392   0.01151   0.01836   0.02237   0.02412
     Eigenvalues ---    0.02616   0.02977   0.03799   0.04060   0.10395
     Eigenvalues ---    0.10923   0.11658   0.12029   0.16541   0.18797
     Eigenvalues ---    0.19204   0.21003   0.21941   0.30402   0.35209
     Eigenvalues ---    0.35360   0.35729   0.36231   0.39434   0.42500
     Eigenvalues ---    0.46736   0.47903   0.50429   0.51277   0.53018
 RFO step:  Lambda=-2.10435082D-06 EMin= 3.91816514D-03
 Quartic linear search produced a step of  0.03541.
 Iteration  1 RMS(Cart)=  0.00062506 RMS(Int)=  0.00000077
 Iteration  2 RMS(Cart)=  0.00000020 RMS(Int)=  0.00000073
 Variable       Old X    -DE/DX   Delta X   Delta X   Delta X     New X
                                 (Linear)    (Quad)   (Total)
    R1        2.67192   0.00067   0.00043   0.00104   0.00148   2.67340
    R2        2.66786   0.00063   0.00043   0.00098   0.00141   2.66927
    R3        2.06222   0.00014   0.00014   0.00021   0.00036   2.06258
    R4        2.64626   0.00030   0.00012   0.00050   0.00063   2.64688
    R5        2.05357   0.00004   0.00004   0.00009   0.00013   2.05370
    R6        2.62651   0.00025   0.00010   0.00031   0.00041   2.62692
    R7        2.62702   0.00019   0.00011   0.00025   0.00035   2.62737
    R8        2.59949   0.00003   0.00011   0.00001   0.00012   2.59961
    R9        2.05814   0.00004   0.00004   0.00008   0.00012   2.05826
   R10        2.65075   0.00020   0.00008   0.00025   0.00033   2.65109
   R11        2.06201   0.00014   0.00014   0.00023   0.00038   2.06239
   R12        1.82039   0.00001   0.00000   0.00002   0.00002   1.82041
    A1        1.95582  -0.00005  -0.00097   0.00069  -0.00028   1.95554
    A2        2.08254   0.00008  -0.00009   0.00019   0.00010   2.08264
    A3        2.18444  -0.00011   0.00062  -0.00079  -0.00017   2.18427
    A4        2.01620   0.00003  -0.00053   0.00060   0.00007   2.01627
    A5        2.12383   0.00001   0.00010   0.00021   0.00031   2.12414
    A6        2.08210   0.00003  -0.00009   0.00012   0.00003   2.08213
    A7        2.07726  -0.00004  -0.00001  -0.00033  -0.00034   2.07692
    A8        2.07865   0.00013  -0.00010   0.00050   0.00040   2.07904
    A9        2.06518  -0.00001   0.00011  -0.00007   0.00004   2.06523
   A10        2.13936  -0.00013  -0.00001  -0.00043  -0.00044   2.13892
   A11        2.08676  -0.00003  -0.00003  -0.00013  -0.00016   2.08660
   A12        2.08452   0.00001  -0.00009  -0.00003  -0.00012   2.08440
   A13        2.11191   0.00001   0.00012   0.00016   0.00027   2.11218
   A14        2.18084  -0.00002   0.00063  -0.00049   0.00014   2.18099
   A15        2.08644   0.00000  -0.00013  -0.00029  -0.00042   2.08602
   A16        2.01590   0.00002  -0.00050   0.00078   0.00027   2.01617
   A17        1.89807  -0.00002  -0.00014  -0.00005  -0.00019   1.89789
    D1       -3.14037  -0.00002  -0.00005  -0.00046  -0.00051  -3.14088
    D2        0.00092  -0.00001  -0.00010  -0.00036  -0.00046   0.00046
    D3       -0.00177   0.00003   0.00010   0.00086   0.00096  -0.00080
    D4        3.14115  -0.00001   0.00005  -0.00003   0.00002   3.14117
    D5        3.14091   0.00000   0.00004  -0.00021  -0.00017   3.14074
    D6        0.00088  -0.00001   0.00004  -0.00031  -0.00027   0.00061
    D7       -0.00097   0.00000   0.00000  -0.00012  -0.00013  -0.00110
    D8       -3.14101   0.00000  -0.00001  -0.00022  -0.00023  -3.14124
    D9       -0.00194   0.00001   0.00002   0.00054   0.00057  -0.00137
   D10        3.13996   0.00002   0.00002   0.00060   0.00062   3.14058
   D11        3.14117   0.00001   0.00002   0.00045   0.00047  -3.14155
   D12       -0.00011   0.00001   0.00002   0.00050   0.00052   0.00041
   D13       -3.14108   0.00000   0.00000   0.00011   0.00011  -3.14097
   D14        0.00116   0.00000  -0.00002  -0.00009  -0.00010   0.00105
   D15        0.00019   0.00000   0.00000   0.00006   0.00006   0.00025
   D16       -3.14076   0.00000  -0.00002  -0.00014  -0.00016  -3.14092
   D17       -3.13671  -0.00001  -0.00004  -0.00093  -0.00097  -3.13768
   D18        0.00520   0.00000  -0.00004  -0.00088  -0.00092   0.00428
   D19        0.00081  -0.00002  -0.00005  -0.00067  -0.00073   0.00008
   D20        3.14113   0.00001   0.00000   0.00019   0.00018   3.14131
   D21       -3.14013  -0.00003  -0.00007  -0.00088  -0.00095  -3.14108
   D22        0.00019   0.00001  -0.00002  -0.00002  -0.00004   0.00015
         Item               Value     Threshold  Converged?
 Maximum Force            0.000674     0.000015     NO 
 RMS     Force            0.000153     0.000010     NO 
 Maximum Displacement     0.001594     0.000060     NO 
 RMS     Displacement     0.000625     0.000040     NO 
 Predicted change in Energy=-1.370209D-06
 GradGradGradGradGradGradGradGradGradGradGradGradGradGradGradGradGradGrad

                          Input orientation:                          
 ---------------------------------------------------------------------
 Center     Atomic      Atomic             Coordinates (Angstroms)
 Number     Number       Type             X           Y           Z
 ---------------------------------------------------------------------
      1          6           0        6.310815    6.862251    5.218688
      2          6           0        5.157813    6.098054    5.515277
      3          1           0        5.203042    5.347070    6.306025
      4          6           0        3.921709    6.218942    4.867734
      5          1           0        3.070812    5.600671    5.141206
      6          6           0        3.776702    7.151730    3.847304
      7          6           0        4.863666    7.943998    3.495340
      8          1           0        4.757732    8.677540    2.697210
      9          6           0        6.080942    7.785208    4.174411
     10          1           0        6.890952    8.439056    3.846614
     11          8           0        2.554466    7.252839    3.224137
     12          1           0        2.609321    7.932404    2.543571
 ---------------------------------------------------------------------
                    Distance matrix (angstroms):
                    1          2          3          4          5
     1  C    0.000000
     2  C    1.414700   0.000000
     3  H    2.169157   1.091470   0.000000
     4  C    2.498969   1.400671   2.114393   0.000000
     5  H    3.477817   2.177819   2.442852   1.086772   0.000000
     6  C    2.895897   2.408284   3.366980   1.390106   2.139684
     7  C    2.496866   2.752122   3.841765   2.397200   3.378518
     8  H    3.473498   3.841265   4.930911   3.384496   4.276207
     9  C    1.412517   2.344478   3.355444   2.756116   3.842887
    10  H    2.169207   3.356858   4.296292   3.845517   4.932127
    11  O    4.270942   3.655169   4.488312   2.374806   2.582910
    12  H    4.690686   4.323273   5.250468   3.171758   3.521032
                    6          7          8          9         10
     6  C    0.000000
     7  C    1.390345   0.000000
     8  H    2.147844   1.089182   0.000000
     9  C    2.412015   1.402894   2.174688   0.000000
    10  H    3.369831   2.116214   2.434878   1.091368   0.000000
    11  O    1.375653   2.425625   2.676155   3.690863   4.538689
    12  H    1.916234   2.447054   2.279145   3.838419   4.504108
                   11         12
    11  O    0.000000
    12  H    0.963322   0.000000
 Symmetry turned off by external request.
 Stoichiometry    C6H5O(1-)
 Framework group  C1[X(C6H5O)]
 Deg. of freedom    30
 Full point group                 C1      NOp   1
 Rotational constants (GHZ):           5.8261996           2.6610955           1.8267395
 Standard basis: 6-311+G(d,p) (5D, 7F)
   184 basis functions,   292 primitive gaussians,   191 cartesian basis functions
    25 alpha electrons       25 beta electrons
       nuclear repulsion energy       259.9293283688 Hartrees.
 NAtoms=   12 NActive=   12 NUniq=   12 SFac= 1.00D+00 NAtFMM=   60 NAOKFM=F Big=F
 Integral buffers will be    131072 words long.
 Raffenetti 2 integral format.
 Two-electron integral symmetry is turned off.
 ------------------------------------------------------------------------------
 Polarizable Continuum Model (PCM)
 =================================
 Model                : PCM.
 Atomic radii         : SMD-Coulomb.
 Polarization charges : Total charges.
 Charge compensation  : None.
 Solution method      : Matrix inversion.
 Cavity type          : VdW (van der Waals Surface) (Alpha=1.000).
 Cavity algorithm     : GePol (No added spheres)
                        Default sphere list used, NSphG=   12.
                        Lebedev-Laikov grids with approx.  5.0 points / Ang**2.
                        Smoothing algorithm: York/Karplus (Gamma=1.0000).
                        Polarization charges: spherical gaussians, with
                                              point-specific exponents (IZeta= 3).
                        Self-potential: point-specific (ISelfS= 7).
                        Self-field    : sphere-specific E.n sum rule (ISelfD= 2).
 1st derivatives      : Analytical E(r).r(x)/FMM algorithm (CHGder, D1EAlg=3).
                        Cavity 1st derivative terms included.
 Solvent              : TetraHydroFuran, Eps=   7.425700 Eps(inf)=   1.974025
 ------------------------------------------------------------------------------
 Spheres list:
 ISph  on   Nord     Re0    Alpha      Xe            Ye            Ze
    1   C      1    1.8500  1.000      6.310815      6.862251      5.218688
    2   C      2    1.8500  1.000      5.157813      6.098054      5.515277
    3   H      3    1.2000  1.000      5.203042      5.347070      6.306025
    4   C      4    1.8500  1.000      3.921709      6.218942      4.867734
    5   H      5    1.2000  1.000      3.070812      5.600671      5.141206
    6   C      6    1.8500  1.000      3.776702      7.151730      3.847304
    7   C      7    1.8500  1.000      4.863666      7.943998      3.495340
    8   H      8    1.2000  1.000      4.757732      8.677540      2.697210
    9   C      9    1.8500  1.000      6.080942      7.785208      4.174411
   10   H     10    1.2000  1.000      6.890952      8.439056      3.846614
   11   O     11    2.2940  1.000      2.554466      7.252839      3.224137
   12   H     12    1.2000  1.000      2.609321      7.932404      2.543571
 ------------------------------------------------------------------------------
 ------------------------------------------------------------------------------
 Atomic radii for non-electrostatic terms: SMD-CDS.
 ------------------------------------------------------------------------------
 Nuclear repulsion after PCM non-electrostatic terms =      259.9260292623 Hartrees.
 One-electron integrals computed using PRISM.
 NBasis=   184 RedAO= T EigKep=  4.78D-06  NBF=   184
 NBsUse=   184 1.00D-06 EigRej= -1.00D+00 NBFU=   184
 Initial guess from the checkpoint file:  "4-OH-ph-anion-opt-freq-thf.chk"
 B after Tr=     0.000640   -0.000887    0.000824
         Rot=    1.000000    0.000042    0.000018   -0.000009 Ang=   0.01 deg.
 Keep R1 ints in memory in canonical form, NReq=177448213.
 Requested convergence on RMS density matrix=1.00D-08 within 128 cycles.
 Requested convergence on MAX density matrix=1.00D-06.
 Requested convergence on             energy=1.00D-06.
 Level shift goal  0.100 maximum shift  0.100.
 No special actions if energy rises.
 Dynamic level shift is on during FON iterations.
 Inv3:  Mode=1 IEnd=     3729675.
 Iteration    1 A*A^-1 deviation from unit magnitude is 3.55D-15 for   1091.
 Iteration    1 A*A^-1 deviation from orthogonality  is 1.45D-15 for   1101    951.
 Iteration    1 A^-1*A deviation from unit magnitude is 4.00D-15 for   1113.
 Iteration    1 A^-1*A deviation from orthogonality  is 1.44D-15 for   1115    975.
 Error on total polarization charges =  0.05111
 SCF Done:  E(RM062X) =  -306.869876745     A.U. after    9 cycles
            NFock=  9  Conv=0.90D-08     -V/T= 2.0039
 SMD-CDS (non-electrostatic) energy       (kcal/mol) =      -2.07
 (included in total energy above)
 D1PCM: PCM CHGder 1st derivatives, ID1Alg=3 FixD1E=F DoIter=F DoCFld=F I1PDM=0.
 Calling FoFJK, ICntrl=      2127 FMM=F ISym2X=0 I1Cent= 0 IOpClX= 0 NMat=1 NMatS=1 NMatT=0.
 -------------------------------------------------------------------
 Center     Atomic                   Forces (Hartrees/Bohr)
 Number     Number              X              Y              Z
 -------------------------------------------------------------------
      1        6           0.000045639   -0.000002607    0.000023227
      2        6          -0.000070677   -0.000064017    0.000028056
      3        1          -0.000014053   -0.000007614   -0.000008996
      4        6           0.000000436    0.000019003   -0.000016877
      5        1          -0.000002843    0.000003791   -0.000007474
      6        6           0.000005557    0.000001920   -0.000001101
      7        6          -0.000000896   -0.000012029    0.000013906
      8        1           0.000015695    0.000002752    0.000009137
      9        6          -0.000001780    0.000039777   -0.000050212
     10        1           0.000000129   -0.000005390    0.000014401
     11        8           0.000015744    0.000010736    0.000000973
     12        1           0.000007049    0.000013675   -0.000005041
 -------------------------------------------------------------------
 Cartesian Forces:  Max     0.000070677 RMS     0.000023125

 GradGradGradGradGradGradGradGradGradGradGradGradGradGradGradGradGradGrad
 Berny optimization.
 Using GEDIIS/GDIIS optimizer.
 FormGI is forming the generalized inverse of G from B-inverse, IUseBI=4.
 Internal  Forces:  Max     0.000066318 RMS     0.000013652
 Search for a local minimum.
 Step number   4 out of a maximum of   61
 All quantities printed in internal units (Hartrees-Bohrs-Radians)
 Mixed Optimization -- En-DIIS/RFO-DIIS
 Swapping is turned off.
 Update second derivatives using D2CorX and points    1    2    3    4
 DE= -1.45D-06 DEPred=-1.37D-06 R= 1.06D+00
 TightC=F SS=  1.41D+00  RLast= 3.53D-03 DXNew= 8.4853D-01 1.0579D-02
 Trust test= 1.06D+00 RLast= 3.53D-03 DXMaxT set to 5.05D-01
 ITU=  1  1  1  0
     Eigenvalues ---    0.00392   0.01156   0.01836   0.02238   0.02412
     Eigenvalues ---    0.02615   0.02976   0.03790   0.04060   0.10398
     Eigenvalues ---    0.10953   0.11667   0.12025   0.16560   0.18834
     Eigenvalues ---    0.19208   0.20969   0.21930   0.30400   0.35183
     Eigenvalues ---    0.35435   0.35694   0.36225   0.38123   0.42344
     Eigenvalues ---    0.45393   0.47125   0.50404   0.52018   0.53024
 En-DIIS/RFO-DIIS/Sim-DIIS IScMMF=       -3 using points:     4    3
 RFO step:  Lambda=-2.25412499D-08.
 DidBck=F Rises=F RFO-DIIS coefs:    1.01366   -0.01366
 Iteration  1 RMS(Cart)=  0.00008265 RMS(Int)=  0.00000000
 Iteration  2 RMS(Cart)=  0.00000000 RMS(Int)=  0.00000000
 Variable       Old X    -DE/DX   Delta X   Delta X   Delta X     New X
                                 (Linear)    (Quad)   (Total)
    R1        2.67340   0.00007   0.00002   0.00015   0.00017   2.67357
    R2        2.66927   0.00005   0.00002   0.00011   0.00013   2.66940
    R3        2.06258   0.00000   0.00000  -0.00003  -0.00002   2.06256
    R4        2.64688  -0.00001   0.00001  -0.00004  -0.00003   2.64686
    R5        2.05370   0.00000   0.00000  -0.00001  -0.00001   2.05369
    R6        2.62692  -0.00001   0.00001  -0.00003  -0.00003   2.62689
    R7        2.62737  -0.00001   0.00000  -0.00004  -0.00003   2.62734
    R8        2.59961  -0.00001   0.00000  -0.00002  -0.00002   2.59959
    R9        2.05826   0.00000   0.00000  -0.00001  -0.00001   2.05825
   R10        2.65109  -0.00002   0.00000  -0.00004  -0.00004   2.65105
   R11        2.06239   0.00000   0.00001  -0.00002  -0.00002   2.06237
   R12        1.82041   0.00000   0.00000   0.00000   0.00000   1.82042
    A1        1.95554   0.00000   0.00000  -0.00001  -0.00001   1.95553
    A2        2.08264   0.00001   0.00000   0.00001   0.00001   2.08265
    A3        2.18427  -0.00002   0.00000  -0.00006  -0.00006   2.18421
    A4        2.01627   0.00001   0.00000   0.00005   0.00005   2.01632
    A5        2.12414  -0.00001   0.00000  -0.00006  -0.00006   2.12408
    A6        2.08213   0.00001   0.00000   0.00005   0.00005   2.08218
    A7        2.07692   0.00000   0.00000   0.00001   0.00000   2.07693
    A8        2.07904   0.00001   0.00001   0.00001   0.00002   2.07906
    A9        2.06523  -0.00001   0.00000  -0.00001  -0.00001   2.06522
   A10        2.13892  -0.00001  -0.00001   0.00000  -0.00001   2.13891
   A11        2.08660   0.00000   0.00000   0.00002   0.00002   2.08663
   A12        2.08440   0.00001   0.00000   0.00003   0.00003   2.08443
   A13        2.11218  -0.00001   0.00000  -0.00006  -0.00005   2.11213
   A14        2.18099  -0.00001   0.00000  -0.00003  -0.00003   2.18096
   A15        2.08602   0.00001  -0.00001   0.00001   0.00000   2.08603
   A16        2.01617   0.00000   0.00000   0.00002   0.00002   2.01620
   A17        1.89789   0.00000   0.00000   0.00002   0.00002   1.89791
    D1       -3.14088   0.00000  -0.00001  -0.00008  -0.00009  -3.14096
    D2        0.00046   0.00000  -0.00001  -0.00010  -0.00010   0.00035
    D3       -0.00080   0.00000   0.00001  -0.00004  -0.00003  -0.00083
    D4        3.14117   0.00000   0.00000  -0.00013  -0.00013   3.14104
    D5        3.14074   0.00000   0.00000   0.00013   0.00012   3.14087
    D6        0.00061   0.00000   0.00000   0.00016   0.00015   0.00076
    D7       -0.00110   0.00000   0.00000   0.00011   0.00011  -0.00099
    D8       -3.14124   0.00000   0.00000   0.00014   0.00014  -3.14110
    D9       -0.00137   0.00000   0.00001  -0.00007  -0.00007  -0.00144
   D10        3.14058   0.00000   0.00001  -0.00005  -0.00004   3.14054
   D11       -3.14155   0.00000   0.00001  -0.00004  -0.00004  -3.14158
   D12        0.00041   0.00000   0.00001  -0.00002  -0.00001   0.00040
   D13       -3.14097   0.00000   0.00000  -0.00001  -0.00001  -3.14097
   D14        0.00105   0.00000   0.00000  -0.00005  -0.00006   0.00100
   D15        0.00025   0.00000   0.00000  -0.00004  -0.00004   0.00022
   D16       -3.14092   0.00000   0.00000  -0.00008  -0.00008  -3.14100
   D17       -3.13768   0.00000  -0.00001  -0.00002  -0.00003  -3.13771
   D18        0.00428   0.00000  -0.00001   0.00001   0.00000   0.00428
   D19        0.00008   0.00000  -0.00001   0.00012   0.00011   0.00019
   D20        3.14131   0.00000   0.00000   0.00020   0.00020   3.14151
   D21       -3.14108   0.00000  -0.00001   0.00007   0.00006  -3.14102
   D22        0.00015   0.00000   0.00000   0.00016   0.00016   0.00030
         Item               Value     Threshold  Converged?
 Maximum Force            0.000066     0.000015     NO 
 RMS     Force            0.000014     0.000010     NO 
 Maximum Displacement     0.000286     0.000060     NO 
 RMS     Displacement     0.000083     0.000040     NO 
 Predicted change in Energy=-1.375330D-08
 GradGradGradGradGradGradGradGradGradGradGradGradGradGradGradGradGradGrad

[...]
   D17       -3.13767   0.00000   0.00000  -0.00001  -0.00001  -3.13769
   D18        0.00432   0.00000   0.00000  -0.00001  -0.00001   0.00431
   D19        0.00011   0.00000   0.00000   0.00002   0.00002   0.00014
   D20        3.14143   0.00000   0.00000   0.00002   0.00002   3.14145
   D21       -3.14108   0.00000   0.00000   0.00002   0.00002  -3.14106
   D22        0.00023   0.00000   0.00000   0.00002   0.00002   0.00025
         Item               Value     Threshold  Converged?
 Maximum Force            0.000002     0.000015     YES
 RMS     Force            0.000000     0.000010     YES
 Maximum Displacement     0.000031     0.000060     YES
 RMS     Displacement     0.000012     0.000040     YES
 Predicted change in Energy=-5.180182D-11
 Optimization completed.
    -- Stationary point found.
                           ----------------------------
                           !   Optimized Parameters   !
                           ! (Angstroms and Degrees)  !
 --------------------------                            --------------------------
 ! Name  Definition              Value          Derivative Info.                !
 --------------------------------------------------------------------------------
 ! R1    R(1,2)                  1.4148         -DE/DX =    0.0                 !
 ! R2    R(1,9)                  1.4126         -DE/DX =    0.0                 !
 ! R3    R(2,3)                  1.0915         -DE/DX =    0.0                 !
 ! R4    R(2,4)                  1.4007         -DE/DX =    0.0                 !
 ! R5    R(4,5)                  1.0868         -DE/DX =    0.0                 !
 ! R6    R(4,6)                  1.3901         -DE/DX =    0.0                 !
 ! R7    R(6,7)                  1.3903         -DE/DX =    0.0                 !
 ! R8    R(6,11)                 1.3756         -DE/DX =    0.0                 !
 ! R9    R(7,8)                  1.0892         -DE/DX =    0.0                 !
 ! R10   R(7,9)                  1.4029         -DE/DX =    0.0                 !
 ! R11   R(9,10)                 1.0914         -DE/DX =    0.0                 !
 ! R12   R(11,12)                0.9633         -DE/DX =    0.0                 !
 ! A1    A(2,1,9)              112.0439         -DE/DX =    0.0                 !
 ! A2    A(1,2,3)              119.3272         -DE/DX =    0.0                 !
 ! A3    A(1,2,4)              125.1457         -DE/DX =    0.0                 !
 ! A4    A(3,2,4)              115.5271         -DE/DX =    0.0                 !
 ! A5    A(2,4,5)              121.7007         -DE/DX =    0.0                 !
 ! A6    A(2,4,6)              119.3001         -DE/DX =    0.0                 !
 ! A7    A(5,4,6)              118.9991         -DE/DX =    0.0                 !
 ! A8    A(4,6,7)              119.1214         -DE/DX =    0.0                 !
 ! A9    A(4,6,11)             118.3279         -DE/DX =    0.0                 !
 ! A10   A(7,6,11)             122.5506         -DE/DX =    0.0                 !
 ! A11   A(6,7,8)              119.5548         -DE/DX =    0.0                 !
 ! A12   A(6,7,9)              119.4294         -DE/DX =    0.0                 !
 ! A13   A(8,7,9)              121.0158         -DE/DX =    0.0                 !
 ! A14   A(1,9,7)              124.9595         -DE/DX =    0.0                 !
 ! A15   A(1,9,10)             119.5206         -DE/DX =    0.0                 !
 ! A16   A(7,9,10)             115.5199         -DE/DX =    0.0                 !
 ! A17   A(6,11,12)            108.7422         -DE/DX =    0.0                 !
 ! D1    D(9,1,2,3)           -179.9613         -DE/DX =    0.0                 !
 ! D2    D(9,1,2,4)              0.0222         -DE/DX =    0.0                 !
 ! D3    D(2,1,9,7)             -0.0453         -DE/DX =    0.0                 !
 ! D4    D(2,1,9,10)           179.9713         -DE/DX =    0.0                 !
 ! D5    D(1,2,4,5)            179.9552         -DE/DX =    0.0                 !
 ! D6    D(1,2,4,6)              0.0393         -DE/DX =    0.0                 !
 ! D7    D(3,2,4,5)             -0.0607         -DE/DX =    0.0                 !
 ! D8    D(3,2,4,6)           -179.9766         -DE/DX =    0.0                 !
 ! D9    D(2,4,6,7)             -0.0801         -DE/DX =    0.0                 !
 ! D10   D(2,4,6,11)           179.9421         -DE/DX =    0.0                 !
 ! D11   D(5,4,6,7)           -179.9983         -DE/DX =    0.0                 !
 ! D12   D(5,4,6,11)             0.024          -DE/DX =    0.0                 !
 ! D13   D(4,6,7,8)           -179.9635         -DE/DX =    0.0                 !
 ! D14   D(4,6,7,9)              0.059          -DE/DX =    0.0                 !
 ! D15   D(11,6,7,8)             0.0132         -DE/DX =    0.0                 !
 ! D16   D(11,6,7,9)          -179.9643         -DE/DX =    0.0                 !
 ! D17   D(4,6,11,12)         -179.7754         -DE/DX =    0.0                 !
 ! D18   D(7,6,11,12)            0.2476         -DE/DX =    0.0                 !
 ! D19   D(6,7,9,1)              0.0065         -DE/DX =    0.0                 !
 ! D20   D(6,7,9,10)           179.9905         -DE/DX =    0.0                 !
 ! D21   D(8,7,9,1)           -179.9706         -DE/DX =    0.0                 !
 ! D22   D(8,7,9,10)             0.0134         -DE/DX =    0.0                 !
 --------------------------------------------------------------------------------
 GradGradGradGradGradGradGradGradGradGradGradGradGradGradGradGradGradGrad


 ----------------------------------------------------------------------

 Electric dipole moment (input orientation):
 (Debye = 10**-18 statcoulomb cm , SI units = C m)
                  (au)            (Debye)         (10**-30 SI)
   Tot        0.199304D+02      0.506581D+02      0.168977D+03
   x         -0.116702D+02     -0.296628D+02     -0.989444D+02
   y         -0.124870D+02     -0.317387D+02     -0.105869D+03
   z         -0.102520D+02     -0.260579D+02     -0.869198D+02

 Dipole polarizability, Alpha (input orientation).
 (esu units = cm**3 , SI units = C**2 m**2 J**-1)
 Alpha(0;0):
               (au)            (10**-24 esu)      (10**-40 SI)
   iso        0.116164D+03      0.172137D+02      0.191528D+02
   aniso      0.671314D+02      0.994785D+01      0.110685D+02
   xx         0.137424D+03      0.203641D+02      0.226581D+02
   yx         0.741913D+01      0.109940D+01      0.122325D+01
   yy         0.102097D+03      0.151293D+02      0.168336D+02
   zx         0.197046D+02      0.291991D+01      0.324884D+01
   zy        -0.266101D+02     -0.394321D+01     -0.438741D+01
   zz         0.108970D+03      0.161477D+02      0.179668D+02

 ----------------------------------------------------------------------

 Dipole orientation:
     6          0.30958734         -0.53866978        -20.18065841
     6         -1.35437352          0.35453576        -18.28819131
     1         -1.81940560          2.36274505        -18.21770561
     6         -2.50018993         -1.14736468        -16.43421769
     1         -3.76371669         -0.34761801        -15.02653956
     6         -2.01001187         -3.72767281        -16.38622931
     6         -0.39422021         -4.75588168        -18.18480967
     1         -0.00170653         -6.77620615        -18.16026206
     6          0.70657098         -3.17246447        -20.00390100
     1          1.95394695         -4.10512057        -21.35577496
     8         -3.15355809         -5.16653771        -14.54780836
     1         -2.63137599         -6.89852090        -14.75146609

 Electric dipole moment (dipole orientation):
 (Debye = 10**-18 statcoulomb cm , SI units = C m)
                  (au)            (Debye)         (10**-30 SI)
   Tot        0.199304D+02      0.506581D+02      0.168977D+03
   x          0.000000D+00      0.000000D+00      0.000000D+00
   y          0.000000D+00      0.000000D+00      0.000000D+00
   z          0.199304D+02      0.506581D+02      0.168977D+03

 Dipole polarizability, Alpha (dipole orientation).
 (esu units = cm**3 , SI units = C**2 m**2 J**-1)
 Alpha(0;0):
               (au)            (10**-24 esu)      (10**-40 SI)
   iso        0.116164D+03      0.172137D+02      0.191528D+02
   aniso      0.671314D+02      0.994785D+01      0.110685D+02
   xx         0.974134D+02      0.144352D+02      0.160613D+02
   yx        -0.133687D+01     -0.198104D+00     -0.220421D+00
   yy         0.134888D+03      0.199883D+02      0.222400D+02
   zx        -0.306385D+02     -0.454015D+01     -0.505160D+01
   zy        -0.145127D+02     -0.215056D+01     -0.239282D+01
   zz         0.116190D+03      0.172176D+02      0.191572D+02

 ----------------------------------------------------------------------
 Unable to Open any file for archive entry.
 1\1\GINC-CN018\Freq\RM062X\6-311+G(d,p)\C6H5O1(1-)\TAHMINAAFROZ\27-May
 -2025\0\\#N Geom=AllCheck Guess=TCheck SCRF=Check GenChk RM062X/6-311+
 G(d,p) Freq\\4-OH-ph-anion-opt-freq-thf\\-1,1\C,6.3108430675,6.8622606
 272,5.2187029517\C,5.1577761218,6.0979866327,5.5152995785\H,5.20300662
 01,5.3469902737,6.3060180718\C,3.9217102669,6.2189615043,4.86773859\H,
 3.0708036497,5.6007202759,5.14123201\C,3.7767238169,7.1517243302,3.847
 3033184\C,4.8636735536,7.9439685863,3.4953165701\H,4.7577563127,8.6775
 029062,2.697183551\C,6.0809488906,7.7852451268,4.174360419\H,6.8909142
 67,8.4391572861,3.8466160643\O,2.5544872206,7.2528539069,3.22417144\H,
 2.6093272125,7.9323925438,2.5435754352\\Version=AS64L-G16RevC.01\HF=-3
 06.8698768\RMSD=1.950e-09\RMSF=6.861e-06\ZeroPoint=0.0912891\Thermal=0
 .096841\ETot=-306.7730357\HTot=-306.7720915\GTot=-306.8076121\Dipole=-
 3.0454564,0.8714906,-2.1901519\DipoleDeriv=-0.5103014,-0.1008553,0.227
 4945,-0.1137806,-0.911977,0.0781002,0.2408006,0.0868174,-0.7726168,0.1
 590707,0.2638196,-0.1039657,0.1934202,0.0794737,-0.2365044,-0.0397793,
 -0.2112753,-0.0229885,0.0644116,-0.0185467,0.0006136,-0.0598334,-0.088
 7249,0.1753252,0.0429266,0.1940288,-0.074458,-0.3188667,-0.1177989,0.0
 500214,0.1999678,-0.0699079,-0.0146241,-0.2676223,-0.1466936,-0.135516
 4,-0.1145897,-0.1404571,0.0109955,-0.1360099,0.0719818,0.0724568,0.005
 1441,0.0699189,0.1294573,1.3168326,-0.1830931,0.7436034,-0.2051469,0.0
 288131,-0.0793757,0.7588408,-0.0739,0.4291052,-0.2773833,0.2637305,-0.
 3181881,-0.0771984,-0.1007018,-0.1135876,0.0303676,0.0319675,-0.188124
 2,0.0471132,0.0353338,-0.1027502,0.0352675,0.0285684,0.193758,-0.10108
 77,0.1928222,-0.0374538,-0.0223437,0.0313952,0.0443024,0.1251116,0.117
 1819,-0.2912494,-0.0427124,-0.3299149,0.0911034,-0.06204,-0.1651454,0.
 098206,-0.1254248,-0.0620747,0.1189204,0.0574154,0.1021952,0.0255595,-
 1.6291496,0.2215511,-0.7287717,0.2465238,-0.407949,0.0633861,-0.755126
 3,0.0535461,-0.8242904,0.3472464,-0.0899336,0.0784388,-0.0828969,0.315
 3164,0.0333944,0.0708327,0.0304876,0.3802225\Polar=137.423798,7.419127
 5,102.0973876,19.7045537,-26.6101055,108.9704069\Quadrupole=-10.432700
 4,-20.529553,30.9622533,-147.2861801,-120.3005265,-133.0194446\PG=C01 
 [X(C6H5O1)]\NImag=0\\0.35935774,0.09477682,0.30071601,0.02028957,-0.19
 322686,0.28321243,-0.22317686,-0.08180664,0.01426068,0.55927209,-0.097
 38120,-0.13404471,0.03969226,0.08056651,0.42012256,0.03033401,0.046251
 68,-0.09353519,0.09203482,-0.25162296,0.44231949,0.00153007,-0.0165273
 3,0.01845493,-0.05426228,0.00734969,-0.01337407,0.05894588,-0.00120165
 ,-0.01127394,0.00908307,0.01092826,-0.16807811,0.13625045,-0.00385785,
 0.17512165,0.00272278,0.00259223,-0.00348293,-0.01707386,0.13476051,-0
 .18565934,0.01772927,-0.15492357,0.19267410,-0.04582379,-0.03916763,0.
 01295334,-0.26981822,0.02858698,-0.11700274,-0.00036191,-0.00187530,-0
 .00033339,0.66157634,-0.00379694,0.03458813,-0.01798986,-0.02332058,-0
 .09797443,0.02711340,0.01943473,0.00009839,0.01321813,0.13466072,0.435
 62957,-0.02344470,-0.03303227,0.04254500,-0.06362290,0.04917218,-0.138
 62086,-0.02223635,0.00422735,-0.00877791,0.08967434,-0.26398350,0.4322
 1109,-0.00310970,0.00005064,-0.00425921,-0.01443426,-0.01672504,0.0098
 2353,0.00068153,0.00114203,0.00083322,-0.22293721,-0.12939100,0.052774
 04,0.23384685,-0.00055006,0.00397873,0.00268805,0.00377474,0.00509893,
 -0.00070280,0.00054748,-0.00154593,-0.00232773,-0.12724905,-0.13788432
 ,0.05296949,0.14093757,0.13863378,-0.00366190,0.00292139,0.00228083,-0
 .01112670,-0.00939487,0.00777060,0.00143643,-0.00208084,-0.00129127,0.
 05048498,0.05207822,-0.06560428,-0.05545452,-0.05881015,0.05977696,-0.
 00868724,-0.02281942,0.02195096,0.02970296,0.02852482,-0.01738772,-0.0
 0327706,-0.00082823,-0.00396325,-0.11962284,0.02020991,-0.04390022,0.0
 0299598,-0.01894026,0.01879515,0.63800515,-0.02311382,-0.04590154,0.03
 216392,0.07362041,0.01401507,0.01849596,-0.00158788,0.00528154,0.00219
 751,-0.03832267,-0.19592861,0.11726860,0.00233398,-0.00700822,0.012880
 20,0.10991606,0.45244328,0.02224024,0.03225495,-0.02878414,-0.06362984
 ,-0.00058976,-0.02475048,-0.00318264,0.00253660,0.00413441,0.01611771,
 0.14200018,-0.20614406,-0.00305579,0.00384600,-0.00069013,0.09534076,-
 0.26521508,0.46277177,0.02412556,0.05655895,-0.05597672,-0.06805584,-0
 .01598884,-0.00997210,-0.00142730,-0.00003672,0.00007135,0.04031018,-0
 .04110103,0.05619194,0.00219868,0.00047245,-0.00220947,-0.23178006,-0.
 07140921,0.00167024,0.61945533,0.02044140,0.01955632,0.00809077,-0.019
 70800,-0.00956266,-0.00419003,-0.00023149,-0.00046180,-0.00113936,-0.0
 0449849,-0.02467779,0.03087715,-0.00012717,0.00078790,0.00560012,-0.13
 244868,-0.17117057,0.05422702,0.10730036,0.43645662,-0.01875621,0.0234
 6712,-0.01303815,-0.00626188,-0.00254874,-0.00541769,0.00025454,-0.001
 05815,-0.00028341,0.01865189,0.01547215,-0.00058636,-0.00159900,0.0058
 3371,-0.00041160,0.06428175,0.07972764,-0.11846343,0.10181685,-0.28113
 274,0.44960059,-0.00360321,-0.00076944,-0.00353167,-0.00166246,-0.0002
 2625,-0.00028090,0.00011455,0.00039764,0.00030330,-0.00288690,-0.00414
 175,0.00041457,0.00022277,-0.00089756,0.00087589,0.00431871,-0.0158653
 9,0.01652411,-0.05814079,0.01118564,-0.02227988,0.05533321,-0.00002656
 ,0.00398921,0.00265915,-0.00028282,0.00005329,-0.00065139,0.00035153,-
 0.00079072,-0.00065017,-0.00469381,0.00184909,0.00245453,0.00017287,-0
 .00037567,0.00081470,0.00554930,-0.00805058,0.01451205,0.00986136,-0.1
 6988187,0.14485380,-0.01078397,0.17488432,-0.00428076,0.00235534,0.002
 36285,-0.00022650,-0.00062947,0.00009266,0.00035150,-0.00063300,-0.000
 77078,0.00097138,0.00267475,0.00383386,-0.00022779,0.00035428,-0.00011
 840,-0.00548583,0.00547877,-0.00414138,-0.02098664,0.14541849,-0.19072
 195,0.02500023,-0.16065090,0.19802283,-0.10534970,0.00363158,-0.022405
 83,0.03993605,-0.01113727,0.02848782,-0.00135623,-0.00518304,0.0004810
 7,-0.02550140,0.02027316,-0.02968126,-0.00031918,0.00083591,-0.0008173
 2,-0.05558361,-0.04603064,0.02308363,-0.26056420,0.03124297,-0.1162876
 7,0.00357320,-0.00133400,0.00170599,0.60796082,0.01944350,-0.16156712,
 0.11612787,-0.03284899,-0.02994849,0.01603514,-0.00597212,0.00262287,0
 .00507476,0.01580892,-0.01787602,0.02017933,0.00083820,-0.00020261,0.0
 0008062,-0.00078461,0.03113900,-0.03113314,-0.02065399,-0.09592043,0.0
 2845149,0.01956293,0.00082707,0.01030305,0.12769991,0.41006784,-0.0386
 9575,0.10947346,-0.18431303,0.05075445,0.02502436,-0.00520354,0.001321
 66,0.00539562,0.00502954,-0.02504699,0.02216534,-0.03821267,-0.0008088
 6,0.00007533,-0.00090246,-0.02326236,-0.05009606,0.04310414,-0.0630505
 1,0.05030570,-0.13803931,-0.01978145,0.00149370,-0.00707586,0.06487809
 ,-0.22341892,0.39528817,0.00703302,0.00352115,0.00035318,0.00344537,-0
 .00109567,-0.00178621,0.00004556,0.00012050,-0.00006928,-0.00007216,0.
 00107941,-0.00048730,-0.00010663,0.00021636,0.00042479,-0.00168869,0.0
 0079080,-0.00478418,-0.02030490,-0.01882828,0.00866142,0.00072649,0.00
 114110,0.00078239,-0.20363777,-0.11736658,0.05057422,0.21677017,-0.011
 75990,-0.01261237,0.00561733,-0.00187879,0.00179115,0.00796335,-0.0008
 2846,-0.00065933,0.00024992,0.00089458,-0.00078968,-0.00039446,0.00018
 026,-0.00076655,-0.00081832,-0.00005962,0.00470372,0.00300370,0.002372
 19,0.00416408,0.00168792,0.00058346,-0.00146077,-0.00222715,-0.1209101
 4,-0.13724407,0.04967708,0.13160533,0.14275914,0.01599219,0.01209347,-
 0.00788125,-0.00097305,0.00829186,0.00140035,0.00090133,0.00064596,-0.
 00036313,-0.00029692,-0.00032008,-0.00134142,0.00046353,-0.00080262,-0
 .00061765,-0.00389513,0.00338174,0.00253533,-0.01310942,-0.00732560,0.
 00679914,0.00135627,-0.00199540,-0.00125739,0.05424729,0.05120744,-0.0
 6819084,-0.05386773,-0.06476240,0.06863716,-0.00242551,0.00306573,-0.0
 0275292,-0.00204554,-0.00332857,0.00023500,-0.00025077,0.00032669,-0.0
 0054872,-0.00879785,0.00691930,-0.01330929,0.00091767,0.00064396,0.001
 19243,-0.25219052,-0.02169607,-0.06803489,-0.04774952,0.00399451,-0.02
 751002,0.00261382,0.00142052,0.00124738,0.00172848,-0.00593302,0.00346
 570,-0.00244521,-0.00024503,-0.00089583,0.35517618,0.00296829,0.002390
 97,-0.00459508,-0.00783833,-0.00189410,0.00429625,0.00121763,-0.000270
 19,0.00104134,0.03551409,0.00109512,0.02050446,0.00047329,-0.00060913,
 -0.00280736,0.00974690,-0.07483563,0.04155900,-0.02455257,0.00838500,-
 0.01129944,0.00042545,-0.00078575,-0.00301332,0.00119177,-0.00105297,0
 .00974071,-0.00098430,0.00017211,-0.00032851,0.03680786,0.33169950,-0.
 00267159,-0.00452538,0.00023183,0.00484839,0.00621846,0.00119261,-0.00
 146570,0.00066754,-0.00106401,-0.04263768,0.00830264,-0.02006209,0.001
 35331,-0.00269760,-0.00008658,-0.10069320,0.02824802,-0.11024169,0.001
 86533,0.00081685,0.00726540,0.00221957,-0.00259124,-0.00017671,-0.0038
 3174,0.00670396,-0.00061530,-0.00013528,-0.00001613,0.00021793,0.10219
 006,-0.30351101,0.38088428,0.00012963,-0.00051441,0.00066368,0.0010989
 8,0.00085485,-0.00111144,-0.00038203,0.00006765,-0.00015248,-0.0060642
 4,-0.00082593,-0.00237287,0.00004350,0.00020847,0.00006024,-0.00219278
 ,0.03136442,-0.03228936,0.00193287,0.00167723,-0.00097178,-0.00060939,
 -0.00137552,0.00114865,-0.00088646,0.00020585,-0.00034819,0.00023474,0
 .00004611,0.00007747,-0.04453123,-0.05497010,0.03895854,0.05122642,0.0
 0020012,0.00018030,-0.00031063,-0.00120576,0.00042149,0.00076095,0.000
 10406,-0.00004443,-0.00009360,0.00034165,0.00187055,-0.00024286,0.0001
 1437,-0.00010691,-0.00046370,0.00193381,-0.00468745,0.00299846,-0.0028
 2295,0.00232519,-0.00345476,0.00052925,-0.00025761,0.00056917,-0.00028
 021,-0.00084505,0.00016368,-0.00019981,-0.00005742,-0.00008584,-0.0219
 7589,-0.26429493,0.26238390,0.02326137,0.26549626,-0.00006787,-0.00062
 514,0.00040174,0.00101640,0.00162616,0.00041139,-0.00019090,-0.0001110
 3,-0.00014529,-0.00353593,-0.00073137,0.00075969,0.00015755,-0.0004259
 4,-0.00010602,-0.00178091,0.01546878,-0.01933033,0.00368916,-0.0015483
 7,0.00329677,-0.00082005,-0.00024884,-0.00004973,0.00013993,0.00038839
 ,-0.00086884,0.00033398,0.00001916,0.00006177,0.00472111,0.24841297,-0
 .25754568,-0.00366246,-0.26222478,0.27311454\\0.00000495,0.00000921,-0
 .00000369,0.00000657,0.00000530,0.00000220,0.00001267,0.00000963,0.000
 00450,0.00000546,-0.00000021,0.00000446,0.00000852,-0.00000268,0.00000
 981,-0.00000116,-0.00000441,0.00000258,-0.00000577,-0.00000156,-0.0000
 0320,-0.00001051,-0.00000447,-0.00000555,-0.00000280,0.00000632,-0.000
 00841,-0.00000594,0.00000658,-0.00001222,-0.00000360,-0.00001077,0.000
 00608,-0.00000837,-0.00001294,0.00000345\\\@
 The archive entry for this job was punched.


 WE ARE PERHAPS NOT FAR REMOVED FROM THE TIME WHEN WE SHALL BE ABLE TO SUBMIT
 THE BULK OF CHEMICAL PHENOMENA TO CALCULATION.

            -- JOSEPH LOUIS GAY-LUSSAC
               MEMOIRES DE LA SOCIETE D'ARCUEIL, 2, 207 (1808)
 Job cpu time:       0 days  0 hours 17 minutes  8.9 seconds.
 Elapsed time:       0 days  0 hours  0 minutes 34.4 seconds.
 File lengths (MBytes):  RWF=     67 Int=      0 D2E=      0 Chk=     10 Scr=      1
 Normal termination of Gaussian 16 at Tue May 27 08:00:37 2025.
