/home/tahminaafroz
cn007.cluster.local
tahminaafroz
Tue May 13 14:34:34 CDT 2025
 Entering Gaussian System, Link 0=g16
 Initial command:
 /home/apps/g16/l1.exe "/tmp/2-6-diMe-phboh2-opt-freq-thf-non-tight-2/Gau-2319818.inp" -scrdir="/tmp/2-6-diMe-phboh2-opt-freq-thf-non-tight-2/"
 Entering Link 1 = /home/apps/g16/l1.exe PID=   2319819.
  
 Copyright (c) 1988-2019, Gaussian, Inc.  All Rights Reserved.
  
 This is part of the Gaussian(R) 16 program.  It is based on
 the Gaussian(R) 09 system (copyright 2009, Gaussian, Inc.),
 the Gaussian(R) 03 system (copyright 2003, Gaussian, Inc.),
 the Gaussian(R) 98 system (copyright 1998, Gaussian, Inc.),
 the Gaussian(R) 94 system (copyright 1995, Gaussian, Inc.),
 the Gaussian 92(TM) system (copyright 1992, Gaussian, Inc.),
 the Gaussian 90(TM) system (copyright 1990, Gaussian, Inc.),
 the Gaussian 88(TM) system (copyright 1988, Gaussian, Inc.),
 the Gaussian 86(TM) system (copyright 1986, Carnegie Mellon
 University), and the Gaussian 82(TM) system (copyright 1983,
 Carnegie Mellon University). Gaussian is a federally registered
 trademark of Gaussian, Inc.
  
 This software contains proprietary and confidential information,
 including trade secrets, belonging to Gaussian, Inc.
  
 This software is provided under written license and may be
 used, copied, transmitted, or stored only in accord with that
 written license.
  
 The following legend is applicable only to US Government
 contracts under FAR:
  
                    RESTRICTED RIGHTS LEGEND
  
 Use, reproduction and disclosure by the US Government is
 subject to restrictions as set forth in subparagraphs (a)
 and (c) of the Commercial Computer Software - Restricted
 Rights clause in FAR 52.227-19.
  
 Gaussian, Inc.
 340 Quinnipiac St., Bldg. 40, Wallingford CT 06492
  
  
 ---------------------------------------------------------------
 Warning -- This program may not be used in any manner that
 competes with the business of Gaussian, Inc. or will provide
 assistance to any competitor of Gaussian, Inc.  The licensee
 of this program is prohibited from giving any competitor of
 Gaussian, Inc. access to this program.  By using this program,
 the user acknowledges that Gaussian, Inc. is engaged in the
 business of creating and licensing software in the field of
 computational chemistry and represents and warrants to the
 licensee that it is not a competitor of Gaussian, Inc. and that
 it will not use this program in any manner prohibited above.
 ---------------------------------------------------------------
  

 Cite this work as:
 Gaussian 16, Revision C.01,
 M. J. Frisch, G. W. Trucks, H. B. Schlegel, G. E. Scuseria, 
 M. A. Robb, J. R. Cheeseman, G. Scalmani, V. Barone, 
 G. A. Petersson, H. Nakatsuji, X. Li, M. Caricato, A. V. Marenich, 
 J. Bloino, B. G. Janesko, R. Gomperts, B. Mennucci, H. P. Hratchian, 
 J. V. Ortiz, A. F. Izmaylov, J. L. Sonnenberg, D. Williams-Young, 
 F. Ding, F. Lipparini, F. Egidi, J. Goings, B. Peng, A. Petrone, 
 T. Henderson, D. Ranasinghe, V. G. Zakrzewski, J. Gao, N. Rega, 
 G. Zheng, W. Liang, M. Hada, M. Ehara, K. Toyota, R. Fukuda, 
 J. Hasegawa, M. Ishida, T. Nakajima, Y. Honda, O. Kitao, H. Nakai, 
 T. Vreven, K. Throssell, J. A. Montgomery, Jr., J. E. Peralta, 
 F. Ogliaro, M. J. Bearpark, J. J. Heyd, E. N. Brothers, K. N. Kudin, 
 V. N. Staroverov, T. A. Keith, R. Kobayashi, J. Normand, 
 K. Raghavachari, A. P. Rendell, J. C. Burant, S. S. Iyengar, 
 J. Tomasi, M. Cossi, J. M. Millam, M. Klene, C. Adamo, R. Cammi, 
 J. W. Ochterski, R. L. Martin, K. Morokuma, O. Farkas, 
 J. B. Foresman, and D. J. Fox, Gaussian, Inc., Wallingford CT, 2019.
 
 ******************************************
 Gaussian 16:  AS64L-G16RevC.01  3-Jul-2019
                13-May-2025 
 ******************************************
 %mem=20GB
 %nprocshared=32
 Will use up to   32 processors via shared memory.
 %chk=2-6-diMe-phboh2-opt-freq-thf-non-tight-2.chk
 ----------------------------------------------------------------------
 # opt=calcfc freq 6-311+g(d,p) scrf=(smd,solvent=thf) nosymm scf=(qc,f
 ermi,xqc) geom=connectivity int=ultrafine m062x
 ----------------------------------------------------------------------
 1/10=4,18=20,19=15,26=6,38=1,57=2/1,3;
 2/9=110,12=2,15=1,17=6,18=5,40=1/2;
 3/5=4,6=6,7=111,11=2,25=1,30=1,70=32201,71=2,72=20,74=-55,75=-5,140=1/1,2,3;
 4//1;
 5/5=2,22=13,38=5,53=20/2;
 8/6=4,10=90,11=11/1;
 11/6=1,8=1,9=11,15=111,16=1,31=1/1,2,10;
 10/6=1,13=1,31=1/2;
 6/7=2,8=2,9=2,10=2,28=1/1;
 7/10=1,25=1,30=1/1,2,3,16;
 1/10=4,18=20,19=15,26=6/3(2);
 2/9=110,15=1/2;
 99//99;
 2/9=110,15=1/2;
 3/5=4,6=6,7=111,11=2,25=1,30=1,70=32205,71=1,72=20,74=-55,75=-5/1,2,3;
 4/5=5,16=3,69=1/1;
 5/5=2,22=13,38=5,53=20/2;
 7/30=1/1,2,3,16;
 1/18=20,19=15,26=6/3(-5);
 2/9=110,15=1/2;
 6/7=2,8=2,9=2,10=2,19=2,28=1/1;
 99/9=1/99;
 ----------------------------------------
 2-6-diMe-phboh2-opt-freq-thf-non-tight-2
 ----------------------------------------
 Symbolic Z-matrix:
 Charge =  0 Multiplicity = 1
 O                     8.73724   6.51087   4.9006 
 H                     9.53923   6.25459   5.37228 
 C                     6.24775   6.97818   5.1418 
 B                     7.6496    6.54893   5.72223 
 O                     7.83864   6.2099    7.03574 
 H                     7.03569   6.2747    7.56268 
 C                     5.14533   6.10883   5.22848 
 C                     3.91085   6.50626   4.70932 
 H                     3.06562   5.82768   4.76472 
 C                     3.76058   7.75692   4.12375 
 C                     4.84723   8.62152   4.04362 
 H                     4.72915   9.59951   3.5884 
 C                     6.09455   8.2424    4.54021 
 H                     2.79709   8.05866   3.7276 
 C                     7.26211   9.1923    4.42457 
 H                     7.80411   9.27761   5.37029 
 H                     7.97548   8.84219   3.67449 
 H                     6.92296   10.18838   4.13619 
 C                     5.26607   4.7489    5.8769 
 H                     6.2336    4.2838    5.67506 
 H                     5.15001   4.81606   6.96376 
 H                     4.48715   4.07828   5.51046 
 

 GradGradGradGradGradGradGradGradGradGradGradGradGradGradGradGradGradGrad
 Berny optimization.
 Initialization pass.
                           ----------------------------
                           !    Initial Parameters    !
                           ! (Angstroms and Degrees)  !
 --------------------------                            --------------------------
 ! Name  Definition              Value          Derivative Info.                !
 --------------------------------------------------------------------------------
 ! R1    R(1,2)                  0.9651         calculate D2E/DX2 analytically  !
 ! R2    R(1,4)                  1.3636         calculate D2E/DX2 analytically  !
 ! R3    R(3,4)                  1.5768         calculate D2E/DX2 analytically  !
 ! R4    R(3,7)                  1.4066         calculate D2E/DX2 analytically  !
 ! R5    R(3,13)                 1.4084         calculate D2E/DX2 analytically  !
 ! R6    R(4,5)                  1.3697         calculate D2E/DX2 analytically  !
 ! R7    R(5,6)                  0.9626         calculate D2E/DX2 analytically  !
 ! R8    R(7,8)                  1.3969         calculate D2E/DX2 analytically  !
 ! R9    R(7,19)                 1.5114         calculate D2E/DX2 analytically  !
 ! R10   R(8,9)                  1.0853         calculate D2E/DX2 analytically  !
 ! R11   R(8,10)                 1.3891         calculate D2E/DX2 analytically  !
 ! R12   R(10,11)                1.391          calculate D2E/DX2 analytically  !
 ! R13   R(10,14)                1.0846         calculate D2E/DX2 analytically  !
 ! R14   R(11,12)                1.0852         calculate D2E/DX2 analytically  !
 ! R15   R(11,13)                1.395          calculate D2E/DX2 analytically  !
 ! R16   R(13,15)                1.5096         calculate D2E/DX2 analytically  !
 ! R17   R(15,16)                1.0934         calculate D2E/DX2 analytically  !
 ! R18   R(15,17)                1.0927         calculate D2E/DX2 analytically  !
 ! R19   R(15,18)                1.091          calculate D2E/DX2 analytically  !
 ! R20   R(19,20)                1.0923         calculate D2E/DX2 analytically  !
 ! R21   R(19,21)                1.0951         calculate D2E/DX2 analytically  !
 ! R22   R(19,22)                1.0912         calculate D2E/DX2 analytically  !
 ! A1    A(2,1,4)              112.0713         calculate D2E/DX2 analytically  !
 ! A2    A(4,3,7)              120.3869         calculate D2E/DX2 analytically  !
 ! A3    A(4,3,13)             119.8871         calculate D2E/DX2 analytically  !
 ! A4    A(7,3,13)             119.7248         calculate D2E/DX2 analytically  !
 ! A5    A(1,4,3)              119.6636         calculate D2E/DX2 analytically  !
 ! A6    A(1,4,5)              117.4407         calculate D2E/DX2 analytically  !
 ! A7    A(3,4,5)              122.8952         calculate D2E/DX2 analytically  !
 ! A8    A(4,5,6)              113.1525         calculate D2E/DX2 analytically  !
 ! A9    A(3,7,8)              119.5943         calculate D2E/DX2 analytically  !
 ! A10   A(3,7,19)             121.3265         calculate D2E/DX2 analytically  !
 ! A11   A(8,7,19)             119.0791         calculate D2E/DX2 analytically  !
 ! A12   A(7,8,9)              119.4299         calculate D2E/DX2 analytically  !
 ! A13   A(7,8,10)             120.558          calculate D2E/DX2 analytically  !
 ! A14   A(9,8,10)             120.0119         calculate D2E/DX2 analytically  !
 ! A15   A(8,10,11)            119.9606         calculate D2E/DX2 analytically  !
 ! A16   A(8,10,14)            120.0375         calculate D2E/DX2 analytically  !
 ! A17   A(11,10,14)           120.0018         calculate D2E/DX2 analytically  !
 ! A18   A(10,11,12)           119.9563         calculate D2E/DX2 analytically  !
 ! A19   A(10,11,13)           120.6021         calculate D2E/DX2 analytically  !
 ! A20   A(12,11,13)           119.4413         calculate D2E/DX2 analytically  !
 ! A21   A(3,13,11)            119.5537         calculate D2E/DX2 analytically  !
 ! A22   A(3,13,15)            120.8916         calculate D2E/DX2 analytically  !
 ! A23   A(11,13,15)           119.5547         calculate D2E/DX2 analytically  !
 ! A24   A(13,15,16)           111.4839         calculate D2E/DX2 analytically  !
 ! A25   A(13,15,17)           110.8474         calculate D2E/DX2 analytically  !
 ! A26   A(13,15,18)           110.7512         calculate D2E/DX2 analytically  !
 ! A27   A(16,15,17)           107.1638         calculate D2E/DX2 analytically  !
 ! A28   A(16,15,18)           108.1493         calculate D2E/DX2 analytically  !
 ! A29   A(17,15,18)           108.3009         calculate D2E/DX2 analytically  !
 ! A30   A(7,19,20)            111.9995         calculate D2E/DX2 analytically  !
 ! A31   A(7,19,21)            111.2314         calculate D2E/DX2 analytically  !
 ! A32   A(7,19,22)            110.6025         calculate D2E/DX2 analytically  !
 ! A33   A(20,19,21)           107.66           calculate D2E/DX2 analytically  !
 ! A34   A(20,19,22)           107.9712         calculate D2E/DX2 analytically  !
 ! A35   A(21,19,22)           107.1765         calculate D2E/DX2 analytically  !
 ! D1    D(2,1,4,3)            178.6748         calculate D2E/DX2 analytically  !
 ! D2    D(2,1,4,5)             -1.0855         calculate D2E/DX2 analytically  !
 ! D3    D(7,3,4,1)            121.7693         calculate D2E/DX2 analytically  !
 ! D4    D(7,3,4,5)            -58.484          calculate D2E/DX2 analytically  !
 ! D5    D(13,3,4,1)           -58.6318         calculate D2E/DX2 analytically  !
 ! D6    D(13,3,4,5)           121.115          calculate D2E/DX2 analytically  !
 ! D7    D(4,3,7,8)            179.9701         calculate D2E/DX2 analytically  !
 ! D8    D(4,3,7,19)             0.1198         calculate D2E/DX2 analytically  !
 ! D9    D(13,3,7,8)             0.3705         calculate D2E/DX2 analytically  !
 ! D10   D(13,3,7,19)         -179.4797         calculate D2E/DX2 analytically  !
 ! D11   D(4,3,13,11)         -179.2207         calculate D2E/DX2 analytically  !
 ! D12   D(4,3,13,15)            0.8261         calculate D2E/DX2 analytically  !
 ! D13   D(7,3,13,11)            0.3809         calculate D2E/DX2 analytically  !
 ! D14   D(7,3,13,15)         -179.5723         calculate D2E/DX2 analytically  !
 ! D15   D(1,4,5,6)            178.8538         calculate D2E/DX2 analytically  !
 ! D16   D(3,4,5,6)             -0.8983         calculate D2E/DX2 analytically  !
 ! D17   D(3,7,8,9)            179.1166         calculate D2E/DX2 analytically  !
 ! D18   D(3,7,8,10)            -0.7651         calculate D2E/DX2 analytically  !
 ! D19   D(19,7,8,9)            -1.0298         calculate D2E/DX2 analytically  !
 ! D20   D(19,7,8,10)          179.0885         calculate D2E/DX2 analytically  !
 ! D21   D(3,7,19,20)          -36.4373         calculate D2E/DX2 analytically  !
 ! D22   D(3,7,19,21)           84.092          calculate D2E/DX2 analytically  !
 ! D23   D(3,7,19,22)         -156.9272         calculate D2E/DX2 analytically  !
 ! D24   D(8,7,19,20)          143.7117         calculate D2E/DX2 analytically  !
 ! D25   D(8,7,19,21)          -95.759          calculate D2E/DX2 analytically  !
 ! D26   D(8,7,19,22)           23.2219         calculate D2E/DX2 analytically  !
 ! D27   D(7,8,10,11)            0.3999         calculate D2E/DX2 analytically  !
 ! D28   D(7,8,10,14)         -179.7086         calculate D2E/DX2 analytically  !
 ! D29   D(9,8,10,11)         -179.4811         calculate D2E/DX2 analytically  !
 ! D30   D(9,8,10,14)            0.4104         calculate D2E/DX2 analytically  !
 ! D31   D(8,10,11,12)        -179.846          calculate D2E/DX2 analytically  !
 ! D32   D(8,10,11,13)           0.3677         calculate D2E/DX2 analytically  !
 ! D33   D(14,10,11,12)          0.2625         calculate D2E/DX2 analytically  !
 ! D34   D(14,10,11,13)       -179.5237         calculate D2E/DX2 analytically  !
 ! D35   D(10,11,13,3)          -0.7543         calculate D2E/DX2 analytically  !
 ! D36   D(10,11,13,15)        179.1996         calculate D2E/DX2 analytically  !
 ! D37   D(12,11,13,3)         179.4584         calculate D2E/DX2 analytically  !
 ! D38   D(12,11,13,15)         -0.5877         calculate D2E/DX2 analytically  !
 ! D39   D(3,13,15,16)         -47.3135         calculate D2E/DX2 analytically  !
 ! D40   D(3,13,15,17)          71.9771         calculate D2E/DX2 analytically  !
 ! D41   D(3,13,15,18)        -167.7845         calculate D2E/DX2 analytically  !
 ! D42   D(11,13,15,16)        132.7333         calculate D2E/DX2 analytically  !
 ! D43   D(11,13,15,17)       -107.9762         calculate D2E/DX2 analytically  !
 ! D44   D(11,13,15,18)         12.2623         calculate D2E/DX2 analytically  !
 --------------------------------------------------------------------------------
 Trust Radius=3.00D-01 FncErr=5.00D-06 GrdErr=5.00D-06 EigMax=2.50D+02 EigMin=1.00D-04
 Number of steps in this run=    111 maximum allowed number of steps=    132.
 GradGradGradGradGradGradGradGradGradGradGradGradGradGradGradGradGradGrad

                          Input orientation:                          
 ---------------------------------------------------------------------
 Center     Atomic      Atomic             Coordinates (Angstroms)
 Number     Number       Type             X           Y           Z
 ---------------------------------------------------------------------
      1          8           0        8.737241    6.510870    4.900604
      2          1           0        9.539233    6.254591    5.372277
      3          6           0        6.247750    6.978179    5.141795
      4          5           0        7.649597    6.548926    5.722231
      5          8           0        7.838641    6.209898    7.035743
      6          1           0        7.035692    6.274695    7.562684
      7          6           0        5.145327    6.108832    5.228480
      8          6           0        3.910850    6.506262    4.709319
      9          1           0        3.065618    5.827681    4.764720
     10          6           0        3.760576    7.756915    4.123753
     11          6           0        4.847234    8.621518    4.043622
     12          1           0        4.729148    9.599513    3.588401
     13          6           0        6.094554    8.242400    4.540207
     14          1           0        2.797086    8.058665    3.727598
     15          6           0        7.262109    9.192305    4.424570
     16          1           0        7.804114    9.277608    5.370293
     17          1           0        7.975480    8.842192    3.674492
     18          1           0        6.922964   10.188383    4.136187
     19          6           0        5.266067    4.748899    5.876895
     20          1           0        6.233596    4.283798    5.675060
     21          1           0        5.150009    4.816055    6.963763
     22          1           0        4.487146    4.078276    5.510463
 ---------------------------------------------------------------------
                    Distance matrix (angstroms):
                    1          2          3          4          5
     1  O    0.000000
     2  H    0.965062   0.000000
     3  C    2.544428   3.377952   0.000000
     4  B    1.363631   1.944177   1.576813   0.000000
     5  O    2.335998   2.379313   2.590025   1.369668   0.000000
     6  H    3.168236   3.326560   2.641296   1.959426   0.962597
     7  C    3.629185   4.398674   1.406632   2.590143   3.245051
     8  C    4.830182   5.672878   2.422982   3.873763   4.574672
     9  H    5.714238   6.516062   3.404673   4.738131   5.299564
    10  C    5.188769   6.099891   2.798012   4.374798   5.244384
    11  C    4.507927   5.420565   2.422394   3.868670   4.870032
    12  H    5.227466   6.124348   3.404494   4.731631   5.748270
    13  C    3.179918   4.063193   1.408415   2.585187   3.660684
    14  H    6.249564   7.170509   3.882587   5.459371   6.307063
    15  C    3.097211   3.835832   2.538836   2.970105   4.005667
    16  H    2.957393   3.485581   2.786010   2.755620   3.490811
    17  H    2.742023   3.467488   2.934719   3.091683   4.271499
    18  H    4.171335   4.883390   3.431118   4.035985   5.007418
    19  C    4.013320   4.558694   2.544359   2.990858   3.177355
    20  H    3.439167   3.860432   2.746682   2.671720   2.852628
    21  H    4.471829   4.885438   3.033048   3.285146   3.029310
    22  H    4.934850   5.502638   3.412489   4.018713   4.254740
                    6          7          8          9         10
     6  H    0.000000
     7  C    3.008238   0.000000
     8  C    4.237918   1.396930   0.000000
     9  H    4.877490   2.149258   1.085338   0.000000
    10  C    4.974898   2.419532   1.389101   2.148429   0.000000
    11  C    4.762428   2.793983   2.407130   3.391115   1.390965
    12  H    5.671815   3.879165   3.390320   4.286931   2.149395
    13  C    3.727328   2.434515   2.794877   3.880171   2.420038
    14  H    5.988006   3.401284   2.148069   2.474878   1.084576
    15  C    4.290859   3.825551   4.304282   5.389521   3.796257
    16  H    3.796648   4.138889   4.824391   5.892543   4.496284
    17  H    4.753239   4.230355   4.800901   5.863669   4.375509
    18  H    5.202936   4.582121   4.791589   5.855757   3.989096
    19  C    2.881234   1.511436   2.507623   2.691223   3.793174
    20  H    2.858348   2.171293   3.356658   3.639832   4.537061
    21  H    2.458076   2.163909   3.078122   3.194349   4.317967
    22  H    3.940933   2.153108   2.620890   2.374298   3.997906
                   11         12         13         14         15
    11  C    0.000000
    12  H    1.085193   0.000000
    13  C    1.395039   2.147562   0.000000
    14  H    2.149368   2.475167   3.401086   0.000000
    15  C    2.510486   2.698312   1.509595   4.659114   0.000000
    16  H    3.306607   3.568498   2.164092   5.408752   1.093361
    17  H    3.157670   3.334609   2.155712   5.237604   1.092746
    18  H    2.602362   2.336593   2.153217   4.661064   1.091034
    19  C    4.305054   5.390171   3.831145   4.655094   5.083039
    20  H    4.837293   5.905450   4.120407   5.463683   5.168656
    21  H    4.806292   5.869554   4.301817   5.150100   5.482703
    22  H    4.787727   5.851235   4.567832   4.677436   5.918858
                   16         17         18         19         20
    16  H    0.000000
    17  H    1.759174   0.000000
    18  H    1.768885   1.770080   0.000000
    19  C    5.216084   5.380199   5.946710   0.000000
    20  H    5.243810   5.274030   6.140642   1.092323   0.000000
    21  H    5.430366   5.917125   6.324592   1.095108   1.765846
    22  H    6.168872   6.183378   6.719766   1.091204   1.766188
                   21         22
    21  H    0.000000
    22  H    1.759485   0.000000
 Symmetry turned off by external request.
 Stoichiometry    C8H11BO2
 Framework group  C1[X(C8H11BO2)]
 Deg. of freedom    60
 Full point group                 C1      NOp   1
 Rotational constants (GHZ):           1.4977144           1.0361928           0.6720993
 Standard basis: 6-311+G(d,p) (5D, 7F)
   308 basis functions,   484 primitive gaussians,   319 cartesian basis functions
    40 alpha electrons       40 beta electrons
       nuclear repulsion energy       583.2183479539 Hartrees.
 NAtoms=   22 NActive=   22 NUniq=   22 SFac= 1.00D+00 NAtFMM=   60 NAOKFM=F Big=F
 Integral buffers will be    131072 words long.
 Raffenetti 2 integral format.
 Two-electron integral symmetry is turned off.
 Force inversion solution in PCM.
 ------------------------------------------------------------------------------
 Polarizable Continuum Model (PCM)
 =================================
 Model                : PCM.
 Atomic radii         : SMD-Coulomb.
 Polarization charges : Total charges.
 Charge compensation  : None.
 Solution method      : Matrix inversion.
 Cavity type          : VdW (van der Waals Surface) (Alpha=1.000).
 Cavity algorithm     : GePol (No added spheres)
                        Default sphere list used, NSphG=   22.
                        Lebedev-Laikov grids with approx.  5.0 points / Ang**2.
                        Smoothing algorithm: York/Karplus (Gamma=1.0000).
                        Polarization charges: spherical gaussians, with
                                              point-specific exponents (IZeta= 3).
                        Self-potential: point-specific (ISelfS= 7).
                        Self-field    : sphere-specific E.n sum rule (ISelfD= 2).
 1st derivatives      : Analytical E(r).r(x)/FMM algorithm (CHGder, D1EAlg=3).
                        Cavity 1st derivative terms included.
 2nd derivatives      : Analytical E(r).r(xy)/FMM algorithm (CHGder, D2EAlg=3).
                        Cavity 2nd derivative terms included.
 Solvent              : TetraHydroFuran, Eps=   7.425700 Eps(inf)=   1.974025
 ------------------------------------------------------------------------------
 ------------------------------------------------------------------------------
 Atomic radii for non-electrostatic terms: SMD-CDS.
 ------------------------------------------------------------------------------
 Nuclear repulsion after PCM non-electrostatic terms =      583.2136642329 Hartrees.
 One-electron integrals computed using PRISM.
 NBasis=   308 RedAO= T EigKep=  1.07D-06  NBF=   308
 NBsUse=   308 1.00D-06 EigRej= -1.00D+00 NBFU=   308
 ExpMin= 3.15D-02 ExpMax= 8.59D+03 ExpMxC= 1.30D+03 IAcc=3 IRadAn=         5 AccDes= 0.00D+00
 Harris functional with IExCor= 1009 and IRadAn=       5 diagonalized for initial guess.
 HarFok:  IExCor= 1009 AccDes= 0.00D+00 IRadAn=         5 IDoV= 1 UseB2=F ITyADJ=14
 ICtDFT=  3500011 ScaDFX=  1.000000  1.000000  1.000000  1.000000
 FoFCou: FMM=F IPFlag=           0 FMFlag=      100000 FMFlg1=           0
         NFxFlg=           0 DoJE=T BraDBF=F KetDBF=T FulRan=T
         wScrn=  0.000000 ICntrl=       500 IOpCl=  0 I1Cent=   200000004 NGrid=           0
         NMat0=    1 NMatS0=      1 NMatT0=    0 NMatD0=    1 NMtDS0=    0 NMtDT0=    0
 Symmetry not used in FoFCou.
 Requested convergence on RMS density matrix=1.00D-08 within 128 cycles.
 Requested convergence on MAX density matrix=1.00D-06.
 Requested convergence on             energy=1.00D-06.
 Level shift goal  0.100 maximum shift  0.100.
 No special actions if energy rises.
 Dynamic level shift is on during FON iterations.
 Inv3:  Mode=1 IEnd=     9124608.
 Iteration    1 A*A^-1 deviation from unit magnitude is 5.77D-15 for   1742.
 Iteration    1 A*A^-1 deviation from orthogonality  is 2.79D-15 for   1685    203.
 Iteration    1 A^-1*A deviation from unit magnitude is 6.00D-15 for   1742.
 Iteration    1 A^-1*A deviation from orthogonality  is 1.49D-15 for   1452    412.
 Error on total polarization charges =  0.03406
 SCF Done:  E(RM062X) =  -486.848025757     A.U. after   14 cycles
            NFock= 14  Conv=0.60D-08     -V/T= 2.0040
 SMD-CDS (non-electrostatic) energy       (kcal/mol) =      -2.94
 (included in total energy above)
 DoSCS=F DFT=T ScalE2(SS,OS)=  1.000000  1.000000
 Range of M.O.s used for correlation:     1   308
 NBasis=   308 NAE=    40 NBE=    40 NFC=     0 NFV=     0
 NROrb=    308 NOA=    40 NOB=    40 NVA=   268 NVB=   268

 **** Warning!!: The largest alpha MO coefficient is  0.20415192D+03

 Symmetrizing basis deriv contribution to polar:
 IMax=3 JMax=2 DiffMx= 0.00D+00
 G2DrvN: will do    23 centers at a time, making    1 passes.
 Calling FoFCou, ICntrl=  3107 FMM=F I1Cent=   0 AccDes= 0.00D+00.
 NEqPCM:  Using equilibrium solvation (IEInf=0, Eps=   7.4257, EpsInf=   1.9740)
 G2PCM: DoFxE=T DoFxN=T DoGrad=T DoDP/DQ/DG/TGxP=FFFF NFrqRd=   0 IEInf=0 SqF1=F DoCFld=F IF1Alg=4.
 End of G2Drv F.D. properties file   721 does not exist.
 End of G2Drv F.D. properties file   722 does not exist.
 End of G2Drv F.D. properties file   788 does not exist.
          IDoAtm=1111111111111111111111
 NEqPCM:  Using equilibrium solvation (IEInf=0, Eps=   7.4257, EpsInf=   1.9740)
          Differentiating once with respect to nuclear coordinates.
 Keep R1 ints in memory in canonical form, NReq=1169003791.
          There are    69 degrees of freedom in the 1st order CPHF.  IDoFFX=6 NUNeed=     0.
     63 vectors produced by pass  0 Test12= 1.55D-14 1.45D-09 XBig12= 2.67D-01 1.12D-01.
 AX will form    63 AO Fock derivatives at one time.
     63 vectors produced by pass  1 Test12= 1.55D-14 1.45D-09 XBig12= 1.91D-02 3.70D-02.
     63 vectors produced by pass  2 Test12= 1.55D-14 1.45D-09 XBig12= 4.62D-04 4.09D-03.
     63 vectors produced by pass  3 Test12= 1.55D-14 1.45D-09 XBig12= 2.64D-06 2.06D-04.
     63 vectors produced by pass  4 Test12= 1.55D-14 1.45D-09 XBig12= 1.87D-08 1.39D-05.
     63 vectors produced by pass  5 Test12= 1.55D-14 1.45D-09 XBig12= 8.10D-11 9.30D-07.
     48 vectors produced by pass  6 Test12= 1.55D-14 1.45D-09 XBig12= 3.37D-13 6.10D-08.
      7 vectors produced by pass  7 Test12= 1.55D-14 1.45D-09 XBig12= 1.28D-15 2.92D-09.
 InvSVY:  IOpt=1 It=  1 EMax= 4.44D-16
 Solved reduced A of dimension   433 with    69 vectors.
 End of Minotr F.D. properties file   721 does not exist.
 End of Minotr F.D. properties file   722 does not exist.
 End of Minotr F.D. properties file   788 does not exist.

 **********************************************************************

            Population analysis using the SCF Density.

 **********************************************************************

 Alpha  occ. eigenvalues --  -19.63480 -19.63024 -10.55179 -10.55045 -10.53945
 Alpha  occ. eigenvalues --  -10.53353 -10.53306 -10.52738 -10.52262 -10.52261
 Alpha  occ. eigenvalues --   -7.08313  -1.16549  -1.12810  -0.96202  -0.87820
 Alpha  occ. eigenvalues --   -0.85384  -0.77795  -0.76560  -0.68455  -0.64727
 Alpha  occ. eigenvalues --   -0.64585  -0.61820  -0.56871  -0.54177  -0.51734
 Alpha  occ. eigenvalues --   -0.49374  -0.48495  -0.47452  -0.46847  -0.46333
 Alpha  occ. eigenvalues --   -0.46299  -0.45457  -0.43595  -0.42696  -0.41052
 Alpha  occ. eigenvalues --   -0.40108  -0.38921  -0.36697  -0.29923  -0.29121
 Alpha virt. eigenvalues --    0.00228   0.00693   0.02052   0.02284   0.02346
 Alpha virt. eigenvalues --    0.02888   0.03960   0.04416   0.04811   0.06793
 Alpha virt. eigenvalues --    0.06966   0.07227   0.07361   0.08341   0.09504
 Alpha virt. eigenvalues --    0.10339   0.10965   0.11044   0.11405   0.12141
 Alpha virt. eigenvalues --    0.12569   0.13049   0.14375   0.15237   0.15666
 Alpha virt. eigenvalues --    0.16012   0.16656   0.16993   0.18022   0.18531
 Alpha virt. eigenvalues --    0.19068   0.19464   0.19917   0.20243   0.21731
 Alpha virt. eigenvalues --    0.22263   0.22772   0.22930   0.23401   0.23581
 Alpha virt. eigenvalues --    0.24075   0.24807   0.25227   0.25375   0.26370
 Alpha virt. eigenvalues --    0.27458   0.27755   0.27810   0.28755   0.29540
 Alpha virt. eigenvalues --    0.30480   0.30864   0.31066   0.32099   0.32424
 Alpha virt. eigenvalues --    0.33385   0.34132   0.34427   0.35272   0.37003
 Alpha virt. eigenvalues --    0.37923   0.38063   0.40239   0.41264   0.42764
 Alpha virt. eigenvalues --    0.43797   0.45071   0.46026   0.46927   0.49001
 Alpha virt. eigenvalues --    0.51403   0.53480   0.54074   0.55243   0.56927
 Alpha virt. eigenvalues --    0.57087   0.58006   0.58230   0.58495   0.60737
 Alpha virt. eigenvalues --    0.61045   0.63207   0.63410   0.64444   0.64721
 Alpha virt. eigenvalues --    0.65573   0.67946   0.68727   0.69982   0.70859
 Alpha virt. eigenvalues --    0.71292   0.71574   0.72650   0.73298   0.73849
 Alpha virt. eigenvalues --    0.74857   0.76376   0.77194   0.77767   0.79278
 Alpha virt. eigenvalues --    0.81120   0.81841   0.84575   0.86710   0.87565
 Alpha virt. eigenvalues --    0.88395   0.92184   0.93918   0.95573   0.97628
 Alpha virt. eigenvalues --    0.98388   1.01378   1.03118   1.04126   1.05770
 Alpha virt. eigenvalues --    1.06696   1.07933   1.10120   1.10742   1.13524
 Alpha virt. eigenvalues --    1.14289   1.15027   1.16090   1.17141   1.18721
 Alpha virt. eigenvalues --    1.19125   1.22158   1.23500   1.26784   1.32071
 Alpha virt. eigenvalues --    1.35695   1.36992   1.38089   1.42353   1.43915
 Alpha virt. eigenvalues --    1.45496   1.48583   1.49743   1.50798   1.51892
 Alpha virt. eigenvalues --    1.53680   1.54425   1.56580   1.56931   1.58449
 Alpha virt. eigenvalues --    1.59667   1.60315   1.61397   1.62646   1.63524
 Alpha virt. eigenvalues --    1.64298   1.66923   1.68292   1.68640   1.71191
 Alpha virt. eigenvalues --    1.71556   1.73537   1.75038   1.77795   1.78914
 Alpha virt. eigenvalues --    1.80580   1.84154   1.85294   1.87643   1.88889
 Alpha virt. eigenvalues --    1.89708   1.91077   1.92157   1.96390   1.96908
 Alpha virt. eigenvalues --    1.98391   1.99329   2.00330   2.05594   2.06447
 Alpha virt. eigenvalues --    2.07577   2.10342   2.12861   2.13701   2.16418
 Alpha virt. eigenvalues --    2.19800   2.21840   2.22515   2.26376   2.27770
 Alpha virt. eigenvalues --    2.29095   2.34326   2.38782   2.42424   2.44543
 Alpha virt. eigenvalues --    2.46678   2.50444   2.51614   2.52259   2.53349
 Alpha virt. eigenvalues --    2.57071   2.58461   2.58957   2.59935   2.60436
 Alpha virt. eigenvalues --    2.63857   2.66327   2.67992   2.68941   2.71022
 Alpha virt. eigenvalues --    2.72308   2.74197   2.76256   2.76906   2.77330
 Alpha virt. eigenvalues --    2.78259   2.80744   2.83644   2.88094   2.90934
 Alpha virt. eigenvalues --    2.93497   2.95865   2.98130   3.01106   3.02431
 Alpha virt. eigenvalues --    3.03670   3.09008   3.12214   3.19146   3.24237
 Alpha virt. eigenvalues --    3.25508   3.26510   3.27729   3.29458   3.33478
 Alpha virt. eigenvalues --    3.43480   3.45300   3.49240   3.54143   3.60005
 Alpha virt. eigenvalues --    3.61243   3.67507   3.72139   3.77749   3.85361
 Alpha virt. eigenvalues --    3.85382   3.88308   3.90853   3.92829   3.97492
 Alpha virt. eigenvalues --    4.06248   4.14114   4.17233   4.36681   4.38867
 Alpha virt. eigenvalues --    4.88495   5.15568   5.18246   5.33281   5.50117
 Alpha virt. eigenvalues --    5.66398   5.74403  14.83435  23.66471  24.00400
 Alpha virt. eigenvalues --   24.02557  24.06763  24.08400  24.16277  24.17742
 Alpha virt. eigenvalues --   24.26909  50.02448  50.04166
          Condensed to atoms (all electrons):
               1          2          3          4          5          6
     1  O    7.815369   0.280325  -0.010617   0.399176  -0.099538   0.012724
     2  H    0.280325   0.412005   0.039335  -0.001274  -0.010600   0.002003
     3  C   -0.010617   0.039335  23.024791   0.779683  -0.116548   0.061305
     4  B    0.399176  -0.001274   0.779683   3.586290   0.334181  -0.006099
     5  O   -0.099538  -0.010600  -0.116548   0.334181   7.803311   0.300956
     6  H    0.012724   0.002003   0.061305  -0.006099   0.300956   0.398547
     7  C   -0.013754   0.015086  -6.017121  -0.231875  -0.128668  -0.000832
     8  C    0.081086  -0.002917   1.652496   0.080259   0.145991   0.020786
     9  H   -0.000002   0.000000  -0.043675  -0.000317  -0.000031  -0.000007
    10  C   -0.016580   0.000755  -2.679879  -0.064325  -0.012694  -0.002639
    11  C    0.019844  -0.012102  -1.250546   0.038796   0.084056  -0.005534
    12  H    0.000025   0.000000  -0.037974  -0.000526  -0.000015   0.000006
    13  C   -0.173574  -0.029126  -9.565299  -0.258014   0.042608  -0.058633
    14  H   -0.000004   0.000000  -0.027465  -0.000032  -0.000002   0.000000
    15  C    0.039253   0.010484   0.998366   0.020501  -0.034838   0.000134
    16  H   -0.007962   0.000280   0.113175   0.006682  -0.005805   0.000207
    17  H   -0.004900  -0.000240  -0.125831  -0.002025   0.001436   0.000024
    18  H    0.001537  -0.000022  -0.020819   0.001422   0.000123  -0.000016
    19  C   -0.043620   0.004243   0.657007   0.024072  -0.033237  -0.002215
    20  H   -0.005677   0.000048   0.215758   0.007512  -0.014245  -0.000387
    21  H    0.000585   0.000032  -0.234658  -0.002956  -0.002653  -0.000629
    22  H    0.000202  -0.000004   0.004783  -0.000404   0.002659  -0.000110
               7          8          9         10         11         12
     1  O   -0.013754   0.081086  -0.000002  -0.016580   0.019844   0.000025
     2  H    0.015086  -0.002917   0.000000   0.000755  -0.012102   0.000000
     3  C   -6.017121   1.652496  -0.043675  -2.679879  -1.250546  -0.037974
     4  B   -0.231875   0.080259  -0.000317  -0.064325   0.038796  -0.000526
     5  O   -0.128668   0.145991  -0.000031  -0.012694   0.084056  -0.000015
     6  H   -0.000832   0.020786  -0.000007  -0.002639  -0.005534   0.000006
     7  C   20.824433  -8.359645   0.097700   2.637628  -6.967689   0.042254
     8  C   -8.359645  17.894621   0.227363  -1.704885   3.686640  -0.052902
     9  H    0.097700   0.227363   0.474403   0.064726  -0.056001  -0.000145
    10  C    2.637628  -1.704885   0.064726   7.217181  -1.583197   0.061767
    11  C   -6.967689   3.686640  -0.056001  -1.583197  19.739754   0.236614
    12  H    0.042254  -0.052902  -0.000145   0.061767   0.236614   0.474588
    13  C    4.006202  -5.493616   0.041494   2.233256  -5.713143   0.082962
    14  H   -0.009523   0.018949  -0.005754   0.347524   0.023552  -0.005642
    15  C    0.330357   0.255352   0.000466  -0.241165  -1.706699   0.014142
    16  H    0.038006  -0.014557   0.000000   0.006893  -0.167418   0.000353
    17  H   -0.010890  -0.006924   0.000001   0.007492   0.082496   0.000126
    18  H    0.006476   0.011017  -0.000001   0.016713   0.086736   0.001075
    19  C   -1.279027  -1.643841   0.015075  -0.260399   0.239162   0.000490
    20  H   -0.103804  -0.233988   0.000445   0.009312  -0.021613   0.000000
    21  H    0.212609   0.124280   0.000097   0.007466  -0.005110   0.000000
    22  H   -0.258604   0.134033   0.000134   0.010444   0.018172  -0.000002
              13         14         15         16         17         18
     1  O   -0.173574  -0.000004   0.039253  -0.007962  -0.004900   0.001537
     2  H   -0.029126   0.000000   0.010484   0.000280  -0.000240  -0.000022
     3  C   -9.565299  -0.027465   0.998366   0.113175  -0.125831  -0.020819
     4  B   -0.258014  -0.000032   0.020501   0.006682  -0.002025   0.001422
     5  O    0.042608  -0.000002  -0.034838  -0.005805   0.001436   0.000123
     6  H   -0.058633   0.000000   0.000134   0.000207   0.000024  -0.000016
     7  C    4.006202  -0.009523   0.330357   0.038006  -0.010890   0.006476
     8  C   -5.493616   0.018949   0.255352  -0.014557  -0.006924   0.011017
     9  H    0.041494  -0.005754   0.000466   0.000000   0.000001  -0.000001
    10  C    2.233256   0.347524  -0.241165   0.006893   0.007492   0.016713
    11  C   -5.713143   0.023552  -1.706699  -0.167418   0.082496   0.086736
    12  H    0.082962  -0.005642   0.014142   0.000353   0.000126   0.001075
    13  C   20.901649  -0.008640  -1.553458  -0.032326   0.130669  -0.193022
    14  H   -0.008640   0.470199   0.004694   0.000003   0.000002  -0.000008
    15  C   -1.553458   0.004694   7.554573   0.415553   0.286822   0.461371
    16  H   -0.032326   0.000003   0.415553   0.504656  -0.027591  -0.025966
    17  H    0.130669   0.000002   0.286822  -0.027591   0.466425  -0.019281
    18  H   -0.193022  -0.000008   0.461371  -0.025966  -0.019281   0.490775
    19  C    0.314906   0.005209  -0.097142   0.001709   0.001498  -0.000990
    20  H    0.018915   0.000003   0.000327   0.000021  -0.000010   0.000000
    21  H    0.006863   0.000002   0.002406  -0.000016   0.000002  -0.000001
    22  H    0.012138  -0.000001  -0.001111   0.000000  -0.000002   0.000000
              19         20         21         22
     1  O   -0.043620  -0.005677   0.000585   0.000202
     2  H    0.004243   0.000048   0.000032  -0.000004
     3  C    0.657007   0.215758  -0.234658   0.004783
     4  B    0.024072   0.007512  -0.002956  -0.000404
     5  O   -0.033237  -0.014245  -0.002653   0.002659
     6  H   -0.002215  -0.000387  -0.000629  -0.000110
     7  C   -1.279027  -0.103804   0.212609  -0.258604
     8  C   -1.643841  -0.233988   0.124280   0.134033
     9  H    0.015075   0.000445   0.000097   0.000134
    10  C   -0.260399   0.009312   0.007466   0.010444
    11  C    0.239162  -0.021613  -0.005110   0.018172
    12  H    0.000490   0.000000   0.000000  -0.000002
    13  C    0.314906   0.018915   0.006863   0.012138
    14  H    0.005209   0.000003   0.000002  -0.000001
    15  C   -0.097142   0.000327   0.002406  -0.001111
    16  H    0.001709   0.000021  -0.000016   0.000000
    17  H    0.001498  -0.000010   0.000002  -0.000002
    18  H   -0.000990   0.000000  -0.000001   0.000000
    19  C    7.650403   0.480388   0.248812   0.448795
    20  H    0.480388   0.497952  -0.026428  -0.027782
    21  H    0.248812  -0.026428   0.472291  -0.019362
    22  H    0.448795  -0.027782  -0.019362   0.486264
 Mulliken charges:
               1
     1  O   -0.273901
     2  H    0.291689
     3  C   -1.416266
     4  B    0.289271
     5  O   -0.256448
     6  H    0.280408
     7  C    1.170679
     8  C   -0.819597
     9  H    0.184030
    10  C   -0.055393
    11  C   -0.766774
    12  H    0.182803
    13  C    1.287188
    14  H    0.186937
    15  C   -0.760388
    16  H    0.194103
    17  H    0.220701
    18  H    0.182879
    19  C   -0.731300
    20  H    0.203254
    21  H    0.216366
    22  H    0.189759
 Sum of Mulliken charges =   0.00000
 Mulliken charges with hydrogens summed into heavy atoms:
               1
     1  O    0.017788
     3  C   -1.416266
     4  B    0.289271
     5  O    0.023960
     7  C    1.170679
     8  C   -0.635568
    10  C    0.131544
    11  C   -0.583970
    13  C    1.287188
    15  C   -0.162705
    19  C   -0.121921
 APT charges:
               1
     1  O   -1.361960
     2  H    2.021242
     3  C   -1.532723
     4  B   -0.468261
     5  O    0.686117
     6  H    0.105706
     7  C   -3.169618
     8  C    0.427534
     9  H   -0.812817
    10  C   -0.122385
    11  C   -0.949894
    12  H    1.204111
    13  C    5.742743
    14  H   -0.124369
    15  C   -4.410853
    16  H    1.461898
    17  H    0.117207
    18  H    1.091590
    19  C   -0.713246
    20  H    0.602650
    21  H    1.169847
    22  H   -0.964520
 Sum of APT charges =   0.00000
 APT charges with hydrogens summed into heavy atoms:
               1
     1  O    0.659282
     3  C   -1.532723
     4  B   -0.468261
     5  O    0.791823
     7  C   -3.169618
     8  C   -0.385284
    10  C   -0.246754
    11  C    0.254217
    13  C    5.742743
    15  C   -1.740159
    19  C    0.094732
 Electronic spatial extent (au):  <R**2>=          34047.6992
 Charge=              0.0000 electrons
 Dipole moment (field-independent basis, Debye):
    X=             -0.6196    Y=             -0.2482    Z=              1.5546  Tot=              1.6918
 Quadrupole moment (field-independent basis, Debye-Ang):
   XX=            -68.0631   YY=            -64.3726   ZZ=            -50.6937
   XY=             -4.1299   XZ=              7.7455   YZ=              6.0668
 Traceless Quadrupole moment (field-independent basis, Debye-Ang):
   XX=             -7.0199   YY=             -3.3295   ZZ=             10.3494
   XY=             -4.1299   XZ=              7.7455   YZ=              6.0668
 Octapole moment (field-independent basis, Debye-Ang**2):
  XXX=          -1160.1749  YYY=          -1319.6052  ZZZ=           -878.5658  XYY=           -400.2629
  XXY=           -473.1675  XXZ=           -276.2540  XZZ=           -316.1060  YZZ=           -397.4696
  YYZ=           -305.4030  XYZ=             39.7222
 Hexadecapole moment (field-independent basis, Debye-Ang**3):
 XXXX=         -14619.1285 YYYY=         -19146.8336 ZZZZ=          -9562.4673 XXXY=          -8172.4073
 XXXZ=          -5563.1107 YYYX=          -8040.5130 YYYZ=          -6643.0820 ZZZX=          -5551.6448
 ZZZY=          -6297.9431 XXYY=          -5878.2622 XXZZ=          -3867.6651 YYZZ=          -4900.3231
 XXYZ=          -1925.9935 YYXZ=          -1781.7060 ZZXY=          -2362.8545
 N-N= 5.832136642329D+02 E-N=-2.302278467851D+03  KE= 4.849290818101D+02
  Exact polarizability:       0.000       0.000       0.000       0.000       0.000       0.000
 Approx polarizability:     152.566       4.635     140.529      10.654     -20.770     112.532
 D2PCM: PCM CHGder 2nd derivatives, FixD1E=F FixD2E=F DoIter=F DoCFld=F I1PDM=0
 Calling FoFJK, ICntrl=    100127 FMM=F ISym2X=0 I1Cent= 0 IOpClX= 0 NMat=1 NMatS=1 NMatT=0.
 -------------------------------------------------------------------
 Center     Atomic                   Forces (Hartrees/Bohr)
 Number     Number              X              Y              Z
 -------------------------------------------------------------------
      1        8           0.000035090    0.000009862    0.000010543
      2        1          -0.000013524    0.000004517   -0.000004923
      3        6           0.000004343   -0.000003292    0.000003076
      4        5          -0.000008517    0.000003809   -0.000009208
      5        8          -0.000012823    0.000032296    0.000017680
      6        1           0.000019336    0.000000896   -0.000011461
      7        6          -0.000006533    0.000012680   -0.000006563
      8        6           0.000004995   -0.000002147    0.000003650
      9        1           0.000001274   -0.000001003    0.000001240
     10        6           0.000004322   -0.000001076    0.000001101
     11        6          -0.000000950   -0.000008880    0.000003385
     12        1          -0.000001372   -0.000004214   -0.000002294
     13        6          -0.000004607    0.000001204    0.000002647
     14        1           0.000000920   -0.000004530    0.000000160
     15        6          -0.000002856    0.000010170   -0.000013950
     16        1          -0.000008513   -0.000037002   -0.000003781
     17        1          -0.000006148    0.000005076    0.000002385
     18        1          -0.000005458   -0.000001561   -0.000000906
     19        6           0.000001334   -0.000004546   -0.000004390
     20        1          -0.000008075   -0.000014784   -0.000002322
     21        1           0.000003054    0.000002742    0.000008061
     22        1           0.000004709   -0.000000215    0.000005872
 -------------------------------------------------------------------
 Cartesian Forces:  Max     0.000037002 RMS     0.000010090
 FormGI is forming the generalized inverse of G from B-inverse, IUseBI=4.

 GradGradGradGradGradGradGradGradGradGradGradGradGradGradGradGradGradGrad
 Berny optimization.
 Internal  Forces:  Max     0.000069132 RMS     0.000015739
 Search for a local minimum.
 Step number   1 out of a maximum of  111
 All quantities printed in internal units (Hartrees-Bohrs-Radians)
 Mixed Optimization -- En-DIIS/RFO-DIIS
 Second derivative matrix not updated -- analytic derivatives used.
 ITU=  0
     Eigenvalues ---   -0.00076   0.00182   0.00268   0.01040   0.01328
     Eigenvalues ---    0.01590   0.01626   0.01751   0.01895   0.02119
     Eigenvalues ---    0.02169   0.02460   0.02484   0.02857   0.03882
     Eigenvalues ---    0.05553   0.05610   0.05665   0.05896   0.10802
     Eigenvalues ---    0.10826   0.11559   0.11860   0.12032   0.12114
     Eigenvalues ---    0.12175   0.13225   0.14125   0.14429   0.14707
     Eigenvalues ---    0.15013   0.16428   0.18454   0.18905   0.19226
     Eigenvalues ---    0.19288   0.20681   0.23551   0.26921   0.31356
     Eigenvalues ---    0.32024   0.32625   0.33646   0.33843   0.34465
     Eigenvalues ---    0.34749   0.34963   0.35018   0.36076   0.36136
     Eigenvalues ---    0.36326   0.37773   0.42523   0.44881   0.47520
     Eigenvalues ---    0.48408   0.48752   0.51223   0.53255   0.54099
 RFO step:  Lambda=-7.58847158D-04 EMin=-7.57151406D-04
 I=     1 Eig=   -7.57D-04 Dot1=  2.15D-05
 I=     1 Stepn=  6.00D-01 RXN=   6.00D-01 EDone=F
 Mixed    1 eigenvectors in step.  Raw Step.Grad=  2.15D-05.
 RFO eigenvector is Hessian eigenvector with negative curvature.
 Taking step of  6.00D-01 in eigenvector direction(s).  Step.Grad= -3.08D-06.
 Linear search not attempted -- first point.
 Iteration  1 RMS(Cart)=  0.10595135 RMS(Int)=  0.00828811
 Iteration  2 RMS(Cart)=  0.00968349 RMS(Int)=  0.00008734
 Iteration  3 RMS(Cart)=  0.00009146 RMS(Int)=  0.00004620
 Iteration  4 RMS(Cart)=  0.00000001 RMS(Int)=  0.00004620
 Variable       Old X    -DE/DX   Delta X   Delta X   Delta X     New X
                                 (Linear)    (Quad)   (Total)
    R1        1.82370  -0.00001   0.00000   0.00022   0.00022   1.82392
    R2        2.57689   0.00001   0.00000  -0.00102  -0.00102   2.57587
    R3        2.97974   0.00000   0.00000  -0.00219  -0.00219   2.97755
    R4        2.65815   0.00002   0.00000  -0.00330  -0.00328   2.65487
    R5        2.66152  -0.00003   0.00000  -0.00660  -0.00658   2.65493
    R6        2.58830   0.00000   0.00000  -0.00072  -0.00072   2.58758
    R7        1.81904  -0.00002   0.00000   0.00015   0.00015   1.81919
    R8        2.63981   0.00000   0.00000  -0.00139  -0.00139   2.63842
    R9        2.85620   0.00001   0.00000  -0.00190  -0.00190   2.85430
   R10        2.05099   0.00000   0.00000   0.00008   0.00008   2.05108
   R11        2.62502   0.00000   0.00000   0.00301   0.00299   2.62801
   R12        2.62854  -0.00001   0.00000   0.00000  -0.00002   2.62853
   R13        2.04955   0.00000   0.00000   0.00001   0.00001   2.04957
   R14        2.05072   0.00000   0.00000   0.00021   0.00021   2.05092
   R15        2.63624  -0.00002   0.00000   0.00041   0.00041   2.63665
   R16        2.85272  -0.00003   0.00000  -0.00233  -0.00233   2.85039
   R17        2.06615  -0.00001   0.00000  -0.00161  -0.00161   2.06454
   R18        2.06499  -0.00001   0.00000   0.00256   0.00256   2.06755
   R19        2.06176   0.00000   0.00000   0.00015   0.00015   2.06190
   R20        2.06419   0.00000   0.00000   0.00153   0.00153   2.06572
   R21        2.06945   0.00001   0.00000  -0.00098  -0.00098   2.06848
   R22        2.06208   0.00000   0.00000   0.00019   0.00019   2.06227
    A1        1.95601  -0.00001   0.00000   0.00269   0.00269   1.95870
    A2        2.10115   0.00007   0.00000   0.00657   0.00642   2.10757
    A3        2.09242  -0.00006   0.00000  -0.01208  -0.01222   2.08021
    A4        2.08959  -0.00001   0.00000   0.00534   0.00528   2.09488
    A5        2.08852   0.00003   0.00000   0.00460   0.00454   2.09307
    A6        2.04973  -0.00001   0.00000   0.00869   0.00863   2.05836
    A7        2.14493  -0.00001   0.00000  -0.01336  -0.01342   2.13151
    A8        1.97488   0.00000   0.00000  -0.00453  -0.00453   1.97035
    A9        2.08731  -0.00001   0.00000  -0.00283  -0.00280   2.08451
   A10        2.11755   0.00004   0.00000  -0.01162  -0.01164   2.10590
   A11        2.07832  -0.00003   0.00000   0.01444   0.01441   2.09274
   A12        2.08445   0.00000   0.00000   0.00150   0.00150   2.08595
   A13        2.10413   0.00001   0.00000  -0.00127  -0.00127   2.10286
   A14        2.09460  -0.00001   0.00000  -0.00022  -0.00023   2.09438
   A15        2.09371   0.00000   0.00000   0.00224   0.00222   2.09593
   A16        2.09505   0.00000   0.00000  -0.00144  -0.00143   2.09362
   A17        2.09443   0.00000   0.00000  -0.00080  -0.00079   2.09364
   A18        2.09363   0.00000   0.00000   0.00191   0.00191   2.09554
   A19        2.10490  -0.00001   0.00000  -0.00364  -0.00364   2.10127
   A20        2.08464   0.00000   0.00000   0.00173   0.00173   2.08637
   A21        2.08661   0.00002   0.00000   0.00009   0.00012   2.08673
   A22        2.10996  -0.00005   0.00000  -0.01175  -0.01178   2.09818
   A23        2.08662   0.00002   0.00000   0.01165   0.01162   2.09825
   A24        1.94576  -0.00004   0.00000  -0.00282  -0.00285   1.94292
   A25        1.93465   0.00001   0.00000  -0.00444  -0.00445   1.93020
   A26        1.93297   0.00001   0.00000   0.00685   0.00684   1.93981
   A27        1.87036   0.00000   0.00000  -0.00345  -0.00348   1.86688
   A28        1.88756   0.00002   0.00000   0.00789   0.00787   1.89544
   A29        1.89021   0.00000   0.00000  -0.00413  -0.00412   1.88608
   A30        1.95476   0.00002   0.00000  -0.00500  -0.00500   1.94976
   A31        1.94135   0.00000   0.00000  -0.00059  -0.00060   1.94075
   A32        1.93038   0.00000   0.00000   0.00454   0.00453   1.93491
   A33        1.87902   0.00000   0.00000  -0.00331  -0.00333   1.87569
   A34        1.88445  -0.00001   0.00000  -0.00088  -0.00087   1.88358
   A35        1.87058   0.00000   0.00000   0.00548   0.00547   1.87605
    D1        3.11846  -0.00001   0.00000  -0.00907  -0.00916   3.10931
    D2       -0.01895   0.00001   0.00000   0.01010   0.01019  -0.00876
    D3        2.12527   0.00001   0.00000  -0.12965  -0.12973   1.99555
    D4       -1.02074  -0.00001   0.00000  -0.14984  -0.14985  -1.17059
    D5       -1.02332   0.00000   0.00000  -0.15782  -0.15781  -1.18113
    D6        2.11385  -0.00002   0.00000  -0.17802  -0.17794   1.93592
    D7        3.14107  -0.00002   0.00000  -0.02957  -0.02972   3.11135
    D8        0.00209  -0.00002   0.00000  -0.02373  -0.02392  -0.02182
    D9        0.00647   0.00000   0.00000  -0.00136  -0.00133   0.00513
   D10       -3.13251   0.00000   0.00000   0.00447   0.00447  -3.12804
   D11       -3.12799   0.00002   0.00000   0.03314   0.03303  -3.09496
   D12        0.01442   0.00001   0.00000   0.04146   0.04131   0.05573
   D13        0.00665   0.00000   0.00000   0.00516   0.00516   0.01181
   D14       -3.13413   0.00000   0.00000   0.01347   0.01344  -3.12069
   D15        3.12159  -0.00001   0.00000   0.00381   0.00383   3.12541
   D16       -0.01568   0.00001   0.00000   0.02359   0.02358   0.00790
   D17        3.12617   0.00000   0.00000   0.00166   0.00166   3.12783
   D18       -0.01335   0.00000   0.00000  -0.00318  -0.00321  -0.01657
   D19       -0.01797   0.00000   0.00000  -0.00409  -0.00414  -0.02211
   D20        3.12568   0.00000   0.00000  -0.00892  -0.00901   3.11667
   D21       -0.63595  -0.00001   0.00000  -0.02551  -0.02554  -0.66149
   D22        1.46768   0.00000   0.00000  -0.03361  -0.03362   1.43406
   D23       -2.73890  -0.00001   0.00000  -0.02416  -0.02417  -2.76307
   D24        2.50824  -0.00001   0.00000  -0.01968  -0.01968   2.48856
   D25       -1.67131   0.00000   0.00000  -0.02778  -0.02776  -1.69907
   D26        0.40530   0.00000   0.00000  -0.01833  -0.01831   0.38698
   D27        0.00698   0.00000   0.00000   0.00395   0.00396   0.01094
   D28       -3.13651   0.00000   0.00000   0.00653   0.00654  -3.12996
   D29       -3.13254   0.00000   0.00000  -0.00091  -0.00094  -3.13347
   D30        0.00716   0.00000   0.00000   0.00167   0.00164   0.00881
   D31       -3.13891   0.00000   0.00000   0.00211   0.00210  -3.13681
   D32        0.00642   0.00000   0.00000  -0.00011  -0.00009   0.00633
   D33        0.00458   0.00000   0.00000  -0.00046  -0.00048   0.00410
   D34       -3.13328   0.00000   0.00000  -0.00268  -0.00267  -3.13595
   D35       -0.01316   0.00000   0.00000  -0.00442  -0.00444  -0.01760
   D36        3.12762   0.00000   0.00000  -0.01264  -0.01273   3.11489
   D37        3.13214   0.00000   0.00000  -0.00663  -0.00661   3.12553
   D38       -0.01026   0.00000   0.00000  -0.01485  -0.01491  -0.02516
   D39       -0.82578   0.00002   0.00000   0.20833   0.20832  -0.61746
   D40        1.25624   0.00000   0.00000   0.19917   0.19917   1.45541
   D41       -2.92839   0.00001   0.00000   0.19557   0.19556  -2.73284
   D42        2.31663   0.00002   0.00000   0.21665   0.21666   2.53329
   D43       -1.88454   0.00000   0.00000   0.20749   0.20752  -1.67702
   D44        0.21402   0.00001   0.00000   0.20390   0.20390   0.41792
         Item               Value     Threshold  Converged?
 Maximum Force            0.000069     0.000450     YES
 RMS     Force            0.000016     0.000300     YES
 Maximum Displacement     0.552589     0.001800     NO 
 RMS     Displacement     0.107678     0.001200     NO 
 Predicted change in Energy=-1.578089D-04
 GradGradGradGradGradGradGradGradGradGradGradGradGradGradGradGradGradGrad

                          Input orientation:                          
 ---------------------------------------------------------------------
 Center     Atomic      Atomic             Coordinates (Angstroms)
 Number     Number       Type             X           Y           Z
 ---------------------------------------------------------------------
      1          8           0        8.706951    6.376791    4.912971
      2          1           0        9.509918    6.159783    5.402583
      3          6           0        6.238831    6.964695    5.128092
      4          5           0        7.635270    6.559665    5.735210
      5          8           0        7.827147    6.407916    7.082468
      6          1           0        7.027858    6.567113    7.594848
      7          6           0        5.142176    6.089727    5.202297
      8          6           0        3.908005    6.491282    4.687582
      9          1           0        3.063101    5.811455    4.732618
     10          6           0        3.755808    7.753163    4.123228
     11          6           0        4.839743    8.622240    4.055800
     12          1           0        4.719486    9.608605    3.619330
     13          6           0        6.087285    8.234075    4.545392
     14          1           0        2.790484    8.060278    3.735735
     15          6           0        7.268188    9.166455    4.439130
     16          1           0        7.929710    9.069694    5.303189
     17          1           0        7.864852    8.932239    3.552454
     18          1           0        6.943742   10.205488    4.363835
     19          6           0        5.284683    4.728609    5.841397
     20          1           0        6.251452    4.273129    5.611546
     21          1           0        5.202262    4.792406    6.931016
     22          1           0        4.503080    4.051652    5.492437
 ---------------------------------------------------------------------
                    Distance matrix (angstroms):
                    1          2          3          4          5
     1  O    0.000000
     2  H    0.965179   0.000000
     3  C    2.546276   3.379828   0.000000
     4  B    1.363092   1.945469   1.575653   0.000000
     5  O    2.341311   2.390670   2.579212   1.369288   0.000000
     6  H    3.169865   3.336550   2.620214   1.956339   0.962674
     7  C    3.587999   4.372893   1.404894   2.592365   3.293229
     8  C    4.805600   5.657080   2.418867   3.872300   4.593703
     9  H    5.674960   6.490888   3.401709   4.740225   5.345436
    10  C    5.199222   6.106177   2.792282   4.367282   5.209855
    11  C    4.553249   5.448675   2.419651   3.858705   4.794636
    12  H    5.293203   6.166247   3.402209   4.719616   5.647591
    13  C    3.232223   4.092906   1.404931   2.572076   3.577531
    14  H    6.262954   7.179210   3.876862   5.451761   6.268883
    15  C    3.174396   3.872167   2.526261   2.934268   3.861244
    16  H    2.829859   3.312782   2.705689   2.563901   3.203344
    17  H    3.015037   3.716952   2.999635   3.232064   4.339888
    18  H    4.250809   4.902243   3.403488   3.956123   4.753201
    19  C    3.910294   4.482569   2.533631   2.981493   3.290054
    20  H    3.308002   3.771038   2.734669   2.675535   3.033767
    21  H    4.343458   4.770925   3.007299   3.236153   3.085909
    22  H    4.838861   5.433297   3.410484   4.019910   4.373740
                    6          7          8          9         10
     6  H    0.000000
     7  C    3.083504   0.000000
     8  C    4.265141   1.396194   0.000000
     9  H    4.947997   2.149554   1.085383   0.000000
    10  C    4.915809   2.419385   1.390684   2.149751   0.000000
    11  C    4.640717   2.796345   2.410035   3.393384   1.390956
    12  H    5.512168   3.881617   3.393724   4.289681   2.150639
    13  C    3.600365   2.433718   2.794067   3.879411   2.417702
    14  H    5.922638   3.400637   2.148631   2.474935   1.084583
    15  C    4.095473   3.816884   4.302222   5.387478   3.799211
    16  H    3.511119   4.081756   4.816772   5.884349   4.532882
    17  H    4.757661   4.267883   4.785753   5.847127   4.312801
    18  H    4.866652   4.570355   4.807894   5.873917   4.029232
    19  C    3.081127   1.510430   2.516654   2.708758   3.799670
    20  H    3.130280   2.167488   3.356435   3.647538   4.533648
    21  H    2.631171   2.162202   3.097463   3.232246   4.329201
    22  H    4.137896   2.155546   2.636988   2.397451   4.016757
                   11         12         13         14         15
    11  C    0.000000
    12  H    1.085303   0.000000
    13  C    1.395254   2.148906   0.000000
    14  H    2.148885   2.476270   3.399213   0.000000
    15  C    2.518026   2.713568   1.508362   4.665643   0.000000
    16  H    3.362155   3.664880   2.160335   5.466944   1.092507
    17  H    3.082327   3.217961   2.152465   5.152002   1.094102
    18  H    2.651107   2.420305   2.157070   4.716566   1.091111
    19  C    4.306587   5.391789   3.822577   4.664211   5.059162
    20  H    4.829910   5.897723   4.105207   5.462551   5.133512
    21  H    4.802699   5.864819   4.280135   5.167734   5.441494
    22  H    4.802869   5.868142   4.571571   4.699795   5.909018
                   16         17         18         19         20
    16  H    0.000000
    17  H    1.757320   0.000000
    18  H    1.773287   1.768600   0.000000
    19  C    5.111835   5.437558   5.910319   0.000000
    20  H    5.091038   5.343241   6.101551   1.093131   0.000000
    21  H    5.327663   5.970116   6.238961   1.094592   1.763930
    22  H    6.079339   6.235798   6.715674   1.091305   1.766364
                   21         22
    21  H    0.000000
    22  H    1.762691   0.000000
 Symmetry turned off by external request.
 Stoichiometry    C8H11BO2
 Framework group  C1[X(C8H11BO2)]
 Deg. of freedom    60
 Full point group                 C1      NOp   1
 Rotational constants (GHZ):           1.5053565           1.0265092           0.6816081
 Standard basis: 6-311+G(d,p) (5D, 7F)
   308 basis functions,   484 primitive gaussians,   319 cartesian basis functions
    40 alpha electrons       40 beta electrons
       nuclear repulsion energy       583.5250334341 Hartrees.
 NAtoms=   22 NActive=   22 NUniq=   22 SFac= 1.00D+00 NAtFMM=   60 NAOKFM=F Big=F
 Integral buffers will be    131072 words long.
 Raffenetti 2 integral format.
 Two-electron integral symmetry is turned off.
 ------------------------------------------------------------------------------
 Polarizable Continuum Model (PCM)
 =================================
 Model                : PCM.
 Atomic radii         : SMD-Coulomb.
 Polarization charges : Total charges.
 Charge compensation  : None.
 Solution method      : Matrix inversion.
 Cavity type          : VdW (van der Waals Surface) (Alpha=1.000).
 Cavity algorithm     : GePol (No added spheres)
                        Default sphere list used, NSphG=   22.
                        Lebedev-Laikov grids with approx.  5.0 points / Ang**2.
                        Smoothing algorithm: York/Karplus (Gamma=1.0000).
                        Polarization charges: spherical gaussians, with
                                              point-specific exponents (IZeta= 3).
                        Self-potential: point-specific (ISelfS= 7).
                        Self-field    : sphere-specific E.n sum rule (ISelfD= 2).
 1st derivatives      : Analytical E(r).r(x)/FMM algorithm (CHGder, D1EAlg=3).
                        Cavity 1st derivative terms included.
 Solvent              : TetraHydroFuran, Eps=   7.425700 Eps(inf)=   1.974025
 ------------------------------------------------------------------------------
 ------------------------------------------------------------------------------
 Atomic radii for non-electrostatic terms: SMD-CDS.
 ------------------------------------------------------------------------------
 Nuclear repulsion after PCM non-electrostatic terms =      583.5202324494 Hartrees.
 One-electron integrals computed using PRISM.
 NBasis=   308 RedAO= T EigKep=  1.03D-06  NBF=   308
 NBsUse=   308 1.00D-06 EigRej= -1.00D+00 NBFU=   308
 Initial guess from the checkpoint file:  "2-6-diMe-phboh2-opt-freq-thf-non-tight-2.chk"
 B after Tr=     0.037367   -0.106489    0.093018
         Rot=    0.999982    0.005445    0.002376   -0.000041 Ang=   0.68 deg.
 ExpMin= 3.15D-02 ExpMax= 8.59D+03 ExpMxC= 1.30D+03 IAcc=3 IRadAn=         5 AccDes= 0.00D+00
 Harris functional with IExCor= 1009 and IRadAn=       5 diagonalized for initial guess.
 HarFok:  IExCor= 1009 AccDes= 0.00D+00 IRadAn=         5 IDoV= 1 UseB2=F ITyADJ=14
 ICtDFT=  3500011 ScaDFX=  1.000000  1.000000  1.000000  1.000000
 FoFCou: FMM=F IPFlag=           0 FMFlag=      100000 FMFlg1=           0
         NFxFlg=           0 DoJE=T BraDBF=F KetDBF=T FulRan=T
         wScrn=  0.000000 ICntrl=       500 IOpCl=  0 I1Cent=   200000004 NGrid=           0
         NMat0=    1 NMatS0=      1 NMatT0=    0 NMatD0=    1 NMtDS0=    0 NMtDT0=    0
 Symmetry not used in FoFCou.
 Requested convergence on RMS density matrix=1.00D-08 within 128 cycles.
 Requested convergence on MAX density matrix=1.00D-06.
 Requested convergence on             energy=1.00D-06.
 Level shift goal  0.100 maximum shift  0.100.
 No special actions if energy rises.
 Dynamic level shift is on during FON iterations.
 Inv3:  Mode=1 IEnd=     8978700.
 Iteration    1 A*A^-1 deviation from unit magnitude is 7.11D-15 for   1730.
 Iteration    1 A*A^-1 deviation from orthogonality  is 2.85D-15 for   1729   1496.
 Iteration    1 A^-1*A deviation from unit magnitude is 7.11D-15 for   1730.
 Iteration    1 A^-1*A deviation from orthogonality  is 5.14D-15 for    483    461.
 Error on total polarization charges =  0.03412
 SCF Done:  E(RM062X) =  -486.847627355     A.U. after   13 cycles
            NFock= 13  Conv=0.65D-08     -V/T= 2.0039
 SMD-CDS (non-electrostatic) energy       (kcal/mol) =      -3.01
 (included in total energy above)
 D1PCM: PCM CHGder 1st derivatives, ID1Alg=3 FixD1E=F DoIter=F DoCFld=F I1PDM=0.
 Calling FoFJK, ICntrl=      2127 FMM=F ISym2X=0 I1Cent= 0 IOpClX= 0 NMat=1 NMatS=1 NMatT=0.
 -------------------------------------------------------------------
 Center     Atomic                   Forces (Hartrees/Bohr)
 Number     Number              X              Y              Z
 -------------------------------------------------------------------
      1        8          -0.000000727   -0.000513819    0.000303046
      2        1          -0.000010065   -0.000062209    0.000039847
      3        6           0.000050657   -0.000078957    0.000361759
      4        5          -0.000077235    0.000017250   -0.000053800
      5        8           0.000574062   -0.000964422    0.000054634
      6        1           0.000074149    0.000079724    0.000081279
      7        6          -0.000173687   -0.000116884   -0.000100331
      8        6           0.000078171   -0.000140615    0.000079377
      9        1          -0.000000600    0.000003621    0.000015441
     10        6           0.000090887    0.000139712   -0.000005779
     11        6          -0.000210284   -0.000156208   -0.000243540
     12        1          -0.000010516   -0.000019755   -0.000147111
     13        6           0.000156363   -0.000057395    0.000117191
     14        1           0.000015028   -0.000031509   -0.000051057
     15        6           0.000062370    0.000106506   -0.000638612
     16        1           0.000059881    0.001732984    0.000109233
     17        1          -0.000227014    0.000211044   -0.000039238
     18        1           0.000078436    0.000087832    0.000122537
     19        6          -0.000183157   -0.000230523   -0.000234844
     20        1          -0.000117371   -0.000080929   -0.000079416
     21        1          -0.000202091    0.000045087    0.000155007
     22        1          -0.000027255    0.000029464    0.000154377
 -------------------------------------------------------------------
 Cartesian Forces:  Max     0.001732984 RMS     0.000299747

 GradGradGradGradGradGradGradGradGradGradGradGradGradGradGradGradGradGrad
 Berny optimization.
 Using GEDIIS/GDIIS optimizer.
 FormGI is forming the generalized inverse of G from B-inverse, IUseBI=4.
 Internal  Forces:  Max     0.004012151 RMS     0.000819028
 Search for a local minimum.
 Step number   2 out of a maximum of  111
 All quantities printed in internal units (Hartrees-Bohrs-Radians)
 Mixed Optimization -- En-DIIS/RFO-DIIS
 Swapping is turned off.
 Update second derivatives using D2CorX and points    1    2
 ITU=  0  0
     Eigenvalues ---    0.00104   0.00183   0.00328   0.01098   0.01333
     Eigenvalues ---    0.01598   0.01630   0.01751   0.01972   0.02129
     Eigenvalues ---    0.02177   0.02461   0.02487   0.02858   0.03947
     Eigenvalues ---    0.05570   0.05610   0.05798   0.05916   0.10805
     Eigenvalues ---    0.10829   0.11573   0.11876   0.12049   0.12146
     Eigenvalues ---    0.12215   0.13227   0.14427   0.14543   0.14863
     Eigenvalues ---    0.15260   0.16612   0.18453   0.18947   0.19252
     Eigenvalues ---    0.19384   0.22508   0.24015   0.27606   0.31366
     Eigenvalues ---    0.32023   0.33439   0.33646   0.33847   0.34473
     Eigenvalues ---    0.34962   0.34976   0.35200   0.36085   0.36136
     Eigenvalues ---    0.36327   0.37773   0.44251   0.45743   0.47807
     Eigenvalues ---    0.48408   0.48815   0.51449   0.53256   0.54100
 En-DIIS/RFO-DIIS/Sim-DIIS IScMMF=       -3 using points:     2    1
 RFO step:  Lambda=-5.77202046D-04.
 DidBck=T Rises=T En-DIIS coefs:    0.23361    0.76639
 Iteration  1 RMS(Cart)=  0.09753296 RMS(Int)=  0.00670509
 Iteration  2 RMS(Cart)=  0.00775110 RMS(Int)=  0.00003600
 Iteration  3 RMS(Cart)=  0.00004522 RMS(Int)=  0.00000771
 Iteration  4 RMS(Cart)=  0.00000000 RMS(Int)=  0.00000771
 Variable       Old X    -DE/DX   Delta X   Delta X   Delta X     New X
                                 (Linear)    (Quad)   (Total)
    R1        1.82392   0.00003  -0.00017  -0.00006  -0.00022   1.82370
    R2        2.57587  -0.00014   0.00078   0.00020   0.00098   2.57685
    R3        2.97755   0.00103   0.00168   0.00046   0.00214   2.97970
    R4        2.65487   0.00112   0.00252   0.00075   0.00328   2.65814
    R5        2.65493   0.00266   0.00505   0.00107   0.00612   2.66105
    R6        2.58758   0.00032   0.00055   0.00014   0.00069   2.58827
    R7        1.81919  -0.00001  -0.00011  -0.00006  -0.00018   1.81901
    R8        2.63842  -0.00035   0.00107   0.00010   0.00117   2.63959
    R9        2.85430   0.00016   0.00146   0.00036   0.00182   2.85612
   R10        2.05108   0.00000  -0.00006  -0.00003  -0.00009   2.05099
   R11        2.62801  -0.00053  -0.00229  -0.00043  -0.00273   2.62529
   R12        2.62853  -0.00048   0.00001  -0.00016  -0.00015   2.62837
   R13        2.04957   0.00000  -0.00001  -0.00001  -0.00002   2.04954
   R14        2.05092   0.00004  -0.00016  -0.00003  -0.00019   2.05074
   R15        2.63665   0.00044  -0.00031   0.00007  -0.00024   2.63641
   R16        2.85039   0.00134   0.00179   0.00050   0.00229   2.85268
   R17        2.06454  -0.00003   0.00124   0.00016   0.00139   2.06593
   R18        2.06755  -0.00014  -0.00196  -0.00036  -0.00233   2.06523
   R19        2.06190   0.00005  -0.00011   0.00001  -0.00011   2.06180
   R20        2.06572  -0.00005  -0.00117  -0.00020  -0.00137   2.06435
   R21        2.06848   0.00017   0.00075   0.00018   0.00093   2.06940
   R22        2.06227  -0.00005  -0.00015  -0.00006  -0.00021   2.06206
    A1        1.95870  -0.00006  -0.00206  -0.00053  -0.00259   1.95611
    A2        2.10757  -0.00194  -0.00492  -0.00128  -0.00623   2.10134
    A3        2.08021   0.00291   0.00936   0.00244   0.01178   2.09198
    A4        2.09488  -0.00096  -0.00405  -0.00097  -0.00504   2.08984
    A5        2.09307  -0.00003  -0.00348  -0.00101  -0.00450   2.08857
    A6        2.05836  -0.00110  -0.00661  -0.00162  -0.00824   2.05012
    A7        2.13151   0.00115   0.01028   0.00270   0.01297   2.14448
    A8        1.97035   0.00016   0.00347   0.00084   0.00431   1.97467
    A9        2.08451   0.00062   0.00215   0.00053   0.00269   2.08720
   A10        2.10590   0.00060   0.00892   0.00196   0.01088   2.11678
   A11        2.09274  -0.00122  -0.01105  -0.00248  -0.01353   2.07920
   A12        2.08595  -0.00009  -0.00115  -0.00023  -0.00138   2.08456
   A13        2.10286   0.00018   0.00098   0.00023   0.00121   2.10407
   A14        2.09438  -0.00009   0.00017   0.00000   0.00017   2.09455
   A15        2.09593   0.00005  -0.00170  -0.00043  -0.00213   2.09379
   A16        2.09362  -0.00003   0.00110   0.00026   0.00135   2.09498
   A17        2.09364  -0.00002   0.00060   0.00017   0.00078   2.09442
   A18        2.09554  -0.00046  -0.00147  -0.00035  -0.00182   2.09373
   A19        2.10127   0.00084   0.00279   0.00073   0.00351   2.10478
   A20        2.08637  -0.00038  -0.00133  -0.00038  -0.00170   2.08467
   A21        2.08673  -0.00072  -0.00009  -0.00007  -0.00015   2.08658
   A22        2.09818   0.00401   0.00903   0.00270   0.01173   2.10991
   A23        2.09825  -0.00329  -0.00891  -0.00263  -0.01154   2.08670
   A24        1.94292   0.00183   0.00218   0.00122   0.00340   1.94632
   A25        1.93020  -0.00008   0.00341   0.00069   0.00409   1.93430
   A26        1.93981  -0.00048  -0.00524  -0.00138  -0.00662   1.93319
   A27        1.86688  -0.00007   0.00266   0.00082   0.00348   1.87037
   A28        1.89544  -0.00114  -0.00604  -0.00166  -0.00770   1.88774
   A29        1.88608  -0.00012   0.00316   0.00033   0.00349   1.88958
   A30        1.94976   0.00014   0.00383   0.00088   0.00471   1.95447
   A31        1.94075  -0.00012   0.00046   0.00011   0.00056   1.94132
   A32        1.93491   0.00002  -0.00348  -0.00075  -0.00422   1.93069
   A33        1.87569   0.00012   0.00255   0.00059   0.00314   1.87883
   A34        1.88358  -0.00006   0.00067   0.00007   0.00074   1.88432
   A35        1.87605  -0.00011  -0.00419  -0.00093  -0.00512   1.87093
    D1        3.10931   0.00041   0.00702   0.00220   0.00921   3.11852
    D2       -0.00876  -0.00031  -0.00781  -0.00156  -0.00935  -0.01811
    D3        1.99555  -0.00050   0.09942   0.01783   0.11724   2.11279
    D4       -1.17059   0.00022   0.11485   0.02170   0.13654  -1.03405
    D5       -1.18113  -0.00011   0.12095   0.02389   0.14484  -1.03629
    D6        1.93592   0.00061   0.13637   0.02775   0.16413   2.10005
    D7        3.11135   0.00052   0.02278   0.00642   0.02917   3.14052
    D8       -0.02182   0.00049   0.01833   0.00555   0.02385   0.00202
    D9        0.00513   0.00005   0.00102   0.00025   0.00128   0.00641
   D10       -3.12804   0.00002  -0.00343  -0.00062  -0.00405  -3.13209
   D11       -3.09496  -0.00060  -0.02531  -0.00725  -0.03258  -3.12754
   D12        0.05573  -0.00045  -0.03166  -0.00786  -0.03954   0.01619
   D13        0.01181  -0.00023  -0.00395  -0.00125  -0.00520   0.00661
   D14       -3.12069  -0.00009  -0.01030  -0.00186  -0.01216  -3.13285
   D15        3.12541   0.00028  -0.00293  -0.00063  -0.00356   3.12185
   D16        0.00790  -0.00044  -0.01807  -0.00443  -0.02250  -0.01460
   D17        3.12783  -0.00001  -0.00127  -0.00008  -0.00135   3.12648
   D18       -0.01657   0.00012   0.00246   0.00085   0.00331  -0.01326
   D19       -0.02211   0.00003   0.00317   0.00081   0.00397  -0.01814
   D20        3.11667   0.00016   0.00691   0.00174   0.00863   3.12531
   D21       -0.66149  -0.00006   0.01957  -0.00007   0.01950  -0.64199
   D22        1.43406   0.00011   0.02577   0.00135   0.02712   1.46118
   D23       -2.76307  -0.00009   0.01852  -0.00024   0.01828  -2.74479
   D24        2.48856  -0.00009   0.01508  -0.00096   0.01412   2.50269
   D25       -1.69907   0.00007   0.02128   0.00046   0.02174  -1.67733
   D26        0.38698  -0.00013   0.01404  -0.00113   0.01290   0.39989
   D27        0.01094  -0.00012  -0.00304  -0.00096  -0.00400   0.00694
   D28       -3.12996  -0.00013  -0.00501  -0.00134  -0.00635  -3.13631
   D29       -3.13347   0.00001   0.00072  -0.00002   0.00069  -3.13278
   D30        0.00881   0.00000  -0.00126  -0.00040  -0.00166   0.00715
   D31       -3.13681   0.00000  -0.00161  -0.00035  -0.00196  -3.13877
   D32        0.00633  -0.00005   0.00007  -0.00005   0.00003   0.00635
   D33        0.00410   0.00001   0.00037   0.00002   0.00039   0.00448
   D34       -3.13595  -0.00004   0.00205   0.00033   0.00238  -3.13357
   D35       -0.01760   0.00023   0.00340   0.00114   0.00454  -0.01306
   D36        3.11489   0.00012   0.00976   0.00178   0.01153   3.12642
   D37        3.12553   0.00018   0.00507   0.00145   0.00652   3.13205
   D38       -0.02516   0.00007   0.01142   0.00209   0.01351  -0.01166
   D39       -0.61746  -0.00085  -0.15965  -0.02641  -0.18607  -0.80353
   D40        1.45541   0.00019  -0.15264  -0.02415  -0.17679   1.27862
   D41       -2.73284  -0.00033  -0.14987  -0.02418  -0.17406  -2.90689
   D42        2.53329  -0.00072  -0.16604  -0.02704  -0.19309   2.34021
   D43       -1.67702   0.00032  -0.15904  -0.02478  -0.18381  -1.86083
   D44        0.41792  -0.00020  -0.15626  -0.02481  -0.18108   0.23684
         Item               Value     Threshold  Converged?
 Maximum Force            0.004012     0.000450     NO 
 RMS     Force            0.000819     0.000300     NO 
 Maximum Displacement     0.508358     0.001800     NO 
 RMS     Displacement     0.097957     0.001200     NO 
 Predicted change in Energy=-3.519622D-04
 GradGradGradGradGradGradGradGradGradGradGradGradGradGradGradGradGradGrad

                          Input orientation:                          
 ---------------------------------------------------------------------
 Center     Atomic      Atomic             Coordinates (Angstroms)
 Number     Number       Type             X           Y           Z
 ---------------------------------------------------------------------
      1          8           0        8.734329    6.498319    4.900545
      2          1           0        9.536372    6.244046    5.373210
      3          6           0        6.247134    6.977609    5.141872
      4          5           0        7.648573    6.549320    5.723934
      5          8           0        7.838756    6.224714    7.040906
      6          1           0        7.036806    6.298101    7.568213
      7          6           0        5.145175    6.107500    5.226708
      8          6           0        3.911142    6.504696    4.706627
      9          1           0        3.066066    5.825822    4.760741
     10          6           0        3.760928    7.755877    4.121843
     11          6           0        4.847144    8.621057    4.043542
     12          1           0        4.729094    9.599425    3.589088
     13          6           0        6.094132    8.242061    4.541296
     14          1           0        2.797654    8.057524    3.725096
     15          6           0        7.261843    9.191827    4.426371
     16          1           0        7.817496    9.259578    5.365436
     17          1           0        7.963752    8.853709    3.659972
     18          1           0        6.920989   10.193438    4.159919
     19          6           0        5.267075    4.747591    5.874854
     20          1           0        6.233275    4.281450    5.668653
     21          1           0        5.156380    4.815219    6.962225
     22          1           0        4.485917    4.077579    5.512106
 ---------------------------------------------------------------------
                    Distance matrix (angstroms):
                    1          2          3          4          5
     1  O    0.000000
     2  H    0.965060   0.000000
     3  C    2.544425   3.377976   0.000000
     4  B    1.363612   1.944218   1.576788   0.000000
     5  O    2.336248   2.379807   2.589680   1.369654   0.000000
     6  H    3.168300   3.326978   2.640539   1.959269   0.962581
     7  C    3.625072   4.395761   1.406628   2.590259   3.249682
     8  C    4.827088   5.670580   2.422796   3.873666   4.577488
     9  H    5.709729   6.512671   3.404566   4.738202   5.304417
    10  C    5.188694   6.099778   2.797745   4.374500   5.243478
    11  C    4.511172   5.422827   2.422234   3.868309   4.865839
    12  H    5.232465   6.127934   3.404336   4.731180   5.742275
    13  C    3.184389   4.066098   1.408168   2.584625   3.655331
    14  H    6.249553   7.170446   3.882316   5.459070   6.306068
    15  C    3.106130   3.841796   2.538570   2.969187   3.996546
    16  H    2.946398   3.471027   2.779101   2.739079   3.466706
    17  H    2.771403   3.495520   2.943222   3.109580   4.284618
    18  H    4.182180   4.889785   3.429266   4.031763   4.989303
    19  C    4.004520   4.551694   2.543769   2.990073   3.186709
    20  H    3.429252   3.853507   2.747174   2.673828   2.870003
    21  H    4.459267   4.873483   3.029746   3.278947   3.031173
    22  H    4.927777   5.497269   3.413082   4.019548   4.264850
                    6          7          8          9         10
     6  H    0.000000
     7  C    3.016164   0.000000
     8  C    4.242774   1.396813   0.000000
     9  H    4.885870   2.149224   1.085335   0.000000
    10  C    4.973324   2.419507   1.389241   2.148520   0.000000
[...]
 1909,0.00066825,0.00004216,-0.05518360,-0.04719212,0.00372164,-0.27875
 450,0.08037605,-0.09049150,0.00033201,-0.00179643,-0.00046923,0.631865
 09,-0.00330509,-0.00026726,0.00035972,-0.00006537,0.00015980,0.0001154
 8,0.04462436,-0.25245094,0.09429991,0.00858903,-0.00368005,0.00467479,
 -0.00233182,0.00072349,-0.00238115,0.00006452,-0.00020598,0.00100095,-
 0.06701834,-0.03934735,0.00123162,0.03368305,-0.03904813,0.02300216,0.
 00110655,-0.00062515,-0.00008191,0.00665329,0.05973960,-0.02063130,0.0
 0942570,-0.13445312,0.02944616,0.02398707,-0.00551303,0.01002391,0.032
 08825,0.56315404,0.00126333,-0.00011791,-0.00056515,-0.00011944,0.0000
 7367,-0.00012252,-0.03303534,0.07897214,-0.11022738,-0.00552679,0.0089
 5446,-0.00309419,-0.00091569,-0.00138755,0.00006411,-0.00002123,0.0003
 4524,-0.00008120,0.04238072,0.01600596,0.01001288,-0.02086769,0.023481
 41,-0.02295686,-0.00023952,0.00006712,-0.00089089,-0.01953600,-0.03682
 555,0.01726244,-0.05904869,0.05005688,-0.10726007,-0.01138406,0.003453
 22,-0.00060453,0.10531637,-0.16042981,0.27814343,-0.00018313,0.0000441
 4,-0.00000255,0.00000492,-0.00001379,-0.00000086,0.00012459,-0.0002173
 7,0.00056704,0.00018742,0.00003989,0.00031095,-0.00005599,-0.00001902,
 -0.00012013,0.00000560,0.00000953,0.00003735,0.00235118,-0.00049676,-0
 .00128220,0.00127117,-0.00150848,-0.00018040,0.00026129,0.00072971,0.0
 0093697,-0.28207183,0.06846284,-0.09663558,-0.01577473,0.00933296,-0.0
 0956586,0.00069663,0.00040192,0.00118618,-0.00124500,-0.00443825,-0.00
 053394,0.29571127,0.00013907,0.00000272,0.00000099,0.00001504,0.000000
 71,-0.00000184,-0.00037427,-0.00110874,-0.00024334,0.00001970,-0.00014
 234,-0.00032830,-0.00003130,0.00008162,-0.00003948,-0.00002857,-0.0000
 2495,-0.00001637,-0.00090094,-0.00340352,0.00471910,0.02586705,-0.0023
 1135,0.01006156,0.00003219,0.00040210,-0.00202506,0.06838491,-0.078197
 05,0.03558601,-0.01806309,0.00975273,-0.00730935,0.00115878,0.00009582
 ,-0.00155337,-0.00408633,-0.00085132,0.00267523,-0.07260948,0.07583882
 ,0.00009453,0.00003463,0.00005765,0.00003973,0.00002873,0.00000725,0.0
 0042580,-0.00066563,-0.00113411,0.00030786,-0.00043093,-0.00071882,-0.
 00014813,0.00018296,-0.00014899,-0.00002747,-0.00000815,0.00006199,-0.
 00100896,0.00469150,0.00554361,-0.01223819,0.00248465,-0.00013127,0.00
 128603,-0.00178351,-0.00317772,-0.09665461,0.03553765,-0.08132005,0.00
 245483,0.00019115,0.00492632,0.00085685,-0.00172115,-0.00321569,-0.000
 76295,0.00255912,0.00637360,0.10569577,-0.04148948,0.07346772,-0.00012
 153,0.00008447,-0.00005038,0.00002189,-0.00014203,-0.00002882,0.005098
 34,-0.00299361,0.00194080,0.00034150,0.00166045,0.00079334,0.00008244,
 -0.00027845,-0.00021923,-0.00001565,0.00007758,-0.00004078,0.00289570,
 0.00271245,-0.00329218,-0.00180201,-0.00043602,-0.00014781,0.00002804,
 0.00005968,0.00040590,-0.00082289,0.00196023,-0.00295771,-0.02742568,-
 0.02108183,0.00037725,0.00068040,-0.00074679,0.00142643,-0.16594944,-0
 .06234613,0.00320110,-0.00066376,-0.00056595,0.00019777,0.52492309,0.0
 0051524,-0.00269291,0.00068667,-0.00025192,-0.00015742,-0.00006844,-0.
 02593644,-0.01928045,0.00354644,0.00132562,-0.00063141,-0.00090338,-0.
 00052506,0.00023315,-0.00015688,-0.00005997,-0.00008770,0.00005442,0.0
 0263858,-0.00182555,0.00459636,-0.00019615,0.00027173,-0.00071156,-0.0
 0004400,-0.00001949,-0.00027962,0.00153216,-0.00002201,0.00294239,0.00
 249352,0.00646187,-0.00012816,0.00180187,0.00007440,-0.00069088,-0.070
 62598,-0.13853527,0.01181406,0.00060328,0.00040547,0.00006455,-0.04338
 129,0.55469527,0.00011691,0.00055610,-0.00090632,0.00020076,0.00016040
 ,-0.00002083,0.01017183,0.00892497,0.00113509,0.00119732,0.00101099,-0
 .00171507,-0.00058692,0.00033353,-0.00039060,-0.00000487,-0.00000598,0
 .00010108,-0.00241525,0.00370228,0.00403190,0.00032007,-0.00002648,-0.
 00093817,0.00028783,-0.00042651,-0.00078728,-0.00400395,0.00341150,0.0
 0590134,-0.00978393,-0.00604699,0.00713359,0.00063961,-0.00218690,-0.0
 0327900,0.00317892,0.01044895,-0.07533451,-0.00043639,-0.00046091,-0.0
 0012587,0.01747519,-0.00863304,0.55403163,0.00005439,0.00008348,0.0004
 4004,0.00003003,0.00004786,0.00000103,0.00135028,0.00211885,0.00008393
 ,0.00024844,-0.00069901,-0.00064151,0.00059719,-0.00024387,0.00020299,
 0.00000234,-0.00005383,-0.00002051,-0.00070319,0.00022517,0.00068484,0
 .00015494,-0.00019981,0.00002137,0.00005546,-0.00013448,-0.00012943,-0
 .00110524,0.00082715,0.00060852,-0.00228445,-0.00359243,0.00058303,0.0
 0019429,-0.00033488,-0.00036470,-0.01506261,-0.00058344,-0.02153298,-0
 .00029576,-0.00019916,0.00000587,-0.11165616,-0.00712186,-0.11818045,0
 .12288847,0.00025188,-0.00002482,-0.00024299,0.00015801,-0.00014783,-0
 .00001817,-0.00031203,0.00068392,0.00039670,-0.00057672,-0.00157469,0.
 00070862,0.00002591,-0.00113863,-0.00031573,-0.00004034,0.00005517,-0.
 00003936,0.00035703,0.00050764,0.00004604,-0.00045196,-0.00015897,-0.0
 0021059,0.00000624,0.00000690,0.00006021,-0.00053043,0.00040999,0.0003
 2901,-0.00090982,-0.00192886,0.00061872,-0.00007541,0.00021312,-0.0001
 5511,-0.00972246,-0.00089345,-0.01842788,-0.00017955,-0.00010049,0.000
 03154,-0.00709503,-0.04883613,-0.00941797,0.01039841,0.05055642,0.0001
 5931,0.00106021,0.00000004,0.00008578,-0.00001312,0.00002909,0.0008745
 8,0.00092728,0.00071295,-0.00096959,-0.00122436,0.00049830,0.00015011,
 0.00019165,0.00049614,-0.00001411,0.00001092,0.00000404,-0.00090084,-0
 .00037632,0.00021225,0.00053411,-0.00048343,0.00039423,0.00003046,-0.0
 0005021,-0.00005874,0.00057173,0.00059576,-0.00029529,-0.00015679,-0.0
 0018407,-0.00001383,0.00010394,-0.00001989,0.00006924,0.00379589,0.000
 68615,0.00511960,0.00002879,-0.00000457,-0.00002828,-0.11923634,-0.010
 44096,-0.24547343,0.12842007,0.01005468,0.26316151,-0.00027085,0.00036
 604,-0.00047325,0.00004000,0.00011037,-0.00004348,0.00090813,0.0012534
 5,-0.00074669,-0.00069509,0.00030098,0.00035375,0.00024936,-0.00018436
 ,0.00025037,0.00003963,0.00002295,-0.00008931,-0.00090022,-0.00061729,
 -0.00101562,0.00024509,-0.00048918,0.00043542,-0.00004666,0.00002155,0
 .00016101,0.00009381,-0.00016618,-0.00151812,-0.00116345,-0.00227639,0
 .00019980,-0.00022106,0.00025020,0.00060343,-0.01784861,0.00612871,0.0
 1674565,-0.00020270,-0.00007409,0.00003913,-0.15079872,0.05446847,0.12
 361415,0.01085142,-0.00542880,-0.01171512,0.16584407,0.00064916,-0.000
 30106,-0.00005685,0.00015178,-0.00005301,-0.00008476,-0.00030383,-0.00
 092231,0.00007198,-0.00112259,-0.00013328,0.00101138,0.00029307,-0.000
 03411,-0.00018035,-0.00003280,0.00000924,-0.00006449,0.00099462,0.0000
 4737,-0.00087244,-0.00083724,0.00017183,-0.00017612,-0.00000208,0.0000
 1849,0.00004424,-0.00015740,-0.00076515,-0.00050561,0.00016727,-0.0006
 6675,0.00021291,-0.00006565,0.00019394,0.00001848,-0.01407890,0.007691
 39,0.01621182,-0.00010989,-0.00004897,-0.00000222,0.05292003,-0.072287
 40,-0.05999940,0.00054644,-0.00106726,-0.00029747,-0.05601802,0.076108
 68,-0.00022037,-0.00117088,0.00065244,-0.00021523,-0.00002240,0.000010
 69,0.00042444,0.00070151,0.00072785,0.00128276,0.00039612,-0.00127723,
 -0.00016373,-0.00003482,0.00044908,0.00002124,-0.00001757,0.00000753,-
 0.00043160,0.00011021,0.00009315,0.00022394,-0.00044483,0.00018932,0.0
 0000048,0.00000102,-0.00000649,0.00043422,0.00051585,-0.00044877,-0.00
 118775,-0.00021706,-0.00054464,-0.00005516,0.00005887,0.00007830,0.000
 67329,0.00096246,0.00025454,-0.00001281,0.00004536,0.00005568,0.121429
 04,-0.06013111,-0.18113240,0.01758296,-0.00915754,-0.01969254,-0.13332
 096,0.06624139,0.19375767,0.00007887,0.00110728,-0.00034559,0.00017000
 ,0.00005986,-0.00000383,-0.00382220,-0.00255434,-0.00019433,-0.0012490
 2,-0.00063808,0.00040481,0.00025205,0.00008338,-0.00011715,-0.00002663
 ,-0.00000689,-0.00003879,0.00030249,-0.00088441,0.00085966,-0.00003116
 ,-0.00006936,-0.00004070,-0.00003163,0.00003575,0.00000808,0.00031110,
 -0.00018020,0.00006487,0.00049760,-0.00139442,0.00064070,-0.00016337,0
 .00040615,-0.00026754,0.00797751,-0.02504624,0.00655055,0.00004373,0.0
 0006109,-0.00000408,-0.07529405,0.08377004,-0.02231516,-0.00535873,0.0
 1408768,-0.00175730,-0.00610735,0.01702199,-0.00649204,0.08274376,0.00
 029536,-0.00007245,0.00018587,-0.00007645,-0.00000284,-0.00000075,-0.0
 0373719,-0.00169455,-0.00017487,-0.00065962,0.00025126,-0.00074481,0.0
 0020111,-0.00006404,0.00042540,0.00001580,-0.00000234,-0.00010539,0.00
 086925,-0.00039172,0.00080157,-0.00028151,0.00018248,-0.00017908,-0.00
 005993,0.00000844,-0.00008207,-0.00030271,0.00001565,0.00020455,0.0022
 0237,0.00119357,0.00058898,-0.00045600,0.00082506,-0.00068032,0.007579
 80,-0.01788305,0.00485509,-0.00001604,-0.00001612,-0.00003879,0.079015
 83,-0.27712274,0.05816811,-0.00103453,0.00342655,-0.00041045,0.0023937
 8,-0.00795172,0.00213748,-0.08563528,0.29954778,-0.00005671,0.00016861
 ,0.00040015,0.00001547,-0.00009935,0.00005390,0.00066161,0.00074203,0.
 00119902,0.00016781,-0.00087151,-0.00005426,0.00001372,0.00009583,-0.0
 0006055,-0.00003492,0.00001226,0.00004013,0.00009335,0.00033206,0.0002
 7456,-0.00018387,0.00002476,-0.00004246,0.00001778,0.00001551,0.000049
 52,0.00017396,-0.00025224,-0.00021102,-0.00092340,-0.00079692,0.000239
 42,-0.00013792,-0.00002030,0.00046687,-0.00026656,0.00294901,-0.002789
 22,0.00001523,-0.00000617,-0.00002914,-0.02133339,0.05851212,-0.062110
 15,-0.00776949,0.02573142,-0.00511776,0.00644962,-0.02163442,0.0068350
 2,0.02300819,-0.06492250,0.06099258,-0.00034555,0.00009306,0.00009323,
 -0.00000769,-0.00006246,-0.00003097,0.00566521,-0.02252594,0.01171804,
 -0.00071824,-0.00258589,0.00020792,-0.00071051,-0.00103090,0.00001818,
 0.00037741,0.00050586,0.00014005,-0.08841998,0.00767885,-0.00774019,-0
 .00029238,0.02715177,-0.01487930,0.00039241,0.00176044,0.00121595,-0.0
 0373773,-0.00072271,-0.00406271,-0.00040902,0.00022779,0.00007907,0.00
 015586,0.00012176,0.00029027,-0.00392651,-0.00263041,-0.00064108,-0.00
 014091,0.00122662,-0.00047349,0.00053818,-0.00101206,0.00045690,0.0000
 1379,0.00002727,-0.00003102,-0.00003610,0.00000219,0.00002112,-0.00030
 383,-0.00031406,0.00007055,0.58840976,0.00033691,-0.00028841,0.0002274
 1,0.00015028,0.00005066,-0.00006475,-0.00014175,-0.02055474,0.01092457
 ,0.00011111,0.00130405,-0.00173496,-0.00194608,-0.00217755,-0.00058901
 ,-0.00004541,0.00054668,0.00012410,0.01067382,-0.19247653,0.05867691,0
 .00403254,-0.01215378,0.00852404,-0.00126230,0.00042051,-0.00153283,-0
 .00022116,0.00218370,0.00140883,0.00064386,-0.00072271,-0.00016159,0.0
 0006169,-0.00007663,-0.00013383,-0.00332454,0.00235834,0.00078408,-0.0
 0015322,0.00003843,0.00008332,0.00033536,-0.00035860,0.00028764,0.0000
 1504,0.00003133,0.00000449,0.00000591,0.00000699,0.00000760,-0.0001073
 0,-0.00011173,-0.00002071,0.00933178,0.51009591,0.00031508,-0.00002802
 ,0.00038018,0.00017646,0.00012893,0.00001999,0.00263895,0.00315305,0.0
 0235791,0.00075868,-0.00048417,-0.00287524,-0.00083144,-0.00045980,-0.
 00059796,-0.00058615,-0.00041223,0.00024266,-0.00944257,0.05197569,-0.
 09799259,-0.00398017,0.01492541,-0.00180739,0.00124912,-0.00125919,-0.
 00283079,-0.00257143,0.00096552,0.00618815,-0.00006657,0.00079986,-0.0
 0132000,0.00029635,-0.00040450,-0.00083978,-0.00208514,0.00052490,0.00
 712433,0.00005810,0.00016097,-0.00024801,0.00012422,-0.00020575,0.0000
 7256,-0.00001830,0.00000361,-0.00003083,0.00000229,0.00002247,-0.00000
 451,-0.00002397,-0.00010712,-0.00010794,0.00583678,0.02718826,0.529227
 36,-0.00013177,-0.00027430,-0.00019350,0.00001797,0.00005901,-0.000024
 00,0.00050149,-0.00177384,0.00044978,-0.00032582,0.00005333,0.00006191
 ,-0.00135875,-0.00133780,-0.00037190,-0.00001329,0.00016108,0.00007902
 ,-0.00051740,-0.00057265,-0.00104684,0.00014947,0.00132160,-0.00018100
 ,0.00027904,0.00008384,0.00021569,-0.00028244,-0.00046622,-0.00001805,
 0.00061876,-0.00006253,0.00014722,-0.00000396,0.00009269,0.00013377,-0
 .00002463,0.00051750,-0.00089300,-0.00001812,0.00008834,-0.00000869,-0
 .00003522,0.00002078,0.00001280,0.00001239,0.00001212,0.00001065,0.000
 02044,0.00000643,-0.00000082,0.00001476,0.00001453,0.00000349,-0.26011
 521,0.10023484,0.04849857,0.28137615,-0.00018552,-0.00056315,-0.000454
 52,-0.00015008,-0.00003544,-0.00000400,0.00043870,0.00228191,0.0001122
 3,-0.00150439,-0.00286244,0.00026658,0.00000976,0.00070893,0.00009198,
 0.00008978,-0.00036570,-0.00028057,0.02625792,-0.01143151,-0.00599152,
 -0.00107581,-0.00422005,0.00137091,0.00018271,-0.00001673,-0.00020928,
 0.00083498,0.00053361,0.00102517,-0.00010892,-0.00030835,-0.00005764,-
 0.00005770,-0.00003447,-0.00005086,0.00006099,0.00023164,0.00043219,0.
 00005576,-0.00032111,0.00017480,-0.00001249,0.00005269,-0.00001122,-0.
 00002858,-0.00002364,-0.00001456,-0.00001815,-0.00000792,0.00000925,0.
 00000915,0.00000512,-0.00001265,0.09857832,-0.09505205,-0.02258349,-0.
 10807230,0.10371401,0.00019273,-0.00001663,-0.00019244,-0.00004790,-0.
 00002196,0.00003464,-0.00047983,-0.00068970,0.00039088,-0.00016232,-0.
 00074733,0.00107916,0.00037487,0.00077074,-0.00009133,0.00015164,-0.00
 043040,-0.00037523,-0.01534972,0.00718252,0.00133146,0.00034230,0.0024
 1596,-0.00038538,0.00007771,0.00019719,0.00020371,-0.00039037,0.000509
 75,-0.00091324,-0.00038752,-0.00013462,0.00001399,0.00000461,0.0000498
 7,0.00004767,0.00013517,-0.00033363,-0.00014609,-0.00003015,0.00018302
 ,-0.00014750,0.00002990,-0.00000922,-0.00000447,0.00000365,0.00001083,
 -0.00000825,0.00001251,0.00001392,0.00000006,-0.00000459,0.00000674,0.
 00000233,0.04919034,-0.02370406,-0.05444727,-0.05252832,0.02169559,0.0
 5736122,0.00035308,-0.00001195,-0.00031692,-0.00006026,0.00005051,0.00
 003187,-0.00015870,-0.00195749,0.00035204,-0.00028689,-0.00032358,0.00
 119032,-0.00074763,0.00011430,-0.00043536,-0.00060456,-0.00103632,-0.0
 0049882,0.00006088,-0.00022906,-0.00313280,-0.00081148,0.00202879,-0.0
 0058082,0.00002239,-0.00010024,-0.00029146,-0.00065977,-0.00098495,0.0
 0091794,0.00123215,0.00033531,0.00022290,0.00001910,0.00000181,-0.0000
 2443,-0.00072865,0.00089666,-0.00090818,-0.00001158,-0.00000445,-0.000
 08760,-0.00002805,-0.00001268,0.00002114,0.00001338,0.00000178,0.00000
 896,0.00002014,-0.00000984,0.00001005,-0.00000310,0.00000504,-0.000002
 20,-0.04679240,0.00140049,0.02640189,-0.00200963,0.00196780,0.02889559
 ,0.04804229,-0.00027572,0.00009306,-0.00020858,-0.00007598,-0.00002188
 ,-0.00000006,0.00007820,-0.00024578,-0.00014688,0.00037625,-0.00029488
 ,0.00130567,-0.00087294,-0.00027146,-0.00070408,-0.00080236,-0.0003243
 0,-0.00025163,-0.00243817,0.00173457,0.03128704,-0.00070629,-0.0009960
 0,-0.00012506,0.00007891,0.00025907,0.00037862,0.00031792,-0.00078816,
 -0.00099361,0.00015729,-0.00038687,0.00037434,-0.00003711,0.00003827,0
 .00011924,0.00047787,-0.00050544,-0.00131763,0.00005417,-0.00010273,0.
 00011139,0.00002493,-0.00001800,0.00004805,-0.00002364,0.00000067,-0.0
 0000241,-0.00002995,-0.00001249,0.00000153,-0.00002295,-0.00001977,0.0
 0004224,0.00125457,-0.04575246,-0.01811153,0.00026349,-0.00164417,-0.0
 1288097,-0.00102218,0.05095676,0.00016437,-0.00005612,0.00022595,0.000
 02540,0.00001143,-0.00004568,-0.00077781,-0.00030613,0.00065127,-0.000
 30562,0.00027356,-0.00124155,-0.00080993,-0.00096677,0.00058804,0.0003
 7986,0.00057575,0.00026268,0.00041714,0.00167932,-0.01095850,0.0007351
 9,0.00092884,0.00020650,0.00011705,-0.00010665,-0.00043629,-0.00033713
 ,0.00051055,0.00044348,0.00031399,-0.00004081,-0.00002067,0.00003742,-
 0.00001466,-0.00011250,-0.00043018,0.00086552,0.00009376,-0.00003817,0
 .00010007,-0.00005203,-0.00004202,0.00003433,-0.00002807,0.00002306,0.
 00000785,0.00001373,0.00002584,0.00000873,0.00000061,0.00002435,0.0000
 2742,-0.00001876,0.02666402,-0.02169938,-0.30629964,0.00035027,-0.0008
 6669,-0.00551847,-0.02792211,0.02007069,0.33226125,-0.00022934,-0.0000
 0504,0.00018747,0.00008274,0.00000638,-0.00000789,0.00060753,-0.000222
 80,-0.00045403,0.00074547,0.00095352,-0.00045070,-0.00044282,-0.000773
 03,-0.00026456,-0.00009135,0.00020461,0.00026767,0.00133778,0.00237911
 ,0.00224480,0.00024454,0.00199859,-0.00052716,0.00012373,0.00014570,-0
 .00053252,0.00016601,-0.00001619,0.00066495,0.00008192,0.00017349,-0.0
 0002347,0.00005716,-0.00007153,-0.00008249,0.00010786,0.00000041,-0.00
 025410,0.00000573,-0.00005518,0.00000999,0.00000358,-0.00000216,0.0000
 3349,-0.00000066,-0.00000379,0.00000671,-0.00002127,-0.00001474,-0.000
 00305,-0.00000081,-0.00001956,0.00001768,-0.18959653,-0.12013188,-0.06
 675073,-0.01815423,-0.01727194,-0.01003028,0.00313931,0.00322368,0.001
 38501,0.20183367,-0.00032038,0.00015172,-0.00003337,-0.00002906,-0.000
 00331,0.00001970,0.00171638,-0.00436096,0.00227422,0.00077046,-0.00087
 659,0.00037948,0.00017881,0.00073274,-0.00006447,0.00008895,-0.0001413
 1,0.00004321,-0.02146917,-0.01771992,-0.01000140,-0.00179330,0.0015464
 7,-0.00054363,0.00105433,0.00010333,0.00006233,-0.00016463,-0.00005652
 ,0.00025746,0.00035020,-0.00011020,0.00005752,0.00009054,-0.00002207,-
 0.00001190,-0.00154038,0.00020125,0.00032376,0.00002765,0.00001027,-0.
 00003613,0.00022860,-0.00031949,0.00016288,-0.00001289,0.00000307,-0.0
 0000935,-0.00001999,0.00000349,0.00000757,-0.00010290,-0.00012283,0.00
 001091,-0.11707587,-0.14731144,-0.05579284,0.00963004,0.00935883,0.005
 93240,-0.00110975,-0.00169802,-0.00103688,0.12950236,0.16063152,-0.000
 01846,-0.00002705,0.00014629,0.00002317,-0.00001614,-0.00002725,-0.000
 94131,0.00253655,-0.00043391,-0.00030502,0.00011174,-0.00067059,-0.000
 24079,-0.00046615,0.00029866,0.00025968,0.00046873,0.00026643,0.012149
 70,0.01082245,0.00377959,0.00056020,0.00036761,0.00035679,-0.00017415,
 -0.00013341,0.00010973,0.00007931,-0.00028218,0.00007967,0.00036838,0.
 00004353,0.00012939,-0.00002186,0.00000558,-0.00000625,0.00037083,0.00
 070698,-0.00037608,0.00000267,-0.00005409,-0.00001632,-0.00005230,0.00
 010765,-0.00016103,-0.00000399,-0.00001387,0.00000784,0.00002959,0.000
 01681,-0.00000535,0.00004386,0.00004494,-0.00001222,-0.06814368,-0.058
 60012,-0.07621116,0.00530294,0.00535832,0.00176454,-0.02385199,-0.0189
 9638,-0.01001510,0.07456321,0.05799852,0.08099633\\-0.00000216,0.00000
 181,0.00000046,0.00000061,-0.00000323,-0.00000529,0.00000272,0.0000001
 3,0.00000122,-0.00000220,-0.00000643,-0.00000392,0.00001410,-0.0000045
 7,-0.00000806,0.00000178,-0.00000903,-0.00000194,-0.00000241,-0.000002
 15,-0.00000273,0.00000058,0.00000072,0.00000079,-0.00000056,0.00000220
 ,-0.00000172,0.00000053,0.00000573,0.00000455,-0.00000350,0.00000330,0
 .00000616,-0.00000060,0.00000561,0.00000884,0.00000202,-0.00000113,0.0
 0000259,-0.00000061,0.00000562,0.00000580,-0.00000018,0.00000421,0.000
 00564,-0.00000277,0.00000070,0.00000456,-0.00000200,0.00000431,0.00000
 581,0.00000138,0.00000418,0.00001050,-0.00000289,-0.00000364,-0.000009
 22,-0.00000065,-0.00000176,-0.00001031,-0.00000238,-0.00000592,-0.0000
 0582,-0.00000080,-0.00000066,-0.00000790\\\@
 The archive entry for this job was punched.


          EVOLUTION
 IN THE BEGINNING GOD MADE MAN.
 HE WORKED THE DIRT WITH HIS HANDS.
 THEN GOD DECIDED TO GIVE MAN SCIENCE,
 MAN SHOULD BE USEFUL (LIKE AN APPLIANCE.)
 BUT SOON MAN'S KNOWLEDGE GREW TOO GREAT,
 TO THE HEADING SCIENCE HE COULDN'T RELATE
 SO GOD SAID "LETS HAVE DIFFERENT FIELDS,
 WE'LL DIVIDE THEM UP, SEE WHAT IT YIELDS."
 ENTER PHYSICS, CHEMISTRY, BIO
 THEY SPRANG UP AROUND THE NILE.
 BUT CHEMISTRY SURPASSED THE REST
 FAR AND AWAY IT WAS THE BEST.
 EXPERIMENT WAS GOD'S DECREE
 EXPERIMENT DID CHEMISTS WITH LOTS OF GLEE
 BUT SOON THEIR TESTS BEGAN TO BOG,
 THEY FOUND THEMSELVES DEEP IN A FOG.
 "GIVE US SOME HELP" THEY CRIED TO GOD.
 GOD LOOKED AROUND, THEN GAVE THE NOD.
 ENTER EINSTEIN, HEISENBERG, BOHR,
 REACTION PATHS WERE CLEAR ONCE MORE.
 WITH THEORISTS GOD SEND DIRECTION
 AND THEN HE STOPPED, HE'D MADE PERFECTION.
          -- THOMAS A. HOLME, 1981
 Job cpu time:       0 days  1 hours 24 minutes 44.5 seconds.
 Elapsed time:       0 days  0 hours  2 minutes 45.4 seconds.
 File lengths (MBytes):  RWF=    247 Int=      0 D2E=      0 Chk=     19 Scr=      1
 Normal termination of Gaussian 16 at Tue May 13 14:42:23 2025.
