/home/tahminaafroz
cn008.cluster.local
tahminaafroz
Wed May 14 13:12:04 CDT 2025
 Entering Gaussian System, Link 0=g16
 Initial command:
 /home/apps/g16/l1.exe "/tmp/2-6-diMe-ph-opt-freq-thf-non-tight-2-512/Gau-3686964.inp" -scrdir="/tmp/2-6-diMe-ph-opt-freq-thf-non-tight-2-512/"
 Entering Link 1 = /home/apps/g16/l1.exe PID=   3686965.
  
 Copyright (c) 1988-2019, Gaussian, Inc.  All Rights Reserved.
  
 This is part of the Gaussian(R) 16 program.  It is based on
 the Gaussian(R) 09 system (copyright 2009, Gaussian, Inc.),
 the Gaussian(R) 03 system (copyright 2003, Gaussian, Inc.),
 the Gaussian(R) 98 system (copyright 1998, Gaussian, Inc.),
 the Gaussian(R) 94 system (copyright 1995, Gaussian, Inc.),
 the Gaussian 92(TM) system (copyright 1992, Gaussian, Inc.),
 the Gaussian 90(TM) system (copyright 1990, Gaussian, Inc.),
 the Gaussian 88(TM) system (copyright 1988, Gaussian, Inc.),
 the Gaussian 86(TM) system (copyright 1986, Carnegie Mellon
 University), and the Gaussian 82(TM) system (copyright 1983,
 Carnegie Mellon University). Gaussian is a federally registered
 trademark of Gaussian, Inc.
  
 This software contains proprietary and confidential information,
 including trade secrets, belonging to Gaussian, Inc.
  
 This software is provided under written license and may be
 used, copied, transmitted, or stored only in accord with that
 written license.
  
 The following legend is applicable only to US Government
 contracts under FAR:
  
                    RESTRICTED RIGHTS LEGEND
  
 Use, reproduction and disclosure by the US Government is
 subject to restrictions as set forth in subparagraphs (a)
 and (c) of the Commercial Computer Software - Restricted
 Rights clause in FAR 52.227-19.
  
 Gaussian, Inc.
 340 Quinnipiac St., Bldg. 40, Wallingford CT 06492
  
  
 ---------------------------------------------------------------
 Warning -- This program may not be used in any manner that
 competes with the business of Gaussian, Inc. or will provide
 assistance to any competitor of Gaussian, Inc.  The licensee
 of this program is prohibited from giving any competitor of
 Gaussian, Inc. access to this program.  By using this program,
 the user acknowledges that Gaussian, Inc. is engaged in the
 business of creating and licensing software in the field of
 computational chemistry and represents and warrants to the
 licensee that it is not a competitor of Gaussian, Inc. and that
 it will not use this program in any manner prohibited above.
 ---------------------------------------------------------------
  

 Cite this work as:
 Gaussian 16, Revision C.01,
 M. J. Frisch, G. W. Trucks, H. B. Schlegel, G. E. Scuseria, 
 M. A. Robb, J. R. Cheeseman, G. Scalmani, V. Barone, 
 G. A. Petersson, H. Nakatsuji, X. Li, M. Caricato, A. V. Marenich, 
 J. Bloino, B. G. Janesko, R. Gomperts, B. Mennucci, H. P. Hratchian, 
 J. V. Ortiz, A. F. Izmaylov, J. L. Sonnenberg, D. Williams-Young, 
 F. Ding, F. Lipparini, F. Egidi, J. Goings, B. Peng, A. Petrone, 
 T. Henderson, D. Ranasinghe, V. G. Zakrzewski, J. Gao, N. Rega, 
 G. Zheng, W. Liang, M. Hada, M. Ehara, K. Toyota, R. Fukuda, 
 J. Hasegawa, M. Ishida, T. Nakajima, Y. Honda, O. Kitao, H. Nakai, 
 T. Vreven, K. Throssell, J. A. Montgomery, Jr., J. E. Peralta, 
 F. Ogliaro, M. J. Bearpark, J. J. Heyd, E. N. Brothers, K. N. Kudin, 
 V. N. Staroverov, T. A. Keith, R. Kobayashi, J. Normand, 
 K. Raghavachari, A. P. Rendell, J. C. Burant, S. S. Iyengar, 
 J. Tomasi, M. Cossi, J. M. Millam, M. Klene, C. Adamo, R. Cammi, 
 J. W. Ochterski, R. L. Martin, K. Morokuma, O. Farkas, 
 J. B. Foresman, and D. J. Fox, Gaussian, Inc., Wallingford CT, 2019.
 
 ******************************************
 Gaussian 16:  AS64L-G16RevC.01  3-Jul-2019
                14-May-2025 
 ******************************************
 %mem=20GB
 %nprocshared=32
 Will use up to   32 processors via shared memory.
 %chk=2-6-diMe-ph-opt-freq-thf-non-tight-2-512.chk
 ----------------------------------------------------------------------
 # opt=calcfc freq 6-311+g(d,p) scrf=(smd,solvent=thf) nosymm scf=(qc,f
 ermi,xqc,maxcycle=512) geom=connectivity int=ultrafine m062x
 ----------------------------------------------------------------------
 1/10=4,18=20,19=15,26=6,38=1,57=2/1,3;
 2/9=110,12=2,15=1,17=6,18=5,40=1/2;
 3/5=4,6=6,7=111,11=2,25=1,30=1,70=32201,71=2,72=20,74=-55,75=-5,140=1/1,2,3;
 4//1;
 5/5=2,7=512,22=13,38=5,53=20/2;
 8/6=4,10=90,11=11/1;
 11/6=1,8=1,9=11,15=111,16=1,31=1/1,2,10;
 10/6=1,13=1,31=1/2;
 6/7=2,8=2,9=2,10=2,28=1/1;
 7/10=1,25=1,30=1/1,2,3,16;
 1/10=4,18=20,19=15,26=6/3(2);
 2/9=110,15=1/2;
 99//99;
 2/9=110,15=1/2;
 3/5=4,6=6,7=111,11=2,25=1,30=1,70=32205,71=1,72=20,74=-55,75=-5/1,2,3;
 4/5=5,16=3,69=1/1;
 5/5=2,7=512,22=13,38=5,53=20/2;
 7/30=1/1,2,3,16;
 1/18=20,19=15,26=6/3(-5);
 2/9=110,15=1/2;
 6/7=2,8=2,9=2,10=2,19=2,28=1/1;
 99/9=1/99;
 ----------------------------------------
 2-6-diMe-ph-opt-freq-thf-non-tight-2-512
 ----------------------------------------
 Symbolic Z-matrix:
 Charge =  0 Multiplicity = 2
 C                     6.14397   6.99773   5.07395 
 C                     5.12079   6.08748   5.20725 
 C                     3.87592   6.51383   4.71735 
 H                     3.02375   5.84395   4.7829 
 C                     3.73333   7.77651   4.15038 
 C                     4.82046   8.64392   4.05326 
 H                     4.69734   9.62619   3.60741 
 C                     6.08361   8.26099   4.52434 
 H                     2.76505   8.08942   3.77629 
 C                     7.28662   9.16221   4.43107 
 H                     7.72435   9.32933   5.4178 
 H                     8.05791   8.71386   3.80023 
 H                     7.01223   10.12834   4.00556 
 C                     5.3071    4.73939   5.85298 
 H                     6.3125    4.35521   5.67487 
 H                     5.1646    4.8115    6.93489 
 H                     4.58244   4.02143   5.46559 
 

 GradGradGradGradGradGradGradGradGradGradGradGradGradGradGradGradGradGrad
 Berny optimization.
 Initialization pass.
                           ----------------------------
                           !    Initial Parameters    !
                           ! (Angstroms and Degrees)  !
 --------------------------                            --------------------------
 ! Name  Definition              Value          Derivative Info.                !
 --------------------------------------------------------------------------------
 ! R1    R(1,2)                  1.3759         calculate D2E/DX2 analytically  !
 ! R2    R(1,8)                  1.379          calculate D2E/DX2 analytically  !
 ! R3    R(2,3)                  1.4041         calculate D2E/DX2 analytically  !
 ! R4    R(2,14)                 1.5063         calculate D2E/DX2 analytically  !
 ! R5    R(3,4)                  1.0859         calculate D2E/DX2 analytically  !
 ! R6    R(3,5)                  1.3915         calculate D2E/DX2 analytically  !
 ! R7    R(5,6)                  1.3942         calculate D2E/DX2 analytically  !
 ! R8    R(5,9)                  1.0842         calculate D2E/DX2 analytically  !
 ! R9    R(6,7)                  1.0857         calculate D2E/DX2 analytically  !
 ! R10   R(6,8)                  1.4015         calculate D2E/DX2 analytically  !
 ! R11   R(8,10)                 1.506          calculate D2E/DX2 analytically  !
 ! R12   R(10,11)                1.0923         calculate D2E/DX2 analytically  !
 ! R13   R(10,12)                1.0927         calculate D2E/DX2 analytically  !
 ! R14   R(10,13)                1.0908         calculate D2E/DX2 analytically  !
 ! R15   R(14,15)                1.0909         calculate D2E/DX2 analytically  !
 ! R16   R(14,16)                1.0936         calculate D2E/DX2 analytically  !
 ! R17   R(14,17)                1.0912         calculate D2E/DX2 analytically  !
 ! A1    A(2,1,8)              127.7411         calculate D2E/DX2 analytically  !
 ! A2    A(1,2,3)              115.127          calculate D2E/DX2 analytically  !
 ! A3    A(1,2,14)             122.7927         calculate D2E/DX2 analytically  !
 ! A4    A(3,2,14)             122.0712         calculate D2E/DX2 analytically  !
 ! A5    A(2,3,4)              119.1689         calculate D2E/DX2 analytically  !
 ! A6    A(2,3,5)              120.5681         calculate D2E/DX2 analytically  !
 ! A7    A(4,3,5)              120.2627         calculate D2E/DX2 analytically  !
 ! A8    A(3,5,6)              120.8687         calculate D2E/DX2 analytically  !
 ! A9    A(3,5,9)              119.6052         calculate D2E/DX2 analytically  !
 ! A10   A(6,5,9)              119.5259         calculate D2E/DX2 analytically  !
 ! A11   A(5,6,7)              120.2036         calculate D2E/DX2 analytically  !
 ! A12   A(5,6,8)              120.6239         calculate D2E/DX2 analytically  !
 ! A13   A(7,6,8)              119.1723         calculate D2E/DX2 analytically  !
 ! A14   A(1,8,6)              115.0707         calculate D2E/DX2 analytically  !
 ! A15   A(1,8,10)             122.5416         calculate D2E/DX2 analytically  !
 ! A16   A(6,8,10)             122.3872         calculate D2E/DX2 analytically  !
 ! A17   A(8,10,11)            110.8375         calculate D2E/DX2 analytically  !
 ! A18   A(8,10,12)            110.7367         calculate D2E/DX2 analytically  !
 ! A19   A(8,10,13)            110.6863         calculate D2E/DX2 analytically  !
 ! A20   A(11,10,12)           107.544          calculate D2E/DX2 analytically  !
 ! A21   A(11,10,13)           108.5232         calculate D2E/DX2 analytically  !
 ! A22   A(12,10,13)           108.4087         calculate D2E/DX2 analytically  !
 ! A23   A(2,14,15)            111.0487         calculate D2E/DX2 analytically  !
 ! A24   A(2,14,16)            110.4238         calculate D2E/DX2 analytically  !
 ! A25   A(2,14,17)            110.7639         calculate D2E/DX2 analytically  !
 ! A26   A(15,14,16)           107.7471         calculate D2E/DX2 analytically  !
 ! A27   A(15,14,17)           108.8061         calculate D2E/DX2 analytically  !
 ! A28   A(16,14,17)           107.9425         calculate D2E/DX2 analytically  !
 ! D1    D(8,1,2,3)              0.1142         calculate D2E/DX2 analytically  !
 ! D2    D(8,1,2,14)          -178.8132         calculate D2E/DX2 analytically  !
 ! D3    D(2,1,8,6)              0.0858         calculate D2E/DX2 analytically  !
 ! D4    D(2,1,8,10)          -179.6726         calculate D2E/DX2 analytically  !
 ! D5    D(1,2,3,4)            179.5683         calculate D2E/DX2 analytically  !
 ! D6    D(1,2,3,5)             -0.223          calculate D2E/DX2 analytically  !
 ! D7    D(14,2,3,4)            -1.4957         calculate D2E/DX2 analytically  !
 ! D8    D(14,2,3,5)           178.713          calculate D2E/DX2 analytically  !
 ! D9    D(1,2,14,15)          -32.362          calculate D2E/DX2 analytically  !
 ! D10   D(1,2,14,16)           87.0984         calculate D2E/DX2 analytically  !
 ! D11   D(1,2,14,17)         -153.3806         calculate D2E/DX2 analytically  !
 ! D12   D(3,2,14,15)          148.784          calculate D2E/DX2 analytically  !
 ! D13   D(3,2,14,16)          -91.7556         calculate D2E/DX2 analytically  !
 ! D14   D(3,2,14,17)           27.7654         calculate D2E/DX2 analytically  !
 ! D15   D(2,3,5,6)              0.1374         calculate D2E/DX2 analytically  !
 ! D16   D(2,3,5,9)            179.9499         calculate D2E/DX2 analytically  !
 ! D17   D(4,3,5,6)           -179.6517         calculate D2E/DX2 analytically  !
 ! D18   D(4,3,5,9)              0.1608         calculate D2E/DX2 analytically  !
 ! D19   D(3,5,6,7)            179.9022         calculate D2E/DX2 analytically  !
 ! D20   D(3,5,6,8)              0.0773         calculate D2E/DX2 analytically  !
 ! D21   D(9,5,6,7)              0.0895         calculate D2E/DX2 analytically  !
 ! D22   D(9,5,6,8)           -179.7353         calculate D2E/DX2 analytically  !
 ! D23   D(5,6,8,1)             -0.1808         calculate D2E/DX2 analytically  !
 ! D24   D(5,6,8,10)           179.5779         calculate D2E/DX2 analytically  !
 ! D25   D(7,6,8,1)            179.9926         calculate D2E/DX2 analytically  !
 ! D26   D(7,6,8,10)            -0.2487         calculate D2E/DX2 analytically  !
 ! D27   D(1,8,10,11)          -57.0293         calculate D2E/DX2 analytically  !
 ! D28   D(1,8,10,12)           62.244          calculate D2E/DX2 analytically  !
 ! D29   D(1,8,10,13)         -177.4979         calculate D2E/DX2 analytically  !
 ! D30   D(6,8,10,11)          123.2299         calculate D2E/DX2 analytically  !
 ! D31   D(6,8,10,12)         -117.4968         calculate D2E/DX2 analytically  !
 ! D32   D(6,8,10,13)            2.7614         calculate D2E/DX2 analytically  !
 --------------------------------------------------------------------------------
 Trust Radius=3.00D-01 FncErr=5.00D-06 GrdErr=5.00D-06 EigMax=2.50D+02 EigMin=1.00D-04
 Number of steps in this run=     87 maximum allowed number of steps=    102.
 GradGradGradGradGradGradGradGradGradGradGradGradGradGradGradGradGradGrad

                          Input orientation:                          
 ---------------------------------------------------------------------
 Center     Atomic      Atomic             Coordinates (Angstroms)
 Number     Number       Type             X           Y           Z
 ---------------------------------------------------------------------
      1          6           0        6.143973    6.997728    5.073947
      2          6           0        5.120788    6.087484    5.207247
      3          6           0        3.875915    6.513826    4.717352
      4          1           0        3.023753    5.843954    4.782901
      5          6           0        3.733326    7.776509    4.150384
      6          6           0        4.820461    8.643923    4.053261
      7          1           0        4.697344    9.626194    3.607412
      8          6           0        6.083607    8.260995    4.524342
      9          1           0        2.765048    8.089415    3.776293
     10          6           0        7.286616    9.162211    4.431074
     11          1           0        7.724351    9.329330    5.417798
     12          1           0        8.057914    8.713855    3.800229
     13          1           0        7.012233   10.128336    4.005563
     14          6           0        5.307099    4.739392    5.852981
     15          1           0        6.312501    4.355211    5.674871
     16          1           0        5.164596    4.811498    6.934891
     17          1           0        4.582435    4.021427    5.465586
 ---------------------------------------------------------------------
                    Distance matrix (angstroms):
                    1          2          3          4          5
     1  C    0.000000
     2  C    1.375944   0.000000
     3  C    2.346361   1.404092   0.000000
     4  H    3.339412   2.153354   1.085912   0.000000
     5  C    2.696421   2.427924   1.391457   2.153681   0.000000
     6  C    2.345942   2.820862   2.422911   3.405930   1.394167
     7  H    3.339505   3.906564   3.404930   4.299770   2.155338
     8  C    1.378968   2.473364   2.822013   3.907895   2.428661
     9  H    3.780585   3.406592   2.145250   2.474325   1.084166
    10  C    2.530594   3.840209   4.327676   5.413558   3.824242
    11  H    2.837639   4.163224   4.819559   5.886133   4.466080
    12  H    2.868906   4.183806   4.813560   5.877478   4.438839
    13  H    3.419945   4.620616   4.838163   5.904926   4.037734
    14  C    2.531271   1.506332   2.546872   2.752962   3.820952
    15  H    2.715218   2.153978   3.393142   3.718579   4.547690
    16  H    3.033462   2.148212   3.078327   3.206281   4.311995
    17  H    3.383807   2.150617   2.696494   2.493422   4.068339
                    6          7          8          9         10
     6  C    0.000000
     7  H    1.085723   0.000000
     8  C    1.401460   2.150873   0.000000
     9  H    2.146838   2.474667   3.406149   0.000000
    10  C    2.548193   2.756452   1.506028   4.692995   0.000000
    11  H    3.280902   3.539548   2.152126   5.369042   1.092321
    12  H    3.248079   3.487545   2.151118   5.329627   1.092652
    13  H    2.647569   2.401954   2.149056   4.716815   1.090753
    14  C    4.326797   5.412505   3.843167   4.690129   5.049914
    15  H    4.821706   5.887816   4.078144   5.489381   5.059958
    16  H    4.807255   5.871264   4.307477   5.145805   5.449841
    17  H    4.839296   5.905881   4.594931   4.764990   5.900040
                   11         12         13         14         15
    11  H    0.000000
    12  H    1.762556   0.000000
    13  H    1.771985   1.770979   0.000000
    14  C    5.205768   5.251393   5.946524   0.000000
    15  H    5.176994   5.055544   6.050222   1.090941   0.000000
    16  H    5.409688   5.781504   6.345352   1.093634   1.764521
    17  H    6.168286   6.072170   6.732750   1.091186   1.774356
                   16         17
    16  H    0.000000
    17  H    1.766913   0.000000
 Symmetry turned off by external request.
 Stoichiometry    C8H9(2)
 Framework group  C1[X(C8H9)]
 Deg. of freedom    45
 Full point group                 C1      NOp   1
 Rotational constants (GHZ):           3.6943782           1.7577459           1.2089270
 Standard basis: 6-311+G(d,p) (5D, 7F)
   230 basis functions,   360 primitive gaussians,   238 cartesian basis functions
    29 alpha electrons       28 beta electrons
       nuclear repulsion energy       329.1262109293 Hartrees.
 NAtoms=   17 NActive=   17 NUniq=   17 SFac= 1.00D+00 NAtFMM=   60 NAOKFM=F Big=F
 Integral buffers will be    131072 words long.
 Raffenetti 2 integral format.
 Two-electron integral symmetry is turned off.
 Force inversion solution in PCM.
 ------------------------------------------------------------------------------
 Polarizable Continuum Model (PCM)
 =================================
 Model                : PCM.
 Atomic radii         : SMD-Coulomb.
 Polarization charges : Total charges.
 Charge compensation  : None.
 Solution method      : Matrix inversion.
 Cavity type          : VdW (van der Waals Surface) (Alpha=1.000).
 Cavity algorithm     : GePol (No added spheres)
                        Default sphere list used, NSphG=   17.
                        Lebedev-Laikov grids with approx.  5.0 points / Ang**2.
                        Smoothing algorithm: York/Karplus (Gamma=1.0000).
                        Polarization charges: spherical gaussians, with
                                              point-specific exponents (IZeta= 3).
                        Self-potential: point-specific (ISelfS= 7).
                        Self-field    : sphere-specific E.n sum rule (ISelfD= 2).
 1st derivatives      : Analytical E(r).r(x)/FMM algorithm (CHGder, D1EAlg=3).
                        Cavity 1st derivative terms included.
 2nd derivatives      : Analytical E(r).r(xy)/FMM algorithm (CHGder, D2EAlg=3).
                        Cavity 2nd derivative terms included.
 Solvent              : TetraHydroFuran, Eps=   7.425700 Eps(inf)=   1.974025
 ------------------------------------------------------------------------------
 Spheres list:
 ISph  on   Nord     Re0    Alpha      Xe            Ye            Ze
    1   C      1    1.8500  1.000      6.143973      6.997728      5.073947
    2   C      2    1.8500  1.000      5.120788      6.087484      5.207247
    3   C      3    1.8500  1.000      3.875915      6.513826      4.717352
    4   H      4    1.2000  1.000      3.023753      5.843954      4.782901
    5   C      5    1.8500  1.000      3.733326      7.776509      4.150384
    6   C      6    1.8500  1.000      4.820461      8.643923      4.053261
    7   H      7    1.2000  1.000      4.697344      9.626194      3.607412
    8   C      8    1.8500  1.000      6.083607      8.260995      4.524342
    9   H      9    1.2000  1.000      2.765048      8.089415      3.776293
   10   C     10    1.8500  1.000      7.286616      9.162211      4.431074
   11   H     11    1.2000  1.000      7.724351      9.329330      5.417798
   12   H     12    1.2000  1.000      8.057914      8.713855      3.800229
   13   H     13    1.2000  1.000      7.012233     10.128336      4.005563
   14   C     14    1.8500  1.000      5.307099      4.739392      5.852981
   15   H     15    1.2000  1.000      6.312501      4.355211      5.674871
   16   H     16    1.2000  1.000      5.164596      4.811498      6.934891
   17   H     17    1.2000  1.000      4.582435      4.021427      5.465586
 ------------------------------------------------------------------------------
 ------------------------------------------------------------------------------
 Atomic radii for non-electrostatic terms: SMD-CDS.
 ------------------------------------------------------------------------------
 Nuclear repulsion after PCM non-electrostatic terms =      329.1229968588 Hartrees.
 One-electron integrals computed using PRISM.
 NBasis=   230 RedAO= T EigKep=  2.26D-06  NBF=   230
 NBsUse=   230 1.00D-06 EigRej= -1.00D+00 NBFU=   230
 ExpMin= 4.38D-02 ExpMax= 4.56D+03 ExpMxC= 6.82D+02 IAcc=3 IRadAn=         5 AccDes= 0.00D+00
 Harris functional with IExCor= 1009 and IRadAn=       5 diagonalized for initial guess.
 HarFok:  IExCor= 1009 AccDes= 0.00D+00 IRadAn=         5 IDoV= 1 UseB2=F ITyADJ=14
 ICtDFT=  3500011 ScaDFX=  1.000000  1.000000  1.000000  1.000000
 FoFCou: FMM=F IPFlag=           0 FMFlag=      100000 FMFlg1=           0
         NFxFlg=           0 DoJE=T BraDBF=F KetDBF=T FulRan=T
         wScrn=  0.000000 ICntrl=       500 IOpCl=  0 I1Cent=   200000004 NGrid=           0
         NMat0=    1 NMatS0=      1 NMatT0=    0 NMatD0=    1 NMtDS0=    0 NMtDT0=    0
 Symmetry not used in FoFCou.
 Initial guess <Sx>= 0.0000 <Sy>= 0.0000 <Sz>= 0.5000 <S**2>= 0.7500 S= 0.5000
 Requested convergence on RMS density matrix=1.00D-08 within 512 cycles.
 Requested convergence on MAX density matrix=1.00D-06.
 Requested convergence on             energy=1.00D-06.
 Level shift goal  0.100 maximum shift  0.100.
 No special actions if energy rises.
 Dynamic level shift is on during FON iterations.
 Inv3:  Mode=1 IEnd=     5451312.
 Iteration    1 A*A^-1 deviation from unit magnitude is 3.77D-15 for   1333.
 Iteration    1 A*A^-1 deviation from orthogonality  is 1.86D-15 for    841     60.
 Iteration    1 A^-1*A deviation from unit magnitude is 3.55D-15 for   1333.
 Iteration    1 A^-1*A deviation from orthogonality  is 1.37D-15 for   1347   1344.
 Error on total polarization charges =  0.04471
 SCF Done:  E(UM062X) =  -310.135692946     A.U. after   18 cycles
            NFock= 18  Conv=0.43D-08     -V/T= 2.0043
 <Sx>= 0.0000 <Sy>= 0.0000 <Sz>= 0.5000 <S**2>= 0.7614 S= 0.5057
 <L.S>=  0.00000000000    
 SMD-CDS (non-electrostatic) energy       (kcal/mol) =      -2.02
 (included in total energy above)
 Annihilation of the first spin contaminant:
 S**2 before annihilation     0.7614,   after     0.7501
 DoSCS=F DFT=T ScalE2(SS,OS)=  1.000000  1.000000
 Range of M.O.s used for correlation:     1   230
 NBasis=   230 NAE=    29 NBE=    28 NFC=     0 NFV=     0
 NROrb=    230 NOA=    29 NOB=    28 NVA=   201 NVB=   202

 **** Warning!!: The largest alpha MO coefficient is  0.26147669D+03


 **** Warning!!: The largest beta MO coefficient is  0.19362976D+03

 Symmetrizing basis deriv contribution to polar:
 IMax=3 JMax=2 DiffMx= 0.00D+00
 G2DrvN: will do    18 centers at a time, making    1 passes.
 Calling FoFCou, ICntrl=  3107 FMM=F I1Cent=   0 AccDes= 0.00D+00.
 NEqPCM:  Using equilibrium solvation (IEInf=0, Eps=   7.4257, EpsInf=   1.9740)
 G2PCM: DoFxE=T DoFxN=T DoGrad=T DoDP/DQ/DG/TGxP=FFFF NFrqRd=   0 IEInf=0 SqF1=F DoCFld=F IF1Alg=4.
 End of G2Drv F.D. properties file   721 does not exist.
 End of G2Drv F.D. properties file   722 does not exist.
 End of G2Drv F.D. properties file   788 does not exist.
          IDoAtm=11111111111111111
 NEqPCM:  Using equilibrium solvation (IEInf=0, Eps=   7.4257, EpsInf=   1.9740)
          Differentiating once with respect to nuclear coordinates.
 Keep R1 and R2 ints in memory in canonical form, NReq=739826857.
          There are    54 degrees of freedom in the 1st order CPHF.  IDoFFX=6 NUNeed=     0.
     48 vectors produced by pass  0 Test12= 2.13D-14 1.85D-09 XBig12= 3.91D-01 1.56D-01.
 AX will form    48 AO Fock derivatives at one time.
     48 vectors produced by pass  1 Test12= 2.13D-14 1.85D-09 XBig12= 6.22D-02 6.69D-02.
     48 vectors produced by pass  2 Test12= 2.13D-14 1.85D-09 XBig12= 1.21D-03 7.25D-03.
     48 vectors produced by pass  3 Test12= 2.13D-14 1.85D-09 XBig12= 1.91D-05 1.30D-03.
     48 vectors produced by pass  4 Test12= 2.13D-14 1.85D-09 XBig12= 2.49D-07 1.02D-04.
     48 vectors produced by pass  5 Test12= 2.13D-14 1.85D-09 XBig12= 2.87D-09 6.44D-06.
     45 vectors produced by pass  6 Test12= 2.13D-14 1.85D-09 XBig12= 2.25D-11 3.92D-07.
     20 vectors produced by pass  7 Test12= 2.13D-14 1.85D-09 XBig12= 1.55D-13 3.70D-08.
      2 vectors produced by pass  8 Test12= 2.13D-14 1.85D-09 XBig12= 7.25D-16 1.96D-09.
 InvSVY:  IOpt=1 It=  1 EMax= 1.11D-15
 Solved reduced A of dimension   355 with    54 vectors.
 End of Minotr F.D. properties file   721 does not exist.
 End of Minotr F.D. properties file   722 does not exist.
 End of Minotr F.D. properties file   788 does not exist.

 **********************************************************************

            Population analysis using the SCF Density.

 **********************************************************************

 Alpha  occ. eigenvalues --  -10.55910 -10.55678 -10.55652 -10.54243 -10.54226
 Alpha  occ. eigenvalues --  -10.54031 -10.52861 -10.52855  -0.97374  -0.88498
 Alpha  occ. eigenvalues --   -0.85448  -0.78325  -0.77179  -0.66836  -0.65997
 Alpha  occ. eigenvalues --   -0.56560  -0.54240  -0.49899  -0.49522  -0.47618
 Alpha  occ. eigenvalues --   -0.47113  -0.46970  -0.43558  -0.42974  -0.41739
 Alpha  occ. eigenvalues --   -0.40506  -0.31049  -0.29688  -0.29619
 Alpha virt. eigenvalues --    0.01747   0.01935   0.02055   0.03282   0.03800
 Alpha virt. eigenvalues --    0.05073   0.05140   0.05842   0.06736   0.07264
 Alpha virt. eigenvalues --    0.07932   0.08223   0.09185   0.09376   0.11552
 Alpha virt. eigenvalues --    0.12199   0.12456   0.12859   0.13892   0.14670
 Alpha virt. eigenvalues --    0.16145   0.16456   0.16625   0.18162   0.18505
 Alpha virt. eigenvalues --    0.18747   0.20390   0.20514   0.21641   0.21979
 Alpha virt. eigenvalues --    0.22737   0.23444   0.23826   0.24087   0.24269
 Alpha virt. eigenvalues --    0.25052   0.26082   0.26889   0.27147   0.27905
 Alpha virt. eigenvalues --    0.29314   0.29486   0.30553   0.30810   0.33124
 Alpha virt. eigenvalues --    0.34213   0.36780   0.38370   0.40028   0.42151
 Alpha virt. eigenvalues --    0.45683   0.46936   0.48032   0.48842   0.51668
 Alpha virt. eigenvalues --    0.55653   0.55927   0.57262   0.58600   0.59909
 Alpha virt. eigenvalues --    0.60685   0.61348   0.61706   0.63268   0.63994
 Alpha virt. eigenvalues --    0.66602   0.66798   0.67991   0.69045   0.69614
 Alpha virt. eigenvalues --    0.70783   0.72047   0.72855   0.74159   0.75102
 Alpha virt. eigenvalues --    0.75840   0.76762   0.79320   0.79829   0.82525
 Alpha virt. eigenvalues --    0.84299   0.87097   0.88324   0.91846   0.93163
 Alpha virt. eigenvalues --    0.95873   0.97859   0.99112   1.00002   1.00808
 Alpha virt. eigenvalues --    1.03227   1.05220   1.06495   1.08936   1.13192
 Alpha virt. eigenvalues --    1.15335   1.18617   1.24883   1.27516   1.39016
 Alpha virt. eigenvalues --    1.40323   1.40690   1.42680   1.46544   1.50782
 Alpha virt. eigenvalues --    1.51770   1.54465   1.55597   1.57562   1.58015
 Alpha virt. eigenvalues --    1.59377   1.60923   1.62298   1.64356   1.65047
 Alpha virt. eigenvalues --    1.65354   1.67455   1.71312   1.72769   1.74851
 Alpha virt. eigenvalues --    1.76454   1.77185   1.79504   1.84453   1.85098
 Alpha virt. eigenvalues --    1.87649   1.88193   1.92968   1.94356   1.96212
 Alpha virt. eigenvalues --    1.96578   1.98320   2.00908   2.05602   2.05883
 Alpha virt. eigenvalues --    2.09065   2.11897   2.17908   2.20610   2.21528
 Alpha virt. eigenvalues --    2.23620   2.26807   2.33352   2.36563   2.39984
 Alpha virt. eigenvalues --    2.42957   2.43826   2.47147   2.49952   2.52243
 Alpha virt. eigenvalues --    2.55189   2.57661   2.59679   2.60944   2.62082
 Alpha virt. eigenvalues --    2.64338   2.65815   2.66804   2.71446   2.72334
 Alpha virt. eigenvalues --    2.74850   2.76278   2.77310   2.78980   2.81134
 Alpha virt. eigenvalues --    2.83137   2.88268   2.89389   2.92013   2.94296
 Alpha virt. eigenvalues --    2.96397   2.97508   3.01777   3.10975   3.15797
 Alpha virt. eigenvalues --    3.23084   3.25303   3.29260   3.42904   3.45568
 Alpha virt. eigenvalues --    3.56853   3.63525   3.71497   3.84726   3.85915
 Alpha virt. eigenvalues --    3.86412   3.89274   3.96009   4.09486   4.14888
 Alpha virt. eigenvalues --    4.35189   4.39694   4.82844  23.59068  23.99371
 Alpha virt. eigenvalues --   24.02268  24.04651  24.07493  24.15391  24.19386
 Alpha virt. eigenvalues --   24.26063
  Beta  occ. eigenvalues --  -10.55691 -10.55673 -10.54979 -10.54182 -10.54154
  Beta  occ. eigenvalues --  -10.54046 -10.52824 -10.52820  -0.96498  -0.88182
  Beta  occ. eigenvalues --   -0.84755  -0.77270  -0.76942  -0.65573  -0.65449
  Beta  occ. eigenvalues --   -0.55638  -0.53679  -0.49315  -0.49185  -0.47649
  Beta  occ. eigenvalues --   -0.46759  -0.46634  -0.43345  -0.41612  -0.41416
  Beta  occ. eigenvalues --   -0.39984  -0.29647  -0.29537
  Beta virt. eigenvalues --   -0.05889   0.01811   0.02117   0.02489   0.03243
  Beta virt. eigenvalues --    0.04216   0.04930   0.05086   0.05741   0.06794
  Beta virt. eigenvalues --    0.07247   0.07547   0.08242   0.08931   0.09153
  Beta virt. eigenvalues --    0.11465   0.11976   0.12383   0.12585   0.13540
  Beta virt. eigenvalues --    0.14574   0.16018   0.16289   0.16484   0.18144
  Beta virt. eigenvalues --    0.18340   0.18347   0.19803   0.20563   0.21473
  Beta virt. eigenvalues --    0.22150   0.22497   0.22954   0.23693   0.24073
  Beta virt. eigenvalues --    0.24279   0.25266   0.26138   0.26855   0.27175
  Beta virt. eigenvalues --    0.28052   0.29351   0.29617   0.30189   0.31012
  Beta virt. eigenvalues --    0.32556   0.34078   0.36982   0.38774   0.40307
  Beta virt. eigenvalues --    0.42248   0.45744   0.47017   0.47180   0.48057
  Beta virt. eigenvalues --    0.51946   0.54665   0.55767   0.57380   0.57708
  Beta virt. eigenvalues --    0.59914   0.60938   0.61528   0.61937   0.63420
  Beta virt. eigenvalues --    0.64097   0.66566   0.66838   0.68150   0.69080
  Beta virt. eigenvalues --    0.69570   0.70951   0.72011   0.73604   0.74065
  Beta virt. eigenvalues --    0.74891   0.75671   0.77089   0.79579   0.80289
  Beta virt. eigenvalues --    0.82437   0.84445   0.86950   0.88457   0.91525
  Beta virt. eigenvalues --    0.92833   0.96126   0.97355   0.98618   1.00184
  Beta virt. eigenvalues --    1.00629   1.04159   1.04952   1.06875   1.08457
  Beta virt. eigenvalues --    1.13115   1.15137   1.18988   1.23779   1.29464
  Beta virt. eigenvalues --    1.39067   1.40421   1.42146   1.42871   1.46600
  Beta virt. eigenvalues --    1.51230   1.51773   1.54474   1.56113   1.57963
  Beta virt. eigenvalues --    1.58505   1.59784   1.61133   1.62458   1.64429
  Beta virt. eigenvalues --    1.65190   1.65463   1.67790   1.71414   1.73372
  Beta virt. eigenvalues --    1.75068   1.76533   1.78092   1.79486   1.84992
  Beta virt. eigenvalues --    1.85194   1.87832   1.88426   1.93140   1.94438
  Beta virt. eigenvalues --    1.96496   1.97021   1.98339   2.01248   2.05844
  Beta virt. eigenvalues --    2.06219   2.09304   2.12238   2.17908   2.20612
  Beta virt. eigenvalues --    2.21865   2.23916   2.27659   2.33665   2.36617
  Beta virt. eigenvalues --    2.40285   2.43173   2.43959   2.47295   2.49992
  Beta virt. eigenvalues --    2.52427   2.55204   2.57791   2.59722   2.60970
  Beta virt. eigenvalues --    2.62151   2.64455   2.65825   2.66973   2.71442
  Beta virt. eigenvalues --    2.72358   2.74893   2.76634   2.77687   2.79093
  Beta virt. eigenvalues --    2.81603   2.83301   2.88765   2.89509   2.92093
  Beta virt. eigenvalues --    2.94415   2.96491   2.97568   3.01424   3.13925
  Beta virt. eigenvalues --    3.15778   3.23171   3.25612   3.29278   3.43226
  Beta virt. eigenvalues --    3.45827   3.56927   3.64289   3.71962   3.84771
  Beta virt. eigenvalues --    3.85984   3.86524   3.89329   3.96212   4.09478
  Beta virt. eigenvalues --    4.14972   4.35043   4.39841   4.82953  23.59241
  Beta virt. eigenvalues --   23.99499  24.02262  24.04747  24.07511  24.15385
  Beta virt. eigenvalues --   24.19717  24.26359
          Condensed to atoms (all electrons):
               1          2          3          4          5          6
     1  C   13.715623  -4.445865   0.383726  -0.010691  -1.980802   0.589000
     2  C   -4.445865  10.516968  -1.033858   0.032164   1.438706  -1.597312
     3  C    0.383726  -1.033858   8.342446   0.281491  -0.497651   0.090986
     4  H   -0.010691   0.032164   0.281491   0.462601   0.037905  -0.018053
     5  C   -1.980802   1.438706  -0.497651   0.037905   6.497300  -0.596607
     6  C    0.589000  -1.597312   0.090986  -0.018053  -0.596607   8.802672
     7  H    0.002119   0.006459  -0.019031  -0.000168   0.029514   0.262058
     8  C   -3.241645   2.416555  -1.295170   0.002303   1.319329  -1.330544
     9  H   -0.011388  -0.010912   0.013314  -0.005028   0.346450   0.019475
    10  C    0.245848  -0.514404   0.301026  -0.000989  -0.216127   0.288140
    11  H    0.042255   0.008715  -0.008231   0.000001   0.005949  -0.071984
    12  H   -0.019088   0.017067  -0.004574   0.000000   0.004455  -0.049962
    13  H   -0.099871   0.004277   0.008080  -0.000002   0.025162   0.138562
    14  C    0.640852  -1.338819   0.041682   0.025892  -0.249168   0.312566
    15  H    0.254904  -0.225671  -0.124711   0.000241  -0.004568   0.000685
    16  H   -0.133144   0.187691  -0.024496   0.000286   0.011546  -0.012971
    17  H   -0.114740  -0.163014   0.146654   0.000015   0.025375   0.011002
               7          8          9         10         11         12
     1  C    0.002119  -3.241645  -0.011388   0.245848   0.042255  -0.019088
     2  C    0.006459   2.416555  -0.010912  -0.514404   0.008715   0.017067
     3  C   -0.019031  -1.295170   0.013314   0.301026  -0.008231  -0.004574
     4  H   -0.000168   0.002303  -0.005028  -0.000989   0.000001   0.000000
     5  C    0.029514   1.319329   0.346450  -0.216127   0.005949   0.004455
     6  C    0.262058  -1.330544   0.019475   0.288140  -0.071984  -0.049962
     7  H    0.464559   0.050594  -0.005010   0.018549   0.000298   0.000292
     8  C    0.050594   9.347795  -0.009359  -1.117333   0.011338   0.055984
     9  H   -0.005010  -0.009359   0.463375   0.004207   0.000003   0.000004
    10  C    0.018549  -1.117333   0.004207   6.493074   0.370377   0.355670
    11  H    0.000298   0.011338   0.000003   0.370377   0.493426  -0.029951
    12  H    0.000292   0.055984   0.000004   0.355670  -0.029951   0.486403
    13  H    0.000514  -0.180068  -0.000002   0.472158  -0.023325  -0.021974
    14  C   -0.000955  -0.414709   0.004271  -0.034883   0.000328   0.000245
    15  H   -0.000001   0.031755   0.000007   0.001323   0.000021  -0.000035
    16  H    0.000001   0.007888   0.000000   0.000062  -0.000008   0.000005
    17  H   -0.000001   0.009029  -0.000001  -0.000589  -0.000001   0.000000
              13         14         15         16         17
     1  C   -0.099871   0.640852   0.254904  -0.133144  -0.114740
     2  C    0.004277  -1.338819  -0.225671   0.187691  -0.163014
     3  C    0.008080   0.041682  -0.124711  -0.024496   0.146654
     4  H   -0.000002   0.025892   0.000241   0.000286   0.000015
     5  C    0.025162  -0.249168  -0.004568   0.011546   0.025375
     6  C    0.138562   0.312566   0.000685  -0.012971   0.011002
     7  H    0.000514  -0.000955  -0.000001   0.000001  -0.000001
     8  C   -0.180068  -0.414709   0.031755   0.007888   0.009029
     9  H   -0.000002   0.004271   0.000007   0.000000  -0.000001
    10  C    0.472158  -0.034883   0.001323   0.000062  -0.000589
    11  H   -0.023325   0.000328   0.000021  -0.000008  -0.000001
    12  H   -0.021974   0.000245  -0.000035   0.000005   0.000000
    13  H    0.494981  -0.000487   0.000001  -0.000001   0.000000
    14  C   -0.000487   6.470330   0.431782   0.325489   0.450195
    15  H    0.000001   0.431782   0.496906  -0.023317  -0.027764
    16  H   -0.000001   0.325489  -0.023317   0.468195  -0.021930
    17  H    0.000000   0.450195  -0.027764  -0.021930   0.503517
          Atomic-Atomic Spin Densities.
               1          2          3          4          5          6
     1  C    3.166307  -0.857650   0.171569   0.018350  -0.332376  -0.017066
     2  C   -0.857650   0.277992  -0.246547  -0.000052   0.186068  -0.056307
     3  C    0.171569  -0.246547   0.326515  -0.008604  -0.104602   0.117251
     4  H    0.018350  -0.000052  -0.008604   0.009070  -0.003344   0.001904
     5  C   -0.332376   0.186068  -0.104602  -0.003344   0.033779  -0.085362
     6  C   -0.017066  -0.056307   0.117251   0.001904  -0.085362   0.337327
     7  H    0.022119  -0.008767   0.001688   0.000063  -0.004651  -0.012495
     8  C   -1.333676   0.644410  -0.151014  -0.008742   0.241117  -0.205988
     9  H   -0.002744  -0.000229  -0.001473  -0.000693   0.005885  -0.001231
    10  C   -0.219465   0.116215  -0.013602  -0.000585   0.022337  -0.023220
    11  H   -0.008833  -0.002385  -0.000204   0.000000   0.001356  -0.006600
    12  H   -0.000277  -0.002307  -0.000531   0.000000   0.001134  -0.008730
    13  H   -0.004926   0.005529   0.000107  -0.000001  -0.002026   0.017055
    14  C   -0.099450   0.057959  -0.064235  -0.000292   0.008311  -0.005487
    15  H   -0.033864   0.021576  -0.003887   0.000036   0.002975  -0.000802
    16  H    0.010403  -0.002485  -0.006582  -0.000069  -0.000536   0.000024
    17  H   -0.000015  -0.004705   0.011649  -0.000704  -0.002373   0.000162
               7          8          9         10         11         12
     1  C    0.022119  -1.333676  -0.002744  -0.219465  -0.008833  -0.000277
     2  C   -0.008767   0.644410  -0.000229   0.116215  -0.002385  -0.002307
     3  C    0.001688  -0.151014  -0.001473  -0.013602  -0.000204  -0.000531
     4  H    0.000063  -0.008742  -0.000693  -0.000585   0.000000   0.000000
     5  C   -0.004651   0.241117   0.005885   0.022337   0.001356   0.001134
     6  C   -0.012495  -0.205988  -0.001231  -0.023220  -0.006600  -0.008730
     7  H    0.009414   0.002493  -0.000700  -0.001285   0.000036   0.000024
     8  C    0.002493   0.826640  -0.000511   0.120453   0.008234   0.005128
     9  H   -0.000700  -0.000511   0.004104   0.000236  -0.000001   0.000000
    10  C   -0.001285   0.120453   0.000236   0.044243   0.009422   0.005963
    11  H    0.000036   0.008234  -0.000001   0.009422  -0.004866   0.001296
    12  H    0.000024   0.005128   0.000000   0.005963   0.001296  -0.004313
    13  H   -0.000874  -0.007950   0.000012  -0.007609   0.000205   0.000204
    14  C   -0.000536   0.080383   0.000216   0.009707  -0.000504  -0.000478
    15  H    0.000000  -0.002637  -0.000001  -0.000923  -0.000002  -0.000001
    16  H    0.000000   0.001419   0.000002   0.000011  -0.000001   0.000001
    17  H   -0.000001   0.005001   0.000011   0.000352   0.000000   0.000000
              13         14         15         16         17
     1  C   -0.004926  -0.099450  -0.033864   0.010403  -0.000015
     2  C    0.005529   0.057959   0.021576  -0.002485  -0.004705
     3  C    0.000107  -0.064235  -0.003887  -0.006582   0.011649
     4  H   -0.000001  -0.000292   0.000036  -0.000069  -0.000704
     5  C   -0.002026   0.008311   0.002975  -0.000536  -0.002373
     6  C    0.017055  -0.005487  -0.000802   0.000024   0.000162
     7  H   -0.000874  -0.000536   0.000000   0.000000  -0.000001
     8  C   -0.007950   0.080383  -0.002637   0.001419   0.005001
     9  H    0.000012   0.000216  -0.000001   0.000002   0.000011
    10  C   -0.007609   0.009707  -0.000923   0.000011   0.000352
    11  H    0.000205  -0.000504  -0.000002  -0.000001   0.000000
    12  H    0.000204  -0.000478  -0.000001   0.000001   0.000000
    13  H    0.000019   0.000356   0.000000   0.000000   0.000000
    14  C    0.000356   0.062510   0.019269  -0.002713  -0.010051
    15  H    0.000000   0.019269  -0.004480   0.000735   0.000238
    16  H    0.000000  -0.002713   0.000735  -0.003125   0.000535
    17  H    0.000000  -0.010051   0.000238   0.000535  -0.000390
 Mulliken charges and spin densities:
               1          2
     1  C    0.182906   0.478407
     2  C    0.701253   0.128314
     3  C   -0.601683   0.027498
     4  H    0.192032   0.006338
     5  C   -0.196767  -0.032307
     6  C   -0.837714   0.050434
     7  H    0.190210   0.006527
     8  C    0.336257   0.224759
     9  H    0.190592   0.002883
    10  C   -0.666111   0.062250
    11  H    0.200788  -0.002847
    12  H    0.205460  -0.002887
    13  H    0.181992   0.000104
    14  C   -0.664611   0.054965
    15  H    0.188442  -0.001766
    16  H    0.214702  -0.002382
    17  H    0.182254  -0.000292
 Sum of Mulliken charges =   0.00000   1.00000
 Mulliken charges and spin densities with hydrogens summed into heavy atoms:
               1          2
     1  C    0.182906   0.478407
     2  C    0.701253   0.128314
     3  C   -0.409651   0.033836
     5  C   -0.006175  -0.029424
     6  C   -0.647504   0.056961
     8  C    0.336257   0.224759
    10  C   -0.077871   0.056621
    14  C   -0.079214   0.050525
 APT charges:
               1
     1  C    1.496103
     2  C   -2.186829
     3  C    0.581149
     4  H   -0.808250
     5  C   -0.115716
     6  C   -2.714311
     7  H    1.234577
     8  C    3.411448
     9  H   -0.095501
    10  C   -3.712399
    11  H    1.505260
    12  H    0.154804
    13  H    1.017008
    14  C   -0.652208
    15  H    0.635054
    16  H    1.161829
    17  H   -0.912019
 Sum of APT charges =   0.00000
 APT charges with hydrogens summed into heavy atoms:
               1
     1  C    1.496103
     2  C   -2.186829
     3  C   -0.227101
     5  C   -0.211217
     6  C   -1.479734
     8  C    3.411448
    10  C   -1.035327
    14  C    0.232656
 Electronic spatial extent (au):  <R**2>=          22144.6709
 Charge=              0.0000 electrons
 Dipole moment (field-independent basis, Debye):
    X=             -0.3899    Y=              0.1056    Z=             -0.0969  Tot=              0.4154
 Quadrupole moment (field-independent basis, Debye-Ang):
   XX=            -49.3011   YY=            -41.1556   ZZ=            -51.4367
   XY=              0.1427   XZ=             -1.6452   YZ=             -3.8094
 Traceless Quadrupole moment (field-independent basis, Debye-Ang):
   XX=             -2.0033   YY=              6.1422   ZZ=             -4.1389
   XY=              0.1427   XZ=             -1.6452   YZ=             -3.8094
 Octapole moment (field-independent basis, Debye-Ang**2):
  XXX=           -760.8238  YYY=           -913.6415  ZZZ=           -724.3340  XYY=           -205.2897
  XXY=           -327.9287  XXZ=           -234.6641  XZZ=           -274.8361  YZZ=           -405.3253
  YYZ=           -254.6843  XYZ=            -14.6700
 Hexadecapole moment (field-independent basis, Debye-Ang**3):
 XXXX=          -8525.5491 YYYY=         -14054.9644 ZZZZ=          -7024.2911 XXXY=          -5366.5093
 XXXZ=          -3660.8674 YYYX=          -4730.9201 YYYZ=          -4882.7785 ZZZX=          -3851.6296
 ZZZY=          -5374.0404 XXYY=          -3573.9012 XXZZ=          -2652.9450 YYZZ=          -4301.8318
 XXYZ=          -1601.6097 YYXZ=          -1219.6195 ZZXY=          -2119.9451
 N-N= 3.291229968588D+02 E-N=-1.377184663518D+03  KE= 3.087977641845D+02
  Exact polarizability:       0.000       0.000       0.000       0.000       0.000       0.000
 Approx polarizability:     124.566       7.011     123.193       8.975     -18.792      86.774
                          Isotropic Fermi Contact Couplings
        Atom                 a.u.       MegaHertz       Gauss      10(-4) cm-1
     1  C(13)              0.40054     450.28796     160.67394     150.19990
     2  C(13)              0.01079      12.13460       4.32993       4.04767
     3  C(13)              0.03894      43.78097      15.62214      14.60376
     4  H(1)               0.00333      14.87360       5.30727       4.96130
     5  C(13)             -0.00653      -7.34576      -2.62115      -2.45028
     6  C(13)              0.03934      44.22713      15.78134      14.75258
     7  H(1)               0.00337      15.04484       5.36837       5.01842
     8  C(13)              0.01164      13.08193       4.66796       4.36366
     9  H(1)               0.00105       4.69200       1.67422       1.56508
    10  C(13)              0.02441      27.44674       9.79368       9.15525
    11  H(1)              -0.00121      -5.42014      -1.93404      -1.80797
    12  H(1)              -0.00131      -5.85871      -2.09054      -1.95426
    13  H(1)               0.00021       0.94755       0.33811       0.31607
    14  C(13)              0.02575      28.94661      10.32887       9.65555
    15  H(1)              -0.00081      -3.64181      -1.29949      -1.21478
    16  H(1)              -0.00153      -6.83752      -2.43980      -2.28075
    17  H(1)              -0.00011      -0.50013      -0.17846      -0.16683
 --------------------------------------------------------
       Center         ----  Spin Dipole Couplings  ----
                      3XX-RR        3YY-RR        3ZZ-RR
 --------------------------------------------------------
     1   Atom        0.648617     -0.401847     -0.246770
     2   Atom        0.077929      0.004504     -0.082433
     3   Atom        0.040214     -0.031378     -0.008836
     4   Atom        0.006551     -0.001301     -0.005250
     5   Atom        0.025835      0.009287     -0.035122
     6   Atom        0.027456     -0.022567     -0.004890
     7   Atom       -0.003178      0.005789     -0.002611
     8   Atom       -0.006537      0.065907     -0.059370
     9   Atom        0.001321      0.000621     -0.001942
    10   Atom       -0.002248      0.017721     -0.015473
    11   Atom       -0.002570      0.008125     -0.005554
    12   Atom        0.000730      0.001018     -0.001748
    13   Atom       -0.002871      0.005894     -0.003023
    14   Atom       -0.010935      0.022964     -0.012028
    15   Atom       -0.005543      0.014040     -0.008497
    16   Atom       -0.002691      0.001113      0.001578
    17   Atom       -0.000397      0.004279     -0.003882
 --------------------------------------------------------
                        XY            XZ            YZ
 --------------------------------------------------------
     1   Atom       -0.403857      0.420694     -0.090894
     2   Atom        0.059633      0.019904     -0.029837
     3   Atom       -0.018908      0.020100      0.003570
     4   Atom        0.005982      0.000493     -0.000220
     5   Atom        0.002084      0.017922     -0.024482
     6   Atom       -0.030839      0.023747     -0.003714
     7   Atom       -0.003474      0.002058     -0.005601
     8   Atom       -0.023315      0.032333     -0.075514
     9   Atom        0.000221      0.000921     -0.001361
    10   Atom        0.021742     -0.005455     -0.010792
    11   Atom        0.007881      0.002160      0.001764
    12   Atom        0.005989     -0.006285     -0.005913
    13   Atom        0.001383     -0.000203     -0.003837
    14   Atom        0.014954     -0.006104     -0.018908
    15   Atom        0.000255     -0.000270     -0.004075
    16   Atom        0.004487     -0.003747     -0.006119
    17   Atom        0.005225      0.000362     -0.000390
 --------------------------------------------------------


 ---------------------------------------------------------------------------------
              Anisotropic Spin Dipole Couplings in Principal Axis System
 ---------------------------------------------------------------------------------

       Atom             a.u.   MegaHertz   Gauss  10(-4) cm-1        Axes

              Baa    -0.5535   -74.272   -26.502   -24.774  0.3918  0.8772 -0.2775
     1 C(13)  Bbb    -0.3867   -51.889   -18.515   -17.308 -0.2166  0.3810  0.8988
              Bcc     0.9402   126.161    45.017    42.083  0.8942 -0.2921  0.3393
 
              Baa    -0.1003   -13.465    -4.805    -4.491 -0.2285  0.3845  0.8944
     2 C(13)  Bbb    -0.0109    -1.469    -0.524    -0.490 -0.4272  0.7859 -0.4470
              Bcc     0.1113    14.934     5.329     4.981  0.8748  0.4843  0.0153
 
              Baa    -0.0387    -5.199    -1.855    -1.734  0.2947  0.9052 -0.3061
     3 C(13)  Bbb    -0.0121    -1.620    -0.578    -0.540 -0.2117  0.3743  0.9028
              Bcc     0.0508     6.818     2.433     2.274  0.9318 -0.2013  0.3020
 
              Baa    -0.0055    -2.910    -1.039    -0.971 -0.2165  0.3599  0.9075
     4 H(1)   Bbb    -0.0043    -2.312    -0.825    -0.771 -0.4226  0.8034 -0.4194
              Bcc     0.0098     5.222     1.863     1.742  0.8801  0.4743  0.0219
 
              Baa    -0.0499    -6.697    -2.390    -2.234 -0.2229  0.3793  0.8980
     5 C(13)  Bbb     0.0179     2.397     0.855     0.800  0.3884  0.8795 -0.2750
              Bcc     0.0320     4.300     1.534     1.434  0.8941 -0.2874  0.3433
 
              Baa    -0.0390    -5.230    -1.866    -1.744  0.4783  0.8444 -0.2412
     6 C(13)  Bbb    -0.0127    -1.698    -0.606    -0.567 -0.2316  0.3862  0.8929
              Bcc     0.0516     6.928     2.472     2.311  0.8471 -0.3711  0.3803
 
              Baa    -0.0055    -2.926    -1.044    -0.976 -0.2407  0.3714  0.8967
     7 H(1)   Bbb    -0.0044    -2.323    -0.829    -0.775  0.9245  0.3692  0.0952
              Bcc     0.0098     5.249     1.873     1.751 -0.2957  0.8519 -0.4322
 
              Baa    -0.0992   -13.308    -4.748    -4.439 -0.2180  0.3804  0.8988
     8 C(13)  Bbb    -0.0126    -1.695    -0.605    -0.566  0.9330  0.3515  0.0775
              Bcc     0.1118    15.003     5.353     5.004 -0.2864  0.8554 -0.4315
 
              Baa    -0.0027    -1.464    -0.522    -0.488 -0.2241  0.3780  0.8983
     9 H(1)   Bbb     0.0011     0.611     0.218     0.204  0.3642  0.8874 -0.2825
              Bcc     0.0016     0.853     0.304     0.285  0.9040 -0.2639  0.3365
 
              Baa    -0.0189    -2.536    -0.905    -0.846 -0.2266  0.3967  0.8895
    10 C(13)  Bbb    -0.0157    -2.101    -0.750    -0.701  0.8236 -0.4095  0.3925
              Bcc     0.0346     4.637     1.655     1.547  0.5200  0.8215 -0.2339
 
              Baa    -0.0075    -3.992    -1.425    -1.332  0.7631 -0.3220 -0.5604
    11 H(1)   Bbb    -0.0052    -2.765    -0.987    -0.922  0.4431 -0.3706  0.8163
              Bcc     0.0127     6.757     2.411     2.254  0.4705  0.8712  0.1401
 
              Baa    -0.0071    -3.803    -1.357    -1.268  0.4720  0.2636  0.8413
    12 H(1)   Bbb    -0.0051    -2.705    -0.965    -0.902 -0.6440  0.7547  0.1248
              Bcc     0.0122     6.508     2.322     2.171  0.6020  0.6007 -0.5260
 
              Baa    -0.0045    -2.403    -0.857    -0.802 -0.1935  0.3622  0.9118
    13 H(1)   Bbb    -0.0030    -1.598    -0.570    -0.533  0.9723 -0.0532  0.2274
              Bcc     0.0075     4.001     1.428     1.334  0.1308  0.9306 -0.3419
 
              Baa    -0.0203    -2.728    -0.973    -0.910 -0.0909  0.4248  0.9007
    14 C(13)  Bbb    -0.0164    -2.197    -0.784    -0.733  0.9427 -0.2549  0.2153
              Bcc     0.0367     4.925     1.757     1.643  0.3210  0.8687 -0.3773
 
              Baa    -0.0092    -4.922    -1.756    -1.642  0.0604  0.1716  0.9833
    15 H(1)   Bbb    -0.0055    -2.953    -1.054    -0.985  0.9981 -0.0249 -0.0569
              Bcc     0.0148     7.875     2.810     2.627  0.0147  0.9849 -0.1727
 
              Baa    -0.0057    -3.038    -1.084    -1.013  0.7732 -0.6218 -0.1248
    16 H(1)   Bbb    -0.0044    -2.357    -0.841    -0.786  0.4804  0.4458  0.7553
              Bcc     0.0101     5.395     1.925     1.800  0.4140  0.6439 -0.6434
 
              Baa    -0.0044    -2.322    -0.828    -0.774 -0.5595  0.3722  0.7406
    17 H(1)   Bbb    -0.0033    -1.769    -0.631    -0.590  0.6259 -0.3961  0.6719
              Bcc     0.0077     4.090     1.460     1.364  0.5434  0.8394 -0.0113
 

 ---------------------------------------------------------------------------------

 D2PCM: PCM CHGder 2nd derivatives, FixD1E=F FixD2E=F DoIter=F DoCFld=F I1PDM=0
 Calling FoFJK, ICntrl=    100127 FMM=F ISym2X=0 I1Cent= 0 IOpClX= 1 NMat=1 NMatS=1 NMatT=0.
 -------------------------------------------------------------------
 Center     Atomic                   Forces (Hartrees/Bohr)
 Number     Number              X              Y              Z
 -------------------------------------------------------------------
      1        6          -0.000013709   -0.000006046    0.000002289
      2        6           0.000005986    0.000018049    0.000000155
      3        6           0.000004364    0.000003492   -0.000005192
      4        1          -0.000000427    0.000002770   -0.000000632
      5        6           0.000003634   -0.000001643   -0.000001149
      6        6           0.000005452   -0.000005237    0.000002194
      7        1           0.000004521    0.000001091    0.000002573
      8        6          -0.000006210   -0.000004037   -0.000002166
      9        1           0.000001590    0.000003488   -0.000001282
     10        6           0.000000389   -0.000003311    0.000003181
     11        1           0.000003223   -0.000004028    0.000002157
     12        1           0.000004161   -0.000002635    0.000002839
     13        1           0.000003599   -0.000002773    0.000001277
     14        6          -0.000001456    0.000005668    0.000007841
     15        1          -0.000004095   -0.000001966   -0.000003413
     16        1          -0.000009811   -0.000000566   -0.000005615
     17        1          -0.000001210   -0.000002316   -0.000005055
 -------------------------------------------------------------------
 Cartesian Forces:  Max     0.000018049 RMS     0.000004924
 FormGI is forming the generalized inverse of G from B-inverse, IUseBI=4.

 GradGradGradGradGradGradGradGradGradGradGradGradGradGradGradGradGradGrad
 Berny optimization.
 Internal  Forces:  Max     0.000020250 RMS     0.000003459
 Search for a local minimum.
 Step number   1 out of a maximum of   87
 All quantities printed in internal units (Hartrees-Bohrs-Radians)
 Mixed Optimization -- En-DIIS/RFO-DIIS
 Second derivative matrix not updated -- analytic derivatives used.
 ITU=  0
     Eigenvalues ---    0.00013   0.00022   0.01676   0.01723   0.01760
     Eigenvalues ---    0.02007   0.02059   0.02484   0.02764   0.02864
     Eigenvalues ---    0.05570   0.05592   0.05701   0.05734   0.10688
     Eigenvalues ---    0.11563   0.11914   0.12165   0.12185   0.13200
     Eigenvalues ---    0.13696   0.14539   0.14581   0.16053   0.17758
     Eigenvalues ---    0.18696   0.19043   0.19538   0.27329   0.31945
     Eigenvalues ---    0.32172   0.34001   0.34045   0.34514   0.34564
     Eigenvalues ---    0.35109   0.35131   0.35967   0.36012   0.36375
     Eigenvalues ---    0.41934   0.42101   0.46566   0.48285   0.51630
 RFO step:  Lambda=-1.67584105D-07 EMin= 1.27413867D-04
 Linear search not attempted -- first point.
 Iteration  1 RMS(Cart)=  0.00426486 RMS(Int)=  0.00002066
 Iteration  2 RMS(Cart)=  0.00002135 RMS(Int)=  0.00000000
 Iteration  3 RMS(Cart)=  0.00000000 RMS(Int)=  0.00000000
 Variable       Old X    -DE/DX   Delta X   Delta X   Delta X     New X
                                 (Linear)    (Quad)   (Total)
    R1        2.60016  -0.00002   0.00000  -0.00015  -0.00015   2.60000
    R2        2.60587  -0.00001   0.00000   0.00010   0.00010   2.60597
    R3        2.65335  -0.00001   0.00000   0.00008   0.00008   2.65343
    R4        2.84656   0.00000   0.00000   0.00001   0.00001   2.84657
    R5        2.05208   0.00000   0.00000   0.00001   0.00001   2.05209
    R6        2.62947  -0.00001   0.00000  -0.00011  -0.00011   2.62936
    R7        2.63459   0.00000   0.00000   0.00009   0.00009   2.63469
    R8        2.04878   0.00000   0.00000   0.00000   0.00000   2.04878
    R9        2.05172   0.00000   0.00000   0.00000   0.00000   2.05172
   R10        2.64837  -0.00001   0.00000  -0.00012  -0.00012   2.64826
   R11        2.84598   0.00000   0.00000  -0.00002  -0.00002   2.84596
   R12        2.06419   0.00000   0.00000  -0.00001  -0.00001   2.06417
   R13        2.06481   0.00000   0.00000   0.00002   0.00002   2.06483
   R14        2.06123   0.00000   0.00000   0.00000   0.00000   2.06123
   R15        2.06158   0.00000   0.00000  -0.00005  -0.00005   2.06153
   R16        2.06667   0.00000   0.00000   0.00000   0.00000   2.06667
   R17        2.06204   0.00000   0.00000   0.00004   0.00004   2.06209
    A1        2.22950   0.00000   0.00000  -0.00003  -0.00003   2.22948
    A2        2.00935   0.00000   0.00000   0.00005   0.00005   2.00939
    A3        2.14314   0.00000   0.00000   0.00016   0.00016   2.14330
    A4        2.13055   0.00000   0.00000  -0.00021  -0.00021   2.13034
    A5        2.07989   0.00000   0.00000  -0.00001  -0.00001   2.07988
    A6        2.10431   0.00000   0.00000  -0.00003  -0.00003   2.10429
    A7        2.09898   0.00000   0.00000   0.00003   0.00003   2.09901
    A8        2.10956   0.00000   0.00000  -0.00001  -0.00001   2.10955
    A9        2.08750   0.00000   0.00000   0.00003   0.00003   2.08753
   A10        2.08612   0.00000   0.00000  -0.00002  -0.00002   2.08610
   A11        2.09795   0.00000   0.00000  -0.00002  -0.00002   2.09793
   A12        2.10528   0.00000   0.00000   0.00001   0.00001   2.10530
   A13        2.07995   0.00000   0.00000   0.00000   0.00000   2.07995
   A14        2.00836   0.00000   0.00000   0.00000   0.00000   2.00836
   A15        2.13875   0.00000   0.00000  -0.00004  -0.00004   2.13871
   A16        2.13606   0.00000   0.00000   0.00004   0.00004   2.13610
   A17        1.93448   0.00000   0.00000   0.00005   0.00005   1.93453
   A18        1.93272   0.00000   0.00000  -0.00004  -0.00004   1.93267
   A19        1.93184   0.00000   0.00000   0.00000   0.00000   1.93184
   A20        1.87700   0.00000   0.00000  -0.00002  -0.00002   1.87698
   A21        1.89409   0.00000   0.00000   0.00006   0.00006   1.89414
   A22        1.89209   0.00000   0.00000  -0.00005  -0.00005   1.89204
   A23        1.93817   0.00000   0.00000   0.00000   0.00000   1.93817
   A24        1.92726   0.00000   0.00000  -0.00003  -0.00003   1.92723
   A25        1.93319   0.00000   0.00000   0.00000   0.00000   1.93320
   A26        1.88054   0.00000   0.00000   0.00021   0.00021   1.88076
   A27        1.89902   0.00000   0.00000  -0.00002  -0.00002   1.89901
   A28        1.88395   0.00000   0.00000  -0.00017  -0.00017   1.88378
    D1        0.00199   0.00000   0.00000  -0.00005  -0.00005   0.00195
    D2       -3.12088   0.00000   0.00000  -0.00005  -0.00005  -3.12093
    D3        0.00150   0.00000   0.00000   0.00013   0.00013   0.00163
    D4       -3.13588   0.00000   0.00000   0.00028   0.00028  -3.13560
    D5        3.13406   0.00000   0.00000   0.00001   0.00001   3.13407
    D6       -0.00389   0.00000   0.00000  -0.00006  -0.00006  -0.00395
    D7       -0.02610   0.00000   0.00000   0.00002   0.00002  -0.02609
    D8        3.11913   0.00000   0.00000  -0.00005  -0.00005   3.11908
    D9       -0.56482   0.00000   0.00000   0.01103   0.01103  -0.55379
   D10        1.52015   0.00000   0.00000   0.01128   0.01128   1.53144
   D11       -2.67700   0.00000   0.00000   0.01105   0.01105  -2.66594
   D12        2.59677   0.00000   0.00000   0.01103   0.01103   2.60780
   D13       -1.60144   0.00000   0.00000   0.01128   0.01128  -1.59016
   D14        0.48460   0.00000   0.00000   0.01105   0.01105   0.49565
   D15        0.00240   0.00000   0.00000   0.00007   0.00007   0.00247
   D16        3.14072   0.00000   0.00000   0.00009   0.00009   3.14081
   D17       -3.13551   0.00000   0.00000   0.00000   0.00000  -3.13551
   D18        0.00281   0.00000   0.00000   0.00002   0.00002   0.00283
   D19        3.13989   0.00000   0.00000   0.00004   0.00004   3.13993
   D20        0.00135   0.00000   0.00000   0.00002   0.00002   0.00137
   D21        0.00156   0.00000   0.00000   0.00003   0.00003   0.00159
   D22       -3.13697   0.00000   0.00000   0.00000   0.00000  -3.13697
   D23       -0.00316   0.00000   0.00000  -0.00011  -0.00011  -0.00327
   D24        3.13423   0.00000   0.00000  -0.00026  -0.00026   3.13397
   D25        3.14146   0.00000   0.00000  -0.00014  -0.00014   3.14133
   D26       -0.00434   0.00000   0.00000  -0.00028  -0.00028  -0.00462
   D27       -0.99535   0.00000   0.00000   0.00230   0.00230  -0.99304
   D28        1.08636   0.00000   0.00000   0.00229   0.00229   1.08865
   D29       -3.09792   0.00000   0.00000   0.00220   0.00220  -3.09573
   D30        2.15077   0.00000   0.00000   0.00246   0.00246   2.15323
   D31       -2.05071   0.00000   0.00000   0.00245   0.00245  -2.04826
   D32        0.04819   0.00000   0.00000   0.00235   0.00235   0.05055
         Item               Value     Threshold  Converged?
 Maximum Force            0.000020     0.000450     YES
 RMS     Force            0.000003     0.000300     YES
 Maximum Displacement     0.020343     0.001800     NO 
 RMS     Displacement     0.004265     0.001200     NO 
 Predicted change in Energy=-8.379200D-08
 GradGradGradGradGradGradGradGradGradGradGradGradGradGradGradGradGradGrad

                          Input orientation:                          
 ---------------------------------------------------------------------
 Center     Atomic      Atomic             Coordinates (Angstroms)
 Number     Number       Type             X           Y           Z
 ---------------------------------------------------------------------
      1          6           0        6.144143    6.997623    5.073654
      2          6           0        5.120914    6.087625    5.207466
      3          6           0        3.875801    6.514173    4.718243
      4          1           0        3.023574    5.844422    4.784263
      5          6           0        3.733117    7.776863    4.151460
      6          6           0        4.820399    8.644107    4.053758
      7          1           0        4.697184    9.626442    3.608079
      8          6           0        6.083701    8.260936    4.524035
      9          1           0        2.764685    8.089999    3.777961
     10          6           0        7.286916    9.161767    4.429852
     11          1           0        7.726861    9.326925    5.415915
     12          1           0        8.056652    8.714159    3.796554
     13          1           0        7.012095   10.128752    4.006581
     14          6           0        5.307075    4.739425    5.853032
     15          1           0        6.315763    4.359923    5.683858
     16          1           0        5.153831    4.809319    6.933617
     17          1           0        4.589250    4.018828    5.457804
 ---------------------------------------------------------------------
                    Distance matrix (angstroms):
                    1          2          3          4          5
     1  C    0.000000
     2  C    1.375862   0.000000
     3  C    2.346362   1.404133   0.000000
     4  H    3.339397   2.153389   1.085918   0.000000
     5  C    2.696424   2.427890   1.391397   2.153652   0.000000
     6  C    2.345932   2.820807   2.422896   3.405944   1.394217
     7  H    3.339505   3.906509   3.404901   4.299774   2.155373
     8  C    1.379019   2.473321   2.822006   3.907894   2.428659
     9  H    3.780588   3.406583   2.145213   2.474325   1.084167
    10  C    2.530599   3.840130   4.327658   5.413545   3.824258
    11  H    2.836862   4.162627   4.819645   5.886231   4.466713
    12  H    2.869699   4.184245   4.813414   5.877315   4.438179
    13  H    3.419935   4.620540   4.838179   5.904962   4.037830
    14  C    2.531317   1.506338   2.546766   2.752755   3.820826
    15  H    2.712796   2.153965   3.395087   3.721762   4.549041
    16  H    3.037903   2.148196   3.073722   3.198305   4.308728
    17  H    3.382082   2.150642   2.698649   2.497558   4.069683
                    6          7          8          9         10
     6  C    0.000000
     7  H    1.085723   0.000000
     8  C    1.401397   2.150817   0.000000
     9  H    2.146872   2.474686   3.406129   0.000000
    10  C    2.548161   2.756437   1.506019   4.692997   0.000000
    11  H    3.281651   3.540752   2.152151   5.369923   1.092314
    12  H    3.247214   3.486231   2.151087   5.328680   1.092663
    13  H    2.647627   2.402068   2.149049   4.716913   1.090754
    14  C    4.326752   5.412459   3.843230   4.689991   5.049982
    15  H    4.821574   5.887689   4.076388   5.491454   5.057013
    16  H    4.807324   5.871321   4.310963   5.140919   5.455520
    17  H    4.839213   5.905800   4.593559   4.767111   5.897789
                   11         12         13         14         15
    11  H    0.000000
    12  H    1.762547   0.000000
    13  H    1.772016   1.770956   0.000000
    14  C    5.204958   5.252407   5.946538   0.000000
    15  H    5.170503   5.054896   6.047935   1.090914   0.000000
    16  H    5.415964   5.789240   6.349571   1.093633   1.764636
    17  H    6.166218   6.068670   6.731077   1.091209   1.774342
                   16         17
    16  H    0.000000
    17  H    1.766820   0.000000
 Symmetry turned off by external request.
 Stoichiometry    C8H9(2)
 Framework group  C1[X(C8H9)]
 Deg. of freedom    45
 Full point group                 C1      NOp   1
 Rotational constants (GHZ):           3.6946117           1.7577133           1.2089372
 Standard basis: 6-311+G(d,p) (5D, 7F)
   230 basis functions,   360 primitive gaussians,   238 cartesian basis functions
    29 alpha electrons       28 beta electrons
       nuclear repulsion energy       329.1279428686 Hartrees.
 NAtoms=   17 NActive=   17 NUniq=   17 SFac= 1.00D+00 NAtFMM=   60 NAOKFM=F Big=F
 Integral buffers will be    131072 words long.
 Raffenetti 2 integral format.
 Two-electron integral symmetry is turned off.
 ------------------------------------------------------------------------------
 Polarizable Continuum Model (PCM)
 =================================
 Model                : PCM.
 Atomic radii         : SMD-Coulomb.
 Polarization charges : Total charges.
 Charge compensation  : None.
 Solution method      : Matrix inversion.
 Cavity type          : VdW (van der Waals Surface) (Alpha=1.000).
 Cavity algorithm     : GePol (No added spheres)
                        Default sphere list used, NSphG=   17.
                        Lebedev-Laikov grids with approx.  5.0 points / Ang**2.
                        Smoothing algorithm: York/Karplus (Gamma=1.0000).
                        Polarization charges: spherical gaussians, with
                                              point-specific exponents (IZeta= 3).
                        Self-potential: point-specific (ISelfS= 7).
                        Self-field    : sphere-specific E.n sum rule (ISelfD= 2).
 1st derivatives      : Analytical E(r).r(x)/FMM algorithm (CHGder, D1EAlg=3).
                        Cavity 1st derivative terms included.
 Solvent              : TetraHydroFuran, Eps=   7.425700 Eps(inf)=   1.974025
 ------------------------------------------------------------------------------
 Spheres list:
 ISph  on   Nord     Re0    Alpha      Xe            Ye            Ze
    1   C      1    1.8500  1.000      6.144143      6.997623      5.073654
    2   C      2    1.8500  1.000      5.120914      6.087625      5.207466
    3   C      3    1.8500  1.000      3.875801      6.514173      4.718243
    4   H      4    1.2000  1.000      3.023574      5.844422      4.784263
    5   C      5    1.8500  1.000      3.733117      7.776863      4.151460
    6   C      6    1.8500  1.000      4.820399      8.644107      4.053758
    7   H      7    1.2000  1.000      4.697184      9.626442      3.608079
    8   C      8    1.8500  1.000      6.083701      8.260936      4.524035
    9   H      9    1.2000  1.000      2.764685      8.089999      3.777961
   10   C     10    1.8500  1.000      7.286916      9.161767      4.429852
   11   H     11    1.2000  1.000      7.726861      9.326925      5.415915
   12   H     12    1.2000  1.000      8.056652      8.714159      3.796554
   13   H     13    1.2000  1.000      7.012095     10.128752      4.006581
   14   C     14    1.8500  1.000      5.307075      4.739425      5.853032
   15   H     15    1.2000  1.000      6.315763      4.359923      5.683858
   16   H     16    1.2000  1.000      5.153831      4.809319      6.933617
   17   H     17    1.2000  1.000      4.589250      4.018828      5.457804
 ------------------------------------------------------------------------------
 ------------------------------------------------------------------------------
 Atomic radii for non-electrostatic terms: SMD-CDS.
 ------------------------------------------------------------------------------
 Nuclear repulsion after PCM non-electrostatic terms =      329.1247278904 Hartrees.
 One-electron integrals computed using PRISM.
 NBasis=   230 RedAO= T EigKep=  2.26D-06  NBF=   230
 NBsUse=   230 1.00D-06 EigRej= -1.00D+00 NBFU=   230
 Initial guess from the checkpoint file:  "2-6-diMe-ph-opt-freq-thf-non-tight-2-512.chk"
 B after Tr=    -0.004659    0.001396    0.003400
         Rot=    1.000000   -0.000002   -0.000164    0.000064 Ang=  -0.02 deg.
 Initial guess <Sx>= 0.0000 <Sy>= 0.0000 <Sz>= 0.5000 <S**2>= 0.7614 S= 0.5057
 ExpMin= 4.38D-02 ExpMax= 4.56D+03 ExpMxC= 6.82D+02 IAcc=3 IRadAn=         5 AccDes= 0.00D+00
 Harris functional with IExCor= 1009 and IRadAn=       5 diagonalized for initial guess.
 HarFok:  IExCor= 1009 AccDes= 0.00D+00 IRadAn=         5 IDoV= 1 UseB2=F ITyADJ=14
 ICtDFT=  3500011 ScaDFX=  1.000000  1.000000  1.000000  1.000000
 FoFCou: FMM=F IPFlag=           0 FMFlag=      100000 FMFlg1=           0
         NFxFlg=           0 DoJE=T BraDBF=F KetDBF=T FulRan=T
         wScrn=  0.000000 ICntrl=       500 IOpCl=  0 I1Cent=   200000004 NGrid=           0
         NMat0=    1 NMatS0=      1 NMatT0=    0 NMatD0=    1 NMtDS0=    0 NMtDT0=    0
 Symmetry not used in FoFCou.
 Requested convergence on RMS density matrix=1.00D-08 within 512 cycles.
 Requested convergence on MAX density matrix=1.00D-06.
 Requested convergence on             energy=1.00D-06.
 Level shift goal  0.100 maximum shift  0.100.
 No special actions if energy rises.
 Dynamic level shift is on during FON iterations.
 Inv3:  Mode=1 IEnd=     5443227.
 Iteration    1 A*A^-1 deviation from unit magnitude is 4.22D-15 for   1342.
 Iteration    1 A*A^-1 deviation from orthogonality  is 2.56D-15 for   1323    880.
 Iteration    1 A^-1*A deviation from unit magnitude is 4.66D-15 for   1334.
 Iteration    1 A^-1*A deviation from orthogonality  is 1.84D-15 for   1338   1315.
 Error on total polarization charges =  0.04471
 SCF Done:  E(UM062X) =  -310.135693023     A.U. after   11 cycles
            NFock= 11  Conv=0.44D-08     -V/T= 2.0043
 <Sx>= 0.0000 <Sy>= 0.0000 <Sz>= 0.5000 <S**2>= 0.7614 S= 0.5057
 <L.S>=  0.00000000000    
 SMD-CDS (non-electrostatic) energy       (kcal/mol) =      -2.02
 (included in total energy above)
 Annihilation of the first spin contaminant:
 S**2 before annihilation     0.7614,   after     0.7501
 D1PCM: PCM CHGder 1st derivatives, ID1Alg=3 FixD1E=F DoIter=F DoCFld=F I1PDM=0.
 Calling FoFJK, ICntrl=      2127 FMM=F ISym2X=0 I1Cent= 0 IOpClX= 1 NMat=1 NMatS=1 NMatT=0.
 -------------------------------------------------------------------
 Center     Atomic                   Forces (Hartrees/Bohr)
 Number     Number              X              Y              Z
 -------------------------------------------------------------------
      1        6          -0.000000696   -0.000000913    0.000000737
      2        6          -0.000002302   -0.000000423    0.000000423
      3        6          -0.000000459    0.000002068   -0.000001953
      4        1          -0.000001687    0.000002757   -0.000002292
      5        6           0.000001121    0.000001941   -0.000001700
      6        6           0.000002387    0.000000933   -0.000000310
      7        1           0.000003783    0.000001078   -0.000000016
      8        6           0.000001438   -0.000000711    0.000000846
      9        1           0.000001896    0.000003247   -0.000002129
     10        6           0.000002320   -0.000001984    0.000002087
     11        1           0.000001979   -0.000002801    0.000002706
     12        1           0.000002512   -0.000002693    0.000002552
     13        1           0.000003911   -0.000001807    0.000002360
     14        6          -0.000003518    0.000001136   -0.000001374
     15        1          -0.000003266   -0.000001480   -0.000000191
     16        1          -0.000004279   -0.000000155    0.000000260
     17        1          -0.000005140   -0.000000195   -0.000002005
 -------------------------------------------------------------------
 Cartesian Forces:  Max     0.000005140 RMS     0.000002159

 GradGradGradGradGradGradGradGradGradGradGradGradGradGradGradGradGradGrad
 Berny optimization.
 Using GEDIIS/GDIIS optimizer.
 FormGI is forming the generalized inverse of G from B-inverse, IUseBI=4.
 Internal  Forces:  Max     0.000001394 RMS     0.000000310
 Search for a local minimum.
 Step number   2 out of a maximum of   87
 All quantities printed in internal units (Hartrees-Bohrs-Radians)
 Mixed Optimization -- En-DIIS/RFO-DIIS
 Swapping is turned off.
 Update second derivatives using D2CorX and points    1    2
 DE= -7.70D-08 DEPred=-8.38D-08 R= 9.18D-01
 Trust test= 9.18D-01 RLast= 2.79D-02 DXMaxT set to 3.00D-01
 ITU=  0  0
     Eigenvalues ---    0.00012   0.00024   0.01674   0.01724   0.01759
     Eigenvalues ---    0.02007   0.02059   0.02484   0.02764   0.02864
     Eigenvalues ---    0.05568   0.05592   0.05701   0.05735   0.10688
     Eigenvalues ---    0.11563   0.11914   0.12165   0.12185   0.13201
     Eigenvalues ---    0.13695   0.14539   0.14581   0.16052   0.17758
     Eigenvalues ---    0.18699   0.19043   0.19539   0.27327   0.31945
     Eigenvalues ---    0.32172   0.34001   0.34046   0.34514   0.34564
     Eigenvalues ---    0.35110   0.35132   0.35967   0.36012   0.36375
     Eigenvalues ---    0.41927   0.42102   0.46566   0.48284   0.51610
 En-DIIS/RFO-DIIS/Sim-DIIS IScMMF=       -3 using points:     2    1
 RFO step:  Lambda=-3.59958769D-11.
 DidBck=F Rises=F RFO-DIIS coefs:    0.94825    0.05175
 Iteration  1 RMS(Cart)=  0.00041997 RMS(Int)=  0.00000014
 Iteration  2 RMS(Cart)=  0.00000015 RMS(Int)=  0.00000000
 Variable       Old X    -DE/DX   Delta X   Delta X   Delta X     New X
                                 (Linear)    (Quad)   (Total)
    R1        2.60000   0.00000   0.00001   0.00000   0.00001   2.60001
    R2        2.60597   0.00000   0.00000   0.00000  -0.00001   2.60596
    R3        2.65343   0.00000   0.00000   0.00000  -0.00001   2.65342
    R4        2.84657   0.00000   0.00000   0.00000   0.00000   2.84656
    R5        2.05209   0.00000   0.00000   0.00000   0.00000   2.05209
    R6        2.62936   0.00000   0.00001   0.00000   0.00001   2.62937
    R7        2.63469   0.00000   0.00000   0.00000  -0.00001   2.63468
    R8        2.04878   0.00000   0.00000   0.00000   0.00000   2.04878
    R9        2.05172   0.00000   0.00000   0.00000   0.00000   2.05172
   R10        2.64826   0.00000   0.00001   0.00000   0.00001   2.64827
   R11        2.84596   0.00000   0.00000   0.00000   0.00000   2.84596
   R12        2.06417   0.00000   0.00000  -0.00001  -0.00001   2.06417
   R13        2.06483   0.00000   0.00000   0.00001   0.00001   2.06484
   R14        2.06123   0.00000   0.00000   0.00000   0.00000   2.06123
   R15        2.06153   0.00000   0.00000   0.00000   0.00001   2.06153
   R16        2.06667   0.00000   0.00000   0.00000   0.00000   2.06667
   R17        2.06209   0.00000   0.00000   0.00000   0.00000   2.06209
    A1        2.22948   0.00000   0.00000   0.00000   0.00000   2.22948
    A2        2.00939   0.00000   0.00000   0.00000   0.00000   2.00939
    A3        2.14330   0.00000  -0.00001  -0.00001  -0.00002   2.14328
    A4        2.13034   0.00000   0.00001   0.00001   0.00002   2.13036
    A5        2.07988   0.00000   0.00000   0.00000   0.00000   2.07988
    A6        2.10429   0.00000   0.00000   0.00000   0.00000   2.10429
    A7        2.09901   0.00000   0.00000   0.00000   0.00000   2.09901
    A8        2.10955   0.00000   0.00000   0.00000   0.00000   2.10955
    A9        2.08753   0.00000   0.00000   0.00000   0.00000   2.08753
   A10        2.08610   0.00000   0.00000   0.00000   0.00000   2.08610
   A11        2.09793   0.00000   0.00000   0.00000   0.00000   2.09794
   A12        2.10530   0.00000   0.00000   0.00000   0.00000   2.10530
   A13        2.07995   0.00000   0.00000   0.00000   0.00000   2.07995
   A14        2.00836   0.00000   0.00000   0.00000   0.00000   2.00836
   A15        2.13871   0.00000   0.00000   0.00000   0.00001   2.13872
   A16        2.13610   0.00000   0.00000   0.00000  -0.00001   2.13610
   A17        1.93453   0.00000   0.00000   0.00002   0.00002   1.93455
   A18        1.93267   0.00000   0.00000  -0.00002  -0.00001   1.93266
   A19        1.93184   0.00000   0.00000   0.00000   0.00000   1.93184
   A20        1.87698   0.00000   0.00000   0.00000   0.00000   1.87698
   A21        1.89414   0.00000   0.00000   0.00002   0.00002   1.89416
   A22        1.89204   0.00000   0.00000  -0.00002  -0.00002   1.89202
   A23        1.93817   0.00000   0.00000  -0.00001  -0.00001   1.93816
   A24        1.92723   0.00000   0.00000   0.00001   0.00001   1.92724
   A25        1.93320   0.00000   0.00000   0.00000   0.00000   1.93320
   A26        1.88076   0.00000  -0.00001   0.00000  -0.00001   1.88074
   A27        1.89901   0.00000   0.00000   0.00000   0.00000   1.89900
   A28        1.88378   0.00000   0.00001   0.00001   0.00001   1.88379
    D1        0.00195   0.00000   0.00000   0.00000   0.00000   0.00194
    D2       -3.12093   0.00000   0.00000  -0.00002  -0.00002  -3.12095
    D3        0.00163   0.00000  -0.00001   0.00002   0.00001   0.00164
    D4       -3.13560   0.00000  -0.00001   0.00008   0.00006  -3.13554
    D5        3.13407   0.00000   0.00000   0.00001   0.00001   3.13407
    D6       -0.00395   0.00000   0.00000  -0.00001   0.00000  -0.00395
    D7       -0.02609   0.00000   0.00000   0.00002   0.00002  -0.02607
    D8        3.11908   0.00000   0.00000   0.00001   0.00001   3.11909
    D9       -0.55379   0.00000  -0.00057  -0.00021  -0.00078  -0.55457
   D10        1.53144   0.00000  -0.00058  -0.00021  -0.00080   1.53064
   D11       -2.66594   0.00000  -0.00057  -0.00020  -0.00077  -2.66672
   D12        2.60780   0.00000  -0.00057  -0.00023  -0.00080   2.60700
   D13       -1.59016   0.00000  -0.00058  -0.00023  -0.00081  -1.59097
   D14        0.49565   0.00000  -0.00057  -0.00022  -0.00079   0.49486
   D15        0.00247   0.00000   0.00000   0.00000   0.00000   0.00247
   D16        3.14081   0.00000   0.00000   0.00002   0.00001   3.14082
[...]
   zz         0.134099D+03      0.198715D+02      0.221100D+02

 ----------------------------------------------------------------------
 Unable to Open any file for archive entry.
 1\1\GINC-CN008\Freq\UM062X\6-311+G(d,p)\C8H9(2)\TAHMINAAFROZ\14-May-20
 25\0\\#N Geom=AllCheck Guess=TCheck SCRF=Check GenChk UM062X/6-311+G(d
 ,p) Freq\\2-6-diMe-ph-opt-freq-thf-non-tight-2-512\\0,2\C,6.1441428128
 ,6.9976226906,5.0736540485\C,5.120914232,6.0876254455,5.2074663964\C,3
 .8758014219,6.5141730374,4.718243124\H,3.0235737161,5.8444219894,4.784
 2630521\C,3.7331171484,7.7768626304,4.1514602594\C,4.8203985913,8.6441
 074213,4.0537582018\H,4.6971840161,9.6264421169,3.6080786048\C,6.08370
 12943,8.2609358658,4.5240353983\H,2.7646849126,8.0899994112,3.77796054
 32\C,7.2869157715,9.1617672703,4.4298517378\H,7.7268609033,9.326924561
 2,5.4159147528\H,8.0566518306,8.7141585431,3.7965543875\H,7.012095074,
 10.1287516855,4.0065806165\C,5.3070746123,4.7394254274,5.8530319522\H,
 6.3157625205,4.3599228617,5.6838576608\H,5.1538309156,4.80931919,6.933
 6172626\H,4.5892502267,4.0188278523,5.4578040014\\Version=AS64L-G16Rev
 C.01\HF=-310.135693\S2=0.761383\S2-1=0.\S2A=0.750059\RMSD=2.196e-09\RM
 SF=2.159e-06\ZeroPoint=0.1429995\Thermal=0.151025\ETot=-309.9846681\HT
 ot=-309.9837239\GTot=-310.0267731\Dipole=-0.1541104,0.0412842,-0.03825
 07\DipoleDeriv=-0.14945,-0.042212,0.0230445,-0.0395559,-0.216952,0.029
 8533,0.0242879,0.0279732,-0.1608921,-0.0710747,-0.0409852,0.0183903,-0
 .0066703,0.2883976,-0.1775887,-0.0011994,-0.2532913,0.0821294,-0.00884
 73,0.1004648,0.0040021,-0.0423417,-0.1475473,-0.0345275,0.0615922,0.00
 78421,-0.2073087,-0.0144727,-0.1003296,-0.005016,-0.088202,0.0296374,0
 .0406342,-0.0103972,0.0341376,0.1626278,0.021663,0.0070849,0.0509892,0
 .0156485,-0.0251401,-0.0597988,0.0448178,-0.0577705,-0.1428175,-0.1123
 781,-0.1089043,0.0713639,0.0189483,-0.0856855,-0.050294,0.0229213,-0.0
 805016,-0.182275,0.091611,0.01455,-0.0288014,-0.0000616,-0.0458946,0.0
 955125,-0.0232861,0.0990588,0.1337961,0.2555478,0.257078,-0.0466974,0.
 1900523,0.1105715,-0.0233763,-0.022095,-0.008274,-0.0376716,-0.0484819
 ,0.040907,-0.0763889,0.0391242,0.0927772,0.0496606,-0.0783837,0.047554
 2,0.1497697,-0.0799809,-0.0922235,0.001422,-0.014079,0.0990413,-0.0082
 056,-0.0128508,-0.0138351,0.0873772,0.0207577,-0.0698059,-0.0376475,-0
 .0846618,0.0474008,0.0098715,-0.0858818,-0.0313312,-0.0637256,-0.05162
 47,-0.0238362,0.076821,0.0094228,0.0073004,-0.0620044,0.1121422,-0.028
 6305,0.0475429,0.0294429,0.0614232,-0.0392184,-0.0241949,-0.0962237,0.
 0724829,-0.0097531,0.0881073,0.0722103,0.0829917,-0.016609,0.0073934,0
 .0256979,0.0222481,0.0444686,-0.0229192,0.178134,0.0029499,-0.0798237,
 0.0931118,0.0151197,0.0291636,0.0022815,0.0427471,0.0503334,-0.0083743
 ,0.0968392,0.1169375,0.0183715,0.0261036,0.0211768,-0.0237103,0.013195
 7,0.0223467,0.0498354,-0.1054806,-0.0028176,-0.0980857,-0.0608801,-0.0
 494671,-0.0585025,0.0173689,-0.0716752,-0.050634,0.0649286\Polar=134.3
 168518,10.3785175,137.0382391,9.4936157,-23.2387827,90.7452755\Quadrup
 ole=-1.4943506,4.5671872,-3.0728365,0.0950248,-1.235285,-2.8374125\PG=
 C01 [X(C8H9)]\NImag=0\\0.38423152,0.14126453,0.56144066,0.01599095,-0.
 17394156,0.14992233,-0.23140516,-0.10759724,0.00405391,0.59246279,-0.1
 4179209,-0.20267988,0.02809024,0.06317530,0.58645396,0.01725449,0.0368
 5800,-0.06559240,0.07956479,-0.16757138,0.25727855,-0.06241944,-0.0550
 8366,0.00410469,-0.26110797,0.08348130,-0.08417587,0.65900165,0.003342
 31,0.05525133,-0.01613180,0.00227893,-0.12745510,0.02695734,0.08921434
 ,0.62538094,-0.01993474,-0.03011764,0.02076001,-0.05130102,0.04661438,
 -0.09898821,0.09588284,-0.18575870,0.23371703,-0.00474881,0.00053595,-
 0.00300404,-0.01737948,-0.01698061,0.00150989,-0.22990062,-0.13873876,
 0.00971465,0.24132736,0.00169623,0.00183448,0.00226423,0.00893074,0.00
 663528,0.00125269,-0.13816246,-0.16108660,0.01704878,0.14893543,0.1668
 7648,-0.00325859,0.00218508,0.00445365,-0.00914946,-0.00579612,0.00481
 747,0.00906772,0.01686333,-0.04146301,-0.00808385,-0.02183310,0.032071
 37,-0.01670396,-0.02699736,0.00814513,0.02270244,0.03148484,-0.0098449
 9,-0.12759890,0.04531861,-0.03476432,0.00649900,-0.02289220,0.01047289
 ,0.70471423,-0.02636820,-0.06571472,0.01852967,0.08482003,0.00266371,0
 .02171582,-0.01946510,-0.29667257,0.09415623,0.00445730,-0.01150207,0.
 00749300,0.02270129,0.60230631,0.00810445,0.01893435,-0.01054951,-0.03
 142830,0.00942018,-0.00606793,-0.00778971,0.10962970,-0.11116609,-0.00
 104744,0.00062294,0.00269660,0.13056283,-0.18993630,0.25124653,0.02455
 691,0.08903537,-0.03405739,-0.07572174,-0.01559741,-0.01112278,0.04674
 537,-0.06522890,0.03685659,0.00174728,0.00131594,-0.00195345,-0.250621
 86,-0.07422503,-0.01444460,0.62350797,0.03038138,-0.00888107,0.0169491
 2,-0.01916491,0.00066982,-0.00655820,-0.01424309,-0.04193529,0.0163096
 0,0.00043538,-0.00275840,0.00417320,-0.13859721,-0.20070543,0.02380526
 ,0.04677544,0.65013242,-0.01012730,0.03140317,-0.00219950,-0.00985807,
 -0.00502403,-0.00275759,0.01634190,0.00380377,0.00798287,-0.00152533,0
 .00436708,0.00471035,0.01290421,0.04003528,-0.07792099,0.10058320,-0.2
 0802503,0.24399845,-0.00393464,0.00243466,-0.00348986,-0.00076666,-0.0
 0088402,0.00044056,-0.00285252,-0.00306788,-0.00106777,0.00028078,-0.0
 0120961,0.00046957,0.00683477,-0.02245561,0.01044919,-0.05889887,0.027
 81803,-0.01714237,0.05894289,0.00144464,0.00117959,0.00249228,-0.00003
 990,0.00028349,-0.00057529,-0.00390650,0.00055086,0.00161585,0.0002490
 9,-0.00062678,0.00048363,0.00474300,-0.01171447,0.00747636,0.02757598,
 -0.28527569,0.11205297,-0.02844487,0.29975968,-0.00308209,0.00282016,0
 .00430000,0.00012228,-0.00087203,-0.00067821,-0.00069310,0.00184065,0.
 00571628,-0.00013636,0.00009796,0.00031391,-0.00116823,0.00071279,0.00
 251826,-0.01698018,0.11215659,-0.08786124,0.02020449,-0.12316652,0.081
 96362,-0.09699264,-0.01279464,-0.00546276,0.04972050,-0.01955017,0.020
 56818,-0.02074135,0.03617997,-0.01934285,0.00049611,0.00027607,0.00030
 587,-0.05394748,-0.04128336,0.00285497,-0.26985398,0.08286552,-0.08512
 941,-0.00201412,-0.00190058,-0.00089687,0.59688740,0.02007127,-0.29137
 703,0.10585859,-0.05993803,-0.03796258,0.00239214,0.03376069,-0.039260
 47,0.02324993,0.00118928,-0.00064758,0.00001467,0.01103066,0.05892991,
 -0.01985937,0.00117968,-0.12614910,0.02616781,0.02382094,-0.00497485,0
 .00982064,0.05673228,0.58253102,-0.01873738,0.09695111,-0.10116234,0.0
 3654905,0.01239407,0.00616217,-0.01897679,0.02451313,-0.01705454,-0.00
 011033,-0.00008254,-0.00100597,-0.01918294,-0.03313215,0.01456474,-0.0
 5051098,0.04640986,-0.09700037,-0.01174002,0.00364061,0.00035333,0.081
 11786,-0.16419580,0.25288145,0.00033632,-0.00063801,0.00065173,0.00223
 124,-0.00034488,-0.00102437,0.00120546,-0.00147930,-0.00004741,0.00030
 152,0.00066528,0.00084875,-0.28545805,0.07220011,-0.09230814,-0.015998
 95,0.00926885,-0.00886767,0.00070917,0.00033140,0.00105499,-0.00159340
 ,-0.00394264,-0.00039149,0.29939314,-0.00065845,-0.00142779,-0.0000847
 8,-0.00023271,-0.00344490,0.00445179,0.02585581,-0.00304956,0.00944560
 ,-0.00001346,0.00036585,-0.00195115,0.07210200,-0.07918055,0.03531077,
 -0.01803407,0.00947167,-0.00684021,0.00105018,0.00007149,-0.00149826,-
 0.00411476,-0.00064261,0.00211456,-0.07638122,0.07803722,0.00064250,-0
 .00020846,-0.00097816,-0.00093683,0.00419354,0.00498687,-0.01172225,0.
 00265401,-0.00011053,0.00116616,-0.00175223,-0.00321072,-0.09236311,0.
 03525143,-0.07570249,0.00280861,0.00000663,0.00458832,0.00074436,-0.00
 166777,-0.00318119,-0.00038875,0.00219176,0.00568571,0.10039142,-0.040
 84532,0.06855481,0.00236609,-0.00986786,0.00473868,0.00307990,0.004365
 15,-0.00239941,-0.00249133,-0.00013249,-0.00047592,0.00008082,-0.00000
 903,0.00019666,-0.00075669,0.00143620,-0.00262449,-0.02460169,-0.01998
 230,0.00073418,0.00141681,-0.00056454,0.00161089,-0.17069564,-0.059999
 93,0.00110426,-0.00057096,-0.00056643,0.00014690,0.51818769,-0.0238844
 6,-0.02119784,0.00330999,0.00138837,-0.00241491,0.00365609,0.00034494,
 0.00030454,-0.00020917,-0.00000133,-0.00001742,-0.00027229,0.00147965,
 0.00055756,0.00328834,0.00445046,0.00792561,0.00064050,0.00159985,0.00
 012327,-0.00137917,-0.07642728,-0.13125068,0.00817315,0.00059989,0.000
 34725,-0.00004373,-0.04082978,0.55469162,0.01078814,0.00687531,-0.0002
 3113,-0.00136887,0.00383338,0.00288078,-0.00045222,-0.00032119,-0.0003
 7262,0.00019516,-0.00029110,-0.00054645,-0.00287102,0.00349290,0.00582
 765,-0.00968611,-0.00536378,0.00707260,0.00073772,-0.00203016,-0.00331
 014,0.00734469,0.01161550,-0.07224998,-0.00035956,-0.00036373,-0.00010
 485,0.01136712,-0.01128864,0.55688674,0.00081773,0.00160082,-0.0005414
 1,-0.00064827,0.00014526,0.00039112,-0.00001449,-0.00016605,0.00008839
 ,0.00002347,-0.00008934,-0.00007729,-0.00097440,0.00068143,0.00093661,
 -0.00194076,-0.00283495,0.00095987,0.00021103,-0.00032760,-0.00051886,
 -0.01294653,-0.00448259,-0.02329558,-0.00023066,-0.00016719,-0.0000350
 6,-0.08485590,-0.01542247,-0.09810481,0.09433325,-0.00092038,0.0000527
 2,0.00040965,0.00062719,0.00058190,0.00026227,-0.00073768,0.00012842,-
 0.00029374,0.00001108,-0.00000290,0.00003498,-0.00054548,-0.00014758,0
 .00045889,-0.00015049,-0.00143308,0.00051777,-0.00002844,0.00013489,-0
 .00009046,-0.00735374,-0.00323785,-0.01798938,-0.00014416,-0.00006908,
 0.00004483,-0.01584395,-0.05272215,-0.03486423,0.02025610,0.05279802,0
 .00040114,0.00102394,0.00026010,-0.00086394,-0.00042952,-0.00003710,0.
 00050816,-0.00026885,0.00029537,-0.00000437,-0.00002367,-0.00001778,0.
 00029320,0.00026526,-0.00029672,0.00007096,-0.00014870,0.00005846,0.00
 008268,-0.00007005,0.00002988,0.00187239,0.00027253,0.00595126,0.00001
 984,-0.00000406,-0.00002452,-0.09827186,-0.03494950,-0.27042368,0.1060
 9042,0.03825310,0.29005744,0.00072262,0.00177634,-0.00076327,-0.000590
 22,-0.00042570,-0.00069185,0.00008112,-0.00026832,0.00011534,-0.000029
 07,-0.00000729,0.00012067,-0.00025509,-0.00029823,-0.00136011,-0.00140
 011,-0.00273612,0.00048389,-0.00009163,0.00017872,0.00061249,-0.019859
 92,0.00859056,0.01386545,-0.00022867,-0.00011361,0.00004208,-0.1756234
 2,0.08053691,0.11148504,0.00999488,-0.00587902,-0.00714010,0.19261022,
 -0.00089651,-0.00058547,-0.00002498,0.00121998,0.00046865,-0.00039132,
 -0.00098633,0.00035571,-0.00030919,0.00002112,-0.00001106,-0.00001194,
 -0.00039940,-0.00085155,-0.00050692,-0.00009327,-0.00109047,0.00041998
 ,-0.00007647,0.00017522,0.00002568,-0.01545601,0.00947973,0.01316746,-
 0.00011822,-0.00009068,-0.00003567,0.07980744,-0.09433059,-0.06563262,
 0.00253511,-0.00238904,-0.00181030,-0.08377744,0.09919326,0.00039219,0
 .00048669,0.00071481,-0.00019445,-0.00002055,0.00002398,0.00018653,-0.
 00011863,0.00008405,-0.00001117,0.00001610,0.00003467,0.00010001,0.000
 10101,-0.00041918,-0.00078218,-0.00014308,-0.00030854,-0.00005753,0.00
 001891,0.00019669,-0.00075318,0.00068309,-0.00007373,-0.00001436,0.000
 01566,0.00003101,0.11148926,-0.06574771,-0.13659342,0.02083165,-0.0126
 7220,-0.01646261,-0.12095010,0.07257071,0.14431668,-0.00399541,-0.0019
 6438,-0.00041635,0.00040221,-0.00113923,0.00059340,-0.00004284,0.00006
 924,-0.00005374,-0.00003451,0.00003578,-0.00002108,0.00010770,-0.00021
 322,0.00013978,0.00152550,-0.00079498,0.00074429,-0.00004327,0.0005755
 0,-0.00026005,0.00584637,-0.02581353,0.01135410,0.00003353,0.00005883,
 -0.00000050,-0.06610462,0.06675176,-0.02956910,-0.00379576,0.01069810,
 -0.00304659,-0.00529522,0.01823620,-0.01025889,0.07168554,-0.00342292,
 -0.00129910,0.00005597,0.00047892,-0.00048013,0.00050933,-0.00017520,0
 .00016589,-0.00008872,-0.00007356,0.00003067,-0.00003128,-0.00022212,-
 0.00011907,-0.00001210,0.00237650,0.00151267,0.00008057,-0.00058371,0.
 00038200,-0.00038598,0.00568079,-0.01704054,0.00704362,-0.00000761,-0.
 00000743,-0.00003053,0.06166470,-0.26169713,0.09410428,-0.00164608,0.0
 0634118,-0.00208361,0.00246745,-0.01030349,0.00479634,-0.06631562,0.28
 267908,0.00021355,0.00038795,0.00096312,-0.00008637,0.00015860,0.00026
 301,-0.00002233,-0.00000888,0.00005096,0.00001480,0.00000806,0.0000380
 2,0.00015315,-0.00012720,-0.00013318,-0.00065043,-0.00074086,0.0002399
 5,0.00017568,-0.00005866,0.00016927,-0.00034819,0.00082645,-0.00221774
 ,0.00002499,-0.00001005,-0.00005145,-0.02766597,0.09508344,-0.08846663
 ,-0.00666974,0.02596427,-0.00938412,0.00403676,-0.01754162,0.00847794,
 0.03076667,-0.10390629,0.09018829,0.00677996,-0.01951377,0.01007616,-0
 .08538459,0.01134529,-0.00894545,0.00008942,0.02815354,-0.01435964,0.0
 0094212,0.00091645,0.00138562,-0.00396471,-0.00072266,-0.00361593,-0.0
 0051915,0.00022818,-0.00008020,0.00013550,0.00012500,0.00024133,-0.003
 62871,-0.00319175,0.00001649,-0.00009380,0.00119390,-0.00045976,0.0006
 4453,-0.00066133,0.00040580,-0.00000736,0.00000132,-0.00003222,-0.0000
 4341,0.00001258,0.00002232,-0.00029870,-0.00023714,0.00004390,0.587269
 99,-0.00387359,-0.02340681,0.00981101,0.02101233,-0.19406652,0.0610360
 7,0.00331435,-0.00977375,0.00766589,-0.00104352,0.00065190,-0.00145924
 ,0.00009768,0.00285882,0.00083540,-0.00020287,-0.00064485,-0.00002536,
 0.00001327,-0.00002066,-0.00009200,-0.00186708,0.00148287,0.00144533,-
 0.00014722,0.00001848,0.00001617,0.00023571,-0.00012314,0.00003797,-0.
 00001898,0.00001081,0.00000270,0.00004530,0.00001620,-0.00001933,-0.00
 004632,-0.00002516,-0.00006826,0.01157688,0.51127142,0.00418205,0.0062
 9585,-0.00115696,-0.01192797,0.05307925,-0.09517280,-0.00397634,0.0133
 0751,-0.00013865,0.00130216,-0.00141055,-0.00270802,-0.00171880,0.0006
 2914,0.00568388,-0.00041368,0.00144897,-0.00080891,0.00016680,-0.00023
 373,-0.00043146,-0.00202044,-0.00057777,0.00574078,0.00006947,0.000050
 00,-0.00025803,0.00020105,-0.00036419,-0.00021543,-0.00008492,-0.00004
 005,-0.00002962,0.00008312,0.00006146,-0.00001469,-0.00005016,-0.00012
 376,-0.00012241,0.00276487,0.02872425,0.53089524,0.00022902,-0.0009260
 3,0.00033127,-0.00075481,-0.00014469,-0.00059891,0.00033384,0.00115714
 ,-0.00029744,0.00024579,-0.00000497,0.00021408,-0.00017828,-0.00025522
 ,0.00001504,0.00035432,-0.00001599,-0.00002194,-0.00000051,0.00004862,
 0.00002242,-0.00019770,0.00028909,-0.00038262,-0.00002035,0.00007690,0
 .00001397,-0.00003502,0.00004382,0.00004019,0.00002220,0.00001497,0.00
 000723,0.00001199,-0.00000295,-0.00000285,0.00001571,0.00001969,0.0000
 0017,-0.28391551,0.08670600,0.04111024,0.30354644,0.00062601,0.0010059
 9,0.00025721,0.02724573,-0.00947917,-0.00534975,-0.00098198,-0.0045735
 2,0.00169624,0.00008746,-0.00002059,-0.00020737,0.00093596,0.00047015,
 0.00094913,-0.00000514,-0.00030333,0.00005477,-0.00006240,-0.00003164,
 -0.00002348,0.00014055,0.00028531,0.00019056,0.00005428,-0.00034011,0.
 00016025,-0.00002036,0.00002328,-0.00005331,-0.00002819,-0.00003202,-0
 .00000800,-0.00001735,-0.00001591,0.00001468,0.00000827,-0.00000391,-0
 .00001088,0.08417492,-0.07932439,-0.01530832,-0.09486597,0.08519036,-0
 .00028111,-0.00047235,0.00042414,-0.01578558,0.00597212,0.00063852,0.0
 0040845,0.00263914,-0.00039994,0.00012614,0.00010066,0.00016478,-0.000
 50966,0.00048029,-0.00069641,-0.00032624,-0.00018144,0.00000389,0.0000
 2022,0.00003228,0.00001856,0.00011585,-0.00025352,-0.00006234,-0.00001
 985,0.00018302,-0.00014733,0.00003635,0.00000204,0.00001552,0.00000568
 ,0.00000301,-0.00000506,0.00000867,0.00001303,0.00000130,-0.00000686,0
 .00000028,0.00000218,0.04269787,-0.01679263,-0.05139513,-0.04512134,0.
 01325073,0.05374710,-0.00016261,-0.00164803,0.00032950,0.00059030,-0.0
 0043827,-0.00485859,-0.00061587,0.00177308,-0.00059954,-0.00003771,-0.
 00008291,-0.00021969,-0.00054501,-0.00092144,0.00091339,0.00110247,0.0
 0034089,0.00008836,0.00002360,-0.00001635,-0.00003729,-0.00066259,0.00
 087525,-0.00059708,-0.00001488,-0.00000105,-0.00004782,-0.00003955,-0.
 00001033,0.00003867,0.00001225,-0.00000817,0.00000937,0.00001055,-0.00
 001695,0.00000421,-0.00000844,-0.00000162,-0.00000046,-0.05013343,0.00
 278095,0.03779510,-0.00307226,0.00208633,0.03000934,0.04976555,0.00100
 629,-0.00025639,0.00056353,-0.00454443,-0.00009181,0.03160562,-0.00071
 645,-0.00052992,-0.00064878,0.00007307,0.00028811,0.00042122,0.0000215
 8,-0.00098557,-0.00083752,0.00047947,-0.00045640,0.00029618,-0.0000126
 5,0.00000844,0.00004474,0.00008824,-0.00018925,-0.00115841,0.00004971,
 -0.00006514,0.00010246,0.00006332,-0.00000883,0.00012680,-0.00000810,-
 0.00000062,-0.00000595,-0.00005077,-0.00002328,0.00001085,-0.00004186,
 -0.00002831,0.00004511,0.00258602,-0.04521858,-0.01963378,0.00050386,-
 0.00147606,-0.01058596,-0.00401661,0.05055358,-0.00115562,-0.00085837,
 0.00012971,0.00118661,0.00278240,-0.01159578,0.00065977,0.00056505,0.0
 0066680,0.00006616,-0.00009525,-0.00045783,-0.00022253,0.00065427,0.00
 037225,0.00015423,-0.00009866,0.00003979,0.00002062,-0.00001110,-0.000
 09776,-0.00029762,0.00088202,0.00005299,-0.00002602,0.00006834,-0.0000
 6038,-0.00007652,0.00000595,-0.00004108,0.00001870,0.00000679,0.000014
 43,0.00002943,0.00000243,-0.00000374,0.00002756,0.00002587,-0.00001331
 ,0.03821618,-0.02230774,-0.30764598,0.00059786,-0.00067538,-0.00380090
 ,-0.04112070,0.01992115,0.33275015,0.00032251,0.00038332,-0.00068694,0
 .00256954,0.00329992,0.00333980,0.00032846,0.00159453,-0.00041341,0.00
 018595,-0.00031409,-0.00031842,0.00014630,-0.00008830,0.00064248,0.000
 01732,0.00025589,-0.00008759,0.00004767,-0.00007163,-0.00009586,0.0001
 8368,-0.00017123,-0.00008200,-0.00000065,-0.00005466,-0.00000192,-0.00
 000103,0.00004133,0.00000917,-0.00000069,0.00000274,0.00000368,-0.0000
 1460,-0.00000888,-0.00000147,0.00000221,-0.00000245,0.00001382,-0.1678
 7214,-0.11858288,-0.06748255,-0.01658487,-0.01937812,-0.01137794,0.003
 78763,0.00451929,0.00192194,0.17688272,0.00198393,-0.00393868,0.001591
 62,-0.01966033,-0.01968182,-0.01025121,-0.00151297,0.00219908,-0.00037
 657,0.00085607,-0.00000938,-0.00010661,-0.00026151,-0.00019287,0.00042
 089,0.00034836,-0.00007908,0.00007477,0.00008874,-0.00002484,-0.000011
 30,-0.00121581,0.00002369,0.00051483,0.00003374,0.00000588,-0.00003737
 ,0.00024415,-0.00021044,0.00012264,-0.00002718,-0.00001363,-0.00001533
 ,-0.00002141,0.00000277,0.00000744,-0.00010455,-0.00010724,-0.00000117
 ,-0.11598743,-0.16370664,-0.06590426,0.00735573,0.00862554,0.00560930,
 -0.00069475,-0.00151999,-0.00086777,0.12857522,0.17862763,-0.00139264,
 0.00137677,-0.00005788,0.01142421,0.01317549,0.00383868,0.00064858,-0.
 00016559,0.00042023,-0.00017222,-0.00029006,0.00010896,0.00001418,-0.0
 0032143,0.00004260,0.00045444,0.00000051,0.00016245,-0.00001434,0.0000
 0040,-0.00001981,0.00046025,0.00091135,-0.00056542,-0.00000232,-0.0000
 4219,-0.00001707,-0.00011117,0.00009489,-0.00012786,0.00000524,-0.0000
 0549,0.00001428,0.00002251,0.00000380,-0.00000521,0.00005752,0.0000460
 1,-0.00000390,-0.06837733,-0.06881024,-0.08222181,0.00407263,0.0050629
 3,0.00149111,-0.02170676,-0.02026725,-0.01030937,0.07461721,0.06923009
 ,0.08725002\\0.00000070,0.00000092,-0.00000074,0.00000231,0.00000041,-
 0.00000042,0.00000045,-0.00000207,0.00000195,0.00000169,-0.00000276,0.
 00000229,-0.00000112,-0.00000194,0.00000170,-0.00000237,-0.00000094,0.
 00000031,-0.00000378,-0.00000108,0.00000002,-0.00000145,0.00000071,-0.
 00000085,-0.00000190,-0.00000325,0.00000213,-0.00000232,0.00000198,-0.
 00000209,-0.00000198,0.00000280,-0.00000271,-0.00000251,0.00000269,-0.
 00000255,-0.00000391,0.00000181,-0.00000236,0.00000352,-0.00000114,0.0
 0000137,0.00000327,0.00000148,0.00000019,0.00000428,0.00000016,-0.0000
 0026,0.00000514,0.00000019,0.00000201\\\@
 The archive entry for this job was punched.


 WE ARE PERHAPS NOT FAR REMOVED FROM THE TIME WHEN WE SHALL BE ABLE TO SUBMIT
 THE BULK OF CHEMICAL PHENOMENA TO CALCULATION.

            -- JOSEPH LOUIS GAY-LUSSAC
               MEMOIRES DE LA SOCIETE D'ARCUEIL, 2, 207 (1808)
 Job cpu time:       0 days  1 hours  4 minutes 17.2 seconds.
 Elapsed time:       0 days  0 hours  2 minutes  5.6 seconds.
 File lengths (MBytes):  RWF=    195 Int=      0 D2E=      0 Chk=     15 Scr=      1
 Normal termination of Gaussian 16 at Wed May 14 13:16:39 2025.
