/home/tahminaafroz
cn013.cluster.local
tahminaafroz
Sun May 11 04:13:11 CDT 2025
 Entering Gaussian System, Link 0=g16
 Initial command:
 /home/apps/g16/l1.exe "/tmp/2-6-diisopropyl-ph-opt-freq-2-thf/Gau-554820.inp" -scrdir="/tmp/2-6-diisopropyl-ph-opt-freq-2-thf/"
 Entering Link 1 = /home/apps/g16/l1.exe PID=    554821.
  
 Copyright (c) 1988-2019, Gaussian, Inc.  All Rights Reserved.
  
 This is part of the Gaussian(R) 16 program.  It is based on
 the Gaussian(R) 09 system (copyright 2009, Gaussian, Inc.),
 the Gaussian(R) 03 system (copyright 2003, Gaussian, Inc.),
 the Gaussian(R) 98 system (copyright 1998, Gaussian, Inc.),
 the Gaussian(R) 94 system (copyright 1995, Gaussian, Inc.),
 the Gaussian 92(TM) system (copyright 1992, Gaussian, Inc.),
 the Gaussian 90(TM) system (copyright 1990, Gaussian, Inc.),
 the Gaussian 88(TM) system (copyright 1988, Gaussian, Inc.),
 the Gaussian 86(TM) system (copyright 1986, Carnegie Mellon
 University), and the Gaussian 82(TM) system (copyright 1983,
 Carnegie Mellon University). Gaussian is a federally registered
 trademark of Gaussian, Inc.
  
 This software contains proprietary and confidential information,
 including trade secrets, belonging to Gaussian, Inc.
  
 This software is provided under written license and may be
 used, copied, transmitted, or stored only in accord with that
 written license.
  
 The following legend is applicable only to US Government
 contracts under FAR:
  
                    RESTRICTED RIGHTS LEGEND
  
 Use, reproduction and disclosure by the US Government is
 subject to restrictions as set forth in subparagraphs (a)
 and (c) of the Commercial Computer Software - Restricted
 Rights clause in FAR 52.227-19.
  
 Gaussian, Inc.
 340 Quinnipiac St., Bldg. 40, Wallingford CT 06492
  
  
 ---------------------------------------------------------------
 Warning -- This program may not be used in any manner that
 competes with the business of Gaussian, Inc. or will provide
 assistance to any competitor of Gaussian, Inc.  The licensee
 of this program is prohibited from giving any competitor of
 Gaussian, Inc. access to this program.  By using this program,
 the user acknowledges that Gaussian, Inc. is engaged in the
 business of creating and licensing software in the field of
 computational chemistry and represents and warrants to the
 licensee that it is not a competitor of Gaussian, Inc. and that
 it will not use this program in any manner prohibited above.
 ---------------------------------------------------------------
  

 Cite this work as:
 Gaussian 16, Revision C.01,
 M. J. Frisch, G. W. Trucks, H. B. Schlegel, G. E. Scuseria, 
 M. A. Robb, J. R. Cheeseman, G. Scalmani, V. Barone, 
 G. A. Petersson, H. Nakatsuji, X. Li, M. Caricato, A. V. Marenich, 
 J. Bloino, B. G. Janesko, R. Gomperts, B. Mennucci, H. P. Hratchian, 
 J. V. Ortiz, A. F. Izmaylov, J. L. Sonnenberg, D. Williams-Young, 
 F. Ding, F. Lipparini, F. Egidi, J. Goings, B. Peng, A. Petrone, 
 T. Henderson, D. Ranasinghe, V. G. Zakrzewski, J. Gao, N. Rega, 
 G. Zheng, W. Liang, M. Hada, M. Ehara, K. Toyota, R. Fukuda, 
 J. Hasegawa, M. Ishida, T. Nakajima, Y. Honda, O. Kitao, H. Nakai, 
 T. Vreven, K. Throssell, J. A. Montgomery, Jr., J. E. Peralta, 
 F. Ogliaro, M. J. Bearpark, J. J. Heyd, E. N. Brothers, K. N. Kudin, 
 V. N. Staroverov, T. A. Keith, R. Kobayashi, J. Normand, 
 K. Raghavachari, A. P. Rendell, J. C. Burant, S. S. Iyengar, 
 J. Tomasi, M. Cossi, J. M. Millam, M. Klene, C. Adamo, R. Cammi, 
 J. W. Ochterski, R. L. Martin, K. Morokuma, O. Farkas, 
 J. B. Foresman, and D. J. Fox, Gaussian, Inc., Wallingford CT, 2019.
 
 ******************************************
 Gaussian 16:  AS64L-G16RevC.01  3-Jul-2019
                11-May-2025 
 ******************************************
 %mem=20GB
 %nprocshared=32
 Will use up to   32 processors via shared memory.
 %chk=2-6-diisopropyl-ph-opt-freq-2-thf.chk
 ----------------------------------------------------------------------
 # opt=(calcfc,tight) freq 6-311+g(d,p) scrf=(smd,solvent=thf) nosymm s
 cf=(qc,fermi,xqc) geom=connectivity int=ultrafine m062x
 ----------------------------------------------------------------------
 1/7=10,10=4,18=20,19=15,26=6,38=1,57=2/1,3;
 2/9=110,12=2,15=1,17=6,18=5,40=1/2;
 3/5=4,6=6,7=111,11=2,25=1,30=1,70=32201,71=2,72=20,74=-55,75=-5,140=1/1,2,3;
 4//1;
 5/5=2,22=13,38=5,53=20/2;
 8/6=4,10=90,11=11/1;
 11/6=1,8=1,9=11,15=111,16=1,31=1/1,2,10;
 10/6=1,13=1,31=1/2;
 6/7=2,8=2,9=2,10=2,28=1/1;
 7/10=1,25=1,30=1/1,2,3,16;
 1/7=10,10=4,18=20,19=15,26=6/3(2);
 2/9=110,15=1/2;
 99//99;
 2/9=110,15=1/2;
 3/5=4,6=6,7=111,11=2,25=1,30=1,70=32205,71=1,72=20,74=-55,75=-5/1,2,3;
 4/5=5,16=3,69=1/1;
 5/5=2,22=13,38=5,53=20/2;
 7/30=1/1,2,3,16;
 1/7=10,18=20,19=15,26=6/3(-5);
 2/9=110,15=1/2;
 6/7=2,8=2,9=2,10=2,19=2,28=1/1;
 99/9=1/99;
 ---------------------------------
 2-6-diisopropyl-ph-opt-freq-2-thf
 ---------------------------------
 Symbolic Z-matrix:
 Charge =  0 Multiplicity = 2
 C                     6.32365   6.95691   5.22779 
 C                     5.11086   6.52791   5.79576 
 C                     3.90512   6.89704   5.19581 
 H                     2.96387   6.57298   5.62838 
 C                     3.89919   7.68019   4.04714 
 C                     5.09814   8.10464   3.48582 
 H                     5.08337   8.71731   2.58998 
 C                     6.31747   7.74989   4.06656 
 H                     2.95736   7.96162   3.58861 
 C                     7.61588   8.23033   3.43715 
 H                     8.45095   7.84739   4.03428 
 C                     5.09248   5.67482   7.05463 
 H                     6.12813   5.49051   7.36134 
 C                     7.70869   9.7595    3.45251 
 H                     8.66977   10.08739   3.04727 
 H                     6.91677   10.20345   2.84254 
 H                     7.61335   10.14838   4.46936 
 C                     7.78218   7.68819   2.01397 
 H                     6.9924    8.0664    1.35876 
 H                     8.74345   8.00009   1.59685 
 H                     7.74033   6.59579   1.9997 
 C                     4.43994   4.31238   6.79945 
 H                     4.94484   3.77769   5.99048 
 H                     4.48444   3.69357   7.69967 
 H                     3.38809   4.42944   6.52366 
 C                     4.39858   6.40428   8.20948 
 H                     3.34617   6.58931   7.97603 
 H                     4.44055   5.80229   9.1212 
 H                     4.87679   7.36634   8.40968 
 

 GradGradGradGradGradGradGradGradGradGradGradGradGradGradGradGradGradGrad
 Berny optimization.
 Initialization pass.
                           ----------------------------
                           !    Initial Parameters    !
                           ! (Angstroms and Degrees)  !
 --------------------------                            --------------------------
 ! Name  Definition              Value          Derivative Info.                !
 --------------------------------------------------------------------------------
 ! R1    R(1,2)                  1.4062         calculate D2E/DX2 analytically  !
 ! R2    R(1,8)                  1.4062         calculate D2E/DX2 analytically  !
 ! R3    R(2,3)                  1.3964         calculate D2E/DX2 analytically  !
 ! R4    R(2,12)                 1.5208         calculate D2E/DX2 analytically  !
 ! R5    R(3,4)                  1.0854         calculate D2E/DX2 analytically  !
 ! R6    R(3,5)                  1.3902         calculate D2E/DX2 analytically  !
 ! R7    R(5,6)                  1.3902         calculate D2E/DX2 analytically  !
 ! R8    R(5,9)                  1.0847         calculate D2E/DX2 analytically  !
 ! R9    R(6,7)                  1.0854         calculate D2E/DX2 analytically  !
 ! R10   R(6,8)                  1.3964         calculate D2E/DX2 analytically  !
 ! R11   R(8,10)                 1.5208         calculate D2E/DX2 analytically  !
 ! R12   R(10,11)                1.0957         calculate D2E/DX2 analytically  !
 ! R13   R(10,14)                1.5321         calculate D2E/DX2 analytically  !
 ! R14   R(10,18)                1.532          calculate D2E/DX2 analytically  !
 ! R15   R(12,13)                1.0957         calculate D2E/DX2 analytically  !
 ! R16   R(12,22)                1.532          calculate D2E/DX2 analytically  !
 ! R17   R(12,26)                1.5321         calculate D2E/DX2 analytically  !
 ! R18   R(14,15)                1.0933         calculate D2E/DX2 analytically  !
 ! R19   R(14,16)                1.0938         calculate D2E/DX2 analytically  !
 ! R20   R(14,17)                1.0928         calculate D2E/DX2 analytically  !
 ! R21   R(18,19)                1.0937         calculate D2E/DX2 analytically  !
 ! R22   R(18,20)                1.0933         calculate D2E/DX2 analytically  !
 ! R23   R(18,21)                1.0933         calculate D2E/DX2 analytically  !
 ! R24   R(22,23)                1.0933         calculate D2E/DX2 analytically  !
 ! R25   R(22,24)                1.0933         calculate D2E/DX2 analytically  !
 ! R26   R(22,25)                1.0937         calculate D2E/DX2 analytically  !
 ! R27   R(26,27)                1.0938         calculate D2E/DX2 analytically  !
 ! R28   R(26,28)                1.0933         calculate D2E/DX2 analytically  !
 ! R29   R(26,29)                1.0928         calculate D2E/DX2 analytically  !
 ! A1    A(2,1,8)              120.1185         calculate D2E/DX2 analytically  !
 ! A2    A(1,2,3)              119.3737         calculate D2E/DX2 analytically  !
 ! A3    A(1,2,12)             121.0566         calculate D2E/DX2 analytically  !
 ! A4    A(3,2,12)             119.5691         calculate D2E/DX2 analytically  !
 ! A5    A(2,3,4)              119.9096         calculate D2E/DX2 analytically  !
 ! A6    A(2,3,5)              120.5017         calculate D2E/DX2 analytically  !
 ! A7    A(4,3,5)              119.5886         calculate D2E/DX2 analytically  !
 ! A8    A(3,5,6)              120.1265         calculate D2E/DX2 analytically  !
 ! A9    A(3,5,9)              119.9436         calculate D2E/DX2 analytically  !
 ! A10   A(6,5,9)              119.9299         calculate D2E/DX2 analytically  !
 ! A11   A(5,6,7)              119.594          calculate D2E/DX2 analytically  !
 ! A12   A(5,6,8)              120.5029         calculate D2E/DX2 analytically  !
 ! A13   A(7,6,8)              119.903          calculate D2E/DX2 analytically  !
 ! A14   A(1,8,6)              119.3767         calculate D2E/DX2 analytically  !
 ! A15   A(1,8,10)             121.0761         calculate D2E/DX2 analytically  !
 ! A16   A(6,8,10)             119.5469         calculate D2E/DX2 analytically  !
 ! A17   A(8,10,11)            108.3445         calculate D2E/DX2 analytically  !
 ! A18   A(8,10,14)            111.2773         calculate D2E/DX2 analytically  !
 ! A19   A(8,10,18)            111.4296         calculate D2E/DX2 analytically  !
 ! A20   A(11,10,14)           107.2896         calculate D2E/DX2 analytically  !
 ! A21   A(11,10,18)           107.4492         calculate D2E/DX2 analytically  !
 ! A22   A(14,10,18)           110.8515         calculate D2E/DX2 analytically  !
 ! A23   A(2,12,13)            108.3386         calculate D2E/DX2 analytically  !
 ! A24   A(2,12,22)            111.4768         calculate D2E/DX2 analytically  !
 ! A25   A(2,12,26)            111.2439         calculate D2E/DX2 analytically  !
 ! A26   A(13,12,22)           107.4342         calculate D2E/DX2 analytically  !
 ! A27   A(13,12,26)           107.2878         calculate D2E/DX2 analytically  !
 ! A28   A(22,12,26)           110.8586         calculate D2E/DX2 analytically  !
 ! A29   A(10,14,15)           110.4182         calculate D2E/DX2 analytically  !
 ! A30   A(10,14,16)           110.8352         calculate D2E/DX2 analytically  !
 ! A31   A(10,14,17)           111.0519         calculate D2E/DX2 analytically  !
 ! A32   A(15,14,16)           107.9402         calculate D2E/DX2 analytically  !
 ! A33   A(15,14,17)           108.3512         calculate D2E/DX2 analytically  !
 ! A34   A(16,14,17)           108.1373         calculate D2E/DX2 analytically  !
 ! A35   A(10,18,19)           110.8415         calculate D2E/DX2 analytically  !
 ! A36   A(10,18,20)           110.4209         calculate D2E/DX2 analytically  !
 ! A37   A(10,18,21)           111.1963         calculate D2E/DX2 analytically  !
 ! A38   A(19,18,20)           107.9212         calculate D2E/DX2 analytically  !
 ! A39   A(19,18,21)           108.063          calculate D2E/DX2 analytically  !
 ! A40   A(20,18,21)           108.2836         calculate D2E/DX2 analytically  !
 ! A41   A(12,22,23)           111.191          calculate D2E/DX2 analytically  !
 ! A42   A(12,22,24)           110.4175         calculate D2E/DX2 analytically  !
 ! A43   A(12,22,25)           110.8824         calculate D2E/DX2 analytically  !
 ! A44   A(23,22,24)           108.2797         calculate D2E/DX2 analytically  !
 ! A45   A(23,22,25)           108.054          calculate D2E/DX2 analytically  !
 ! A46   A(24,22,25)           107.9002         calculate D2E/DX2 analytically  !
 ! A47   A(12,26,27)           110.821          calculate D2E/DX2 analytically  !
 ! A48   A(12,26,28)           110.4275         calculate D2E/DX2 analytically  !
 ! A49   A(12,26,29)           111.0416         calculate D2E/DX2 analytically  !
 ! A50   A(27,26,28)           107.9426         calculate D2E/DX2 analytically  !
 ! A51   A(27,26,29)           108.1328         calculate D2E/DX2 analytically  !
 ! A52   A(28,26,29)           108.3693         calculate D2E/DX2 analytically  !
 ! D1    D(8,1,2,3)             -0.0048         calculate D2E/DX2 analytically  !
 ! D2    D(8,1,2,12)          -179.731          calculate D2E/DX2 analytically  !
 ! D3    D(2,1,8,6)             -0.0263         calculate D2E/DX2 analytically  !
 ! D4    D(2,1,8,10)           179.7616         calculate D2E/DX2 analytically  !
 ! D5    D(1,2,3,4)           -179.8363         calculate D2E/DX2 analytically  !
 ! D6    D(1,2,3,5)              0.0548         calculate D2E/DX2 analytically  !
 ! D7    D(12,2,3,4)            -0.106          calculate D2E/DX2 analytically  !
 ! D8    D(12,2,3,5)           179.7852         calculate D2E/DX2 analytically  !
 ! D9    D(1,2,12,13)           -0.6632         calculate D2E/DX2 analytically  !
 ! D10   D(1,2,12,22)         -118.6718         calculate D2E/DX2 analytically  !
 ! D11   D(1,2,12,26)          117.0314         calculate D2E/DX2 analytically  !
 ! D12   D(3,2,12,13)          179.6112         calculate D2E/DX2 analytically  !
 ! D13   D(3,2,12,22)           61.6025         calculate D2E/DX2 analytically  !
 ! D14   D(3,2,12,26)          -62.6943         calculate D2E/DX2 analytically  !
 ! D15   D(2,3,5,6)             -0.0735         calculate D2E/DX2 analytically  !
 ! D16   D(2,3,5,9)            179.9999         calculate D2E/DX2 analytically  !
 ! D17   D(4,3,5,6)            179.818          calculate D2E/DX2 analytically  !
 ! D18   D(4,3,5,9)             -0.1086         calculate D2E/DX2 analytically  !
 ! D19   D(3,5,6,7)           -179.8871         calculate D2E/DX2 analytically  !
 ! D20   D(3,5,6,8)              0.0416         calculate D2E/DX2 analytically  !
 ! D21   D(9,5,6,7)              0.0396         calculate D2E/DX2 analytically  !
 ! D22   D(9,5,6,8)            179.9683         calculate D2E/DX2 analytically  !
 ! D23   D(5,6,8,1)              0.0081         calculate D2E/DX2 analytically  !
 ! D24   D(5,6,8,10)          -179.7831         calculate D2E/DX2 analytically  !
 ! D25   D(7,6,8,1)            179.9366         calculate D2E/DX2 analytically  !
 ! D26   D(7,6,8,10)             0.1454         calculate D2E/DX2 analytically  !
 ! D27   D(1,8,10,11)            0.3419         calculate D2E/DX2 analytically  !
 ! D28   D(1,8,10,14)         -117.3777         calculate D2E/DX2 analytically  !
 ! D29   D(1,8,10,18)          118.3449         calculate D2E/DX2 analytically  !
 ! D30   D(6,8,10,11)         -179.8706         calculate D2E/DX2 analytically  !
 ! D31   D(6,8,10,14)           62.4099         calculate D2E/DX2 analytically  !
 ! D32   D(6,8,10,18)          -61.8675         calculate D2E/DX2 analytically  !
 ! D33   D(8,10,14,15)         176.9106         calculate D2E/DX2 analytically  !
 ! D34   D(8,10,14,16)         -63.5291         calculate D2E/DX2 analytically  !
 ! D35   D(8,10,14,17)          56.6947         calculate D2E/DX2 analytically  !
 ! D36   D(11,10,14,15)         58.5544         calculate D2E/DX2 analytically  !
 ! D37   D(11,10,14,16)        178.1148         calculate D2E/DX2 analytically  !
 ! D38   D(11,10,14,17)        -61.6614         calculate D2E/DX2 analytically  !
 ! D39   D(18,10,14,15)        -58.4861         calculate D2E/DX2 analytically  !
 ! D40   D(18,10,14,16)         61.0743         calculate D2E/DX2 analytically  !
 ! D41   D(18,10,14,17)       -178.7019         calculate D2E/DX2 analytically  !
 ! D42   D(8,10,18,19)          63.4147         calculate D2E/DX2 analytically  !
 ! D43   D(8,10,18,20)        -177.0429         calculate D2E/DX2 analytically  !
 ! D44   D(8,10,18,21)         -56.8156         calculate D2E/DX2 analytically  !
 ! D45   D(11,10,18,19)       -178.0447         calculate D2E/DX2 analytically  !
 ! D46   D(11,10,18,20)        -58.5023         calculate D2E/DX2 analytically  !
 ! D47   D(11,10,18,21)         61.725          calculate D2E/DX2 analytically  !
 ! D48   D(14,10,18,19)        -61.1022         calculate D2E/DX2 analytically  !
 ! D49   D(14,10,18,20)         58.4402         calculate D2E/DX2 analytically  !
 ! D50   D(14,10,18,21)        178.6675         calculate D2E/DX2 analytically  !
 ! D51   D(2,12,22,23)          56.7213         calculate D2E/DX2 analytically  !
 ! D52   D(2,12,22,24)         176.938          calculate D2E/DX2 analytically  !
 ! D53   D(2,12,22,25)         -63.5216         calculate D2E/DX2 analytically  !
 ! D54   D(13,12,22,23)        -61.8299         calculate D2E/DX2 analytically  !
 ! D55   D(13,12,22,24)         58.3868         calculate D2E/DX2 analytically  !
 ! D56   D(13,12,22,25)        177.9272         calculate D2E/DX2 analytically  !
 ! D57   D(26,12,22,23)       -178.7653         calculate D2E/DX2 analytically  !
 ! D58   D(26,12,22,24)        -58.5486         calculate D2E/DX2 analytically  !
 ! D59   D(26,12,22,25)         60.9918         calculate D2E/DX2 analytically  !
 ! D60   D(2,12,26,27)          63.499          calculate D2E/DX2 analytically  !
 ! D61   D(2,12,26,28)        -176.9407         calculate D2E/DX2 analytically  !
 ! D62   D(2,12,26,29)         -56.7028         calculate D2E/DX2 analytically  !
 ! D63   D(13,12,26,27)       -178.1718         calculate D2E/DX2 analytically  !
 ! D64   D(13,12,26,28)        -58.6115         calculate D2E/DX2 analytically  !
 ! D65   D(13,12,26,29)         61.6264         calculate D2E/DX2 analytically  !
 ! D66   D(22,12,26,27)        -61.1465         calculate D2E/DX2 analytically  !
 ! D67   D(22,12,26,28)         58.4138         calculate D2E/DX2 analytically  !
 ! D68   D(22,12,26,29)        178.6517         calculate D2E/DX2 analytically  !
 --------------------------------------------------------------------------------
 Trust Radius=3.00D-01 FncErr=5.00D-06 GrdErr=5.00D-06 EigMax=2.50D+02 EigMin=1.00D-04
 Number of steps in this run=    159 maximum allowed number of steps=    174.
 GradGradGradGradGradGradGradGradGradGradGradGradGradGradGradGradGradGrad

                          Input orientation:                          
 ---------------------------------------------------------------------
 Center     Atomic      Atomic             Coordinates (Angstroms)
 Number     Number       Type             X           Y           Z
 ---------------------------------------------------------------------
      1          6           0        6.323649    6.956911    5.227793
      2          6           0        5.110864    6.527914    5.795761
      3          6           0        3.905118    6.897041    5.195808
      4          1           0        2.963866    6.572976    5.628376
      5          6           0        3.899187    7.680185    4.047140
      6          6           0        5.098139    8.104639    3.485817
      7          1           0        5.083374    8.717310    2.589975
      8          6           0        6.317471    7.749894    4.066562
      9          1           0        2.957360    7.961623    3.588611
     10          6           0        7.615882    8.230327    3.437148
     11          1           0        8.450950    7.847388    4.034276
     12          6           0        5.092476    5.674816    7.054630
     13          1           0        6.128129    5.490506    7.361342
     14          6           0        7.708693    9.759498    3.452509
     15          1           0        8.669772   10.087393    3.047274
     16          1           0        6.916767   10.203455    2.842541
     17          1           0        7.613345   10.148376    4.469358
     18          6           0        7.782180    7.688193    2.013975
     19          1           0        6.992398    8.066400    1.358758
     20          1           0        8.743453    8.000088    1.596853
     21          1           0        7.740325    6.595786    1.999695
     22          6           0        4.439941    4.312381    6.799448
     23          1           0        4.944842    3.777687    5.990478
     24          1           0        4.484443    3.693569    7.699669
     25          1           0        3.388087    4.429441    6.523656
     26          6           0        4.398580    6.404283    8.209478
     27          1           0        3.346174    6.589313    7.976028
     28          1           0        4.440549    5.802288    9.121204
     29          1           0        4.876792    7.366337    8.409684
 ---------------------------------------------------------------------
                    Distance matrix (angstroms):
                    1          2          3          4          5
     1  C    0.000000
     2  C    1.406227   0.000000
     3  C    2.419483   1.396432   0.000000
     4  H    3.405292   2.153984   1.085398   0.000000
     5  C    2.791968   2.419414   1.390247   2.145005   0.000000
     6  C    2.419429   2.796795   2.409494   3.389937   1.390227
     7  H    3.405198   3.882174   3.389990   4.280463   2.145054
     8  C    1.406171   2.437061   2.796784   3.882147   2.419366
     9  H    3.876631   3.400678   2.148176   2.467595   1.084663
    10  C    2.549091   3.838799   4.317442   5.402735   3.806385
    11  H    2.596698   4.000002   4.787160   5.854346   4.554851
    12  C    2.548899   1.520811   2.521680   2.715119   3.806631
    13  H    2.596267   2.135904   3.407295   3.766626   4.554867
    14  C    3.595062   4.762634   5.069510   6.115693   4.380578
    15  H    4.478713   5.734971   6.123436   7.181266   5.436255
    16  H    4.072010   5.048999   5.053738   6.047039   4.113847
    17  H    3.524768   4.596684   4.984963   5.978667   4.479420
    18  C    3.604263   4.773267   5.077558   6.125664   4.383088
    19  H    4.080150   5.059062   5.061783   6.057146   4.116371
    20  H    4.486357   5.744025   6.130145   7.189816   5.438121
    21  H    3.543727   4.618310   5.001470   5.998534   4.485788
    22  C    3.607214   2.523115   3.088392   2.942872   4.382889
    23  H    3.548276   2.762105   3.382735   3.445145   4.483241
    24  H    4.488012   3.471423   4.106966   3.859196   5.438437
    25  H    4.084714   2.810939   2.849483   2.361405   4.118457
    26  C    3.591898   2.519655   3.093303   2.957862   4.382052
    27  H    4.068572   2.805613   2.852497   2.378633   4.114849
    28  H    4.476368   3.469067   4.110219   3.869677   5.437435
    29  H    3.519298   2.755056   3.390190   3.467619   4.481741
                    6          7          8          9         10
     6  C    0.000000
     7  H    1.085411   0.000000
     8  C    1.396381   2.153880   0.000000
     9  H    2.148012   2.467442   3.400531   0.000000
    10  C    2.521348   2.714489   1.520805   4.668723   0.000000
    11  H    3.407099   3.766077   2.135949   5.512821   1.095693
    12  C    4.317464   5.402777   3.838634   4.669207   5.097489
    13  H    4.786885   5.854035   3.999532   5.513048   5.011918
    14  C    3.091061   2.953374   2.520133   5.081933   1.532062
    15  H    4.108552   3.866329   3.469318   6.119117   2.170571
    16  H    2.850656   2.373551   2.806661   4.610785   2.176133
    17  H    3.386809   3.461327   2.755767   5.218793   2.178159
    18  C    3.089308   2.945235   2.522359   5.082630   1.531987
    19  H    2.848519   2.363039   2.808541   4.611372   2.176077
    20  H    4.106998   3.859647   3.470943   6.119432   2.170510
    21  H    3.386199   3.450896   2.761959   5.221774   2.180248
    22  C    5.078838   6.126750   4.776011   5.081780   6.061515
    23  H    5.001934   5.998540   4.622120   5.217698   5.786186
    24  H    6.131126   7.190665   5.745714   6.119564   6.968297
    25  H    5.065553   6.060830   5.063991   4.612627   6.468966
    26  C    5.068882   6.115378   4.759891   5.084765   6.038262
    27  H    5.052483   6.046139   5.045739   4.613441   6.443971
    28  H    6.122976   7.181054   5.732836   6.121451   6.948856
    29  H    4.983829   5.978028   4.591882   5.223153   5.742404
                   11         12         13         14         15
    11  H    0.000000
    12  C    5.012181   0.000000
    13  H    4.692522   1.095728   0.000000
    14  C    2.132033   6.041895   6.000121   0.000000
    15  H    2.457576   6.951747   6.797242   1.093345   0.000000
    16  H    3.053687   6.448124   6.576732   1.093758   1.768732
    17  H    2.487051   5.749013   5.680246   1.092840   1.772591
    18  C    2.134060   6.057755   6.013322   2.522912   2.758929
    19  H    3.055116   6.463152   6.588870   2.786297   3.122352
    20  H    2.459656   6.965906   6.809351   2.758570   2.542832
    21  H    2.492191   5.780282   5.706845   3.481486   3.761996
    22  C    6.019190   1.532041   2.133936   7.180378   8.082144
    23  H    5.716816   2.180210   2.492626   7.061319   7.896198
    24  H    6.813406   2.170511   2.458689   8.076488   8.946661
    25  H    6.596359   2.176657   3.055390   7.517253   8.484919
    26  C    5.994712   1.532086   2.132056   6.696497   7.645700
    27  H    6.571065   2.175971   3.053603   7.038741   8.054184
    28  H    6.792833   2.170711   2.458099   7.646854   8.552256
    29  H    5.670116   2.178057   2.486686   6.190353   7.109591
                   16         17         18         19         20
    16  H    0.000000
    17  H    1.770533   0.000000
    18  C    2.786037   3.479930   0.000000
    19  H    2.602755   3.794210   1.093666   0.000000
    20  H    3.121433   3.760794   1.093305   1.768412   0.000000
    21  H    3.795249   4.328540   1.093302   1.770000   1.772177
    22  C    7.516418   7.039790   6.742953   7.085817   7.693269
    23  H    7.422162   7.072510   6.257405   6.636142   7.180672
    24  H    8.478591   7.866986   7.691502   8.100533   8.598234
    25  H    7.703339   7.401295   7.089763   7.272874   8.105730
    26  C    7.041235   6.192047   7.175056   7.511517   8.071637
    27  H    7.222454   6.570572   7.512108   7.698376   8.474360
    28  H    8.057514   7.113001   8.076871   8.479016   8.942101
    29  H    6.572961   5.545686   7.032067   7.394690   7.859222
                   21         22         23         24         25
    21  H    0.000000
    22  C    6.256525   0.000000
    23  H    5.628744   1.093277   0.000000
    24  H    7.177279   1.093301   1.772111   0.000000
    25  H    6.640877   1.093692   1.769901   1.768194   0.000000
    26  C    7.054455   2.523083   3.481576   2.759574   2.786233
    27  H    7.417895   2.786590   3.795180   3.123678   2.603111
    28  H    7.888856   2.758691   3.762282   2.543498   3.120840
    29  H    7.062686   3.479992   4.328464   3.761288   3.794562
                   26         27         28         29
    26  C    0.000000
    27  H    1.093752   0.000000
    28  H    1.093345   1.768755   0.000000
    29  H    1.092848   1.770484   1.772799   0.000000
 Symmetry turned off by external request.
 Stoichiometry    C12H17(2)
 Framework group  C1[X(C12H17)]
 Deg. of freedom    81
 Full point group                 C1      NOp   1
 Rotational constants (GHZ):           1.8961140           0.4787287           0.4573450
 Standard basis: 6-311+G(d,p) (5D, 7F)
   366 basis functions,   568 primitive gaussians,   378 cartesian basis functions
    45 alpha electrons       44 beta electrons
       nuclear repulsion energy       672.2958060574 Hartrees.
 NAtoms=   29 NActive=   29 NUniq=   29 SFac= 1.00D+00 NAtFMM=   60 NAOKFM=F Big=F
 Integral buffers will be    131072 words long.
 Raffenetti 2 integral format.
 Two-electron integral symmetry is turned off.
 Force inversion solution in PCM.
 ------------------------------------------------------------------------------
 Polarizable Continuum Model (PCM)
 =================================
 Model                : PCM.
 Atomic radii         : SMD-Coulomb.
 Polarization charges : Total charges.
 Charge compensation  : None.
 Solution method      : Matrix inversion.
 Cavity type          : VdW (van der Waals Surface) (Alpha=1.000).
 Cavity algorithm     : GePol (No added spheres)
                        Default sphere list used, NSphG=   29.
                        Lebedev-Laikov grids with approx.  5.0 points / Ang**2.
                        Smoothing algorithm: York/Karplus (Gamma=1.0000).
                        Polarization charges: spherical gaussians, with
                                              point-specific exponents (IZeta= 3).
                        Self-potential: point-specific (ISelfS= 7).
                        Self-field    : sphere-specific E.n sum rule (ISelfD= 2).
 1st derivatives      : Analytical E(r).r(x)/FMM algorithm (CHGder, D1EAlg=3).
                        Cavity 1st derivative terms included.
 2nd derivatives      : Analytical E(r).r(xy)/FMM algorithm (CHGder, D2EAlg=3).
                        Cavity 2nd derivative terms included.
 Solvent              : TetraHydroFuran, Eps=   7.425700 Eps(inf)=   1.974025
 ------------------------------------------------------------------------------
 ------------------------------------------------------------------------------
 Atomic radii for non-electrostatic terms: SMD-CDS.
 ------------------------------------------------------------------------------
 Nuclear repulsion after PCM non-electrostatic terms =      672.2915401009 Hartrees.
 One-electron integrals computed using PRISM.
 NBasis=   366 RedAO= T EigKep=  2.08D-06  NBF=   366
 NBsUse=   365 1.00D-06 EigRej=  7.31D-07 NBFU=   365
 ExpMin= 4.38D-02 ExpMax= 4.56D+03 ExpMxC= 6.82D+02 IAcc=3 IRadAn=         5 AccDes= 0.00D+00
 Harris functional with IExCor= 1009 and IRadAn=       5 diagonalized for initial guess.
 HarFok:  IExCor= 1009 AccDes= 0.00D+00 IRadAn=         5 IDoV= 1 UseB2=F ITyADJ=14
 ICtDFT=  3500011 ScaDFX=  1.000000  1.000000  1.000000  1.000000
 FoFCou: FMM=F IPFlag=           0 FMFlag=      100000 FMFlg1=           0
         NFxFlg=           0 DoJE=T BraDBF=F KetDBF=T FulRan=T
         wScrn=  0.000000 ICntrl=       500 IOpCl=  0 I1Cent=   200000004 NGrid=           0
         NMat0=    1 NMatS0=      1 NMatT0=    0 NMatD0=    1 NMtDS0=    0 NMtDT0=    0
 Symmetry not used in FoFCou.
 Initial guess <Sx>= 0.0000 <Sy>= 0.0000 <Sz>= 0.5000 <S**2>= 0.7500 S= 0.5000
 Requested convergence on RMS density matrix=1.00D-08 within 128 cycles.
 Requested convergence on MAX density matrix=1.00D-06.
 Requested convergence on             energy=1.00D-06.
 Level shift goal  0.100 maximum shift  0.100.
 No special actions if energy rises.
 Dynamic level shift is on during FON iterations.
 Inv3:  Mode=1 IEnd=    12817467.
 Iteration    1 A*A^-1 deviation from unit magnitude is 4.88D-15 for   2056.
 Iteration    1 A*A^-1 deviation from orthogonality  is 3.59D-15 for   2052   1847.
 Iteration    1 A^-1*A deviation from unit magnitude is 5.11D-15 for   2056.
 Iteration    1 A^-1*A deviation from orthogonality  is 2.47D-15 for   2057   2021.
 Error on total polarization charges =  0.05759
 SCF Done:  E(UM062X) =  -467.349594702     A.U. after   16 cycles
            NFock= 16  Conv=0.93D-08     -V/T= 2.0047
 <Sx>= 0.0000 <Sy>= 0.0000 <Sz>= 0.5000 <S**2>= 0.7625 S= 0.5062
 <L.S>=  0.00000000000    
 SMD-CDS (non-electrostatic) energy       (kcal/mol) =      -2.68
 (included in total energy above)
 Annihilation of the first spin contaminant:
 S**2 before annihilation     0.7625,   after     0.7501
 DoSCS=F DFT=T ScalE2(SS,OS)=  1.000000  1.000000
 Range of M.O.s used for correlation:     1   365
 NBasis=   366 NAE=    45 NBE=    44 NFC=     0 NFV=     0
 NROrb=    365 NOA=    45 NOB=    44 NVA=   320 NVB=   321

 **** Warning!!: The largest alpha MO coefficient is  0.17951703D+03


 **** Warning!!: The largest beta MO coefficient is  0.16186257D+03

 Symmetrizing basis deriv contribution to polar:
 IMax=3 JMax=2 DiffMx= 0.00D+00
 G2DrvN: will do    30 centers at a time, making    1 passes.
 Calling FoFCou, ICntrl=  3107 FMM=F I1Cent=   0 AccDes= 0.00D+00.
 NEqPCM:  Using equilibrium solvation (IEInf=0, Eps=   7.4257, EpsInf=   1.9740)
 G2PCM: DoFxE=T DoFxN=T DoGrad=T DoDP/DQ/DG/TGxP=FFFF NFrqRd=   0 IEInf=0 SqF1=F DoCFld=F IF1Alg=4.
 End of G2Drv F.D. properties file   721 does not exist.
 End of G2Drv F.D. properties file   722 does not exist.
 End of G2Drv F.D. properties file   788 does not exist.
          IDoAtm=11111111111111111111111111111
 NEqPCM:  Using equilibrium solvation (IEInf=0, Eps=   7.4257, EpsInf=   1.9740)
          Differentiating once with respect to nuclear coordinates.
 CalDSu exits because no D1Ps are significant.
          There are    90 degrees of freedom in the 1st order CPHF.  IDoFFX=6 NUNeed=     0.
     84 vectors produced by pass  0 Test12= 3.17D-14 1.11D-09 XBig12= 2.94D-01 1.20D-01.
 AX will form    84 AO Fock derivatives at one time.
     84 vectors produced by pass  1 Test12= 3.17D-14 1.11D-09 XBig12= 3.17D-02 4.08D-02.
     84 vectors produced by pass  2 Test12= 3.17D-14 1.11D-09 XBig12= 9.03D-04 9.16D-03.
     84 vectors produced by pass  3 Test12= 3.17D-14 1.11D-09 XBig12= 1.27D-05 1.20D-03.
     84 vectors produced by pass  4 Test12= 3.17D-14 1.11D-09 XBig12= 3.23D-07 1.73D-04.
     84 vectors produced by pass  5 Test12= 3.17D-14 1.11D-09 XBig12= 2.85D-09 5.85D-06.
     74 vectors produced by pass  6 Test12= 3.17D-14 1.11D-09 XBig12= 1.78D-11 3.25D-07.
     28 vectors produced by pass  7 Test12= 3.17D-14 1.11D-09 XBig12= 1.15D-13 2.38D-08.
      2 vectors produced by pass  8 Test12= 3.17D-14 1.11D-09 XBig12= 8.18D-16 2.60D-09.
 InvSVY:  IOpt=1 It=  1 EMax= 6.11D-16
 Solved reduced A of dimension   608 with    90 vectors.
 End of Minotr F.D. properties file   721 does not exist.
 End of Minotr F.D. properties file   722 does not exist.
 End of Minotr F.D. properties file   788 does not exist.

 **********************************************************************

            Population analysis using the SCF Density.

 **********************************************************************

 Alpha  occ. eigenvalues --  -10.57095 -10.55406 -10.55403 -10.54103 -10.54060
 Alpha  occ. eigenvalues --  -10.54058 -10.54002 -10.53970 -10.51748 -10.51747
 Alpha  occ. eigenvalues --  -10.51745 -10.51744  -0.97222  -0.91411  -0.88503
 Alpha  occ. eigenvalues --   -0.83134  -0.81769  -0.76891  -0.76880  -0.71202
 Alpha  occ. eigenvalues --   -0.68416  -0.66396  -0.61182  -0.57001  -0.55142
 Alpha  occ. eigenvalues --   -0.51851  -0.50465  -0.50302  -0.48613  -0.48389
 Alpha  occ. eigenvalues --   -0.46965  -0.46077  -0.44601  -0.44319  -0.43991
 Alpha  occ. eigenvalues --   -0.42333  -0.41358  -0.39743  -0.38935  -0.38502
 Alpha  occ. eigenvalues --   -0.38260  -0.36726  -0.31616  -0.31095  -0.29313
 Alpha virt. eigenvalues --    0.01749   0.01757   0.01928   0.02658   0.02969
 Alpha virt. eigenvalues --    0.03791   0.04298   0.04457   0.04823   0.05367
 Alpha virt. eigenvalues --    0.06746   0.06848   0.07214   0.07355   0.07451
 Alpha virt. eigenvalues --    0.08424   0.08686   0.10136   0.10313   0.10459
 Alpha virt. eigenvalues --    0.11157   0.11276   0.11705   0.12485   0.12501
 Alpha virt. eigenvalues --    0.13223   0.14354   0.14660   0.15023   0.16292
 Alpha virt. eigenvalues --    0.17096   0.17504   0.17950   0.19174   0.19197
 Alpha virt. eigenvalues --    0.19471   0.19490   0.20393   0.20790   0.21193
 Alpha virt. eigenvalues --    0.21685   0.22085   0.22701   0.23153   0.23963
 Alpha virt. eigenvalues --    0.23974   0.24036   0.24349   0.25258   0.25308
 Alpha virt. eigenvalues --    0.25919   0.26584   0.26890   0.27459   0.28146
 Alpha virt. eigenvalues --    0.28554   0.28699   0.29239   0.29256   0.30049
 Alpha virt. eigenvalues --    0.30577   0.30890   0.31523   0.31629   0.32075
 Alpha virt. eigenvalues --    0.32674   0.33196   0.33291   0.33527   0.33632
 Alpha virt. eigenvalues --    0.36542   0.36852   0.39359   0.40579   0.41349
 Alpha virt. eigenvalues --    0.44113   0.44673   0.44822   0.45490   0.46970
 Alpha virt. eigenvalues --    0.47609   0.51393   0.52442   0.53065   0.53141
 Alpha virt. eigenvalues --    0.53535   0.54854   0.54911   0.57522   0.57861
 Alpha virt. eigenvalues --    0.59806   0.60792   0.62247   0.62469   0.62750
 Alpha virt. eigenvalues --    0.62992   0.63771   0.65426   0.65659   0.66892
 Alpha virt. eigenvalues --    0.68182   0.68329   0.68929   0.69785   0.71558
 Alpha virt. eigenvalues --    0.72034   0.72446   0.72928   0.73191   0.74366
 Alpha virt. eigenvalues --    0.74477   0.75475   0.75992   0.76363   0.76585
 Alpha virt. eigenvalues --    0.76727   0.77295   0.78307   0.78483   0.79200
 Alpha virt. eigenvalues --    0.80667   0.80987   0.81463   0.81576   0.81984
 Alpha virt. eigenvalues --    0.83598   0.86035   0.88093   0.89297   0.90188
 Alpha virt. eigenvalues --    0.94334   0.95438   0.95665   0.97284   1.00658
 Alpha virt. eigenvalues --    1.00730   1.02429   1.04120   1.04586   1.04842
 Alpha virt. eigenvalues --    1.07002   1.07312   1.12177   1.13456   1.13641
 Alpha virt. eigenvalues --    1.15164   1.18634   1.24354   1.24757   1.25116
 Alpha virt. eigenvalues --    1.25251   1.27291   1.29092   1.30765   1.34494
 Alpha virt. eigenvalues --    1.38332   1.44471   1.45091   1.48271   1.51495
 Alpha virt. eigenvalues --    1.51550   1.52883   1.53228   1.53517   1.53893
 Alpha virt. eigenvalues --    1.54237   1.54724   1.57588   1.58391   1.58598
 Alpha virt. eigenvalues --    1.58973   1.59956   1.61491   1.62409   1.62557
 Alpha virt. eigenvalues --    1.63365   1.64574   1.65583   1.66575   1.68089
 Alpha virt. eigenvalues --    1.68525   1.68543   1.69326   1.69836   1.72612
 Alpha virt. eigenvalues --    1.73784   1.74286   1.75851   1.76732   1.78141
 Alpha virt. eigenvalues --    1.78968   1.79733   1.79908   1.80451   1.83731
 Alpha virt. eigenvalues --    1.84117   1.85208   1.89258   1.89369   1.90691
 Alpha virt. eigenvalues --    1.92867   1.96103   1.96368   1.96413   1.97416
 Alpha virt. eigenvalues --    1.97573   1.99087   1.99619   2.01451   2.02663
 Alpha virt. eigenvalues --    2.08252   2.08876   2.11189   2.13529   2.14836
 Alpha virt. eigenvalues --    2.15580   2.16729   2.17495   2.19837   2.19904
 Alpha virt. eigenvalues --    2.20509   2.21907   2.27060   2.30881   2.33813
 Alpha virt. eigenvalues --    2.35579   2.36045   2.38613   2.39545   2.43726
 Alpha virt. eigenvalues --    2.43740   2.46500   2.47478   2.49440   2.52800
 Alpha virt. eigenvalues --    2.53418   2.55384   2.55582   2.55605   2.56239
 Alpha virt. eigenvalues --    2.57642   2.57877   2.58018   2.59426   2.60163
 Alpha virt. eigenvalues --    2.61095   2.61896   2.66278   2.66306   2.69063
 Alpha virt. eigenvalues --    2.69374   2.69855   2.70734   2.72519   2.72741
 Alpha virt. eigenvalues --    2.73809   2.74194   2.76280   2.77407   2.79959
 Alpha virt. eigenvalues --    2.80737   2.83272   2.85271   2.85959   2.88167
 Alpha virt. eigenvalues --    2.88361   2.92559   2.94242   2.94279   2.95396
 Alpha virt. eigenvalues --    2.98304   2.99044   3.00083   3.03305   3.03386
 Alpha virt. eigenvalues --    3.08472   3.13095   3.14407   3.16818   3.18179
 Alpha virt. eigenvalues --    3.21793   3.26269   3.32545   3.45615   3.46784
 Alpha virt. eigenvalues --    3.48110   3.52736   3.60869   3.69914   3.72691
 Alpha virt. eigenvalues --    3.82991   3.83228   3.84366   3.84458   3.88542
 Alpha virt. eigenvalues --    3.88968   3.90471   3.90792   3.96981   4.10697
 Alpha virt. eigenvalues --    4.12601   4.14088   4.19475   4.34474   4.34664
 Alpha virt. eigenvalues --    4.38145   4.45158   4.85704  23.61808  23.93874
 Alpha virt. eigenvalues --   23.93976  23.99195  24.04165  24.05579  24.06057
 Alpha virt. eigenvalues --   24.06703  24.08349  24.12803  24.16607  24.25382
  Beta  occ. eigenvalues --  -10.56090 -10.55400 -10.55395 -10.54119 -10.54029
  Beta  occ. eigenvalues --  -10.54027 -10.53938 -10.53919 -10.51751 -10.51750
  Beta  occ. eigenvalues --  -10.51748 -10.51747  -0.96524  -0.91259  -0.88441
  Beta  occ. eigenvalues --   -0.81688  -0.81553  -0.76896  -0.76886  -0.70843
  Beta  occ. eigenvalues --   -0.67406  -0.65835  -0.60951  -0.56181  -0.54684
  Beta  occ. eigenvalues --   -0.51408  -0.50235  -0.50190  -0.48209  -0.48179
  Beta  occ. eigenvalues --   -0.46981  -0.45159  -0.44572  -0.44320  -0.43850
  Beta  occ. eigenvalues --   -0.42059  -0.40718  -0.39749  -0.38917  -0.38442
  Beta  occ. eigenvalues --   -0.37844  -0.36323  -0.29501  -0.29330
  Beta virt. eigenvalues --   -0.06985   0.01780   0.01855   0.02477   0.02638
  Beta virt. eigenvalues --    0.03165   0.03823   0.04231   0.04788   0.04865
  Beta virt. eigenvalues --    0.04991   0.06668   0.06864   0.07016   0.07200
  Beta virt. eigenvalues --    0.07274   0.08211   0.08675   0.10017   0.10229
  Beta virt. eigenvalues --    0.10278   0.10802   0.10830   0.11655   0.11989
  Beta virt. eigenvalues --    0.12489   0.13097   0.14168   0.14181   0.15142
  Beta virt. eigenvalues --    0.16415   0.16758   0.17091   0.17524   0.18883
  Beta virt. eigenvalues --    0.19045   0.19062   0.19496   0.20244   0.20885
  Beta virt. eigenvalues --    0.21193   0.21633   0.21680   0.22833   0.22894
  Beta virt. eigenvalues --    0.23552   0.23671   0.23770   0.24254   0.25087
  Beta virt. eigenvalues --    0.25480   0.25788   0.26503   0.26975   0.27464
  Beta virt. eigenvalues --    0.28045   0.28552   0.28754   0.29144   0.29153
  Beta virt. eigenvalues --    0.29873   0.29944   0.30801   0.31517   0.31674
  Beta virt. eigenvalues --    0.31909   0.32552   0.32892   0.33200   0.33307
  Beta virt. eigenvalues --    0.33567   0.36341   0.36837   0.39906   0.40678
  Beta virt. eigenvalues --    0.41978   0.43786   0.44594   0.44865   0.45486
  Beta virt. eigenvalues --    0.46887   0.47566   0.49683   0.51879   0.52499
  Beta virt. eigenvalues --    0.53039   0.53480   0.54488   0.54940   0.57408
  Beta virt. eigenvalues --    0.57876   0.58950   0.61104   0.62263   0.62491
  Beta virt. eigenvalues --    0.62790   0.63277   0.63629   0.65406   0.65811
  Beta virt. eigenvalues --    0.66952   0.68223   0.68570   0.69139   0.69801
  Beta virt. eigenvalues --    0.71911   0.72020   0.72363   0.72824   0.72939
  Beta virt. eigenvalues --    0.74358   0.74521   0.75509   0.75982   0.76160
  Beta virt. eigenvalues --    0.76556   0.76835   0.77202   0.78052   0.79268
  Beta virt. eigenvalues --    0.79308   0.80515   0.81012   0.81297   0.81423
  Beta virt. eigenvalues --    0.82305   0.83605   0.85986   0.87972   0.89195
  Beta virt. eigenvalues --    0.90064   0.94371   0.95187   0.95754   0.97391
  Beta virt. eigenvalues --    1.00359   1.00884   1.00956   1.04587   1.04738
  Beta virt. eigenvalues --    1.04951   1.07065   1.07289   1.12294   1.13502
  Beta virt. eigenvalues --    1.13844   1.15275   1.18885   1.24320   1.24349
  Beta virt. eigenvalues --    1.24757   1.25143   1.27584   1.30146   1.31067
  Beta virt. eigenvalues --    1.34641   1.38417   1.44568   1.45271   1.48472
  Beta virt. eigenvalues --    1.51669   1.51731   1.52986   1.53888   1.53914
  Beta virt. eigenvalues --    1.54214   1.54654   1.55003   1.57579   1.58387
  Beta virt. eigenvalues --    1.58715   1.59068   1.60469   1.61492   1.62582
  Beta virt. eigenvalues --    1.62601   1.63652   1.64883   1.65447   1.66906
  Beta virt. eigenvalues --    1.68257   1.68542   1.68566   1.69698   1.69965
  Beta virt. eigenvalues --    1.72651   1.74080   1.74349   1.75898   1.76897
  Beta virt. eigenvalues --    1.78296   1.79041   1.79726   1.79939   1.80501
  Beta virt. eigenvalues --    1.83866   1.84147   1.85849   1.89551   1.89637
  Beta virt. eigenvalues --    1.90904   1.92884   1.96141   1.96393   1.96508
  Beta virt. eigenvalues --    1.97612   1.97925   1.99264   1.99895   2.01477
  Beta virt. eigenvalues --    2.02602   2.08263   2.09033   2.11212   2.13604
  Beta virt. eigenvalues --    2.14842   2.15601   2.16752   2.17534   2.20017
  Beta virt. eigenvalues --    2.20062   2.21244   2.22795   2.27049   2.30958
  Beta virt. eigenvalues --    2.33817   2.35589   2.36054   2.38850   2.39564
  Beta virt. eigenvalues --    2.43818   2.43856   2.46671   2.47688   2.49444
  Beta virt. eigenvalues --    2.53026   2.53548   2.55392   2.55595   2.55611
  Beta virt. eigenvalues --    2.56300   2.57660   2.57880   2.57970   2.59491
  Beta virt. eigenvalues --    2.60180   2.61093   2.61859   2.66313   2.66682
  Beta virt. eigenvalues --    2.69365   2.69539   2.69983   2.70700   2.72553
  Beta virt. eigenvalues --    2.72993   2.73806   2.74206   2.76448   2.77407
  Beta virt. eigenvalues --    2.80087   2.80720   2.83294   2.85499   2.86456
  Beta virt. eigenvalues --    2.88192   2.88465   2.92525   2.94293   2.94307
  Beta virt. eigenvalues --    2.95570   2.98244   2.98957   3.00126   3.03330
  Beta virt. eigenvalues --    3.03551   3.08155   3.14378   3.15356   3.16835
  Beta virt. eigenvalues --    3.18209   3.21749   3.26274   3.32903   3.45827
  Beta virt. eigenvalues --    3.47104   3.48204   3.52739   3.60882   3.70808
  Beta virt. eigenvalues --    3.73092   3.82989   3.83225   3.84360   3.84453
  Beta virt. eigenvalues --    3.88538   3.88961   3.90480   3.90787   3.97236
  Beta virt. eigenvalues --    4.10698   4.12618   4.14133   4.19648   4.34520
  Beta virt. eigenvalues --    4.34709   4.38003   4.45287   4.85939  23.62037
  Beta virt. eigenvalues --   23.93883  23.93977  23.99740  24.04160  24.05578
  Beta virt. eigenvalues --   24.06056  24.06726  24.08347  24.13106  24.16606
  Beta virt. eigenvalues --   24.25385
          Condensed to atoms (all electrons):
               1          2          3          4          5          6
     1  C    6.578480   0.662345  -0.658943   0.022248  -0.001936  -0.659015
     2  C    0.662345   9.523560  -0.876356   0.084276   0.865062  -1.177756
     3  C   -0.658943  -0.876356   8.986305   0.259745  -1.050714   0.363216
     4  H    0.022248   0.084276   0.259745   0.457316  -0.022839  -0.034973
     5  C   -0.001936   0.865062  -1.050714  -0.022839   6.787081  -1.051525
     6  C   -0.659015  -1.177756   0.363216  -0.034973  -1.051525   8.987544
     7  H    0.022268   0.021368  -0.034986  -0.000262  -0.022538   0.259440
     8  C    0.661870   0.133774  -1.177045   0.021351   0.864286  -0.875210
     9  H   -0.003272  -0.023353   0.034915  -0.005294   0.326595   0.035058
    10  C   -0.253497  -0.459025   0.228941   0.001079  -0.243836  -0.114615
    11  H    0.028215   0.041154  -0.009414   0.000000   0.003630  -0.057208
    12  C   -0.254976  -2.630750  -0.113913   0.040406  -0.243279   0.228497
    13  H    0.028104  -0.149228  -0.057205  -0.000003   0.003620  -0.009440
    14  C    0.046556   0.001124  -0.006371  -0.000084   0.048012   0.016348
    15  H    0.006949   0.001582   0.000966   0.000000   0.001900   0.010960
    16  H   -0.034132   0.006821  -0.007788   0.000001   0.005544   0.010107
    17  H    0.034971  -0.005039   0.005921  -0.000001  -0.006985  -0.014454
    18  C    0.046413  -0.004456  -0.002932  -0.000082   0.045116   0.024240
    19  H   -0.033975   0.006307  -0.007606   0.000001   0.005185   0.009765
    20  H    0.006775   0.001944   0.000837   0.000000   0.002006   0.010646
    21  H    0.034865  -0.004558   0.005534  -0.000001  -0.006882  -0.015574
    22  C    0.042991   0.048624   0.025319  -0.007671   0.046719  -0.002801
    23  H    0.034955  -0.062241  -0.016224   0.000153  -0.006994   0.005497
    24  H    0.006884   0.086067   0.010912  -0.000146   0.001962   0.000847
    25  H   -0.033864  -0.042696   0.009091  -0.001866   0.005254  -0.007645
    26  C    0.050078   0.060500   0.015194  -0.006829   0.046362  -0.006506
    27  H   -0.034458  -0.040637   0.011087  -0.001956   0.005452  -0.007731
    28  H    0.006947   0.081133   0.010585  -0.000142   0.001947   0.000957
    29  H    0.035012  -0.067419  -0.013917   0.000154  -0.006891   0.005966
               7          8          9         10         11         12
     1  C    0.022268   0.661870  -0.003272  -0.253497   0.028215  -0.254976
     2  C    0.021368   0.133774  -0.023353  -0.459025   0.041154  -2.630750
     3  C   -0.034986  -1.177045   0.034915   0.228941  -0.009414  -0.113913
     4  H   -0.000262   0.021351  -0.005294   0.001079   0.000000   0.040406
     5  C   -0.022538   0.864286   0.326595  -0.243836   0.003630  -0.243279
     6  C    0.259440  -0.875210   0.035058  -0.114615  -0.057208   0.228497
     7  H    0.457360   0.084214  -0.005299   0.040485  -0.000001   0.001075
     8  C    0.084214   9.525834  -0.023393  -2.634695  -0.149431  -0.458040
     9  H   -0.005299  -0.023393   0.468488   0.003489   0.000013   0.003492
    10  C    0.040485  -2.634695   0.003489   9.019024   0.554882  -0.155835
    11  H   -0.000001  -0.149431   0.000013   0.554882   0.486920  -0.000059
    12  C    0.001075  -0.458040   0.003492  -0.155835  -0.000059   9.014357
    13  H    0.000000   0.041272   0.000013  -0.000034   0.000073   0.554643
    14  C   -0.006986   0.061750  -0.000308  -0.010365  -0.035045  -0.008867
    15  H   -0.000144   0.081581  -0.000001  -0.165211  -0.005897   0.000290
    16  H   -0.001932  -0.040887   0.000035   0.055642   0.005246   0.000212
    17  H    0.000153  -0.066056   0.000003   0.042894  -0.005846  -0.001287
    18  C   -0.007555   0.048184  -0.000277  -0.005001  -0.035069  -0.008974
    19  H   -0.001885  -0.042658   0.000035   0.058117   0.005255   0.000193
    20  H   -0.000146   0.085819  -0.000001  -0.169222  -0.005906   0.000307
    21  H    0.000154  -0.063592   0.000003   0.041456  -0.005808  -0.001208
    22  C   -0.000081  -0.009002  -0.000275  -0.009476   0.000133  -0.001618
    23  H   -0.000001  -0.004393   0.000003  -0.001188  -0.000002   0.040568
    24  H    0.000000   0.002068  -0.000001   0.000313   0.000000  -0.169616
    25  H    0.000000   0.006163   0.000034   0.000183   0.000001   0.058587
    26  C   -0.000084   0.005522  -0.000309  -0.008352   0.000122  -0.012989
    27  H    0.000001   0.006964   0.000035   0.000227   0.000001   0.054690
    28  H    0.000000   0.001451  -0.000001   0.000284   0.000000  -0.164611
    29  H   -0.000001  -0.005212   0.000003  -0.001322  -0.000002   0.043908
              13         14         15         16         17         18
     1  C    0.028104   0.046556   0.006949  -0.034132   0.034971   0.046413
     2  C   -0.149228   0.001124   0.001582   0.006821  -0.005039  -0.004456
     3  C   -0.057205  -0.006371   0.000966  -0.007788   0.005921  -0.002932
     4  H   -0.000003  -0.000084   0.000000   0.000001  -0.000001  -0.000082
     5  C    0.003620   0.048012   0.001900   0.005544  -0.006985   0.045116
     6  C   -0.009440   0.016348   0.010960   0.010107  -0.014454   0.024240
     7  H    0.000000  -0.006986  -0.000144  -0.001932   0.000153  -0.007555
     8  C    0.041272   0.061750   0.081581  -0.040887  -0.066056   0.048184
     9  H    0.000013  -0.000308  -0.000001   0.000035   0.000003  -0.000277
    10  C   -0.000034  -0.010365  -0.165211   0.055642   0.042894  -0.005001
    11  H    0.000073  -0.035045  -0.005897   0.005246  -0.005846  -0.035069
    12  C    0.554643  -0.008867   0.000290   0.000212  -0.001287  -0.008974
    13  H    0.486983   0.000118   0.000000   0.000001  -0.000002   0.000136
    14  C    0.000118   5.639846   0.430848   0.389413   0.380661  -0.298991
    15  H    0.000000   0.430848   0.502419  -0.028560  -0.021849   0.005781
    16  H    0.000001   0.389413  -0.028560   0.493490  -0.027925  -0.007265
    17  H   -0.000002   0.380661  -0.021849  -0.027925   0.495092   0.011439
    18  C    0.000136  -0.298991   0.005781  -0.007265   0.011439   5.645029
    19  H    0.000001  -0.007373  -0.000967   0.001004  -0.000253   0.389486
    20  H    0.000000   0.005881   0.002932  -0.000995   0.000208   0.430855
    21  H   -0.000002   0.011416   0.000208  -0.000257  -0.000295   0.380883
    22  C   -0.035531  -0.003668   0.000003   0.000026  -0.000020   0.006806
    23  H   -0.005801  -0.000020   0.000000   0.000000   0.000000   0.000064
    24  H   -0.005940   0.000003   0.000000   0.000000   0.000000  -0.000012
    25  H    0.005269   0.000024   0.000000   0.000000   0.000000  -0.000055
    26  C   -0.034570   0.006686  -0.000012  -0.000058   0.000072  -0.003660
    27  H    0.005231  -0.000060   0.000000   0.000000   0.000000   0.000026
    28  H   -0.005876  -0.000012   0.000000   0.000000   0.000000   0.000003
    29  H   -0.005852   0.000078   0.000000   0.000000   0.000000  -0.000020
              19         20         21         22         23         24
     1  C   -0.033975   0.006775   0.034865   0.042991   0.034955   0.006884
     2  C    0.006307   0.001944  -0.004558   0.048624  -0.062241   0.086067
     3  C   -0.007606   0.000837   0.005534   0.025319  -0.016224   0.010912
     4  H    0.000001   0.000000  -0.000001  -0.007671   0.000153  -0.000146
     5  C    0.005185   0.002006  -0.006882   0.046719  -0.006994   0.001962
     6  C    0.009765   0.010646  -0.015574  -0.002801   0.005497   0.000847
     7  H   -0.001885  -0.000146   0.000154  -0.000081  -0.000001   0.000000
     8  C   -0.042658   0.085819  -0.063592  -0.009002  -0.004393   0.002068
     9  H    0.000035  -0.000001   0.000003  -0.000275   0.000003  -0.000001
    10  C    0.058117  -0.169222   0.041456  -0.009476  -0.001188   0.000313
    11  H    0.005255  -0.005906  -0.005808   0.000133  -0.000002   0.000000
    12  C    0.000193   0.000307  -0.001208  -0.001618   0.040568  -0.169616
    13  H    0.000001   0.000000  -0.000002  -0.035531  -0.005801  -0.005940
    14  C   -0.007373   0.005881   0.011416  -0.003668  -0.000020   0.000003
    15  H   -0.000967   0.002932   0.000208   0.000003   0.000000   0.000000
    16  H    0.001004  -0.000995  -0.000257   0.000026   0.000000   0.000000
    17  H   -0.000253   0.000208  -0.000295  -0.000020   0.000000   0.000000
    18  C    0.389486   0.430855   0.380883   0.006806   0.000064  -0.000012
    19  H    0.494120  -0.028637  -0.028082  -0.000058   0.000000   0.000000
    20  H   -0.028637   0.502353  -0.021934  -0.000012   0.000000   0.000000
    21  H   -0.028082  -0.021934   0.494920   0.000069   0.000000   0.000000
    22  C   -0.000058  -0.000012   0.000069   5.647404   0.381016   0.430793
    23  H    0.000000   0.000000   0.000000   0.381016   0.494798  -0.021920
    24  H    0.000000   0.000000   0.000000   0.430793  -0.021920   0.502245
    25  H    0.000000   0.000000   0.000000   0.389423  -0.028128  -0.028656
    26  C    0.000025   0.000003  -0.000020  -0.299262   0.011404   0.005669
    27  H    0.000000   0.000000   0.000000  -0.007453  -0.000257  -0.000994
    28  H    0.000000   0.000000   0.000000   0.005959   0.000208   0.002930
    29  H    0.000000   0.000000   0.000000   0.011414  -0.000295   0.000207
              25         26         27         28         29
     1  C   -0.033864   0.050078  -0.034458   0.006947   0.035012
     2  C   -0.042696   0.060500  -0.040637   0.081133  -0.067419
     3  C    0.009091   0.015194   0.011087   0.010585  -0.013917
     4  H   -0.001866  -0.006829  -0.001956  -0.000142   0.000154
     5  C    0.005254   0.046362   0.005452   0.001947  -0.006891
     6  C   -0.007645  -0.006506  -0.007731   0.000957   0.005966
     7  H    0.000000  -0.000084   0.000001   0.000000  -0.000001
     8  C    0.006163   0.005522   0.006964   0.001451  -0.005212
     9  H    0.000034  -0.000309   0.000035  -0.000001   0.000003
    10  C    0.000183  -0.008352   0.000227   0.000284  -0.001322
    11  H    0.000001   0.000122   0.000001   0.000000  -0.000002
    12  C    0.058587  -0.012989   0.054690  -0.164611   0.043908
    13  H    0.005269  -0.034570   0.005231  -0.005876  -0.005852
    14  C    0.000024   0.006686  -0.000060  -0.000012   0.000078
    15  H    0.000000  -0.000012   0.000000   0.000000   0.000000
    16  H    0.000000  -0.000058   0.000000   0.000000   0.000000
    17  H    0.000000   0.000072   0.000000   0.000000   0.000000
    18  C   -0.000055  -0.003660   0.000026   0.000003  -0.000020
    19  H    0.000000   0.000025   0.000000   0.000000   0.000000
    20  H    0.000000   0.000003   0.000000   0.000000   0.000000
    21  H    0.000000  -0.000020   0.000000   0.000000   0.000000
    22  C    0.389423  -0.299262  -0.007453   0.005959   0.011414
    23  H   -0.028128   0.011404  -0.000257   0.000208  -0.000295
    24  H   -0.028656   0.005669  -0.000994   0.002930   0.000207
    25  H    0.494360  -0.007136   0.001015  -0.000964  -0.000252
    26  C   -0.007136   5.638294   0.389681   0.430915   0.380421
    27  H    0.001015   0.389681   0.492996  -0.028540  -0.027880
    28  H   -0.000964   0.430915  -0.028540   0.502510  -0.021857
    29  H   -0.000252   0.380421  -0.027880  -0.021857   0.495271
          Atomic-Atomic Spin Densities.
               1          2          3          4          5          6
     1  C    1.156135  -0.058959  -0.058647   0.001667   0.017563  -0.058912
     2  C   -0.058959  -0.091953  -0.180439   0.001517   0.062542  -0.140592
     3  C   -0.058647  -0.180439   0.471115  -0.006180  -0.100916   0.183395
     4  H    0.001667   0.001517  -0.006180   0.006450   0.002144  -0.000047
     5  C    0.017563   0.062542  -0.100916   0.002144  -0.011423  -0.100954
     6  C   -0.058912  -0.140592   0.183395  -0.000047  -0.100954   0.471250
     7  H    0.001670  -0.000932  -0.000033   0.000040   0.002170  -0.006218
     8  C   -0.059003   0.255970  -0.140753  -0.000921   0.062656  -0.180455
     9  H   -0.000981   0.000043  -0.001825  -0.000557   0.004687  -0.001813
    10  C    0.013766   0.000226  -0.012502  -0.000021   0.012820  -0.079657
    11  H   -0.012343  -0.006185  -0.003385   0.000000   0.001881  -0.019091
    12  C    0.013872   0.090002  -0.079728   0.000392   0.012797  -0.012527
    13  H   -0.012376   0.033978  -0.019060   0.000080   0.001888  -0.003388
    14  C    0.017417   0.013434  -0.006606  -0.000004   0.001336  -0.027878
    15  H    0.000506   0.000072   0.000103   0.000000  -0.000065   0.002276
    16  H   -0.003371  -0.000633  -0.000912   0.000000   0.000474  -0.006319
    17  H    0.002815   0.000542   0.000380  -0.000001  -0.000039  -0.001178
    18  C    0.016881   0.013312  -0.006429  -0.000005   0.001191  -0.026083
    19  H   -0.003309  -0.000619  -0.000915   0.000000   0.000478  -0.006543
    20  H    0.000548   0.000070   0.000098   0.000000  -0.000056   0.002172
    21  H    0.002674   0.000479   0.000393  -0.000001  -0.000055  -0.000850
    22  C    0.016841  -0.014357  -0.025704   0.000189   0.001187  -0.006356
    23  H    0.002623  -0.004109  -0.000735  -0.000072  -0.000061   0.000398
    24  H    0.000558  -0.001845   0.002150   0.000012  -0.000057   0.000097
    25  H   -0.003298   0.011237  -0.006600   0.000307   0.000482  -0.000914
    26  C    0.017398  -0.012535  -0.028228   0.000354   0.001354  -0.006677
    27  H   -0.003388   0.010980  -0.006220   0.000287   0.000478  -0.000908
    28  H    0.000501  -0.001872   0.002297   0.000011  -0.000066   0.000104
    29  H    0.002873  -0.004112  -0.001313  -0.000069  -0.000031   0.000374
               7          8          9         10         11         12
     1  C    0.001670  -0.059003  -0.000981   0.013766  -0.012343   0.013872
     2  C   -0.000932   0.255970   0.000043   0.000226  -0.006185   0.090002
     3  C   -0.000033  -0.140753  -0.001825  -0.012502  -0.003385  -0.079728
     4  H    0.000040  -0.000921  -0.000557  -0.000021   0.000000   0.000392
     5  C    0.002170   0.062656   0.004687   0.012820   0.001881   0.012797
     6  C   -0.006218  -0.180455  -0.001813  -0.079657  -0.019091  -0.012527
     7  H    0.006456   0.001514  -0.000557   0.000398   0.000080  -0.000023
     8  C    0.001514  -0.092044   0.000036   0.090204   0.033980   0.000246
     9  H   -0.000557   0.000036   0.004021   0.000204  -0.000001   0.000206
    10  C    0.000398   0.090204   0.000204  -0.008518  -0.009615  -0.015968
    11  H    0.000080   0.033980  -0.000001  -0.009615  -0.004551  -0.000747
    12  C   -0.000023   0.000246   0.000206  -0.015968  -0.000747  -0.008106
    13  H    0.000000  -0.006200  -0.000001  -0.000750   0.000004  -0.009583
    14  C    0.000322  -0.013116  -0.000077   0.017709   0.010043   0.000994
    15  H    0.000011  -0.001856   0.000000   0.001469  -0.000110   0.000015
    16  H    0.000292   0.011063  -0.000005  -0.006279  -0.000159  -0.000045
    17  H   -0.000070  -0.004101   0.000002   0.000240  -0.000039  -0.000008
    18  C    0.000224  -0.013808  -0.000072   0.017216   0.009894   0.001262
    19  H    0.000303   0.011201  -0.000005  -0.006292  -0.000155  -0.000046
    20  H    0.000012  -0.001859   0.000000   0.001471  -0.000099   0.000013
    21  H   -0.000071  -0.004121   0.000002   0.000272  -0.000056  -0.000007
    22  C   -0.000006   0.013229  -0.000070   0.001244   0.000018   0.017538
    23  H   -0.000001   0.000459   0.000002  -0.000005   0.000000   0.000263
    24  H    0.000000   0.000073   0.000000   0.000013   0.000000   0.001456
    25  H    0.000000  -0.000615  -0.000005  -0.000047   0.000000  -0.006307
    26  C   -0.000003   0.013496  -0.000079   0.001010   0.000016   0.017310
    27  H    0.000000  -0.000639  -0.000005  -0.000045   0.000000  -0.006251
    28  H    0.000000   0.000070   0.000000   0.000015   0.000000   0.001487
    29  H   -0.000001   0.000562   0.000002  -0.000010   0.000000   0.000254
              13         14         15         16         17         18
     1  C   -0.012376   0.017417   0.000506  -0.003371   0.002815   0.016881
     2  C    0.033978   0.013434   0.000072  -0.000633   0.000542   0.013312
     3  C   -0.019060  -0.006606   0.000103  -0.000912   0.000380  -0.006429
     4  H    0.000080  -0.000004   0.000000   0.000000  -0.000001  -0.000005
     5  C    0.001888   0.001336  -0.000065   0.000474  -0.000039   0.001191
     6  C   -0.003388  -0.027878   0.002276  -0.006319  -0.001178  -0.026083
     7  H    0.000000   0.000322   0.000011   0.000292  -0.000070   0.000224
     8  C   -0.006200  -0.013116  -0.001856   0.011063  -0.004101  -0.013808
     9  H   -0.000001  -0.000077   0.000000  -0.000005   0.000002  -0.000072
    10  C   -0.000750   0.017709   0.001469  -0.006279   0.000240   0.017216
    11  H    0.000004   0.010043  -0.000110  -0.000159  -0.000039   0.009894
    12  C   -0.009583   0.000994   0.000015  -0.000045  -0.000008   0.001262
    13  H   -0.004563   0.000017   0.000000   0.000000   0.000000   0.000017
    14  C    0.000017  -0.014442  -0.000880   0.003307   0.002055   0.012371
    15  H    0.000000  -0.000880  -0.000136  -0.000013  -0.000102  -0.001539
    16  H    0.000000   0.003307  -0.000013  -0.000275  -0.000277   0.003203
    17  H    0.000000   0.002055  -0.000102  -0.000277   0.001106  -0.001002
    18  C    0.000017   0.012371  -0.001539   0.003203  -0.001002  -0.014609
    19  H    0.000000   0.003219  -0.000004  -0.000079  -0.000013   0.003300
    20  H    0.000000  -0.001557   0.000084  -0.000002   0.000009  -0.000807
    21  H    0.000000  -0.001008   0.000009  -0.000014   0.000014   0.001938
    22  C    0.009857   0.000404  -0.000001  -0.000002   0.000000  -0.000223
    23  H   -0.000063  -0.000001   0.000000   0.000000   0.000000  -0.000004
    24  H   -0.000095   0.000000   0.000000   0.000000   0.000000   0.000002
    25  H   -0.000155  -0.000002   0.000000   0.000000   0.000000   0.000005
    26  C    0.010070  -0.000215   0.000002   0.000005  -0.000007   0.000408
    27  H   -0.000160   0.000005   0.000000   0.000000   0.000000  -0.000002
    28  H   -0.000114   0.000002   0.000000   0.000000   0.000000  -0.000001
    29  H   -0.000031  -0.000007   0.000000   0.000000   0.000000   0.000000
              19         20         21         22         23         24
     1  C   -0.003309   0.000548   0.002674   0.016841   0.002623   0.000558
     2  C   -0.000619   0.000070   0.000479  -0.014357  -0.004109  -0.001845
     3  C   -0.000915   0.000098   0.000393  -0.025704  -0.000735   0.002150
     4  H    0.000000   0.000000  -0.000001   0.000189  -0.000072   0.000012
     5  C    0.000478  -0.000056  -0.000055   0.001187  -0.000061  -0.000057
     6  C   -0.006543   0.002172  -0.000850  -0.006356   0.000398   0.000097
     7  H    0.000303   0.000012  -0.000071  -0.000006  -0.000001   0.000000
     8  C    0.011201  -0.001859  -0.004121   0.013229   0.000459   0.000073
     9  H   -0.000005   0.000000   0.000002  -0.000070   0.000002   0.000000
    10  C   -0.006292   0.001471   0.000272   0.001244  -0.000005   0.000013
    11  H   -0.000155  -0.000099  -0.000056   0.000018   0.000000   0.000000
    12  C   -0.000046   0.000013  -0.000007   0.017538   0.000263   0.001456
    13  H    0.000000   0.000000   0.000000   0.009857  -0.000063  -0.000095
    14  C    0.003219  -0.001557  -0.001008   0.000404  -0.000001   0.000000
    15  H   -0.000004   0.000084   0.000009  -0.000001   0.000000   0.000000
    16  H   -0.000079  -0.000002  -0.000014  -0.000002   0.000000   0.000000
    17  H   -0.000013   0.000009   0.000014   0.000000   0.000000   0.000000
    18  C    0.003300  -0.000807   0.001938  -0.000223  -0.000004   0.000002
    19  H   -0.000254  -0.000007  -0.000285   0.000005   0.000000   0.000000
    20  H   -0.000007  -0.000131  -0.000102   0.000002   0.000000   0.000000
    21  H   -0.000285  -0.000102   0.001089  -0.000004   0.000000   0.000000
    22  C    0.000005   0.000002  -0.000004  -0.014736   0.001899  -0.000793
    23  H    0.000000   0.000000   0.000000   0.001899   0.001082  -0.000101
    24  H    0.000000   0.000000   0.000000  -0.000793  -0.000101  -0.000131
    25  H    0.000000   0.000000   0.000000   0.003315  -0.000288  -0.000005
    26  C   -0.000002   0.000000  -0.000001   0.012373  -0.001010  -0.001565
    27  H    0.000000   0.000000   0.000000   0.003198  -0.000014  -0.000002
    28  H    0.000000   0.000000   0.000000  -0.001532   0.000010   0.000083
    29  H    0.000000   0.000000   0.000000  -0.001000   0.000014   0.000009
              25         26         27         28         29
     1  C   -0.003298   0.017398  -0.003388   0.000501   0.002873
     2  C    0.011237  -0.012535   0.010980  -0.001872  -0.004112
     3  C   -0.006600  -0.028228  -0.006220   0.002297  -0.001313
     4  H    0.000307   0.000354   0.000287   0.000011  -0.000069
     5  C    0.000482   0.001354   0.000478  -0.000066  -0.000031
     6  C   -0.000914  -0.006677  -0.000908   0.000104   0.000374
     7  H    0.000000  -0.000003   0.000000   0.000000  -0.000001
     8  C   -0.000615   0.013496  -0.000639   0.000070   0.000562
     9  H   -0.000005  -0.000079  -0.000005   0.000000   0.000002
    10  C   -0.000047   0.001010  -0.000045   0.000015  -0.000010
    11  H    0.000000   0.000016   0.000000   0.000000   0.000000
    12  C   -0.006307   0.017310  -0.006251   0.001487   0.000254
    13  H   -0.000155   0.010070  -0.000160  -0.000114  -0.000031
    14  C   -0.000002  -0.000215   0.000005   0.000002  -0.000007
    15  H    0.000000   0.000002   0.000000   0.000000   0.000000
    16  H    0.000000   0.000005   0.000000   0.000000   0.000000
    17  H    0.000000  -0.000007   0.000000   0.000000   0.000000
    18  C    0.000005   0.000408  -0.000002  -0.000001   0.000000
    19  H    0.000000  -0.000002   0.000000   0.000000   0.000000
    20  H    0.000000   0.000000   0.000000   0.000000   0.000000
    21  H    0.000000  -0.000001   0.000000   0.000000   0.000000
    22  C    0.003315   0.012373   0.003198  -0.001532  -0.001000
    23  H   -0.000288  -0.001010  -0.000014   0.000010   0.000014
    24  H   -0.000005  -0.001565  -0.000002   0.000083   0.000009
    25  H   -0.000254   0.003221  -0.000079  -0.000004  -0.000013
    26  C    0.003221  -0.014242   0.003288  -0.000901   0.002100
    27  H   -0.000079   0.003288  -0.000277  -0.000016  -0.000274
    28  H   -0.000004  -0.000901  -0.000016  -0.000137  -0.000103
    29  H   -0.000013   0.002100  -0.000274  -0.000103   0.001113
 Mulliken charges and spin densities:
               1          2
     1  C   -0.388857   1.011721
     2  C   -0.082126  -0.024739
     3  C    0.064846  -0.027200
     4  H    0.195421   0.005576
     5  C   -0.401313  -0.025594
     6  C    0.065364  -0.027293
     7  H    0.195384   0.005579
     8  C   -0.082489  -0.024733
     9  H    0.189574   0.003150
    10  C    0.184660   0.018567
    11  H    0.184046  -0.000623
    12  C    0.184798   0.018763
    13  H    0.184019  -0.000631
    14  C   -0.660612   0.016843
    15  H    0.176223  -0.000160
    16  H    0.182257  -0.000039
    17  H    0.178600   0.000328
    18  C   -0.660114   0.016641
    19  H    0.182002  -0.000023
    20  H    0.176284  -0.000144
    21  H    0.178706   0.000297
    22  C   -0.659770   0.016514
    23  H    0.178800   0.000286
    24  H    0.176384  -0.000140
    25  H    0.181858  -0.000019
    26  C   -0.661162   0.016941
    27  H    0.182559  -0.000043
    28  H    0.176175  -0.000165
    29  H    0.178486   0.000339
 Sum of Mulliken charges =   0.00000   1.00000
 Mulliken charges and spin densities with hydrogens summed into heavy atoms:
               1          2
     1  C   -0.388857   1.011721
     2  C   -0.082126  -0.024739
     3  C    0.260266  -0.021624
     5  C   -0.211739  -0.022444
     6  C    0.260748  -0.021714
     8  C   -0.082489  -0.024733
    10  C    0.368706   0.017944
    12  C    0.368817   0.018133
    14  C   -0.123533   0.016972
    18  C   -0.123122   0.016771
    22  C   -0.122728   0.016641
    26  C   -0.123942   0.017072
 APT charges:
               1
     1  C    0.547847
     2  C    0.098965
     3  C   -0.247852
     4  H   -0.261962
     5  C   -0.367773
     6  C   -1.935368
     7  H    0.567444
     8  C    3.089223
     9  H   -0.191110
    10  C   -1.435328
    11  H    1.132903
    12  C   -1.526159
    13  H    1.213130
    14  C   -3.394780
    15  H    1.530581
    16  H   -0.137802
    17  H    1.170897
    18  C    0.071172
    19  H   -0.290087
    20  H    1.442347
    21  H   -0.875478
    22  C    0.695548
    23  H   -0.460049
    24  H    0.746748
    25  H   -0.487168
    26  C   -2.803279
    27  H   -0.334354
    28  H    0.834001
    29  H    1.607744
 Sum of APT charges =   0.00000
 APT charges with hydrogens summed into heavy atoms:
               1
     1  C    0.547847
     2  C    0.098965
     3  C   -0.509814
     5  C   -0.558883
     6  C   -1.367924
     8  C    3.089223
    10  C   -0.302426
    12  C   -0.313029
    14  C   -0.831105
    18  C    0.347954
    22  C    0.495079
    26  C   -0.695889
 Electronic spatial extent (au):  <R**2>=          36904.3126
 Charge=              0.0000 electrons
 Dipole moment (field-independent basis, Debye):
    X=             -0.4404    Y=              0.1436    Z=             -0.2056  Tot=              0.5068
 Quadrupole moment (field-independent basis, Debye-Ang):
   XX=            -75.4693   YY=            -74.1073   ZZ=            -74.1173
   XY=             -1.1465   XZ=             -4.5984   YZ=             -6.0834
 Traceless Quadrupole moment (field-independent basis, Debye-Ang):
   XX=             -0.9047   YY=              0.4573   ZZ=              0.4474
   XY=             -1.1465   XZ=             -4.5984   YZ=             -6.0834
 Octapole moment (field-independent basis, Debye-Ang**2):
  XXX=          -1246.5189  YYY=          -1616.9113  ZZZ=          -1074.0126  XYY=           -422.6126
  XXY=           -518.7541  XXZ=           -397.3141  XZZ=           -443.1422  YZZ=           -578.4992
  YYZ=           -449.8521  XYZ=            -50.2392
 Hexadecapole moment (field-independent basis, Debye-Ang**3):
 XXXX=         -15094.0759 YYYY=         -24386.3306 ZZZZ=         -12157.9726 XXXY=          -9005.7691
 XXXZ=          -5980.6147 YYYX=          -9380.3729 YYYZ=          -8377.6097 ZZZX=          -5812.4752
 ZZZY=          -7638.0636 XXYY=          -6341.5196 XXZZ=          -4862.5385 YYZZ=          -6751.0263
 XXYZ=          -2742.7665 YYXZ=          -2447.9543 ZZXY=          -3482.4934
 N-N= 6.722915401009D+02 E-N=-2.427189289836D+03  KE= 4.651538779997D+02
  Exact polarizability:       0.000       0.000       0.000       0.000       0.000       0.000
 Approx polarizability:     183.148       3.828     150.877      -3.054     -25.949     170.948
                          Isotropic Fermi Contact Couplings
        Atom                 a.u.       MegaHertz       Gauss      10(-4) cm-1
     1  C(13)              0.51341     577.17176     205.94924     192.52378
     2  C(13)              0.02081      23.39879       8.34927       7.80500
     3  C(13)              0.03260      36.64334      13.07525      12.22290
     4  H(1)               0.00265      11.85842       4.23138       3.95554
     5  C(13)             -0.00754      -8.47849      -3.02534      -2.82812
     6  C(13)              0.03261      36.65473      13.07932      12.22670
     7  H(1)               0.00265      11.85734       4.23099       3.95518
     8  C(13)              0.02081      23.39168       8.34673       7.80262
     9  H(1)               0.00116       5.20693       1.85796       1.73684
    10  C(13)              0.02007      22.55841       8.04940       7.52468
    11  H(1)              -0.00046      -2.04476      -0.72962      -0.68206
    12  C(13)              0.02008      22.57268       8.05449       7.52944
    13  H(1)              -0.00046      -2.04443      -0.72950      -0.68195
    14  C(13)             -0.00245      -2.75667      -0.98365      -0.91953
    15  H(1)              -0.00004      -0.17457      -0.06229      -0.05823
    16  H(1)               0.00008       0.37055       0.13222       0.12360
    17  H(1)               0.00006       0.27431       0.09788       0.09150
    18  C(13)             -0.00240      -2.69302      -0.96094      -0.89829
    19  H(1)               0.00008       0.37205       0.13276       0.12410
    20  H(1)              -0.00003      -0.15094      -0.05386      -0.05035
    21  H(1)               0.00006       0.28666       0.10229       0.09562
    22  C(13)             -0.00237      -2.66942      -0.95252      -0.89042
    23  H(1)               0.00006       0.28994       0.10346       0.09671
    24  H(1)              -0.00003      -0.14568      -0.05198      -0.04859
    25  H(1)               0.00008       0.37537       0.13394       0.12521
    26  C(13)             -0.00247      -2.78012      -0.99202      -0.92735
    27  H(1)               0.00008       0.36938       0.13180       0.12321
    28  H(1)              -0.00004      -0.18268      -0.06518      -0.06093
    29  H(1)               0.00006       0.27093       0.09667       0.09037
 --------------------------------------------------------
       Center         ----  Spin Dipole Couplings  ----
                      3XX-RR        3YY-RR        3ZZ-RR
 --------------------------------------------------------
     1   Atom        0.538574     -0.317035     -0.221539
     2   Atom        0.106313     -0.070042     -0.036272
     3   Atom        0.031308     -0.013718     -0.017590
     4   Atom        0.007832     -0.004188     -0.003643
     5   Atom        0.028541     -0.027718     -0.000824
     6   Atom        0.017094     -0.009540     -0.007554
     7   Atom       -0.003511     -0.000739      0.004250
     8   Atom       -0.006427     -0.035841      0.042268
     9   Atom        0.001150     -0.001253      0.000103
    10   Atom       -0.005423     -0.004867      0.010290
    11   Atom        0.006647     -0.005687     -0.000960
    12   Atom       -0.000581     -0.006846      0.007428
    13   Atom       -0.005419     -0.002023      0.007443
    14   Atom       -0.001551      0.001958     -0.000407
    15   Atom       -0.000622      0.000996     -0.000375
    16   Atom       -0.001694      0.001867     -0.000173
    17   Atom       -0.002369      0.004868     -0.002499
    18   Atom       -0.001449     -0.002135      0.003584
    19   Atom       -0.001638     -0.001688      0.003326
    20   Atom       -0.000536     -0.001360      0.001895
    21   Atom       -0.002143     -0.003030      0.005173
    22   Atom        0.000391      0.001035     -0.001425
    23   Atom       -0.000781      0.003697     -0.002916
    24   Atom       -0.000467      0.000912     -0.000445
    25   Atom        0.001147      0.000400     -0.001547
    26   Atom        0.000534     -0.002440      0.001906
    27   Atom        0.001281     -0.002058      0.000777
    28   Atom       -0.000414     -0.001439      0.001852
    29   Atom       -0.000573     -0.003021      0.003595
 --------------------------------------------------------
                        XY            XZ            YZ
 --------------------------------------------------------
     1   Atom       -0.322689      0.518207     -0.074112
     2   Atom        0.024458     -0.025537     -0.045563
     3   Atom       -0.015768      0.025082      0.007061
     4   Atom        0.002453     -0.002994     -0.000963
     5   Atom       -0.001198      0.005670     -0.033962
     6   Atom       -0.020828      0.031837      0.000553
     7   Atom       -0.001577      0.002385     -0.006193
     8   Atom       -0.015627      0.027942     -0.097509
     9   Atom        0.000151     -0.000037     -0.001736
    10   Atom        0.012114     -0.016798     -0.021644
    11   Atom        0.006932     -0.009256     -0.006982
    12   Atom        0.013577     -0.019279     -0.019237
    13   Atom        0.002606     -0.003556     -0.012553
    14   Atom        0.001637     -0.000905     -0.003064
    15   Atom        0.001616     -0.001051     -0.001812
    16   Atom        0.000627     -0.000277     -0.002679
    17   Atom        0.002234     -0.000453     -0.002232
    18   Atom        0.000338     -0.001950     -0.001561
    19   Atom        0.000084     -0.000784     -0.001355
    20   Atom        0.000475     -0.001911     -0.000972
    21   Atom       -0.000355     -0.002485      0.000652
    22   Atom        0.002839     -0.001520     -0.002035
    23   Atom        0.003655     -0.000618     -0.001265
    24   Atom        0.001632     -0.001142     -0.001756
    25   Atom        0.002519     -0.001078     -0.001121
    26   Atom        0.000523     -0.003209     -0.000765
    27   Atom        0.000192     -0.002748     -0.000226
    28   Atom        0.000522     -0.001978     -0.000872
    29   Atom       -0.000737     -0.003881      0.001216
[...]
 000018,0.00000005,-0.00000132,-0.00000037,-0.00000223,0.00000630,0.000
 00037,-0.00000111,0.00000386,-0.00000279,-0.00000065,-0.00000305,-0.00
 000181,0.00000594,-0.00000318,0.00000260,-0.09822394,0.05800790,0.0892
 7757,0.10195230,-0.00019352,0.00008518,0.00027068,0.00063287,0.0010651
 0,-0.00152920,0.00022873,0.00007241,0.00030071,-0.00004729,-0.00000305
 ,-0.00003497,0.00003544,-0.00006192,0.00003852,0.00003017,-0.00000318,
 -0.00001408,-0.00000561,0.00000316,0.00000510,-0.00007882,-0.00007069,
 -0.00001943,0.00000069,-0.00002002,0.00000781,-0.00000189,-0.00000769,
 0.00000660,-0.00000001,-0.00000318,-0.00000418,0.01382808,-0.01394028,
 -0.02050338,-0.00004216,0.00121306,0.00030832,0.00000089,-0.00000454,-
 0.00000635,0.00000144,0.00000399,0.00000017,-0.00000018,0.00000113,-0.
 00000055,0.00000112,0.00000382,0.00000402,0.00000488,-0.00001096,-0.00
 000253,-0.00000061,-0.00000055,0.00000234,0.00000494,0.00000504,0.0000
 0003,-0.00000707,0.00001056,0.00000834,0.05656248,-0.11074677,-0.09856
 891,-0.06020180,0.12084573,-0.00000985,-0.00023729,0.00028710,-0.00042
 769,0.00095321,0.00057046,0.00007301,-0.00022625,0.00021840,-0.0000403
 6,0.00003665,0.00006469,0.00005259,-0.00007998,-0.00011967,-0.00001186
 ,-0.00001210,0.00003706,0.00000095,0.00001004,0.00001329,-0.00005241,-
 0.00005082,-0.00003652,0.00000436,-0.00000466,0.00001130,0.00003568,-0
 .00000600,0.00001756,-0.00000649,-0.00000019,-0.00000486,0.00120602,-0
 .00013885,-0.00330028,-0.00019211,-0.00000380,-0.00004977,-0.00001519,
 0.00000462,0.00000462,-0.00000381,-0.00000736,0.00000183,0.00000023,0.
 00000136,-0.00000097,0.00000232,0.00000177,0.,-0.00001429,-0.00001301,
 -0.00000532,-0.00000075,0.00000252,-0.00000080,-0.00000392,0.00000103,
 0.00000840,0.00000291,0.00000395,0.00000323,0.08858280,-0.10040775,-0.
 20301076,-0.09678065,0.11025025,0.21633001,0.00018296,-0.00021598,0.00
 033861,-0.00082219,-0.00271068,-0.00137855,-0.00007747,0.00015479,0.00
 007438,0.00024224,-0.00019801,-0.00013936,0.00000252,0.00015889,0.0003
 1163,0.00017467,-0.00009296,0.00010973,0.00001772,-0.00003123,-0.00002
 277,-0.00014769,0.00023474,0.00000917,0.00001113,-0.00001303,0.0000307
 6,0.00005636,-0.00004557,-0.00000410,-0.00000378,0.00000079,-0.0000041
 6,0.00022099,-0.00952840,0.01286831,0.00042804,0.00071449,0.00045046,-
 0.00001594,0.00000481,0.00002092,-0.00000497,-0.00001125,0.00000184,-0
 .00000177,-0.00000006,-0.00000322,0.00000260,0.00000038,-0.00000165,-0
 .00000684,-0.00001066,0.00000022,-0.00000172,0.00000134,-0.00000184,-0
 .00000708,0.00000126,0.00000757,0.00000250,0.00000261,-0.00000013,-0.0
 4872997,0.01374923,-0.01884784,0.00080717,-0.00878130,0.01126396,0.048
 47543,0.00058562,-0.00064672,0.00050926,-0.00330610,-0.00409882,-0.002
 06483,-0.00029641,0.00002940,0.00032838,0.00006057,0.00005926,-0.00007
 761,0.00003410,0.00013752,-0.00007460,-0.00016106,-0.00018601,0.000235
 54,0.00000732,-0.00001204,0.00001884,-0.00017027,0.00008783,0.00039956
 ,0.00003646,-0.00004982,0.00004801,0.00015529,-0.00002329,0.00005459,-
 0.00001915,0.00000144,-0.00000975,0.00351250,-0.01642861,0.02372996,0.
 00007446,0.00125866,-0.00012772,-0.00005279,0.00002397,0.00004449,-0.0
 0001686,-0.00003378,0.00000514,0.00000102,0.00000093,-0.00000484,0.000
 00608,0.00000235,-0.00000464,-0.00006863,-0.00005467,-0.00000270,-0.00
 000004,0.00000315,-0.00000672,-0.00002271,0.00001042,0.00003634,0.0000
 0455,0.00000742,-0.00000204,0.01298705,-0.12777462,0.12173757,-0.00249
 630,0.00972566,-0.01324213,-0.01147730,0.13925239,-0.00015894,0.000068
 18,0.00030108,-0.00016710,-0.00081878,0.00063789,0.00017346,0.00004291
 ,0.00024908,0.00006066,-0.00005801,-0.00006404,0.00002243,0.00004510,0
 .00004919,0.00006229,-0.00000105,-0.00001658,0.00000229,0.00000380,-0.
 00000694,-0.00008662,0.00004672,-0.00006180,-0.00000504,-0.00000465,-0
 .00001609,-0.00002889,-0.00001529,-0.00000993,0.00000906,-0.00000112,0
 .00000041,0.00084408,-0.00417595,0.00347507,0.00040380,0.00040261,0.00
 030095,0.00001453,-0.00000639,-0.00000569,0.00000607,0.00000921,-0.000
 00197,-0.00000024,-0.00000136,0.00000076,-0.00000204,0.00000016,0.0000
 0165,0.00002058,0.00000807,0.00000200,-0.00000052,-0.00000248,0.000002
 74,0.00000697,0.00000209,-0.00000925,-0.00000638,0.00000317,0.00000312
 ,-0.01859192,0.12376620,-0.23273426,-0.00304491,0.01307524,-0.01811790
 ,0.02083583,-0.13425305,0.24950763,-0.00011745,-0.00016174,0.00029395,
 0.00037747,0.00066315,-0.00097794,-0.00028953,0.00041870,0.00012556,0.
 00060980,0.00033688,-0.00033725,0.00017475,-0.00003902,0.00040189,0.00
 030606,-0.00004463,-0.00004222,0.00003659,-0.00001533,-0.00002872,-0.0
 0012618,0.00017487,-0.00021369,-0.00000684,0.00001090,0.00004004,-0.00
 000517,-0.00000778,-0.00001328,0.00001554,0.00000325,-0.00000122,-0.01
 544413,0.00103273,-0.00270914,0.00015771,-0.00306671,-0.00019431,0.000
 01441,-0.00000414,0.00000034,0.00000127,0.00000531,-0.00000190,-0.0000
 0046,-0.00000495,0.00000278,-0.00000166,0.00000195,0.00000015,0.000022
 42,0.00000506,0.00000172,0.00000102,-0.00000347,0.00000686,0.00000331,
 0.,-0.00000596,-0.00000418,0.00000103,-0.00000235,-0.29804941,0.032586
 53,-0.05282873,-0.01182606,0.00134122,-0.00303922,-0.00095984,0.000320
 31,-0.00012787,0.32347649,-0.00011693,0.00006929,0.00033324,0.00033752
 ,0.00159013,-0.00042114,-0.00006002,-0.00033297,0.00002772,0.00050173,
 -0.00155405,0.00083424,-0.00006805,-0.00018099,0.00030828,0.00033474,0
 .00009922,-0.00001029,0.00001728,-0.00001676,-0.00000504,-0.00015172,0
 .00013021,-0.00028170,-0.00000684,-0.00003564,-0.00001396,0.00000800,-
 0.00002667,-0.00001824,0.00000508,0.00000134,-0.00000385,-0.03004360,0
 .00237828,-0.00694428,-0.00268460,-0.00513316,-0.00085822,-0.00000420,
 0.00000087,0.00000418,0.00000048,-0.00000279,0.00000103,0.00000049,-0.
 00000323,0.00000257,-0.00000080,0.00000238,-0.00000022,0.00000828,-0.0
 0000149,-0.00000522,0.00000085,0.00000111,0.00000374,0.00000132,-0.000
 00104,-0.00000069,0.00000057,0.00000125,0.00000121,0.03396805,-0.04953
 228,0.00714882,0.01434836,-0.00247127,0.00445235,0.01703964,-0.0026463
 6,0.00218547,-0.03372683,0.05560104,0.00004964,-0.00000727,-0.00003034
 ,0.00064104,-0.00036860,-0.00005028,-0.00012696,0.00061392,-0.00018089
 ,-0.00024031,0.00095237,-0.00023381,0.00012723,0.00002318,-0.00002599,
 -0.00001674,-0.00004160,-0.00000363,0.00000537,0.00000236,-0.00000140,
 0.00000133,0.00000467,0.00005685,-0.00000083,0.00001800,0.00003582,0.0
 0001405,-0.00000549,-0.00000024,-0.00000238,-0.00000003,-0.00000268,-0
 .00420337,0.00074308,-0.00194645,-0.00025765,-0.00091250,0.00064007,-0
 .00000590,0.00000107,0.00000450,-0.00000158,-0.00000374,-0.00000006,-0
 .00000029,0.00000134,-0.00000018,-0.00000015,0.00000044,-0.00000120,-0
 .00000331,-0.00000464,0.00000078,-0.00000054,0.00000253,-0.00000085,-0
 .00000283,-0.00000012,0.00000167,0.00000224,-0.00000043,0.00000081,-0.
 05299711,0.00660349,-0.05817957,0.02416968,-0.00228039,0.00602126,-0.0
 2607407,0.00234245,-0.00464746,0.05951414,-0.00787397,0.05841123,0.000
 16754,0.00030078,-0.00034794,0.00071101,-0.00461604,0.00343235,-0.0000
 2614,0.00112154,-0.00173342,-0.00015921,-0.00000599,0.00002935,-0.0002
 3816,-0.00031953,0.00049410,0.00028938,0.00017650,-0.00049429,-0.00000
 217,0.00002596,0.00004713,-0.00009136,0.00000808,-0.00003663,-0.000024
 76,0.00011431,0.00001894,-0.00005340,0.00003239,-0.00000003,0.00001094
 ,0.00000484,0.00000057,-0.10087657,0.02910292,0.03804232,-0.01332823,0
 .01645411,0.02650795,0.00000903,0.00000638,-0.00000440,0.00001115,0.00
 000533,-0.00000095,0.00000555,-0.00000658,0.00000576,-0.00000761,-0.00
 000329,-0.00000184,0.00000234,0.00000879,-0.00000535,0.00000440,-0.000
 00447,0.00000793,0.00001069,-0.00000117,-0.00000226,-0.00000563,-0.000
 00451,-0.00000388,0.00665993,-0.00767790,-0.01199914,-0.00081772,-0.00
 387959,-0.00104084,0.00013514,0.00038050,-0.00017788,0.00100003,-0.000
 57327,-0.00075412,0.55480038,0.00085166,-0.00115404,0.00174012,-0.0092
 9829,0.01049801,0.01196938,0.00014714,-0.00053247,0.00129873,0.0000502
 2,0.00010755,0.00017908,0.00000087,-0.00000876,-0.00055687,-0.00019545
 ,-0.00047972,0.00068512,0.00001687,-0.00001925,0.00001844,-0.00036394,
 -0.00091801,-0.00019538,0.00007511,-0.00003475,0.00009595,0.00029280,0
 .00004578,0.00017314,-0.00003998,0.00001909,-0.00000656,0.02534786,-0.
 10196099,-0.04064591,0.00282269,-0.00369395,-0.00517516,-0.00009995,0.
 00003852,0.00009502,-0.00004025,-0.00006655,-0.00000533,-0.00000448,0.
 00000998,-0.00001228,0.00000625,-0.00001081,-0.00002053,-0.00010838,-0
 .00012202,-0.00001350,-0.00000291,0.00001114,-0.00000621,-0.00003225,0
 .00001243,0.00006583,0.00001142,0.00000689,-0.00000784,0.01340608,-0.0
 2197256,-0.02717227,-0.00273510,-0.00521821,-0.00108236,0.00081570,0.0
 0121048,-0.00034813,0.00065673,0.00203007,0.00034109,0.02492725,0.5604
 2956,-0.00221555,-0.00100167,-0.00050341,0.01402772,-0.00861522,-0.032
 72714,0.00095498,0.00018997,0.00030347,-0.00011038,0.00001179,-0.00036
 276,0.00026882,0.00011946,0.00093124,0.00063552,0.00013130,-0.00016305
 ,0.00000333,-0.00001637,-0.00001122,-0.00008790,0.00144332,-0.00028052
 ,-0.00004060,-0.00012832,-0.00001085,-0.00013325,0.00004257,-0.0000587
 0,0.00002131,-0.00000357,-0.00000225,0.03742884,-0.04665017,-0.1409025
 9,-0.00150449,0.00240320,0.00390506,0.00007079,0.00001992,-0.00002345,
 0.00002556,0.00002623,0.00000182,0.00000229,-0.00001747,0.00000947,-0.
 00000952,-0.00000372,-0.00000172,0.00002685,0.00004011,0.00001051,0.00
 000233,-0.00000671,0.00000474,0.00001012,-0.00000238,-0.00001960,-0.00
 000519,-0.00000548,-0.00000394,0.00216574,-0.00851288,-0.00659393,-0.0
 0012487,0.00016224,0.00073905,0.00038347,0.00126586,0.00066666,0.00054
 437,0.00091360,0.00014179,0.03442616,-0.03917087,0.51596857,-0.0001465
 8,-0.00026291,0.00028941,0.00050174,0.00057907,-0.00102700,-0.00024433
 ,-0.00034121,-0.00027191,0.00037274,0.00014165,-0.00003904,0.00006890,
 -0.00037495,0.00025464,0.00035709,0.00004767,0.00006551,0.00002653,0.0
 0002881,0.00000737,-0.00014207,0.00016180,-0.00029199,-0.00000137,-0.0
 0003848,0.00000895,-0.00000774,0.00002164,0.00000518,0.00001531,-0.000
 00036,-0.00000320,-0.01494022,0.00236734,-0.00188056,0.00023520,0.0013
 6325,0.00267932,0.00002471,-0.00000097,-0.00000372,0.00000346,0.000005
 83,-0.00000188,0.00000087,-0.00000551,0.00000608,-0.00000511,0.0000020
 7,-0.00000257,0.00001300,0.00000020,0.00000439,-0.00000054,-0.00000077
 ,0.00000575,0.00000103,0.00000045,-0.00000494,-0.00000111,-0.00000087,
 -0.00000190,0.00098954,-0.00076598,-0.00037274,0.00025715,-0.00009297,
 0.00012516,-0.00001088,0.00002930,0.00009755,0.00038209,0.00059697,0.0
 0002771,-0.29602470,0.04188930,-0.04987732,0.32133833,0.00000185,0.000
 13846,-0.00003979,-0.00081251,-0.00008981,0.00040458,0.00011027,-0.000
 09631,0.00039623,-0.00004758,0.00008165,-0.00010116,-0.00006535,0.0000
 8720,-0.00011783,-0.00015791,-0.00001496,-0.00000751,-0.00001127,-0.00
 000592,-0.00000257,0.00007281,-0.00005211,0.00011052,0.00000327,0.0000
 2669,-0.00001012,-0.00001275,-0.00001495,-0.00001316,-0.00000029,-0.00
 000355,0.00000208,0.01597498,-0.00394600,0.00312629,0.00124276,-0.0009
 3753,-0.00279127,-0.00000291,-0.00000194,-0.00000220,0.00000168,-0.000
 00037,-0.00000110,0.00000029,0.00000214,0.00000274,-0.00000266,0.00000
 128,-0.00000088,0.00000492,0.00000492,-0.00000117,0.00000030,0.0000007
 1,-0.00000010,0.00000092,-0.00000101,-0.00000332,0.00000065,-0.0000007
 0,0.00000148,0.00086483,0.00087107,0.00080417,-0.00022321,0.00014582,0
 .00005806,-0.00002207,-0.00008370,0.00002818,-0.00029849,-0.00004394,-
 0.00025580,0.04160674,-0.05411853,0.00865667,-0.04801976,0.05512540,0.
 00014678,0.00036825,-0.00010475,0.00012520,0.00012657,0.00170443,0.000
 06985,-0.00024818,-0.00009603,-0.00012400,-0.00015706,-0.00062663,0.00
 007563,0.00023920,-0.00029504,-0.00034240,-0.00001083,0.00010067,-0.00
 001624,-0.00001193,-0.00001156,0.00016752,-0.00022817,0.00024777,0.000
 01170,-0.00003844,-0.00002532,0.00000193,-0.00001936,-0.00001457,-0.00
 000509,-0.00000240,0.00000180,0.02599894,-0.00500768,0.00361836,0.0023
 1672,-0.00275791,-0.00365401,-0.00000773,-0.00000628,0.00000140,-0.000
 00296,-0.00000113,-0.00000098,-0.00000130,0.00000378,-0.00000109,0.000
 00029,0.00000127,0.00000103,0.00000121,0.00000130,0.00000051,-0.000000
 67,0.00000129,-0.00000439,-0.00000144,0.00000048,-0.00000111,0.0000007
 0,0.00000071,0.00000137,0.00021321,0.00139931,0.00124378,-0.00009687,0
 .00025585,-0.00003915,-0.00010409,-0.00009473,0.00000143,-0.00055419,0
 .00007809,0.00003989,-0.05135552,0.00913354,-0.05602441,0.05298543,-0.
 00704211,0.06027823,0.00010753,-0.00026912,0.00033468,-0.00055773,0.00
 226208,0.00179128,-0.00000619,-0.00008814,-0.00013398,0.00015252,0.000
 21544,0.00019334,-0.00004572,-0.00041230,0.00004033,0.00026281,-0.0000
 6919,0.00014755,0.00001165,0.00003325,0.00002245,-0.00014251,-0.000033
 01,-0.00029862,0.00001189,-0.00002567,0.00002513,0.00004877,0.00003460
 ,0.00004610,-0.00000438,0.00000255,-0.00000269,0.00006184,-0.00783366,
 0.01327724,0.00039700,-0.00069456,-0.00049685,-0.00000128,0.00000387,0
 .00000743,-0.00000599,-0.00000619,0.00000100,-0.00000216,0.00000035,-0
 .00000146,0.00000234,-0.00000043,-0.00000243,-0.00001547,-0.00002229,0
 .00000152,-0.00000219,0.00000333,-0.00000117,-0.00000547,0.00000164,0.
 00001095,0.00000272,0.00000144,-0.00000064,0.00014182,-0.00064356,-0.0
 0059252,-0.00016908,-0.00004464,-0.00005059,0.00019732,0.00006308,-0.0
 0022475,-0.00001654,0.00010555,-0.00002360,-0.04862879,0.01060275,-0.0
 1773650,-0.00057678,0.01721948,-0.02578961,0.04799226,-0.00007455,0.00
 032271,-0.00031924,0.00144216,-0.00119376,-0.00203891,-0.00011586,0.00
 039492,-0.00016135,-0.00006348,-0.00009436,-0.00001028,-0.00005976,0.0
 0003114,0.00013905,0.00005360,0.00005852,-0.00010842,-0.00000336,-0.00
 000199,-0.00000284,0.00009930,0.00015864,0.00001488,-0.00000935,-0.000
 00919,-0.00002699,-0.00003473,-0.00000057,-0.00002673,0.00000081,-0.00
 000351,0.00000052,-0.00197664,0.00768551,-0.01473178,-0.00039684,0.000
 56183,0.00075167,0.00000885,-0.00000494,-0.00001449,0.00000197,0.00000
 809,0.00000484,0.00000087,-0.00000096,-0.00000113,0.00000402,0.0000047
 4,0.00000591,0.00000770,0.00001383,-0.00000007,0.00000020,-0.00000168,
 0.00000011,0.00000168,-0.00000138,-0.00000470,-0.00000095,0.00000024,0
 .00000117,0.00002898,0.00107480,-0.00031798,0.00001616,0.00026091,0.00
 009653,0.00018663,-0.00011654,-0.00005178,-0.00010753,-0.00002587,0.00
 002673,0.01064439,-0.12873682,0.12411054,-0.00006092,-0.00315209,0.002
 86221,-0.01314578,0.13653418,-0.00057059,0.00001243,-0.00064664,0.0029
 2470,-0.00338922,-0.00241181,0.00032856,0.00022946,-0.00012577,-0.0000
 5390,-0.00003263,0.00006640,-0.00002281,-0.00000958,0.00015876,0.00017
 078,0.00017108,-0.00025451,-0.00000575,0.00000935,-0.00002096,0.000056
 60,0.00039463,-0.00007605,-0.00003610,0.00002841,-0.00006343,-0.000154
 71,0.00002946,-0.00003848,0.00002306,-0.00000658,0.00000554,-0.0026475
 6,0.01357163,-0.02048141,0.00008275,0.00018535,0.00101982,0.00007019,-
 0.00001714,-0.00004678,0.00002231,0.00003889,-0.00000195,-0.00000022,-
 0.00000575,0.00000541,-0.00000622,-0.00000112,0.00000669,0.00005239,0.
 00005220,0.00001108,0.00000038,-0.00000529,0.00000413,0.00002004,-0.00
 000480,-0.00003355,-0.00000736,-0.00000409,0.00000337,-0.00038917,0.00
 130351,0.00081426,0.00018038,-0.00009379,0.00036445,-0.00014962,-0.000
 65692,0.00021286,0.00000389,-0.00012055,-0.00004709,-0.01705796,0.1222
 0712,-0.23205646,-0.00025674,0.00229596,-0.00442042,0.01637612,-0.1330
 2129,0.25262793,0.00008103,0.00000899,-0.00030312,0.00041571,0.0003485
 8,-0.00034655,-0.00027523,-0.00006284,-0.00000609,0.00004584,-0.000067
 33,-0.00004178,0.00010388,0.00011015,-0.00005286,-0.00007779,0.0000430
 9,-0.00003916,-0.00000096,-0.00000538,-0.00001228,0.00000304,-0.000029
 34,0.00007843,-0.00000553,-0.00001380,-0.00000499,-0.00000125,-0.00000
 773,0.00000570,-0.00000442,0.00000164,0.00000004,0.00653379,0.01372180
 ,0.00209495,0.00066578,-0.00023266,-0.00083432,-0.00000155,-0.00000451
 ,-0.00000730,-0.00000085,0.00000376,0.00000274,-0.00000122,0.00000153,
 -0.00000556,0.00000677,-0.00000111,0.00000511,-0.00000146,0.00000592,0
 .00000054,-0.00000069,-0.00000095,-0.00000234,0.00000057,-0.00000062,-
 0.00000091,-0.00000029,0.00000099,0.00000149,-0.00068134,0.00119825,0.
 00240984,0.00058401,0.00070452,0.00034005,-0.00016663,-0.00017060,0.00
 006349,0.00026850,0.00016196,0.00015931,-0.10353309,-0.10899972,-0.019
 15264,-0.01248623,-0.02742899,-0.00371299,0.00078982,0.00355240,0.0010
 4657,0.10773979,0.00003488,0.00021655,-0.00025261,0.00023320,0.0004188
 9,0.00121264,-0.00014976,0.00027527,-0.00034946,0.00003266,0.00006788,
 0.00004198,-0.00009171,-0.00018345,0.00002141,0.00008755,0.00001578,-0
 .00002316,0.00000109,0.00001697,0.00000514,0.00005249,0.,-0.00013134,-
 0.00000428,0.00000818,-0.00001433,-0.00003421,0.00001783,-0.00001412,0
 .00000698,-0.00000660,0.00000046,-0.00699103,-0.01261182,-0.00084449,0
 .00017575,0.00028877,0.00043897,0.00001390,-0.00000966,-0.00001437,0.0
 0000128,0.00000878,0.00000066,0.00000110,0.00000034,0.00000235,-0.0000
 0036,0.00000868,0.00000474,0.00001397,0.00000216,0.00000196,0.,-0.0000
 0062,0.00000286,0.00000301,0.00000019,-0.00000505,-0.00000290,0.000002
 27,0.00000206,0.00243838,-0.00056513,-0.00319079,-0.00062019,-0.000879
 25,-0.00035981,0.00007319,0.00034411,0.00005093,-0.00007799,0.00010333
 ,0.00007784,-0.10782846,-0.25537205,-0.03540193,0.00273031,0.00607806,
 0.00115437,-0.00726087,-0.01376640,-0.00316072,0.11716201,0.27552092,0
 .00012244,0.00017017,0.00016112,-0.00070534,-0.00123574,0.00112381,-0.
 00020426,0.00025235,0.00002431,0.00004180,-0.00004224,0.00001781,-0.00
 003994,0.00001312,-0.00001713,0.00003107,-0.00002759,0.00002126,0.0000
 0740,0.00000066,0.00000115,0.00003835,0.00002996,-0.00009480,0.0000027
 1,-0.00000348,-0.00001514,0.00001595,-0.00000016,-0.00000422,-0.000002
 09,-0.00000295,-0.00000230,-0.01281324,-0.02095660,-0.00479287,-0.0000
 4079,0.00072843,0.00095219,-0.00000904,-0.00000330,-0.00000595,-0.0000
 0633,-0.00000176,0.00000556,0.00000035,0.00000130,-0.00000199,0.000007
 15,0.00001005,0.00000662,-0.00000617,-0.00000898,-0.00000351,-0.000000
 05,0.00000046,0.00000077,-0.00000319,0.00000116,0.00000632,-0.00000013
 ,0.00000441,0.00000169,0.00306308,-0.00190740,-0.00402170,-0.00053847,
 -0.00163845,-0.00000671,0.00002454,-0.00013374,0.00027940,0.00014233,0
 .00026283,-0.00000254,-0.01799612,-0.03358332,-0.05293637,-0.00252692,
 -0.00549686,-0.00192119,0.01308028,0.02282383,0.00542461,0.01831463,0.
 04074384,0.05579978\\0.00000005,-0.00000090,-0.00000070,0.00000009,0.0
 0000031,0.00000031,-0.00000014,0.00000252,0.00000199,-0.00000010,0.000
 00359,0.00000289,-0.00000037,0.00000333,0.00000256,-0.00000043,0.00000
 200,0.00000143,-0.00000060,0.00000266,0.00000190,-0.00000017,-0.000000
 20,-0.00000027,-0.00000054,0.00000503,0.00000387,-0.00000021,-0.000001
 70,-0.00000151,-0.00000008,-0.00000331,-0.00000276,0.00000038,-0.00000
 059,-0.00000030,0.00000042,-0.00000233,-0.00000172,0.00000206,-0.00000
 191,-0.00000057,0.00000208,-0.00000307,-0.00000150,0.00000200,-0.00000
 036,0.00000068,0.00000382,-0.00000247,-0.00000016,-0.00000266,-0.00000
 098,-0.00000211,-0.00000286,0.00000060,-0.00000091,-0.00000269,-0.0000
 0212,-0.00000306,-0.00000429,-0.00000085,-0.00000280,-0.00000184,0.000
 00049,-0.00000051,-0.00000362,0.00000041,-0.00000144,-0.00000166,-0.00
 000027,-0.00000103,-0.00000195,0.00000219,0.00000086,0.00000285,-0.000
 00053,0.00000097,0.00000290,0.00000114,0.00000236,0.00000309,-0.000001
 28,0.00000045,0.00000446,-0.00000137,0.00000107\\\@
 The archive entry for this job was punched.


 MANHOOD BEGINS BY TRYING TO SHAVE FACE,
 AND ENDS BY TRYING TO SAVE FACE.
 Job cpu time:       0 days  4 hours 44 minutes 40.2 seconds.
 Elapsed time:       0 days  0 hours  9 minutes 12.7 seconds.
 File lengths (MBytes):  RWF=    752 Int=      0 D2E=      0 Chk=     29 Scr=      1
 Normal termination of Gaussian 16 at Sun May 11 04:41:33 2025.
