/home/tahminaafroz
cn011.cluster.local
tahminaafroz
Wed Apr 30 04:50:06 CDT 2025
 Entering Gaussian System, Link 0=g16
 Initial command:
 /home/apps/g16/l1.exe "/tmp/2-br-phboh2-opt-freq-thf/Gau-196734.inp" -scrdir="/tmp/2-br-phboh2-opt-freq-thf/"
 Entering Link 1 = /home/apps/g16/l1.exe PID=    196735.
  
 Copyright (c) 1988-2019, Gaussian, Inc.  All Rights Reserved.
  
 This is part of the Gaussian(R) 16 program.  It is based on
 the Gaussian(R) 09 system (copyright 2009, Gaussian, Inc.),
 the Gaussian(R) 03 system (copyright 2003, Gaussian, Inc.),
 the Gaussian(R) 98 system (copyright 1998, Gaussian, Inc.),
 the Gaussian(R) 94 system (copyright 1995, Gaussian, Inc.),
 the Gaussian 92(TM) system (copyright 1992, Gaussian, Inc.),
 the Gaussian 90(TM) system (copyright 1990, Gaussian, Inc.),
 the Gaussian 88(TM) system (copyright 1988, Gaussian, Inc.),
 the Gaussian 86(TM) system (copyright 1986, Carnegie Mellon
 University), and the Gaussian 82(TM) system (copyright 1983,
 Carnegie Mellon University). Gaussian is a federally registered
 trademark of Gaussian, Inc.
  
 This software contains proprietary and confidential information,
 including trade secrets, belonging to Gaussian, Inc.
  
 This software is provided under written license and may be
 used, copied, transmitted, or stored only in accord with that
 written license.
  
 The following legend is applicable only to US Government
 contracts under FAR:
  
                    RESTRICTED RIGHTS LEGEND
  
 Use, reproduction and disclosure by the US Government is
 subject to restrictions as set forth in subparagraphs (a)
 and (c) of the Commercial Computer Software - Restricted
 Rights clause in FAR 52.227-19.
  
 Gaussian, Inc.
 340 Quinnipiac St., Bldg. 40, Wallingford CT 06492
  
  
 ---------------------------------------------------------------
 Warning -- This program may not be used in any manner that
 competes with the business of Gaussian, Inc. or will provide
 assistance to any competitor of Gaussian, Inc.  The licensee
 of this program is prohibited from giving any competitor of
 Gaussian, Inc. access to this program.  By using this program,
 the user acknowledges that Gaussian, Inc. is engaged in the
 business of creating and licensing software in the field of
 computational chemistry and represents and warrants to the
 licensee that it is not a competitor of Gaussian, Inc. and that
 it will not use this program in any manner prohibited above.
 ---------------------------------------------------------------
  

 Cite this work as:
 Gaussian 16, Revision C.01,
 M. J. Frisch, G. W. Trucks, H. B. Schlegel, G. E. Scuseria, 
 M. A. Robb, J. R. Cheeseman, G. Scalmani, V. Barone, 
 G. A. Petersson, H. Nakatsuji, X. Li, M. Caricato, A. V. Marenich, 
 J. Bloino, B. G. Janesko, R. Gomperts, B. Mennucci, H. P. Hratchian, 
 J. V. Ortiz, A. F. Izmaylov, J. L. Sonnenberg, D. Williams-Young, 
 F. Ding, F. Lipparini, F. Egidi, J. Goings, B. Peng, A. Petrone, 
 T. Henderson, D. Ranasinghe, V. G. Zakrzewski, J. Gao, N. Rega, 
 G. Zheng, W. Liang, M. Hada, M. Ehara, K. Toyota, R. Fukuda, 
 J. Hasegawa, M. Ishida, T. Nakajima, Y. Honda, O. Kitao, H. Nakai, 
 T. Vreven, K. Throssell, J. A. Montgomery, Jr., J. E. Peralta, 
 F. Ogliaro, M. J. Bearpark, J. J. Heyd, E. N. Brothers, K. N. Kudin, 
 V. N. Staroverov, T. A. Keith, R. Kobayashi, J. Normand, 
 K. Raghavachari, A. P. Rendell, J. C. Burant, S. S. Iyengar, 
 J. Tomasi, M. Cossi, J. M. Millam, M. Klene, C. Adamo, R. Cammi, 
 J. W. Ochterski, R. L. Martin, K. Morokuma, O. Farkas, 
 J. B. Foresman, and D. J. Fox, Gaussian, Inc., Wallingford CT, 2019.
 
 ******************************************
 Gaussian 16:  AS64L-G16RevC.01  3-Jul-2019
                30-Apr-2025 
 ******************************************
 %mem=20GB
 %nprocshared=32
 Will use up to   32 processors via shared memory.
 %chk=2-br-phboh2-opt-freq-thf.chk
 ----------------------------------------------------------------------
 # opt=(calcfc,tight) freq 6-311+g(d,p) scrf=(smd,solvent=thf) nosymm s
 cf=(qc,fermi,xqc) geom=connectivity int=ultrafine m062x
 ----------------------------------------------------------------------
 1/7=10,10=4,18=20,19=15,26=6,38=1,57=2/1,3;
 2/9=110,12=2,15=1,17=6,18=5,40=1/2;
 3/5=4,6=6,7=111,11=2,25=1,30=1,70=32201,71=2,72=20,74=-55,75=-5,140=1/1,2,3;
 4//1;
 5/5=2,22=13,38=5,53=20/2;
 8/6=4,10=90,11=11/1;
 11/6=1,8=1,9=11,15=111,16=1,31=1/1,2,10;
 10/6=1,13=1,31=1/2;
 6/7=2,8=2,9=2,10=2,28=1/1;
 7/10=1,25=1,30=1/1,2,3,16;
 1/7=10,10=4,18=20,19=15,26=6/3(2);
 2/9=110,15=1/2;
 99//99;
 2/9=110,15=1/2;
 3/5=4,6=6,7=111,11=2,25=1,30=1,70=32205,71=1,72=20,74=-55,75=-5/1,2,3;
 4/5=5,16=3,69=1/1;
 5/5=2,22=13,38=5,53=20/2;
 7/30=1/1,2,3,16;
 1/7=10,18=20,19=15,26=6/3(-5);
 2/9=110,15=1/2;
 6/7=2,8=2,9=2,10=2,19=2,28=1/1;
 99/9=1/99;
 ------------------------
 2-br-phboh2-opt-freq-thf
 ------------------------
 Symbolic Z-matrix:
 Charge =  0 Multiplicity = 1
 O                     8.67812   7.47633   5.5776 
 H                     9.49652   7.16644   5.98248 
 C                     6.24162   6.99757   5.17489 
 B                     7.64016   6.61458   5.77822 
 O                     7.88391   5.4749    6.49171 
 H                     7.12003   4.9032    6.61372 
 C                     5.11388   6.17912   5.30147 
 H                     5.16655   5.23106   5.82922 
 C                     3.88452   6.5419    4.76092 
 H                     3.0216    5.89685   4.86883 
 C                     3.7881    7.74884   4.08069 
 C                     4.88272   8.5908    3.92966 
 H                     4.78931   9.5279    3.39519 
 C                     6.09974   8.2047    4.47935 
 H                     2.84619   8.03793   3.66339 
 Br                    7.61134   9.35484   4.27849 
 

 GradGradGradGradGradGradGradGradGradGradGradGradGradGradGradGradGradGrad
 Berny optimization.
 Initialization pass.
                           ----------------------------
                           !    Initial Parameters    !
                           ! (Angstroms and Degrees)  !
 --------------------------                            --------------------------
 ! Name  Definition              Value          Derivative Info.                !
 --------------------------------------------------------------------------------
 ! R1    R(1,2)                  0.9642         calculate D2E/DX2 analytically  !
 ! R2    R(1,4)                  1.3639         calculate D2E/DX2 analytically  !
 ! R3    R(3,4)                  1.5705         calculate D2E/DX2 analytically  !
 ! R4    R(3,7)                  1.3992         calculate D2E/DX2 analytically  !
 ! R5    R(3,14)                 1.4004         calculate D2E/DX2 analytically  !
 ! R6    R(4,5)                  1.3665         calculate D2E/DX2 analytically  !
 ! R7    R(5,6)                  0.9619         calculate D2E/DX2 analytically  !
 ! R8    R(7,8)                  1.0863         calculate D2E/DX2 analytically  !
 ! R9    R(7,9)                  1.3911         calculate D2E/DX2 analytically  !
 ! R10   R(9,10)                 1.0828         calculate D2E/DX2 analytically  !
 ! R11   R(9,11)                 1.3888         calculate D2E/DX2 analytically  !
 ! R12   R(11,12)                1.3892         calculate D2E/DX2 analytically  !
 ! R13   R(11,15)                1.07           calculate D2E/DX2 analytically  !
 ! R14   R(12,13)                1.0828         calculate D2E/DX2 analytically  !
 ! R15   R(12,14)                1.3901         calculate D2E/DX2 analytically  !
 ! R16   R(14,16)                1.91           calculate D2E/DX2 analytically  !
 ! A1    A(2,1,4)              112.4024         calculate D2E/DX2 analytically  !
 ! A2    A(4,3,7)              122.7061         calculate D2E/DX2 analytically  !
 ! A3    A(4,3,14)             119.4214         calculate D2E/DX2 analytically  !
 ! A4    A(7,3,14)             117.8725         calculate D2E/DX2 analytically  !
 ! A5    A(1,4,3)              117.846          calculate D2E/DX2 analytically  !
 ! A6    A(1,4,5)              117.9047         calculate D2E/DX2 analytically  !
 ! A7    A(3,4,5)              124.2492         calculate D2E/DX2 analytically  !
 ! A8    A(4,5,6)              114.8517         calculate D2E/DX2 analytically  !
 ! A9    A(3,7,8)              121.0223         calculate D2E/DX2 analytically  !
 ! A10   A(3,7,9)              121.6406         calculate D2E/DX2 analytically  !
 ! A11   A(8,7,9)              117.337          calculate D2E/DX2 analytically  !
 ! A12   A(7,9,10)             120.6782         calculate D2E/DX2 analytically  !
 ! A13   A(7,9,11)             118.5764         calculate D2E/DX2 analytically  !
 ! A14   A(10,9,11)            120.7453         calculate D2E/DX2 analytically  !
 ! A15   A(9,11,12)            121.6856         calculate D2E/DX2 analytically  !
 ! A16   A(9,11,15)            119.1401         calculate D2E/DX2 analytically  !
 ! A17   A(12,11,15)           119.1743         calculate D2E/DX2 analytically  !
 ! A18   A(11,12,13)           120.6768         calculate D2E/DX2 analytically  !
 ! A19   A(11,12,14)           118.5883         calculate D2E/DX2 analytically  !
 ! A20   A(13,12,14)           120.735          calculate D2E/DX2 analytically  !
 ! A21   A(3,14,12)            121.6364         calculate D2E/DX2 analytically  !
 ! A22   A(3,14,16)            119.4139         calculate D2E/DX2 analytically  !
 ! A23   A(12,14,16)           118.9497         calculate D2E/DX2 analytically  !
 ! D1    D(2,1,4,3)            179.8215         calculate D2E/DX2 analytically  !
 ! D2    D(2,1,4,5)             -0.1273         calculate D2E/DX2 analytically  !
 ! D3    D(7,3,4,1)            178.9817         calculate D2E/DX2 analytically  !
 ! D4    D(7,3,4,5)             -1.0729         calculate D2E/DX2 analytically  !
 ! D5    D(14,3,4,1)            -1.0604         calculate D2E/DX2 analytically  !
 ! D6    D(14,3,4,5)           178.8849         calculate D2E/DX2 analytically  !
 ! D7    D(4,3,7,8)             -0.1439         calculate D2E/DX2 analytically  !
 ! D8    D(4,3,7,9)            179.8344         calculate D2E/DX2 analytically  !
 ! D9    D(14,3,7,8)           179.8976         calculate D2E/DX2 analytically  !
 ! D10   D(14,3,7,9)            -0.1241         calculate D2E/DX2 analytically  !
 ! D11   D(4,3,14,12)         -179.8337         calculate D2E/DX2 analytically  !
 ! D12   D(4,3,14,16)            0.1091         calculate D2E/DX2 analytically  !
 ! D13   D(7,3,14,12)            0.1262         calculate D2E/DX2 analytically  !
 ! D14   D(7,3,14,16)         -179.931          calculate D2E/DX2 analytically  !
 ! D15   D(1,4,5,6)            179.4569         calculate D2E/DX2 analytically  !
 ! D16   D(3,4,5,6)             -0.4884         calculate D2E/DX2 analytically  !
 ! D17   D(3,7,9,10)          -179.9533         calculate D2E/DX2 analytically  !
 ! D18   D(3,7,9,11)             0.0267         calculate D2E/DX2 analytically  !
 ! D19   D(8,7,9,10)             0.0257         calculate D2E/DX2 analytically  !
 ! D20   D(8,7,9,11)          -179.9942         calculate D2E/DX2 analytically  !
 ! D21   D(7,9,11,12)            0.0746         calculate D2E/DX2 analytically  !
 ! D22   D(7,9,11,15)         -179.8492         calculate D2E/DX2 analytically  !
 ! D23   D(10,9,11,12)        -179.9454         calculate D2E/DX2 analytically  !
 ! D24   D(10,9,11,15)           0.1308         calculate D2E/DX2 analytically  !
 ! D25   D(9,11,12,13)         179.9389         calculate D2E/DX2 analytically  !
 ! D26   D(9,11,12,14)          -0.0726         calculate D2E/DX2 analytically  !
 ! D27   D(15,11,12,13)         -0.1373         calculate D2E/DX2 analytically  !
 ! D28   D(15,11,12,14)        179.8511         calculate D2E/DX2 analytically  !
 ! D29   D(11,12,14,3)          -0.0307         calculate D2E/DX2 analytically  !
 ! D30   D(11,12,14,16)       -179.9738         calculate D2E/DX2 analytically  !
 ! D31   D(13,12,14,3)         179.9577         calculate D2E/DX2 analytically  !
 ! D32   D(13,12,14,16)          0.0146         calculate D2E/DX2 analytically  !
 --------------------------------------------------------------------------------
 Trust Radius=3.00D-01 FncErr=5.00D-06 GrdErr=5.00D-06 EigMax=2.50D+02 EigMin=1.00D-04
 Number of steps in this run=     81 maximum allowed number of steps=    100.
 GradGradGradGradGradGradGradGradGradGradGradGradGradGradGradGradGradGrad

                          Input orientation:                          
 ---------------------------------------------------------------------
 Center     Atomic      Atomic             Coordinates (Angstroms)
 Number     Number       Type             X           Y           Z
 ---------------------------------------------------------------------
      1          8           0        8.678122    7.476325    5.577604
      2          1           0        9.496520    7.166437    5.982475
      3          6           0        6.241617    6.997570    5.174887
      4          5           0        7.640159    6.614580    5.778224
      5          8           0        7.883905    5.474902    6.491714
      6          1           0        7.120033    4.903202    6.613724
      7          6           0        5.113879    6.179115    5.301469
      8          1           0        5.166551    5.231059    5.829221
      9          6           0        3.884518    6.541902    4.760923
     10          1           0        3.021595    5.896847    4.868828
     11          6           0        3.788095    7.748839    4.080693
     12          6           0        4.882718    8.590803    3.929663
     13          1           0        4.789313    9.527904    3.395189
     14          6           0        6.099736    8.204699    4.479345
     15          1           0        2.846189    8.037933    3.663394
     16         35           0        7.611337    9.354838    4.278493
 ---------------------------------------------------------------------
                    Distance matrix (angstroms):
                    1          2          3          4          5
     1  O    0.000000
     2  H    0.964223   0.000000
     3  C    2.515540   3.357843   0.000000
     4  B    1.363899   1.947393   1.570547   0.000000
     5  O    2.339246   2.391891   2.598011   1.366509   0.000000
     6  H    3.181532   3.341915   2.688539   1.974185   0.961888
     7  C    3.803003   4.543800   1.399173   2.607492   3.096069
     8  H    4.175603   4.745293   2.168982   2.834690   2.807556
     9  C    4.951641   5.777266   2.436168   3.891661   4.486560
    10  H    5.915523   6.691541   3.416695   4.761646   5.143331
    11  C    5.121266   6.045005   2.789523   4.359650   5.268726
    12  C    4.285191   5.246906   2.436305   3.863433   5.027929
    13  H    4.908640   5.867570   3.417470   4.721614   5.965886
    14  C    2.895648   3.856881   1.400382   2.566801   3.832059
    15  H    6.163687   7.096798   3.859520   5.429603   6.320372
    16  Br   2.520820   3.353591   2.869908   3.123946   4.475103
                    6          7          8          9         10
     6  H    0.000000
     7  C    2.715625   0.000000
     8  H    2.130499   1.086327   0.000000
     9  C    4.072685   1.391091   2.122069   0.000000
    10  H    4.563900   2.155112   2.442635   1.082763   0.000000
    11  C    5.061196   2.389986   3.361057   1.388779   2.153730
    12  C    5.080174   2.784156   3.869982   2.425983   3.406348
    13  H    6.097466   3.866993   4.952746   3.405891   4.298955
    14  C    4.061584   2.398081   3.396400   2.784128   3.866889
    15  H    6.066030   3.358707   4.237148   2.126218   2.463349
    16  Br   5.050916   4.167613   5.038580   4.694095   5.776844
                   11         12         13         14         15
    11  C    0.000000
    12  C    1.389213   0.000000
    13  H    2.153468   1.082841   0.000000
    14  C    2.389648   1.390093   2.154872   0.000000
    15  H    1.070000   2.126973   2.463266   3.358445   0.000000
    16  Br   4.151571   2.854960   2.962093   1.910000   4.981889
                   16
    16  Br   0.000000
 Symmetry turned off by external request.
 Stoichiometry    C6H6BBrO2
 Framework group  C1[X(C6H6BBrO2)]
 Deg. of freedom    42
 Full point group                 C1      NOp   1
 Rotational constants (GHZ):           1.1933104           0.9181797           0.5189255
 Standard basis: 6-311+G(d,p) (5D, 7F)
   282 basis functions,   466 primitive gaussians,   294 cartesian basis functions
    49 alpha electrons       49 beta electrons
       nuclear repulsion energy       741.7125853292 Hartrees.
 NAtoms=   16 NActive=   16 NUniq=   16 SFac= 1.00D+00 NAtFMM=   60 NAOKFM=F Big=F
 Integral buffers will be    131072 words long.
 Raffenetti 2 integral format.
 Two-electron integral symmetry is turned off.
 Force inversion solution in PCM.
 ------------------------------------------------------------------------------
 Polarizable Continuum Model (PCM)
 =================================
 Model                : PCM.
 Atomic radii         : SMD-Coulomb.
 Polarization charges : Total charges.
 Charge compensation  : None.
 Solution method      : Matrix inversion.
 Cavity type          : VdW (van der Waals Surface) (Alpha=1.000).
 Cavity algorithm     : GePol (No added spheres)
                        Default sphere list used, NSphG=   16.
                        Lebedev-Laikov grids with approx.  5.0 points / Ang**2.
                        Smoothing algorithm: York/Karplus (Gamma=1.0000).
                        Polarization charges: spherical gaussians, with
                                              point-specific exponents (IZeta= 3).
                        Self-potential: point-specific (ISelfS= 7).
                        Self-field    : sphere-specific E.n sum rule (ISelfD= 2).
 1st derivatives      : Analytical E(r).r(x)/FMM algorithm (CHGder, D1EAlg=3).
                        Cavity 1st derivative terms included.
 2nd derivatives      : Analytical E(r).r(xy)/FMM algorithm (CHGder, D2EAlg=3).
                        Cavity 2nd derivative terms included.
 Solvent              : TetraHydroFuran, Eps=   7.425700 Eps(inf)=   1.974025
 ------------------------------------------------------------------------------
 Spheres list:
 ISph  on   Nord     Re0    Alpha      Xe            Ye            Ze
    1   O      1    2.2940  1.000      8.678122      7.476325      5.577604
    2   H      2    1.2000  1.000      9.496520      7.166437      5.982475
    3   C      3    1.8500  1.000      6.241617      6.997570      5.174887
    4   B      4    1.8000  1.000      7.640159      6.614580      5.778224
    5   O      5    2.2940  1.000      7.883905      5.474902      6.491714
    6   H      6    1.2000  1.000      7.120033      4.903202      6.613724
    7   C      7    1.8500  1.000      5.113879      6.179115      5.301469
    8   H      8    1.2000  1.000      5.166551      5.231059      5.829221
    9   C      9    1.8500  1.000      3.884518      6.541902      4.760923
   10   H     10    1.2000  1.000      3.021595      5.896847      4.868828
   11   C     11    1.8500  1.000      3.788095      7.748839      4.080693
   12   C     12    1.8500  1.000      4.882718      8.590803      3.929663
   13   H     13    1.2000  1.000      4.789313      9.527904      3.395189
   14   C     14    1.8500  1.000      6.099736      8.204699      4.479345
   15   H     15    1.2000  1.000      2.846189      8.037933      3.663394
   16  Br     16    3.0600  1.000      7.611337      9.354838      4.278493
 ------------------------------------------------------------------------------
 ------------------------------------------------------------------------------
 Atomic radii for non-electrostatic terms: SMD-CDS.
 ------------------------------------------------------------------------------
 Nuclear repulsion after PCM non-electrostatic terms =      741.7070960928 Hartrees.
 One-electron integrals computed using PRISM.
 NBasis=   282 RedAO= T EigKep=  1.47D-06  NBF=   282
 NBsUse=   282 1.00D-06 EigRej= -1.00D+00 NBFU=   282
 ExpMin= 3.15D-02 ExpMax= 4.40D+05 ExpMxC= 1.51D+04 IAcc=3 IRadAn=         5 AccDes= 0.00D+00
 Harris functional with IExCor= 1009 and IRadAn=       5 diagonalized for initial guess.
 HarFok:  IExCor= 1009 AccDes= 0.00D+00 IRadAn=         5 IDoV= 1 UseB2=F ITyADJ=14
 ICtDFT=  3500011 ScaDFX=  1.000000  1.000000  1.000000  1.000000
 FoFCou: FMM=F IPFlag=           0 FMFlag=      100000 FMFlg1=           0
         NFxFlg=           0 DoJE=T BraDBF=F KetDBF=T FulRan=T
         wScrn=  0.000000 ICntrl=       500 IOpCl=  0 I1Cent=   200000004 NGrid=           0
         NMat0=    1 NMatS0=      1 NMatT0=    0 NMatD0=    1 NMtDS0=    0 NMtDT0=    0
 Symmetry not used in FoFCou.
 Requested convergence on RMS density matrix=1.00D-08 within 128 cycles.
 Requested convergence on MAX density matrix=1.00D-06.
 Requested convergence on             energy=1.00D-06.
 Level shift goal  0.100 maximum shift  0.100.
 No special actions if energy rises.
 Dynamic level shift is on during FON iterations.
 Inv3:  Mode=1 IEnd=     7546188.
 Iteration    1 A*A^-1 deviation from unit magnitude is 3.55D-15 for    219.
 Iteration    1 A*A^-1 deviation from orthogonality  is 2.38D-15 for   1578   1477.
 Iteration    1 A^-1*A deviation from unit magnitude is 3.33D-15 for   1584.
 Iteration    1 A^-1*A deviation from orthogonality  is 1.89D-15 for   1586   1518.
 Error on total polarization charges =  0.01856
 SCF Done:  E(RM062X) =  -2981.78915768     A.U. after   14 cycles
            NFock= 14  Conv=0.43D-08     -V/T= 2.0015
 SMD-CDS (non-electrostatic) energy       (kcal/mol) =      -3.44
 (included in total energy above)
 DoSCS=F DFT=T ScalE2(SS,OS)=  1.000000  1.000000
 Range of M.O.s used for correlation:     1   282
 NBasis=   282 NAE=    49 NBE=    49 NFC=     0 NFV=     0
 NROrb=    282 NOA=    49 NOB=    49 NVA=   233 NVB=   233

 **** Warning!!: The largest alpha MO coefficient is  0.23174460D+03

 Symmetrizing basis deriv contribution to polar:
 IMax=3 JMax=2 DiffMx= 0.00D+00
 G2DrvN: will do    17 centers at a time, making    1 passes.
 Calling FoFCou, ICntrl=  3107 FMM=F I1Cent=   0 AccDes= 0.00D+00.
 NEqPCM:  Using equilibrium solvation (IEInf=0, Eps=   7.4257, EpsInf=   1.9740)
 G2PCM: DoFxE=T DoFxN=T DoGrad=T DoDP/DQ/DG/TGxP=FFFF NFrqRd=   0 IEInf=0 SqF1=F DoCFld=F IF1Alg=4.
 End of G2Drv F.D. properties file   721 does not exist.
 End of G2Drv F.D. properties file   722 does not exist.
 End of G2Drv F.D. properties file   788 does not exist.
          IDoAtm=1111111111111111
 NEqPCM:  Using equilibrium solvation (IEInf=0, Eps=   7.4257, EpsInf=   1.9740)
          Differentiating once with respect to nuclear coordinates.
 Keep R1 ints in memory in canonical form, NReq=832100175.
          There are    51 degrees of freedom in the 1st order CPHF.  IDoFFX=6 NUNeed=     0.
     45 vectors produced by pass  0 Test12= 2.24D-14 1.96D-09 XBig12= 1.53D-01 9.71D-02.
 AX will form    45 AO Fock derivatives at one time.
     45 vectors produced by pass  1 Test12= 2.24D-14 1.96D-09 XBig12= 1.42D-02 2.87D-02.
     45 vectors produced by pass  2 Test12= 2.24D-14 1.96D-09 XBig12= 3.03D-04 3.50D-03.
     45 vectors produced by pass  3 Test12= 2.24D-14 1.96D-09 XBig12= 3.08D-06 2.70D-04.
     45 vectors produced by pass  4 Test12= 2.24D-14 1.96D-09 XBig12= 3.48D-08 2.26D-05.
     45 vectors produced by pass  5 Test12= 2.24D-14 1.96D-09 XBig12= 2.10D-10 1.76D-06.
     45 vectors produced by pass  6 Test12= 2.24D-14 1.96D-09 XBig12= 9.23D-13 1.12D-07.
     10 vectors produced by pass  7 Test12= 2.24D-14 1.96D-09 XBig12= 3.39D-15 6.27D-09.
 InvSVY:  IOpt=1 It=  1 EMax= 3.33D-16
 Solved reduced A of dimension   325 with    51 vectors.
 End of Minotr F.D. properties file   721 does not exist.
 End of Minotr F.D. properties file   722 does not exist.
 End of Minotr F.D. properties file   788 does not exist.

 **********************************************************************

            Population analysis using the SCF Density.

 **********************************************************************

 Alpha  occ. eigenvalues -- -485.31912 -63.31130 -57.13878 -57.13627 -57.13590
 Alpha  occ. eigenvalues --  -19.63794 -19.62661 -10.60609 -10.55836 -10.55502
 Alpha  occ. eigenvalues --  -10.55289 -10.54921 -10.54367  -8.99881  -7.08816
 Alpha  occ. eigenvalues --   -6.82692  -6.81682  -6.81575  -2.85851  -2.85526
 Alpha  occ. eigenvalues --   -2.85420  -2.84523  -2.84523  -1.16863  -1.13223
 Alpha  occ. eigenvalues --   -0.98110  -0.89729  -0.85639  -0.81414  -0.70906
 Alpha  occ. eigenvalues --   -0.68108  -0.65368  -0.62939  -0.58832  -0.53950
 Alpha  occ. eigenvalues --   -0.52654  -0.50933  -0.48678  -0.48179  -0.47217
 Alpha  occ. eigenvalues --   -0.45374  -0.45022  -0.40913  -0.40810  -0.39181
 Alpha  occ. eigenvalues --   -0.36975  -0.32212  -0.31094  -0.29593
 Alpha virt. eigenvalues --   -0.01101   0.00117   0.00573   0.01641   0.01996
 Alpha virt. eigenvalues --    0.03125   0.03363   0.04049   0.04399   0.05759
 Alpha virt. eigenvalues --    0.06221   0.07107   0.08116   0.08421   0.08925
 Alpha virt. eigenvalues --    0.10281   0.10648   0.11447   0.11479   0.12380
 Alpha virt. eigenvalues --    0.13227   0.14168   0.14617   0.16362   0.16406
 Alpha virt. eigenvalues --    0.17265   0.17642   0.18030   0.18981   0.19524
 Alpha virt. eigenvalues --    0.20333   0.20948   0.21259   0.22354   0.22445
 Alpha virt. eigenvalues --    0.22889   0.23734   0.23924   0.24229   0.24825
 Alpha virt. eigenvalues --    0.25386   0.25939   0.26565   0.27572   0.27855
 Alpha virt. eigenvalues --    0.29264   0.30622   0.31393   0.32717   0.33341
 Alpha virt. eigenvalues --    0.35231   0.35856   0.37460   0.40210   0.40848
 Alpha virt. eigenvalues --    0.42303   0.45525   0.45869   0.46493   0.48631
 Alpha virt. eigenvalues --    0.48938   0.49963   0.52302   0.53221   0.56478
 Alpha virt. eigenvalues --    0.57159   0.57633   0.58709   0.59266   0.59688
 Alpha virt. eigenvalues --    0.61530   0.62169   0.63438   0.65172   0.66409
 Alpha virt. eigenvalues --    0.67745   0.68171   0.69951   0.70464   0.71827
 Alpha virt. eigenvalues --    0.72436   0.73453   0.74813   0.77399   0.79172
 Alpha virt. eigenvalues --    0.79392   0.80193   0.81180   0.84938   0.86052
 Alpha virt. eigenvalues --    0.87210   0.87777   0.89819   0.90195   0.92658
 Alpha virt. eigenvalues --    0.93498   0.93902   0.96043   0.99973   1.01758
 Alpha virt. eigenvalues --    1.03069   1.05445   1.07133   1.07640   1.08307
 Alpha virt. eigenvalues --    1.11482   1.12509   1.12849   1.14938   1.15374
 Alpha virt. eigenvalues --    1.17368   1.18908   1.22277   1.31444   1.32229
 Alpha virt. eigenvalues --    1.33488   1.35737   1.38624   1.40038   1.46444
 Alpha virt. eigenvalues --    1.46986   1.50194   1.51030   1.53818   1.56518
 Alpha virt. eigenvalues --    1.61199   1.61520   1.61885   1.62675   1.65582
 Alpha virt. eigenvalues --    1.68650   1.70749   1.73578   1.75429   1.77982
 Alpha virt. eigenvalues --    1.78391   1.82933   1.85812   1.88562   1.91643
 Alpha virt. eigenvalues --    1.92352   1.94896   1.95969   1.96433   1.99192
 Alpha virt. eigenvalues --    2.00328   2.01744   2.06315   2.08244   2.08989
 Alpha virt. eigenvalues --    2.09723   2.15279   2.18444   2.19573   2.27886
 Alpha virt. eigenvalues --    2.30340   2.35667   2.36109   2.38359   2.42878
 Alpha virt. eigenvalues --    2.44974   2.50135   2.56728   2.58232   2.61869
 Alpha virt. eigenvalues --    2.65297   2.66436   2.68790   2.71652   2.72319
 Alpha virt. eigenvalues --    2.74862   2.77592   2.78638   2.80850   2.83944
 Alpha virt. eigenvalues --    2.85117   2.85835   2.90925   2.94017   2.95845
 Alpha virt. eigenvalues --    3.07102   3.10994   3.13770   3.17343   3.23942
 Alpha virt. eigenvalues --    3.26612   3.26674   3.31562   3.39564   3.43785
 Alpha virt. eigenvalues --    3.46022   3.52693   3.57282   3.58677   3.63115
 Alpha virt. eigenvalues --    3.66903   3.82627   3.92840   3.95865   4.06145
 Alpha virt. eigenvalues --    4.09462   4.16249   4.19354   4.31370   4.39226
 Alpha virt. eigenvalues --    4.45776   4.59369   4.74454   4.85383   5.08395
 Alpha virt. eigenvalues --    5.09595   5.41603   5.51045   5.69530   5.76718
 Alpha virt. eigenvalues --    6.98008   7.66284   7.83732   7.85527  14.79630
 Alpha virt. eigenvalues --   23.61694  23.99185  24.04164  24.13410  24.16400
 Alpha virt. eigenvalues --   24.26459  48.48988  50.01168  50.06103 290.81161
 Alpha virt. eigenvalues --  290.98532 291.040411021.07529
          Condensed to atoms (all electrons):
               1          2          3          4          5          6
     1  O    8.098923   0.272268  -0.078161   0.383498  -0.106953   0.014783
     2  H    0.272268   0.394579   0.036777  -0.008426  -0.025096   0.002664
     3  C   -0.078161   0.036777   9.548063   0.385125  -0.079724  -0.013937
     4  B    0.383498  -0.008426   0.385125   3.353938   0.381105   0.008014
     5  O   -0.106953  -0.025096  -0.079724   0.381105   7.944433   0.281130
     6  H    0.014783   0.002664  -0.013937   0.008014   0.281130   0.393164
     7  C    0.103119  -0.003240  -1.481100  -0.050287   0.043782  -0.018284
     8  H    0.001685   0.000001   0.009439   0.007056  -0.005440   0.009708
     9  C    0.025449   0.001402   0.367199   0.124211   0.027371   0.038174
    10  H   -0.000023   0.000000  -0.024886  -0.000957   0.000225  -0.000043
    11  C    0.015473  -0.000098  -1.067302  -0.025841   0.002445  -0.000104
    12  C    0.034816  -0.010388   0.569069   0.092034   0.004259  -0.005588
    13  H    0.000360   0.000003  -0.018542  -0.001550  -0.000031   0.000003
    14  C   -0.146039  -0.013546  -1.509278  -0.170737  -0.059011   0.008493
    15  H    0.000013   0.000000   0.013973  -0.000614   0.000007  -0.000002
    16  Br  -0.254439   0.001534  -0.008374  -0.016928   0.007998  -0.000218
               7          8          9         10         11         12
     1  O    0.103119   0.001685   0.025449  -0.000023   0.015473   0.034816
     2  H   -0.003240   0.000001   0.001402   0.000000  -0.000098  -0.010388
     3  C   -1.481100   0.009439   0.367199  -0.024886  -1.067302   0.569069
     4  B   -0.050287   0.007056   0.124211  -0.000957  -0.025841   0.092034
     5  O    0.043782  -0.005440   0.027371   0.000225   0.002445   0.004259
     6  H   -0.018284   0.009708   0.038174  -0.000043  -0.000104  -0.005588
     7  C   10.170928   0.383179  -1.184664   0.025678   0.400338  -1.263968
     8  H    0.383179   0.479370  -0.032402  -0.005223  -0.011517  -0.010394
     9  C   -1.184664  -0.032402   6.883817   0.339389   0.250206   0.545590
    10  H    0.025678  -0.005223   0.339389   0.458801   0.035409  -0.030545
    11  C    0.400338  -0.011517   0.250206   0.035409   5.775102  -0.227149
    12  C   -1.263968  -0.010394   0.545590  -0.030545  -0.227149   7.819862
    13  H    0.021057   0.000045  -0.030662  -0.000092   0.045608   0.264283
    14  C   -1.178249  -0.004521  -1.182081   0.014298   0.430280  -1.382647
    15  H   -0.026890  -0.000244   0.017382  -0.005713   0.370968  -0.000685
    16  Br   0.160687   0.000226  -0.003147   0.000230   0.095728  -0.153873
              13         14         15         16
     1  O    0.000360  -0.146039   0.000013  -0.254439
     2  H    0.000003  -0.013546   0.000000   0.001534
     3  C   -0.018542  -1.509278   0.013973  -0.008374
     4  B   -0.001550  -0.170737  -0.000614  -0.016928
     5  O   -0.000031  -0.059011   0.000007   0.007998
     6  H    0.000003   0.008493  -0.000002  -0.000218
     7  C    0.021057  -1.178249  -0.026890   0.160687
     8  H    0.000045  -0.004521  -0.000244   0.000226
     9  C   -0.030662  -1.182081   0.017382  -0.003147
    10  H   -0.000092   0.014298  -0.005713   0.000230
    11  C    0.045608   0.430280   0.370968   0.095728
    12  C    0.264283  -1.382647  -0.000685  -0.153873
    13  H    0.452413   0.073107  -0.005684  -0.003963
    14  C    0.073107  10.812655  -0.015368   0.035526
    15  H   -0.005684  -0.015368   0.454443   0.000621
    16  Br  -0.003963   0.035526   0.000621  35.320242
 Mulliken charges:
               1
     1  O   -0.364772
     2  H    0.351566
     3  C   -0.648340
     4  B    0.540360
     5  O   -0.416499
     6  H    0.282042
     7  C   -0.102088
     8  H    0.179033
     9  C   -0.187235
    10  H    0.193452
    11  C   -0.089547
    12  C   -0.244678
    13  H    0.203647
    14  C    0.287117
    15  H    0.197793
    16  Br  -0.181851
 Sum of Mulliken charges =   0.00000
 Mulliken charges with hydrogens summed into heavy atoms:
               1
     1  O   -0.013206
     3  C   -0.648340
     4  B    0.540360
     5  O   -0.134457
     7  C    0.076944
     9  C    0.006217
    11  C    0.108246
    12  C   -0.041030
    14  C    0.287117
    16  Br  -0.181851
 APT charges:
               1
     1  O   -0.236288
     2  H    2.025925
     3  C   -0.335313
     4  B   -0.294052
     5  O    1.192908
     6  H   -1.218327
     7  C   -1.663770
     8  H   -0.186048
     9  C   -0.200190
    10  H   -0.788206
    11  C   -0.682509
    12  C   -0.091144
    13  H    1.193646
    14  C    0.962523
    15  H   -0.161984
    16  Br   0.482830
 Sum of APT charges =   0.00000
 APT charges with hydrogens summed into heavy atoms:
               1
     1  O    1.789637
     3  C   -0.335313
     4  B   -0.294052
     5  O   -0.025420
     7  C   -1.849818
     9  C   -0.988396
    11  C   -0.844492
    12  C    1.102502
    14  C    0.962523
    16  Br   0.482830
 Electronic spatial extent (au):  <R**2>=          47132.0444
 Charge=              0.0000 electrons
 Dipole moment (field-independent basis, Debye):
    X=             -2.4941    Y=             -2.9349    Z=              0.9505  Tot=              3.9670
 Quadrupole moment (field-independent basis, Debye-Ang):
   XX=            -92.2173   YY=           -111.8048   ZZ=            -62.3336
   XY=            -36.1162   XZ=             -3.0120   YZ=            -10.7772
 Traceless Quadrupole moment (field-independent basis, Debye-Ang):
   XX=             -3.4320   YY=            -23.0196   ZZ=             26.4516
   XY=            -36.1162   XZ=             -3.0120   YZ=            -10.7772
 Octapole moment (field-independent basis, Debye-Ang**2):
  XXX=          -1469.6864  YYY=          -2078.5751  ZZZ=           -972.6241  XYY=           -851.2705
  XXY=           -806.0646  XXZ=           -373.3510  XZZ=           -431.5325  YZZ=           -585.6366
  YYZ=           -537.0153  XYZ=           -119.0495
 Hexadecapole moment (field-independent basis, Debye-Ang**3):
 XXXX=         -18578.8982 YYYY=         -30383.6688 ZZZZ=          -9994.2306 XXXY=         -11911.3518
 XXXZ=          -6627.2703 YYYX=         -14543.9906 YYYZ=          -9996.9402 ZZZX=          -6459.9673
 ZZZY=          -7903.9653 XXYY=         -10222.2086 XXZZ=          -4679.8480 YYZZ=          -6994.9026
 XXYZ=          -3303.0987 YYXZ=          -3805.5082 ZZXY=          -3875.3102
 N-N= 7.417070960928D+02 E-N=-8.590364144998D+03  KE= 2.977415227955D+03
  Exact polarizability:       0.000       0.000       0.000       0.000       0.000       0.000
 Approx polarizability:     157.379      18.062     138.974      10.795     -25.135     100.331
 D2PCM: PCM CHGder 2nd derivatives, FixD1E=F FixD2E=F DoIter=F DoCFld=F I1PDM=0
 Calling FoFJK, ICntrl=    100127 FMM=F ISym2X=0 I1Cent= 0 IOpClX= 0 NMat=1 NMatS=1 NMatT=0.
 -------------------------------------------------------------------
 Center     Atomic                   Forces (Hartrees/Bohr)
 Number     Number              X              Y              Z
 -------------------------------------------------------------------
      1        8           0.011110452   -0.026271628    0.017185029
      2        1           0.000837597   -0.002666944    0.001656884
      3        6           0.007363045    0.002362618    0.000752870
      4        5           0.003191178   -0.002489962    0.002181331
      5        8          -0.001383027   -0.000694863    0.000013681
      6        1          -0.000131577   -0.000175197    0.000063222
      7        6          -0.004379130   -0.001597494   -0.000363002
      8        1           0.002452033    0.000296223    0.000529951
      9        6           0.006673361    0.001110834    0.001277435
     10        1          -0.000117898    0.000051222   -0.000075304
     11        6           0.001074541   -0.001022636    0.000906117
     12        6           0.003171045    0.000474716    0.000648235
     13        1          -0.000009600   -0.000118409    0.000124623
     14        6          -0.000021357   -0.002133025    0.001093200
     15        1          -0.008725079    0.003868688   -0.004637740
     16       35          -0.021105582    0.029005856   -0.021356532
 -------------------------------------------------------------------
 Cartesian Forces:  Max     0.029005856 RMS     0.008106232
 FormGI is forming the generalized inverse of G from B-inverse, IUseBI=4.

 GradGradGradGradGradGradGradGradGradGradGradGradGradGradGradGradGradGrad
 Berny optimization.
 Internal  Forces:  Max     0.105319204 RMS     0.023912502
 Search for a local minimum.
 Step number   1 out of a maximum of   81
 All quantities printed in internal units (Hartrees-Bohrs-Radians)
 Mixed Optimization -- RFO/linear search
 Second derivative matrix not updated -- analytic derivatives used.
 ITU=  0
     Eigenvalues ---   -0.03993  -0.00729   0.00938   0.01467   0.01620
     Eigenvalues ---    0.01835   0.02382   0.02423   0.02583   0.02703
     Eigenvalues ---    0.02824   0.04129   0.04685   0.09331   0.10599
     Eigenvalues ---    0.10917   0.11592   0.12166   0.12475   0.14626
     Eigenvalues ---    0.16325   0.17650   0.18255   0.18743   0.19356
     Eigenvalues ---    0.23494   0.26198   0.28438   0.35814   0.36642
     Eigenvalues ---    0.36701   0.37183   0.38626   0.39658   0.42193
     Eigenvalues ---    0.47605   0.47889   0.48631   0.51644   0.53443
     Eigenvalues ---    0.54423   1.95860
 RFO step:  Lambda=-3.99305607D-02 EMin=-3.99283703D-02
 I=     1 Eig=   -3.99D-02 Dot1=  1.21D-04
 I=     1 Stepn=  6.00D-01 RXN=   6.00D-01 EDone=F
 I=     2 Eig=   -7.29D-03 Dot1=  1.04D-04
 I=     2 Stepn=  3.00D-01 RXN=   6.71D-01 EDone=F
 Mixed    2 eigenvectors in step.  Raw Step.Grad=  2.24D-04.
 RFO eigenvector is Hessian eigenvector with negative curvature.
 Taking step of  6.00D-01 in eigenvector direction(s).  Step.Grad= -6.39D-02.
 Linear search not attempted -- first point.
 Iteration  1 RMS(Cart)=  0.12380069 RMS(Int)=  0.02337539
 Iteration  2 RMS(Cart)=  0.05105542 RMS(Int)=  0.00124012
 Iteration  3 RMS(Cart)=  0.00194946 RMS(Int)=  0.00035000
 Iteration  4 RMS(Cart)=  0.00000304 RMS(Int)=  0.00035000
 Iteration  5 RMS(Cart)=  0.00000000 RMS(Int)=  0.00035000
 Variable       Old X    -DE/DX   Delta X   Delta X   Delta X     New X
                                 (Linear)    (Quad)   (Total)
    R1        1.82212   0.00227   0.00000   0.00001   0.00001   1.82213
    R2        2.57740  -0.01197   0.00000   0.00054   0.00054   2.57793
    R3        2.96790   0.02811   0.00000  -0.00385  -0.00385   2.96406
    R4        2.64405   0.00683   0.00000  -0.00103  -0.00102   2.64303
    R5        2.64634   0.04969   0.00000  -0.00142  -0.00136   2.64498
    R6        2.58233   0.00050   0.00000  -0.00216  -0.00216   2.58017
    R7        1.81770   0.00022   0.00000  -0.00017  -0.00017   1.81754
    R8        2.05286   0.00012   0.00000   0.00148   0.00148   2.05434
    R9        2.62878  -0.00513   0.00000   0.00040   0.00035   2.62913
   R10        2.04613   0.00005   0.00000  -0.00003  -0.00003   2.04610
   R11        2.62441  -0.00985   0.00000   0.00074   0.00068   2.62509
   R12        2.62523  -0.00664   0.00000   0.00047   0.00046   2.62570
   R13        2.02201   0.01053   0.00000   0.00002   0.00002   2.02203
   R14        2.04627  -0.00016   0.00000   0.00016   0.00016   2.04643
   R15        2.62690   0.00540   0.00000  -0.00048  -0.00043   2.62647
   R16        3.60938   0.00301   0.00000  -0.00034  -0.00034   3.60904
    A1        1.96179  -0.00425   0.00000   0.00040   0.00040   1.96220
    A2        2.14163  -0.08040   0.00000  -0.00373  -0.00396   2.13767
    A3        2.08430   0.10532   0.00000   0.00013  -0.00010   2.08420
    A4        2.05726  -0.02492   0.00000   0.00358   0.00351   2.06078
    A5        2.05680   0.06356   0.00000   0.00133  -0.00030   2.05651
    A6        2.05783  -0.02967   0.00000   0.00431   0.00267   2.06050
    A7        2.16856  -0.03389   0.00000  -0.00555  -0.00715   2.16140
    A8        2.00454   0.00013   0.00000  -0.00077  -0.00077   2.00377
    A9        2.11224  -0.01254   0.00000  -0.00420  -0.00426   2.10798
   A10        2.12303   0.01991   0.00000  -0.00239  -0.00247   2.12056
   A11        2.04792  -0.00737   0.00000   0.00660   0.00653   2.05445
   A12        2.10623  -0.00159   0.00000   0.00123   0.00127   2.10750
   A13        2.06955   0.00348   0.00000  -0.00040  -0.00047   2.06907
   A14        2.10740  -0.00188   0.00000  -0.00083  -0.00080   2.10661
   A15        2.12381  -0.00659   0.00000   0.00153   0.00148   2.12529
   A16        2.07939   0.00458   0.00000  -0.00046  -0.00047   2.07892
   A17        2.07998   0.00201   0.00000  -0.00109  -0.00110   2.07888
   A18        2.10621  -0.00865   0.00000   0.00048   0.00043   2.10664
   A19        2.06976   0.01729   0.00000  -0.00121  -0.00114   2.06862
   A20        2.10722  -0.00864   0.00000   0.00073   0.00067   2.10789
   A21        2.12296  -0.00917   0.00000  -0.00104  -0.00126   2.12170
   A22        2.08417   0.07972   0.00000  -0.00285  -0.00329   2.08087
   A23        2.07606  -0.07055   0.00000   0.00385   0.00340   2.07946
    D1        3.13848   0.00029   0.00000   0.05877   0.05895  -3.08576
    D2       -0.00222  -0.00013   0.00000  -0.04256  -0.04274  -0.04496
    D3        3.12382  -0.00058   0.00000  -0.31899  -0.31889   2.80493
    D4       -0.01873  -0.00013   0.00000  -0.21066  -0.21082  -0.22955
    D5       -0.01851  -0.00070   0.00000  -0.35434  -0.35417  -0.37268
    D6        3.12213  -0.00024   0.00000  -0.24600  -0.24610   2.87603
    D7       -0.00251  -0.00001   0.00000  -0.02622  -0.02614  -0.02865
    D8        3.13870   0.00002   0.00000  -0.00429  -0.00426   3.13445
    D9        3.13981   0.00005   0.00000   0.00861   0.00869  -3.13469
   D10       -0.00217   0.00009   0.00000   0.03054   0.03057   0.02841
   D11       -3.13869   0.00005   0.00000   0.01482   0.01487  -3.12382
   D12        0.00190  -0.00018   0.00000  -0.03624  -0.03611  -0.03420
   D13        0.00220  -0.00009   0.00000  -0.01883  -0.01886  -0.01666
   D14       -3.14039  -0.00032   0.00000  -0.06989  -0.06984   3.07296
   D15        3.13211   0.00025   0.00000   0.02073   0.02068  -3.13039
   D16       -0.00852  -0.00026   0.00000  -0.08766  -0.08761  -0.09614
   D17       -3.14078  -0.00003   0.00000  -0.01768  -0.01769   3.12472
   D18        0.00047  -0.00002   0.00000  -0.01923  -0.01921  -0.01875
   D19        0.00045   0.00000   0.00000   0.00347   0.00354   0.00399
   D20       -3.14149   0.00001   0.00000   0.00192   0.00202  -3.13948
   D21        0.00130  -0.00003   0.00000  -0.00462  -0.00461  -0.00331
   D22       -3.13896  -0.00003   0.00000   0.00866   0.00867  -3.13029
   D23       -3.14064  -0.00002   0.00000  -0.00617  -0.00613   3.13641
   D24        0.00228  -0.00002   0.00000   0.00712   0.00715   0.00943
   D25        3.14053   0.00008   0.00000   0.02435   0.02436  -3.11829
   D26       -0.00127   0.00006   0.00000   0.01585   0.01585   0.01459
   D27       -0.00240   0.00008   0.00000   0.01105   0.01108   0.00869
   D28        3.13899   0.00006   0.00000   0.00256   0.00257   3.14157
   D29       -0.00054  -0.00001   0.00000  -0.00373  -0.00374  -0.00428
   D30       -3.14114   0.00013   0.00000   0.04711   0.04720  -3.09394
   D31        3.14085  -0.00004   0.00000  -0.01223  -0.01226   3.12860
   D32        0.00026   0.00011   0.00000   0.03861   0.03868   0.03894
         Item               Value     Threshold  Converged?
 Maximum Force            0.105319     0.000015     NO 
 RMS     Force            0.023913     0.000010     NO 
 Maximum Displacement     0.631529     0.000060     NO 
 RMS     Displacement     0.171534     0.000040     NO 
 Predicted change in Energy=-6.212125D-03
 GradGradGradGradGradGradGradGradGradGradGradGradGradGradGradGradGradGrad

                          Input orientation:                          
 ---------------------------------------------------------------------
 Center     Atomic      Atomic             Coordinates (Angstroms)
 Number     Number       Type             X           Y           Z
 ---------------------------------------------------------------------
      1          8           0        8.739424    7.290123    5.322070
      2          1           0        9.556221    6.968624    5.721092
      3          6           0        6.248386    6.995568    5.157717
      4          5           0        7.639610    6.626025    5.780744
      5          8           0        7.829657    5.601159    6.662652
      6          1           0        7.024204    5.159649    6.947915
      7          6           0        5.138722    6.148419    5.242283
      8          1           0        5.214650    5.179063    5.728486
      9          6           0        3.911569    6.500497    4.689309
     10          1           0        3.064555    5.828612    4.748309
     11          6           0        3.795764    7.734255    4.061501
     12          6           0        4.866279    8.616111    3.978305
     13          1           0        4.750850    9.582615    3.503677
     14          6           0        6.084862    8.234290    4.526935
     15          1           0        2.853263    8.018627    3.642278
     16         35           0        7.546272    9.463319    4.492571
 ---------------------------------------------------------------------
                    Distance matrix (angstroms):
                    1          2          3          4          5
     1  O    0.000000
     2  H    0.964229   0.000000
     3  C    2.513771   3.355576   0.000000
     4  B    1.364184   1.947904   1.568512   0.000000
     5  O    2.340392   2.395312   2.590295   1.365368   0.000000
     6  H    3.181865   3.344935   2.679049   1.972630   0.961800
     7  C    3.778215   4.518439   1.398631   2.602401   3.091613
     8  H    4.128653   4.695937   2.166583   2.824334   2.808753
     9  C    4.932755   5.757240   2.434176   3.886550   4.478203
    10  H    5.888068   6.662406   3.415579   4.757406   5.140295
    11  C    5.121139   6.043451   2.786163   4.354208   5.252464
    12  C    4.308735   5.267549   2.434624   3.860129   5.007721
    13  H    4.946796   5.902666   3.416324   4.719258   5.942236
    14  C    2.927523   3.883073   1.399663   2.564331   3.813001
    15  H    6.164358   7.096029   3.856172   5.424159   6.303278
    16  Br   2.614280   3.431131   2.866482   3.117425   4.439126
                    6          7          8          9         10
     6  H    0.000000
     7  C    2.727983   0.000000
     8  H    2.182171   1.087110   0.000000
     9  C    4.072797   1.391274   2.126992   0.000000
    10  H    4.578711   2.156027   2.450625   1.082748   0.000000
    11  C    5.038136   2.390117   3.364681   1.389140   2.153566
    12  C    5.042059   2.785924   3.872699   2.427513   3.407238
    13  H    6.049260   3.868708   4.955417   3.407281   4.299446
    14  C    4.024540   2.399534   3.396381   2.784888   3.867628
    15  H    6.041336   3.358723   4.241643   2.126265   2.462543
    16  Br   4.982253   4.164964   5.031778   4.693408   5.776009
                   11         12         13         14         15
    11  C    0.000000
    12  C    1.389459   0.000000
    13  H    2.154018   1.082924   0.000000
    14  C    2.388857   1.389866   2.155139   0.000000
    15  H    1.070011   2.126532   2.462946   3.357434   0.000000
    16  Br   4.152324   2.857375   2.967579   1.909820   4.983419
                   16
    16  Br   0.000000
 Symmetry turned off by external request.
 Stoichiometry    C6H6BBrO2
 Framework group  C1[X(C6H6BBrO2)]
 Deg. of freedom    42
 Full point group                 C1      NOp   1
 Rotational constants (GHZ):           1.1835338           0.9160016           0.5217848
 Standard basis: 6-311+G(d,p) (5D, 7F)
   282 basis functions,   466 primitive gaussians,   294 cartesian basis functions
    49 alpha electrons       49 beta electrons
       nuclear repulsion energy       740.0340610558 Hartrees.
 NAtoms=   16 NActive=   16 NUniq=   16 SFac= 1.00D+00 NAtFMM=   60 NAOKFM=F Big=F
 Integral buffers will be    131072 words long.
 Raffenetti 2 integral format.
 Two-electron integral symmetry is turned off.
 ------------------------------------------------------------------------------
 Polarizable Continuum Model (PCM)
 =================================
 Model                : PCM.
 Atomic radii         : SMD-Coulomb.
 Polarization charges : Total charges.
 Charge compensation  : None.
 Solution method      : Matrix inversion.
 Cavity type          : VdW (van der Waals Surface) (Alpha=1.000).
 Cavity algorithm     : GePol (No added spheres)
                        Default sphere list used, NSphG=   16.
                        Lebedev-Laikov grids with approx.  5.0 points / Ang**2.
                        Smoothing algorithm: York/Karplus (Gamma=1.0000).
                        Polarization charges: spherical gaussians, with
                                              point-specific exponents (IZeta= 3).
                        Self-potential: point-specific (ISelfS= 7).
                        Self-field    : sphere-specific E.n sum rule (ISelfD= 2).
 1st derivatives      : Analytical E(r).r(x)/FMM algorithm (CHGder, D1EAlg=3).
                        Cavity 1st derivative terms included.
 Solvent              : TetraHydroFuran, Eps=   7.425700 Eps(inf)=   1.974025
 ------------------------------------------------------------------------------
 Spheres list:
 ISph  on   Nord     Re0    Alpha      Xe            Ye            Ze
    1   O      1    2.2940  1.000      8.739424      7.290123      5.322070
    2   H      2    1.2000  1.000      9.556221      6.968624      5.721092
    3   C      3    1.8500  1.000      6.248386      6.995568      5.157717
    4   B      4    1.8000  1.000      7.639610      6.626025      5.780744
    5   O      5    2.2940  1.000      7.829657      5.601159      6.662652
    6   H      6    1.2000  1.000      7.024204      5.159649      6.947915
    7   C      7    1.8500  1.000      5.138722      6.148419      5.242283
    8   H      8    1.2000  1.000      5.214650      5.179063      5.728486
    9   C      9    1.8500  1.000      3.911569      6.500497      4.689309
   10   H     10    1.2000  1.000      3.064555      5.828612      4.748309
   11   C     11    1.8500  1.000      3.795764      7.734255      4.061501
   12   C     12    1.8500  1.000      4.866279      8.616111      3.978305
   13   H     13    1.2000  1.000      4.750850      9.582615      3.503677
   14   C     14    1.8500  1.000      6.084862      8.234290      4.526935
   15   H     15    1.2000  1.000      2.853263      8.018627      3.642278
   16  Br     16    3.0600  1.000      7.546272      9.463319      4.492571
 ------------------------------------------------------------------------------
 ------------------------------------------------------------------------------
 Atomic radii for non-electrostatic terms: SMD-CDS.
 ------------------------------------------------------------------------------
 Nuclear repulsion after PCM non-electrostatic terms =      740.0284948243 Hartrees.
 One-electron integrals computed using PRISM.
 NBasis=   282 RedAO= T EigKep=  1.51D-06  NBF=   282
 NBsUse=   282 1.00D-06 EigRej= -1.00D+00 NBFU=   282
 Initial guess from the checkpoint file:  "2-br-phboh2-opt-freq-thf.chk"
 B after Tr=     0.413325    0.249918   -0.753186
         Rot=    0.999642   -0.023449    0.007434   -0.010491 Ang=  -3.06 deg.
 ExpMin= 3.15D-02 ExpMax= 4.40D+05 ExpMxC= 1.51D+04 IAcc=3 IRadAn=         5 AccDes= 0.00D+00
 Harris functional with IExCor= 1009 and IRadAn=       5 diagonalized for initial guess.
 HarFok:  IExCor= 1009 AccDes= 0.00D+00 IRadAn=         5 IDoV= 1 UseB2=F ITyADJ=14
 ICtDFT=  3500011 ScaDFX=  1.000000  1.000000  1.000000  1.000000
 FoFCou: FMM=F IPFlag=           0 FMFlag=      100000 FMFlg1=           0
         NFxFlg=           0 DoJE=T BraDBF=F KetDBF=T FulRan=T
         wScrn=  0.000000 ICntrl=       500 IOpCl=  0 I1Cent=   200000004 NGrid=           0
         NMat0=    1 NMatS0=      1 NMatT0=    0 NMatD0=    1 NMtDS0=    0 NMtDT0=    0
 Symmetry not used in FoFCou.
 Requested convergence on RMS density matrix=1.00D-08 within 128 cycles.
 Requested convergence on MAX density matrix=1.00D-06.
 Requested convergence on             energy=1.00D-06.
 Level shift goal  0.100 maximum shift  0.100.
 No special actions if energy rises.
 Dynamic level shift is on during FON iterations.
 Inv3:  Mode=1 IEnd=     7357068.
 Iteration    1 A*A^-1 deviation from unit magnitude is 3.77D-15 for   1554.
 Iteration    1 A*A^-1 deviation from orthogonality  is 3.16D-15 for   1566   1496.
 Iteration    1 A^-1*A deviation from unit magnitude is 4.00D-15 for   1566.
 Iteration    1 A^-1*A deviation from orthogonality  is 2.78D-15 for   1557   1310.
 Error on total polarization charges =  0.01851
 SCF Done:  E(RM062X) =  -2981.79400605     A.U. after   15 cycles
            NFock= 15  Conv=0.27D-08     -V/T= 2.0015
 SMD-CDS (non-electrostatic) energy       (kcal/mol) =      -3.49
 (included in total energy above)
 D1PCM: PCM CHGder 1st derivatives, ID1Alg=3 FixD1E=F DoIter=F DoCFld=F I1PDM=0.
 Calling FoFJK, ICntrl=      2127 FMM=F ISym2X=0 I1Cent= 0 IOpClX= 0 NMat=1 NMatS=1 NMatT=0.
 -------------------------------------------------------------------
 Center     Atomic                   Forces (Hartrees/Bohr)
 Number     Number              X              Y              Z
 -------------------------------------------------------------------
      1        8           0.007437421   -0.019613350    0.011320070
      2        1           0.000497874   -0.001942100    0.001137540
      3        6           0.005280496    0.006239012    0.006154591
      4        5           0.006097640   -0.009944106   -0.007492908
      5        8          -0.000992441    0.000689033    0.002460030
      6        1          -0.000585885    0.000305668    0.000507593
      7        6          -0.003494332   -0.002877226   -0.002156221
      8        1           0.002419855    0.000746848    0.000389461
      9        6           0.006492129    0.001734884    0.001080829
     10        1          -0.000170897    0.000085991    0.000123607
     11        6           0.000710395   -0.001378615    0.001093564
     12        6           0.003673160    0.000581511    0.000590819
     13        1          -0.000089437   -0.000217531   -0.000075234
     14        6          -0.001773440   -0.002050760    0.001900679
     15        1          -0.008712904    0.003739494   -0.004750978
     16       35          -0.016789634    0.023901249   -0.012283443
 -------------------------------------------------------------------
 Cartesian Forces:  Max     0.023901249 RMS     0.006617465

 GradGradGradGradGradGradGradGradGradGradGradGradGradGradGradGradGradGrad
 Berny optimization.
 Using GEDIIS/GDIIS optimizer.
 FormGI is forming the generalized inverse of G from B-inverse, IUseBI=4.
 Internal  Forces:  Max     0.079026650 RMS     0.017826992
 Search for a local minimum.
 Step number   2 out of a maximum of   81
 All quantities printed in internal units (Hartrees-Bohrs-Radians)
 Mixed Optimization -- RFO/linear search
 Update second derivatives using D2CorX and points    1    2
 ITU=  0  0
 Use linear search instead of GDIIS.
     Eigenvalues ---   -0.03144  -0.00724   0.00938   0.01467   0.01620
     Eigenvalues ---    0.01835   0.02382   0.02422   0.02582   0.02699
     Eigenvalues ---    0.02824   0.04106   0.04678   0.09237   0.10599
     Eigenvalues ---    0.10915   0.11590   0.12162   0.12456   0.14596
     Eigenvalues ---    0.16130   0.17637   0.18223   0.18741   0.19345
     Eigenvalues ---    0.23490   0.26104   0.28418   0.35811   0.36638
     Eigenvalues ---    0.36695   0.37177   0.38466   0.39629   0.42188
     Eigenvalues ---    0.47594   0.47887   0.48612   0.51633   0.53443
     Eigenvalues ---    0.54421   1.59920
 RFO step:  Lambda=-3.25786188D-02 EMin=-3.14380452D-02
 I=     1 Eig=   -3.14D-02 Dot1= -2.69D-03
 I=     1 Stepn= -6.00D-01 RXN=   6.00D-01 EDone=F
 I=     2 Eig=   -7.24D-03 Dot1=  2.56D-04
 I=     2 Stepn=  3.00D-01 RXN=   6.71D-01 EDone=F
 Mixed    2 eigenvectors in step.  Raw Step.Grad=  2.94D-03.
 RFO eigenvector is Hessian eigenvector with negative curvature.
 Taking step of  6.00D-01 in eigenvector direction(s).  Step.Grad= -4.73D-02.
 Skip linear search -- no minimum in search direction.
 Iteration  1 RMS(Cart)=  0.12716876 RMS(Int)=  0.02366764
 Iteration  2 RMS(Cart)=  0.05417072 RMS(Int)=  0.00126983
 Iteration  3 RMS(Cart)=  0.00206337 RMS(Int)=  0.00031357
 Iteration  4 RMS(Cart)=  0.00000308 RMS(Int)=  0.00031356
 Iteration  5 RMS(Cart)=  0.00000000 RMS(Int)=  0.00031356
 Variable       Old X    -DE/DX   Delta X   Delta X   Delta X     New X
                                 (Linear)    (Quad)   (Total)
    R1        1.82213   0.00154   0.00000  -0.00077  -0.00077   1.82136
    R2        2.57793  -0.00829   0.00000   0.00084   0.00084   2.57878
    R3        2.96406   0.02138   0.00000  -0.00424  -0.00424   2.95982
    R4        2.64303   0.00487   0.00000  -0.00262  -0.00262   2.64041
    R5        2.64498   0.03737   0.00000  -0.00079  -0.00074   2.64424
    R6        2.58017   0.00096   0.00000  -0.00401  -0.00401   2.57616
    R7        1.81754   0.00051   0.00000   0.00144   0.00144   1.81897
    R8        2.05434  -0.00033   0.00000   0.00025   0.00025   2.05459
    R9        2.62913  -0.00348   0.00000   0.00156   0.00151   2.63064
   R10        2.04610   0.00008   0.00000   0.00014   0.00014   2.04624
   R11        2.62509  -0.00702   0.00000  -0.00005  -0.00010   2.62499
   R12        2.62570  -0.00455   0.00000   0.00194   0.00194   2.62764
   R13        2.02203   0.01053   0.00000   0.00001   0.00001   2.02204
   R14        2.04643  -0.00015   0.00000   0.00011   0.00011   2.04654
   R15        2.62647   0.00394   0.00000  -0.00141  -0.00136   2.62511
   R16        3.60904   0.00276   0.00000   0.00678   0.00678   3.61581
    A1        1.96220  -0.00300   0.00000   0.01386   0.01386   1.97606
    A2        2.13767  -0.05941   0.00000   0.01113   0.01100   2.14866
    A3        2.08420   0.07903   0.00000  -0.01663  -0.01674   2.06746
    A4        2.06078  -0.01960   0.00000   0.00476   0.00475   2.06553
    A5        2.05651   0.04374   0.00000  -0.03739  -0.03844   2.01806
    A6        2.06050  -0.02033   0.00000   0.01636   0.01514   2.07564
    A7        2.16140  -0.02357   0.00000   0.01294   0.01176   2.17317
    A8        2.00377  -0.00039   0.00000  -0.00893  -0.00893   1.99485
    A9        2.10798  -0.01004   0.00000  -0.00487  -0.00491   2.10307
   A10        2.12056   0.01489   0.00000  -0.00442  -0.00450   2.11607
   A11        2.05445  -0.00486   0.00000   0.00893   0.00888   2.06333
   A12        2.10750  -0.00175   0.00000   0.00034   0.00037   2.10787
   A13        2.06907   0.00370   0.00000   0.00056   0.00049   2.06957
   A14        2.10661  -0.00195   0.00000  -0.00090  -0.00087   2.10574
   A15        2.12529  -0.00629   0.00000   0.00167   0.00164   2.12693
   A16        2.07892   0.00439   0.00000  -0.00086  -0.00088   2.07804
   A17        2.07888   0.00189   0.00000  -0.00097  -0.00098   2.07790
   A18        2.10664  -0.00671   0.00000   0.00009   0.00003   2.10667
   A19        2.06862   0.01313   0.00000  -0.00246  -0.00238   2.06624
   A20        2.10789  -0.00642   0.00000   0.00229   0.00223   2.11013
   A21        2.12170  -0.00584   0.00000  -0.00078  -0.00100   2.12070
   A22        2.08087   0.05941   0.00000  -0.00680  -0.00721   2.07366
   A23        2.07946  -0.05367   0.00000   0.00537   0.00494   2.08441
    D1       -3.08576   0.00196   0.00000   0.04994   0.04958  -3.03618
    D2       -0.04496  -0.00109   0.00000  -0.03432  -0.03396  -0.07892
    D3        2.80493  -0.00748   0.00000  -0.31744  -0.31710   2.48783
    D4       -0.22955  -0.00477   0.00000  -0.22786  -0.22827  -0.45782
    D5       -0.37268  -0.00746   0.00000  -0.34210  -0.34170  -0.71437
    D6        2.87603  -0.00475   0.00000  -0.25252  -0.25287   2.62316
    D7       -0.02865   0.00169   0.00000  -0.01712  -0.01719  -0.04584
    D8        3.13445   0.00239   0.00000   0.00313   0.00296   3.13741
    D9       -3.13469  -0.00028   0.00000   0.00766   0.00781  -3.12688
   D10        0.02841   0.00042   0.00000   0.02790   0.02796   0.05637
   D11       -3.12382   0.00003   0.00000   0.00420   0.00400  -3.11982
   D12       -0.03420  -0.00382   0.00000  -0.04550  -0.04549  -0.07969
   D13       -0.01666  -0.00089   0.00000  -0.01922  -0.01925  -0.03591
   D14        3.07296  -0.00474   0.00000  -0.06892  -0.06875   3.00422
   D15       -3.13039  -0.00097   0.00000   0.01675   0.01763  -3.11276
   D16       -0.09614  -0.00003   0.00000  -0.07609  -0.07696  -0.17310
   D17        3.12472  -0.00029   0.00000  -0.01485  -0.01486   3.10986
   D18       -0.01875   0.00011   0.00000  -0.01607  -0.01610  -0.03485
   D19        0.00399   0.00046   0.00000   0.00496   0.00501   0.00900
   D20       -3.13948   0.00086   0.00000   0.00373   0.00377  -3.13571
   D21       -0.00331  -0.00059   0.00000  -0.00514  -0.00511  -0.00842
   D22       -3.13029  -0.00036   0.00000   0.00717   0.00720  -3.12309
   D23        3.13641  -0.00019   0.00000  -0.00637  -0.00635   3.13006
   D24        0.00943   0.00004   0.00000   0.00594   0.00596   0.01539
   D25       -3.11829   0.00058   0.00000   0.02342   0.02343  -3.09487
   D26        0.01459   0.00000   0.00000   0.01352   0.01356   0.02814
   D27        0.00869   0.00037   0.00000   0.01111   0.01112   0.01981
   D28        3.14157  -0.00021   0.00000   0.00122   0.00125  -3.14037
   D29       -0.00428   0.00088   0.00000  -0.00100  -0.00107  -0.00535
   D30       -3.09394   0.00145   0.00000   0.04901   0.04908  -3.04486
   D31        3.12860   0.00031   0.00000  -0.01091  -0.01097   3.11763
   D32        0.03894   0.00087   0.00000   0.03910   0.03917   0.07811
         Item               Value     Threshold  Converged?
 Maximum Force            0.079027     0.000015     NO 
 RMS     Force            0.017827     0.000010     NO 
 Maximum Displacement     0.614262     0.000060     NO 
 RMS     Displacement     0.175137     0.000040     NO 
 Predicted change in Energy=-7.418099D-03
 GradGradGradGradGradGradGradGradGradGradGradGradGradGradGradGradGradGrad

                          Input orientation:                          
 ---------------------------------------------------------------------
 Center     Atomic      Atomic             Coordinates (Angstroms)
 Number     Number       Type             X           Y           Z
 ---------------------------------------------------------------------
      1          8           0        8.729138    7.068947    5.087460
      2          1           0        9.563606    6.758067    5.456201
      3          6           0        6.248649    6.982250    5.149990
      4          5           0        7.638446    6.633999    5.782745
      5          8           0        7.819851    5.767266    6.819234
      6          1           0        7.004908    5.484702    7.246488
      7          6           0        5.155515    6.112625    5.183124
      8          1           0        5.250370    5.123689    5.624824
      9          6           0        3.935607    6.464267    4.612124
     10          1           0        3.102157    5.773000    4.616402
     11          6           0        3.808398    7.723360    4.039355
     12          6           0        4.857657    8.635749    4.031757
     13          1           0        4.724740    9.627881    3.618408
     14          6           0        6.071489    8.250943    4.586971
     15          1           0        2.869010    8.008164    3.613475
     16         35           0        7.484749    9.532044    4.737288
 ---------------------------------------------------------------------
                    Distance matrix (angstroms):
                    1          2          3          4          5
     1  O    0.000000
     2  H    0.963821   0.000000
     3  C    2.482792   3.336609   0.000000
     4  B    1.364629   1.956595   1.566268   0.000000
     5  O    2.349515   2.424918   2.594463   1.363247   0.000000
     6  H    3.184997   3.372465   2.685122   1.965908   0.962559
     7  C    3.700607   4.463455   1.397243   2.606976   3.145603
     8  H    4.021768   4.615586   2.162471   2.829997   2.905691
     9  C    4.854846   5.698522   2.430591   3.887182   4.521560
    10  H    5.793470   6.589836   3.412831   4.762310   5.206644
    11  C    5.073507   6.005136   2.781651   4.346882   5.257926
    12  C    4.307871   5.263144   2.432974   3.847825   4.977231
    13  H    4.974079   5.918440   3.415758   4.705037   5.893162
    14  C    2.951390   3.896039   1.399270   2.549458   3.769406
    15  H    6.115216   7.055211   3.851667   5.416788   6.309465
    16  Br   2.781721   3.540258   2.863514   3.084683   4.315131
                    6          7          8          9         10
     6  H    0.000000
     7  C    2.841128   0.000000
     8  H    2.416304   1.087240   0.000000
     9  C    4.161734   1.392074   2.133381   0.000000
    10  H    4.715075   2.157034   2.460354   1.082824   0.000000
    11  C    5.051234   2.391108   3.369167   1.389086   2.153060
    12  C    4.987412   2.789359   3.876423   2.429472   3.408654
    13  H    5.960542   3.871812   4.958805   3.408615   4.299870
    14  C    3.949226   2.401418   3.395746   2.784750   3.867558
    15  H    6.055765   3.359312   4.246952   2.125688   2.460931
    16  Br   4.786158   4.161314   5.021332   4.692903   5.775132
                   11         12         13         14         15
    11  C    0.000000
    12  C    1.390488   0.000000
    13  H    2.155013   1.082982   0.000000
    14  C    2.387427   1.389146   2.155877   0.000000
    15  H    1.070018   2.126861   2.463177   3.355966   0.000000
    16  Br   4.156201   2.864042   2.979720   1.913406   4.989010
                   16
    16  Br   0.000000
 Symmetry turned off by external request.
 Stoichiometry    C6H6BBrO2
 Framework group  C1[X(C6H6BBrO2)]
 Deg. of freedom    42
 Full point group                 C1      NOp   1
 Rotational constants (GHZ):           1.1676172           0.9110800           0.5312727
 Standard basis: 6-311+G(d,p) (5D, 7F)
   282 basis functions,   466 primitive gaussians,   294 cartesian basis functions
    49 alpha electrons       49 beta electrons
       nuclear repulsion energy       737.8631823136 Hartrees.
 NAtoms=   16 NActive=   16 NUniq=   16 SFac= 1.00D+00 NAtFMM=   60 NAOKFM=F Big=F
 Integral buffers will be    131072 words long.
 Raffenetti 2 integral format.
 Two-electron integral symmetry is turned off.
 ------------------------------------------------------------------------------
 Polarizable Continuum Model (PCM)
 =================================
 Model                : PCM.
 Atomic radii         : SMD-Coulomb.
 Polarization charges : Total charges.
 Charge compensation  : None.
 Solution method      : Matrix inversion.
 Cavity type          : VdW (van der Waals Surface) (Alpha=1.000).
 Cavity algorithm     : GePol (No added spheres)
                        Default sphere list used, NSphG=   16.
                        Lebedev-Laikov grids with approx.  5.0 points / Ang**2.
                        Smoothing algorithm: York/Karplus (Gamma=1.0000).
                        Polarization charges: spherical gaussians, with
                                              point-specific exponents (IZeta= 3).
                        Self-potential: point-specific (ISelfS= 7).
                        Self-field    : sphere-specific E.n sum rule (ISelfD= 2).
 1st derivatives      : Analytical E(r).r(x)/FMM algorithm (CHGder, D1EAlg=3).
                        Cavity 1st derivative terms included.
 Solvent              : TetraHydroFuran, Eps=   7.425700 Eps(inf)=   1.974025
 ------------------------------------------------------------------------------
 Spheres list:
 ISph  on   Nord     Re0    Alpha      Xe            Ye            Ze
    1   O      1    2.2940  1.000      8.729138      7.068947      5.087460
    2   H      2    1.2000  1.000      9.563606      6.758067      5.456201
    3   C      3    1.8500  1.000      6.248649      6.982250      5.149990
    4   B      4    1.8000  1.000      7.638446      6.633999      5.782745
    5   O      5    2.2940  1.000      7.819851      5.767266      6.819234
    6   H      6    1.2000  1.000      7.004908      5.484702      7.246488
    7   C      7    1.8500  1.000      5.155515      6.112625      5.183124
    8   H      8    1.2000  1.000      5.250370      5.123689      5.624824
    9   C      9    1.8500  1.000      3.935607      6.464267      4.612124
   10   H     10    1.2000  1.000      3.102157      5.773000      4.616402
   11   C     11    1.8500  1.000      3.808398      7.723360      4.039355
   12   C     12    1.8500  1.000      4.857657      8.635749      4.031757
   13   H     13    1.2000  1.000      4.724740      9.627881      3.618408
   14   C     14    1.8500  1.000      6.071489      8.250943      4.586971
   15   H     15    1.2000  1.000      2.869010      8.008164      3.613475
   16  Br     16    3.0600  1.000      7.484749      9.532044      4.737288
 ------------------------------------------------------------------------------
 ------------------------------------------------------------------------------
 Atomic radii for non-electrostatic terms: SMD-CDS.
 ------------------------------------------------------------------------------
 Nuclear repulsion after PCM non-electrostatic terms =      737.8574561778 Hartrees.
 One-electron integrals computed using PRISM.
 NBasis=   282 RedAO= T EigKep=  1.57D-06  NBF=   282
 NBsUse=   282 1.00D-06 EigRej= -1.00D+00 NBFU=   282
 Initial guess from the checkpoint file:  "2-br-phboh2-opt-freq-thf.chk"
 B after Tr=     0.402196    0.283265   -0.797432
         Rot=    0.999612   -0.024799    0.008496   -0.009377 Ang=  -3.19 deg.
 ExpMin= 3.15D-02 ExpMax= 4.40D+05 ExpMxC= 1.51D+04 IAcc=3 IRadAn=         5 AccDes= 0.00D+00
 Harris functional with IExCor= 1009 and IRadAn=       5 diagonalized for initial guess.
 HarFok:  IExCor= 1009 AccDes= 0.00D+00 IRadAn=         5 IDoV= 1 UseB2=F ITyADJ=14
 ICtDFT=  3500011 ScaDFX=  1.000000  1.000000  1.000000  1.000000
 FoFCou: FMM=F IPFlag=           0 FMFlag=      100000 FMFlg1=           0
         NFxFlg=           0 DoJE=T BraDBF=F KetDBF=T FulRan=T
         wScrn=  0.000000 ICntrl=       500 IOpCl=  0 I1Cent=   200000004 NGrid=           0
         NMat0=    1 NMatS0=      1 NMatT0=    0 NMatD0=    1 NMtDS0=    0 NMtDT0=    0
 Symmetry not used in FoFCou.
 Requested convergence on RMS density matrix=1.00D-08 within 128 cycles.
 Requested convergence on MAX density matrix=1.00D-06.
 Requested convergence on             energy=1.00D-06.
 Level shift goal  0.100 maximum shift  0.100.
 No special actions if energy rises.
 Dynamic level shift is on during FON iterations.
 Inv3:  Mode=1 IEnd=     7375872.
 Iteration    1 A*A^-1 deviation from unit magnitude is 3.55D-15 for   1561.
 Iteration    1 A*A^-1 deviation from orthogonality  is 1.31D-15 for    597    227.
 Iteration    1 A^-1*A deviation from unit magnitude is 3.33D-15 for   1561.
 Iteration    1 A^-1*A deviation from orthogonality  is 1.53D-15 for   1475     76.
 Error on total polarization charges =  0.01823
 SCF Done:  E(RM062X) =  -2981.79814030     A.U. after   14 cycles
            NFock= 14  Conv=0.38D-08     -V/T= 2.0015
 SMD-CDS (non-electrostatic) energy       (kcal/mol) =      -3.59
 (included in total energy above)
 D1PCM: PCM CHGder 1st derivatives, ID1Alg=3 FixD1E=F DoIter=F DoCFld=F I1PDM=0.
 Calling FoFJK, ICntrl=      2127 FMM=F ISym2X=0 I1Cent= 0 IOpClX= 0 NMat=1 NMatS=1 NMatT=0.
 -------------------------------------------------------------------
 Center     Atomic                   Forces (Hartrees/Bohr)
 Number     Number              X              Y              Z
 -------------------------------------------------------------------
      1        8           0.004982372   -0.010385861    0.007802111
      2        1           0.000389707   -0.000724860    0.001366429
      3        6           0.002512388    0.010508961    0.010741958
      4        5           0.006935145   -0.017732054   -0.014995430
      5        8          -0.000829414    0.002830520    0.003934700
      6        1          -0.000382928    0.000509992    0.000342370
      7        6          -0.002342858   -0.004113072   -0.003924154
      8        1           0.002215806    0.001328985    0.000640542
      9        6           0.006379044    0.002357586    0.000813810
     10        1          -0.000231591    0.000163698    0.000326376
     11        6           0.000420896   -0.001588802    0.001206402
     12        6           0.004031461    0.000704007    0.000550688
     13        1          -0.000116947   -0.000219182   -0.000278354
     14        6          -0.004503992   -0.002060710    0.002685608
     15        1          -0.008616826    0.003753590   -0.004898252
     16       35          -0.010842262    0.014667203   -0.006314804
 -------------------------------------------------------------------
 Cartesian Forces:  Max     0.017732054 RMS     0.005898997

 GradGradGradGradGradGradGradGradGradGradGradGradGradGradGradGradGradGrad
 Berny optimization.
 Using GEDIIS/GDIIS optimizer.
 FormGI is forming the generalized inverse of G from B-inverse, IUseBI=4.
 Internal  Forces:  Max     0.049968578 RMS     0.011131718
 Search for a local minimum.
 Step number   3 out of a maximum of   81
 All quantities printed in internal units (Hartrees-Bohrs-Radians)
 Mixed Optimization -- RFO/linear search
 Update second derivatives using D2CorX and points    2    3
 ITU=  0  0  0
 Use linear search instead of GDIIS.
     Eigenvalues ---   -1.05451  -0.00806   0.00311   0.00938   0.01468
     Eigenvalues ---    0.01676   0.01835   0.02384   0.02423   0.02591
     Eigenvalues ---    0.02808   0.02823   0.04621   0.06430   0.09344
     Eigenvalues ---    0.10599   0.10918   0.11595   0.12165   0.12466
     Eigenvalues ---    0.14585   0.16136   0.17615   0.18143   0.18758
     Eigenvalues ---    0.19320   0.23490   0.26687   0.28537   0.35825
     Eigenvalues ---    0.36652   0.36712   0.37174   0.39212   0.40007
     Eigenvalues ---    0.42182   0.47654   0.47889   0.48645   0.51680
     Eigenvalues ---    0.53455   0.54422
 RFO step:  Lambda=-1.06167300D+00 EMin=-1.05451166D+00
 I=     1 Eig=   -1.05D+00 Dot1=  5.23D-02
 I=     1 Stepn=  6.00D-01 RXN=   6.00D-01 EDone=F
 I=     2 Eig=   -8.06D-03 Dot1=  8.21D-04
 I=     2 Stepn=  3.00D-01 RXN=   6.71D-01 EDone=F
 Mixed    2 eigenvectors in step.  Raw Step.Grad=  5.31D-02.
 RFO eigenvector is Hessian eigenvector with negative curvature.
 Taking step of  6.00D-01 in eigenvector direction(s).  Step.Grad= -2.36D-03.
 Skip linear search -- no minimum in search direction.
 Maximum step size (   0.300) exceeded in Quadratic search.
    -- Step size not scaled.
 Iteration  1 RMS(Cart)=  0.24468356 RMS(Int)=  0.02556568
 Iteration  2 RMS(Cart)=  0.08360140 RMS(Int)=  0.00329670
 Iteration  3 RMS(Cart)=  0.00366260 RMS(Int)=  0.00249843
 Iteration  4 RMS(Cart)=  0.00001137 RMS(Int)=  0.00249842
 Iteration  5 RMS(Cart)=  0.00000012 RMS(Int)=  0.00249842
 Variable       Old X    -DE/DX   Delta X   Delta X   Delta X     New X
                                 (Linear)    (Quad)   (Total)
    R1        1.82136   0.00109   0.00000   0.00160   0.00160   1.82296
    R2        2.57878  -0.00390   0.00000  -0.04449  -0.04449   2.53429
    R3        2.95982   0.01490   0.00000   0.04401   0.04401   3.00383
    R4        2.64041   0.00264   0.00000   0.02063   0.02088   2.66129
    R5        2.64424   0.02257   0.00000   0.10472   0.10495   2.74919
    R6        2.57616   0.00096   0.00000   0.00532   0.00532   2.58149
    R7        1.81897   0.00032   0.00000   0.00040   0.00040   1.81937
    R8        2.05459  -0.00075   0.00000   0.00736   0.00736   2.06195
    R9        2.63064  -0.00145   0.00000  -0.01927  -0.01946   2.61117
   R10        2.04624   0.00008   0.00000  -0.00005  -0.00005   2.04619
   R11        2.62499  -0.00363   0.00000  -0.02563  -0.02602   2.59897
   R12        2.62764  -0.00248   0.00000  -0.01562  -0.01572   2.61192
   R13        2.02204   0.01051   0.00000   0.00030   0.00030   2.02234
   R14        2.04654  -0.00009   0.00000  -0.00095  -0.00095   2.04559
   R15        2.62511   0.00221   0.00000   0.01573   0.01590   2.64101
   R16        3.61581   0.00131   0.00000   0.01096   0.01096   3.62677
    A1        1.97606  -0.00205   0.00000  -0.01484  -0.01484   1.96122
    A2        2.14866  -0.03609   0.00000  -0.21782  -0.21830   1.93036
    A3        2.06746   0.04997   0.00000   0.26663   0.26652   2.33398
    A4        2.06553  -0.01382   0.00000  -0.04713  -0.04702   2.01851
    A5        2.01806   0.02608   0.00000   0.16612   0.16473   2.18279
    A6        2.07564  -0.01180   0.00000  -0.08001  -0.08022   1.99542
    A7        2.17317  -0.01409   0.00000  -0.09871  -0.09897   2.07420
    A8        1.99485  -0.00050   0.00000   0.00866   0.00866   2.00351
    A9        2.10307  -0.00711   0.00000  -0.02475  -0.02497   2.07810
   A10        2.11607   0.00908   0.00000   0.05651   0.05672   2.17278
   A11        2.06333  -0.00199   0.00000  -0.03240  -0.03244   2.03089
   A12        2.10787  -0.00197   0.00000   0.00573   0.00599   2.11387
   A13        2.06957   0.00407   0.00000  -0.01187  -0.01244   2.05713
   A14        2.10574  -0.00210   0.00000   0.00616   0.00643   2.11217
   A15        2.12693  -0.00606   0.00000  -0.00576  -0.00617   2.12077
   A16        2.07804   0.00429   0.00000   0.00303   0.00326   2.08130
   A17        2.07790   0.00177   0.00000   0.00239   0.00253   2.08043
   A18        2.10667  -0.00431   0.00000  -0.02344  -0.02337   2.08330
   A19        2.06624   0.00810   0.00000   0.05085   0.05083   2.11706
   A20        2.11013  -0.00380   0.00000  -0.02773  -0.02786   2.08226
   A21        2.12070  -0.00138   0.00000  -0.04361  -0.04343   2.07727
   A22        2.07366   0.03499   0.00000   0.22388   0.22120   2.29486
   A23        2.08441  -0.03371   0.00000  -0.18654  -0.18587   1.89853
    D1       -3.03618   0.00000   0.00000   0.06702   0.06879  -2.96739
    D2       -0.07892  -0.00041   0.00000  -0.01361  -0.01539  -0.09431
    D3        2.48783  -0.00636   0.00000   0.00038   0.00003   2.48787
    D4       -0.45782  -0.00655   0.00000   0.08152   0.08369  -0.37413
    D5       -0.71437  -0.00556   0.00000   0.03247   0.03030  -0.68407
    D6        2.62316  -0.00576   0.00000   0.11361   0.11396   2.73712
    D7       -0.04584   0.00255   0.00000   0.04469   0.04015  -0.00569
    D8        3.13741   0.00293   0.00000   0.06394   0.05774  -3.08803
    D9       -3.12688  -0.00034   0.00000   0.00233   0.00392  -3.12296
   D10        0.05637   0.00004   0.00000   0.02158   0.02151   0.07788
   D11       -3.11982  -0.00071   0.00000  -0.05572  -0.05750   3.10587
[...]
     1         -2.03503996         -8.72770376        -20.19334323
     6         -2.92051801        -12.82114748        -15.44945368
     5         -2.63328525        -11.77728185        -18.23931388
     8         -2.76432841        -13.14161142        -20.41538765
     1         -3.07447341        -14.91590592        -20.16971257
     6         -2.62371690        -11.03838489        -13.50063228
     1         -2.23105164         -9.09864855        -14.02509428
     6         -2.81338512        -11.67468164        -10.96305851
     1         -2.57002973        -10.23764234         -9.52512170
     6         -3.31547126        -14.16138662        -10.28113777
     6         -3.62535837        -15.99017055        -12.14022849
     1         -4.01688866        -17.93159370        -11.62799215
     6         -3.42513722        -15.29285095        -14.66355679
     1         -3.46904576        -14.69493778         -8.30977437
    35         -3.90613839        -18.00489221        -17.04351213

 Electric dipole moment (dipole orientation):
 (Debye = 10**-18 statcoulomb cm , SI units = C m)
                  (au)            (Debye)         (10**-30 SI)
   Tot        0.765226D+00      0.194501D+01      0.648786D+01
   x          0.000000D+00      0.000000D+00      0.000000D+00
   y          0.000000D+00      0.000000D+00      0.000000D+00
   z          0.765226D+00      0.194501D+01      0.648786D+01

 Dipole polarizability, Alpha (dipole orientation).
 (esu units = cm**3 , SI units = C**2 m**2 J**-1)
 Alpha(0;0):
               (au)            (10**-24 esu)      (10**-40 SI)
   iso        0.132859D+03      0.196876D+02      0.219054D+02
   aniso      0.859026D+02      0.127294D+02      0.141634D+02
   xx         0.795880D+02      0.117937D+02      0.131223D+02
   yx         0.150138D+02      0.222482D+01      0.247545D+01
   yy         0.155049D+03      0.229759D+02      0.255642D+02
   zx        -0.651412D+00     -0.965293D-01     -0.107403D+00
   zy         0.926400D+01      0.137278D+01      0.152743D+01
   zz         0.163939D+03      0.242933D+02      0.270299D+02

 ----------------------------------------------------------------------
 Unable to Open any file for archive entry.
 1\1\GINC-CN011\Freq\RM062X\6-311+G(d,p)\C6H6B1Br1O2\TAHMINAAFROZ\30-Ap
 r-2025\0\\#N Geom=AllCheck Guess=TCheck SCRF=Check GenChk RM062X/6-311
 +G(d,p) Freq\\2-br-phboh2-opt-freq-thf\\0,1\O,7.8585083965,5.153851796
 7,5.6847714115\H,8.7072600712,4.9035468228,6.0676732144\C,6.2589311724
 ,7.0120271595,5.1880745448\B,7.6273627998,6.4950760281,5.7946597957\O,
 8.585304393,7.2469764038,6.4021665245\H,8.3775288549,8.1846208394,6.45
 74231123\C,5.4520952159,6.0405483313,4.568855035\H,5.8110919243,5.0184
 892355,4.5502356201\C,4.2284843766,6.3445382948,3.9883391012\H,3.64045
 00352,5.5632067229,3.5218558203\C,3.7641863796,7.6546598647,4.00912149
 73\C,4.5259110087,8.6493796361,4.6104371987\H,4.1728297407,9.672486195
 7,4.6316877425\C,5.746180576,8.3128377412,5.1832080302\H,2.8116735106,
 7.9116207358,3.560479153\Br,6.6964891045,9.7830892516,5.9868578184\\Ve
 rsion=AS64L-G16RevC.01\HF=-2981.8110644\RMSD=4.391e-09\RMSF=4.129e-06\
 ZeroPoint=0.1156081\Thermal=0.1247759\ETot=-2981.6862885\HTot=-2981.68
 53444\GTot=-2981.7318333\Dipole=-0.6663373,-0.0194126,-0.3757512\Dipol
 eDeriv=-0.8878896,0.4054283,-0.0635783,0.4921717,-1.5833196,0.0885662,
 -0.0507322,0.0409326,-0.6490744,0.3575381,-0.0684514,-0.0272312,-0.085
 6976,0.4362927,-0.0350564,-0.0270039,-0.0273105,0.3712361,-0.7698944,0
 .0300916,-0.2993795,0.0955639,-0.5380666,-0.0239783,-0.2910828,-0.0537
 375,-0.3471851,1.9453354,-0.1956023,0.6112017,-0.3390214,2.0452333,0.0
 570996,0.585887,0.130921,0.9908384,-1.2684647,-0.2703525,-0.383119,-0.
 1162485,-1.1057178,-0.1493317,-0.3500432,-0.2234156,-0.8107972,0.51083
 64,-0.0704438,0.0758189,-0.1130978,0.4654928,-0.0251483,0.0615557,-0.0
 042899,0.3535788,0.0415712,-0.0565012,0.0806637,-0.0046021,0.0193664,0
 .026772,0.0890854,-0.0002094,-0.0851679,0.1221377,0.0244966,-0.0138202
 ,0.016348,-0.0079782,-0.0251772,-0.0150564,-0.0188153,0.1475783,-0.095
 19,0.1437216,0.066779,0.0462833,-0.0916138,0.0397359,0.0475673,0.09154
 29,-0.1265749,0.0702484,-0.0613721,-0.0706281,-0.0636293,0.0276236,-0.
 0638984,-0.0715915,-0.0637198,0.1315335,0.0429884,-0.0740329,0.0719909
 ,0.0921256,0.1357104,0.1005662,0.1040596,0.0139155,-0.062603,-0.357522
 2,-0.1528242,-0.1359951,-0.2029586,-0.2045191,-0.1171822,-0.1452062,-0
 .0901538,-0.2501281,0.1310785,0.0024665,-0.0243215,0.034275,0.0075538,
 -0.0169986,-0.0170478,-0.0382509,0.162026,0.5126514,0.5292357,0.389940
 6,0.3456361,0.8926238,0.3718745,0.3606761,0.4662865,0.2593041,-0.00096
 79,0.0304183,-0.0862002,0.0271587,0.0905239,-0.0029018,-0.0863105,-0.0
 010587,0.1296526,-0.3544568,-0.2162783,-0.1921217,-0.2243072,-0.589205
 6,-0.2249417,-0.1947567,-0.2226371,-0.2142174\Polar=144.1002898,1.4265
 345,155.952456,35.4796919,16.721437,98.5235111\Quadrupole=-4.7637847,7
 .4371335,-2.6733488,-11.2577999,-7.0553255,-5.2492845\PG=C01 [X(C6H6B1
 Br1O2)]\NImag=0\\0.49425647,-0.15711369,0.45349380,0.20489206,-0.00817
 583,0.13479453,-0.40581707,0.12358219,-0.17640367,0.41262628,0.0912894
 9,-0.06197067,0.03743529,-0.12583442,0.07621694,-0.18181478,0.05360320
 ,-0.09424672,0.18067759,-0.05191660,0.09145638,-0.00752452,0.01386990,
 -0.00587945,0.00194993,-0.00038719,-0.00098176,0.50816422,0.02920405,-
 0.01780102,0.01023807,0.00021870,-0.00355479,-0.00117295,-0.05689173,0
 .61022059,-0.00319154,0.00253653,0.00738930,-0.00086056,-0.00144502,0.
 00313100,0.18980146,0.06789900,0.23502303,-0.08024396,0.03638225,-0.01
 000094,-0.00708389,0.03643753,0.00148234,-0.15043185,0.02807121,-0.041
 05538,0.45218869,0.06191285,-0.31428419,-0.01359553,0.00793587,-0.0167
 5689,0.00074269,0.03301111,-0.07913163,0.01343934,0.00411099,0.5847162
 9,-0.00573646,-0.02657444,-0.05547539,-0.00333584,0.01510084,0.0030961
 9,-0.03972753,0.01075539,-0.07935267,0.15684753,0.07709740,0.23509276,
 0.01103537,-0.01762784,-0.00362120,-0.00139271,-0.00119855,0.00037194,
 -0.01376827,-0.01407256,-0.01726495,-0.21079678,-0.08057588,-0.0982739
 3,0.27571011,-0.02855442,-0.06244021,-0.02697944,-0.00573718,0.0058550
 8,-0.00143762,0.00021662,0.00907480,-0.00097880,-0.10916983,-0.1486800
 5,-0.07278135,0.01505235,0.69827548,-0.00546469,-0.02125803,0.00571197
 ,-0.00038641,0.00077666,-0.00260672,-0.01517302,-0.00813798,0.00715978
 ,-0.10304456,-0.05873546,-0.10369261,0.12712025,0.12176194,0.11184334,
 -0.00100659,-0.00430970,-0.00444706,-0.00070555,-0.00001605,0.00009963
 ,-0.00043443,0.00154808,0.00117059,0.00737213,-0.02449350,0.00094734,-
 0.05320084,0.12094108,-0.00085303,0.05123663,-0.00033714,0.00460935,-0
 .00048862,-0.00007997,-0.00054226,0.00002034,0.00130882,0.00084302,0.0
 0106617,-0.00278287,-0.02486770,-0.00509403,0.09390530,-0.49316160,-0.
 03482458,-0.09503994,0.51599426,-0.00371789,-0.00241190,0.00411816,0.0
 0009679,0.00003867,-0.00085582,0.00108925,0.00122175,-0.00142557,0.004
 43126,-0.01600802,-0.00326585,-0.00536010,-0.02120226,-0.01702760,0.00
 445177,0.03820546,0.01883719,-0.00377791,-0.00003017,-0.00167843,0.000
 36714,-0.00104247,0.00000562,-0.17106762,-0.04007652,-0.06605304,-0.01
 419255,-0.01269511,-0.01168767,-0.00381163,0.00123703,-0.00197888,0.00
 011337,0.00077724,0.00021686,0.57696669,0.00152489,-0.00414829,0.00016
 155,-0.00024371,-0.00028253,-0.00018124,-0.09689755,-0.20602625,-0.079
 86197,-0.00347749,0.01430343,0.00035198,0.00521047,-0.00027468,0.00236
 688,-0.00006767,-0.00128108,-0.00025772,-0.08233093,0.70311692,-0.0015
 1888,-0.00070473,-0.00140142,0.00014938,-0.00063596,-0.00004772,-0.077
 35832,-0.05005296,-0.11179983,-0.00959535,-0.00447544,-0.00277181,-0.0
 0137917,0.00040041,0.00019141,0.00008577,0.00017406,-0.00001919,0.2101
 3281,0.06958583,0.26855235,-0.00210554,0.00029399,-0.00115484,-0.00016
 948,0.00036374,0.00015803,0.00801105,-0.01690285,-0.00042492,-0.000829
 69,-0.00289078,0.00054021,0.00045177,0.00076372,0.00006732,0.00013140,
 -0.00013094,0.00006734,-0.08504210,0.09225696,-0.00415156,0.08756157,0
 .00222198,0.00047372,0.00117777,0.00013109,0.00045152,0.00022982,0.006
 35485,-0.01610383,-0.00038955,0.00018013,-0.00219134,0.00028777,0.0000
 1096,0.00050710,-0.00000888,0.00012540,-0.00011253,0.00004784,0.090904
 89,-0.31477319,-0.00754764,-0.09802866,0.33139977,-0.00077134,0.000195
 12,-0.00033200,0.00010772,0.00036421,-0.00018222,0.00433798,-0.0126375
 2,0.00202959,0.00109486,-0.00136307,-0.00258027,0.00001969,0.00044051,
 0.00060800,0.00012486,-0.00009377,-0.00001679,-0.00450519,-0.00688312,
 -0.04491955,0.01144620,0.00991874,0.03576701,0.00093377,-0.00002955,0.
 00054292,-0.00007169,0.00000573,-0.00007520,-0.02743791,-0.05688214,-0
 .03081484,0.00166441,-0.00418303,-0.00324503,-0.00145340,-0.00006835,-
 0.00006530,0.00027171,0.00026776,0.00007046,-0.28794174,0.07990468,-0.
 10001978,-0.00407770,-0.00036319,-0.00502282,0.58975418,0.00074618,0.0
 0057402,0.00044619,0.00009298,0.00033342,0.00013119,-0.00999013,0.0547
 8356,0.00376628,-0.00155012,-0.00236718,-0.00248938,-0.00111893,0.0011
 9652,-0.00001040,0.00036726,-0.00020216,0.00007626,0.01297590,-0.14079
 612,-0.00820773,0.02598934,-0.00063198,0.01245698,-0.01139494,0.707270
 11,0.00070105,0.00004011,0.00036080,-0.00004677,0.00006362,0.00001100,
 -0.02143831,-0.02060499,-0.00576923,-0.00269875,-0.00391002,0.00395688
 ,-0.00036557,0.00043950,-0.00140380,0.00010616,0.00008584,0.00027408,-
 0.11356935,0.02686810,-0.12060391,0.00032876,-0.00139251,0.00520997,0.
 23536307,0.10905092,0.28270351,-0.00017313,0.00036690,-0.00004586,0.00
 002471,-0.00002302,-0.00000553,-0.00242537,0.00225796,-0.00468048,0.00
 045586,-0.00125570,-0.00001509,-0.00069617,0.00001300,-0.00028407,0.00
 006569,0.00014247,0.00004700,-0.00980244,-0.02079152,-0.01128816,0.000
 05204,-0.00025738,0.00223721,-0.13923488,-0.11159354,-0.07528438,0.141
 22170,-0.00008616,0.00004846,-0.00004551,0.00001383,-0.00000699,0.,0.0
 0232520,0.00125785,-0.00001927,0.00026473,0.00021348,0.00018832,0.0000
 6772,-0.00001747,0.00004634,0.00001982,-0.00004416,-0.00000231,0.00603
 524,0.00919699,0.00428344,-0.00080936,0.00041091,0.00053278,-0.1115887
 8,-0.20854564,-0.09283514,0.11804040,0.21663127,-0.00014146,0.00019926
 ,0.00001223,0.00000155,-0.00002119,0.00002441,-0.00466495,-0.00008268,
 0.00487679,0.00029625,-0.00061721,0.00001626,-0.00030265,0.00002851,-0
 .00023937,0.00003265,0.00006240,0.00004131,-0.00582751,-0.00981136,-0.
 00135331,0.00212313,0.00082164,-0.00302855,-0.07530596,-0.09284349,-0.
 09721099,0.08411833,0.10035834,0.09101335,-0.00066911,0.00048478,-0.00
 014321,0.00005974,-0.00013959,-0.00003651,-0.00234654,-0.00964219,-0.0
 0084322,0.00142829,-0.00096727,0.00102505,-0.00039802,-0.00014938,-0.0
 0029919,0.00010110,0.00000588,0.00001141,-0.00481897,0.03499203,0.0010
 0595,-0.00276800,0.00117139,-0.00522746,-0.14279795,0.10568738,-0.0197
 9614,0.00971609,-0.01723483,-0.00029149,0.62612527,0.00139058,-0.00125
 770,0.00059424,-0.00018844,0.00011540,-0.00013051,-0.00744376,-0.07009
 344,-0.01703877,-0.00250874,-0.00201253,-0.00157104,0.00015811,-0.0000
 2594,0.00002826,-0.00003286,0.00036193,0.00005261,0.08435956,0.0096665
 9,0.04484603,0.00129987,0.00164631,-0.00055242,0.04006912,-0.32272444,
 -0.03097801,0.00954287,-0.01513371,0.00122424,-0.06176307,0.66707279,0
 .00003671,0.00004868,-0.00015873,-0.00004456,-0.00006497,0.00003305,-0
 .00035398,-0.01833572,-0.00838702,0.00075227,-0.00073883,-0.00071878,-
 0.00025248,-0.00010259,-0.00001699,0.00001913,0.00004149,0.00007301,0.
 01094761,0.01898796,0.01642318,-0.00520011,-0.00059610,0.00477501,-0.0
 3313181,0.00351521,-0.08121603,0.00510967,-0.01283978,0.00374683,0.242
 81769,0.07369515,0.28261091,-0.00174642,0.00189051,-0.00047130,0.00019
 938,-0.00016037,0.00028647,-0.00590804,0.07535712,0.00787831,0.0055264
 1,0.00138744,0.00032741,-0.00081159,0.00017606,-0.00007604,0.00029723,
 -0.00082565,-0.00006338,-0.05810843,-0.01766904,-0.03191619,-0.0010014
 1,-0.00045654,0.00003943,0.05920147,-0.04698966,0.01818710,0.00160410,
 0.00335781,-0.00243352,-0.18149212,-0.04310088,-0.07113921,0.55839286,
 0.00163451,-0.00048180,0.00078627,0.00005728,-0.00029447,0.00007083,0.
 02796863,0.00689208,0.01426961,-0.00062072,-0.00367379,-0.00213018,0.0
 0070823,0.00129647,0.00072895,0.00048779,-0.00154153,-0.00011073,-0.01
 602085,-0.00652247,-0.00887303,-0.00063217,0.00038358,0.00000399,0.001
 65664,-0.04893854,-0.01036631,0.00311348,-0.00394461,-0.00067312,-0.11
 454622,-0.24121778,-0.09614592,-0.06957405,0.74435256,-0.00040362,0.00
 090952,-0.00033939,0.00029024,-0.00008282,-0.00018178,-0.00163487,0.03
 926358,0.01496796,-0.00010483,-0.00113302,0.00524452,-0.00000534,0.000
 43003,-0.00045158,0.00023502,-0.00074406,-0.00000546,-0.03149703,-0.00
 976183,-0.02273059,-0.00001548,0.00007939,-0.00118407,0.02794037,-0.03
 579299,0.01402086,-0.00248490,-0.00056325,0.00610380,-0.08562546,-0.05
 880692,-0.11938544,0.21078421,0.08769681,0.25876288,-0.00046354,0.0002
 7498,-0.00010257,-0.00000996,0.00006608,0.00004256,-0.00310271,0.00105
 932,-0.00460239,0.00084315,0.00069165,0.00029309,-0.00014746,-0.000321
 32,-0.00014621,-0.00017689,0.00026221,0.00000643,-0.00094619,-0.000857
 42,-0.00007374,-0.00008640,-0.00000487,0.00036864,-0.00000687,-0.00224
 300,-0.00443474,0.00032822,-0.00089672,0.00000490,0.00988122,-0.017667
 23,-0.00061200,-0.08293200,0.09138516,-0.00571082,0.08431328,0.0001333
 0,-0.00009924,0.00008268,-0.00001394,-0.00000701,0.00000645,0.00139640
 ,0.00156438,-0.00019663,-0.00053770,0.00009611,-0.00036001,0.00022986,
 0.00021039,0.00015339,0.00004937,-0.00021359,-0.00001278,-0.00069916,0
 .00045148,-0.00004889,0.00002124,-0.00006883,0.00015742,-0.00239892,-0
 .00067830,-0.00292914,0.00045929,-0.00073215,0.00009931,0.00840229,-0.
 01465849,0.00058478,0.09430877,-0.31800180,-0.00716147,-0.09774689,0.3
 3371311,-0.00012111,0.00013902,-0.00019638,0.00003095,0.00004697,-0.00
 005073,-0.00455676,-0.00033779,0.00366374,0.00004607,0.00029646,0.0006
 1989,-0.00002301,-0.00014121,-0.00003858,-0.00006477,0.00012079,-0.000
 06265,-0.00006608,-0.00013806,-0.00120595,0.00037218,0.00014236,-0.000
 56561,-0.00445291,-0.00287329,0.00465372,0.00027835,-0.00062041,0.0000
 0072,0.00470378,-0.01308655,0.00404851,-0.00521128,-0.00863739,-0.0415
 3420,0.01143751,0.01093378,0.03345841,-0.00382386,0.00091758,-0.002073
 46,-0.00015060,0.00104023,-0.00019232,-0.13579420,0.06140295,-0.030249
 02,0.00037921,0.01871316,0.00399398,0.00072987,-0.00401402,0.00011696,
 -0.00339900,0.00116209,-0.00151712,0.05816248,0.00559400,0.02999917,0.
 00047864,-0.00175481,-0.00394269,-0.04584834,0.04150509,-0.01291760,-0
 .00059539,0.00101948,0.00017811,-0.03252178,-0.07181893,-0.03450311,-0
 .26444280,0.09837877,-0.08758652,-0.00661723,-0.00179691,-0.00479083,0
 .48157321,-0.00474441,0.00514543,-0.00166413,0.00026962,0.00008693,0.0
 0009632,0.10469936,-0.26598311,0.01194251,0.01703308,-0.00683458,0.007
 52977,-0.00716288,-0.00541881,-0.00440029,-0.00208159,0.00577664,0.000
 13112,-0.05164796,-0.05470200,-0.03882719,-0.00142869,-0.00042692,-0.0
 0229451,0.03973567,-0.03731682,0.01438695,0.00122938,-0.00039957,0.000
 68602,-0.00787739,0.05875197,0.00662839,0.03147072,-0.12713558,0.00282
 473,0.02518783,-0.00331322,0.01208753,-0.11705187,0.51308556,-0.003296
 43,0.00139902,-0.00079459,-0.00028821,0.00046623,0.00037750,-0.0216159
 2,-0.01074184,-0.06710778,0.00380058,0.00846324,0.00325924,-0.00052838
 ,-0.00294080,-0.00213172,-0.00229705,0.00180418,-0.00042762,0.01856821
 ,-0.00874344,0.01102990,-0.00386156,-0.00247606,0.00474829,-0.01328156
 ,0.01529908,-0.00920082,0.00023164,0.00057194,-0.00033084,-0.02157667,
 -0.02693799,-0.01125526,-0.10116914,0.03789530,-0.10476006,0.00064358,
 -0.00199954,0.00181382,0.17030966,0.02029288,0.20444264,-0.00007865,0.
 00009455,-0.00008066,0.00000270,-0.00002526,0.00001144,-0.00001565,-0.
 00039274,0.00075190,-0.00010224,-0.00010056,0.00035191,-0.00005879,0.0
 0006184,-0.00007512,0.00007247,-0.00007820,0.00002327,0.00250931,0.002
 32553,-0.00216039,-0.00034914,-0.00015787,-0.00007531,-0.00337816,-0.0
 0036904,-0.00439201,-0.00041099,-0.00028787,0.00185292,-0.27791755,0.0
 6152359,-0.11231593,-0.00967002,0.00582772,-0.00623239,-0.00030766,-0.
 00032771,0.00203557,0.00187220,-0.00145874,-0.00341831,0.28845868,0.00
 016620,0.00002310,0.00006417,-0.00000727,0.00004298,0.00001171,-0.0003
 9560,-0.00096323,-0.00007300,-0.00020709,-0.00012347,0.00003746,0.0001
 2864,0.00014649,0.00006696,0.00005980,-0.00013336,0.00000312,0.0020699
 2,-0.00516589,-0.00147772,0.00119963,-0.00011184,0.00065930,0.02605696
 ,-0.00080755,0.01254727,-0.00096545,0.00103041,0.00052118,0.06177278,-
 0.07444202,0.02562800,-0.02097326,0.00849674,-0.01019510,0.00014128,0.
 00073288,0.00109285,-0.00150841,-0.00142991,-0.00266143,-0.06639892,0.
 07331417,-0.00007200,0.00003761,0.00007949,0.00001715,0.00000191,-0.00
 002068,0.00076097,-0.00008807,-0.00122194,0.00032005,0.00009245,-0.000
 62376,-0.00005600,0.00004542,0.00009925,0.00005599,-0.00006680,0.00000
 020,-0.00222401,-0.00133577,0.00608462,0.00020018,-0.00005195,-0.00017
 405,0.00095245,-0.00135687,0.00506034,0.00171617,0.00087414,-0.0029629
 6,-0.11229957,0.02554087,-0.09423570,-0.01164140,0.00385149,-0.0009110
 3,0.00213031,0.00084850,-0.00301801,-0.00340692,-0.00264588,0.00547970
 ,0.12406232,-0.02551755,0.08674469,0.00120470,0.00095334,0.00066768,0.
 00017107,-0.00037588,-0.00002950,0.00213193,-0.00425866,0.00043810,-0.
 00617718,-0.00060124,-0.00230497,-0.00139144,0.00955280,0.00054199,-0.
 00073841,0.00144291,0.00014664,0.00139058,0.00052675,-0.00191157,-0.00
 025701,-0.00007737,-0.00023178,0.00042311,-0.00211477,0.00025747,-0.00
 013006,-0.00024052,0.00035972,-0.00158167,0.00618021,-0.00212988,-0.01
 910863,-0.02982420,-0.01794858,-0.00056895,-0.00147927,0.00038235,-0.0
 5000241,-0.02617214,-0.02222043,-0.00062651,-0.00113922,-0.00051569,0.
 07526089,0.00061180,-0.00188476,-0.00003717,-0.00019664,0.00031334,-0.
 00007361,-0.01914496,-0.02497898,-0.01491642,-0.00162538,0.00159405,-0
 .00034849,0.00628500,-0.00654357,0.00144623,0.00244271,-0.00548525,0.0
 0022888,0.00618339,-0.00276291,0.00156155,-0.00136504,-0.00085244,-0.0
 0090464,-0.00078766,-0.00114890,-0.00046619,-0.00027914,0.00003492,0.0
 0004816,-0.00019660,0.00395108,-0.00030573,-0.00819898,-0.00966907,-0.
 00696261,0.00066893,0.00100428,0.00097495,-0.03178840,-0.07988601,-0.0
 2969077,-0.00023630,-0.00060949,-0.00022951,0.04762726,0.12692370,0.00
 062039,0.00001686,0.00047812,-0.00000534,-0.00012782,0.00006285,-0.002
 60479,-0.00718530,-0.00317715,-0.00257139,0.00044503,-0.00280460,-0.00
 007910,0.00301775,0.00199522,0.00033300,-0.00026886,-0.00023741,-0.000
 78391,-0.00134778,0.00457180,-0.00049489,-0.00024263,-0.00015475,0.000
 54595,-0.00116797,-0.00084638,0.00035011,0.00007037,-0.00070968,-0.003
 42495,0.00312081,0.00366343,-0.01338147,-0.01836656,-0.00761643,0.0007
 5544,-0.00015783,-0.00158672,-0.02341829,-0.02677421,-0.03514240,-0.00
 033921,-0.00070722,-0.00038016,0.04449843,0.04967537,0.04188426\\0.000
 00329,0.00000076,-0.00000620,0.00000431,0.00000107,-0.00000902,0.00000
 087,0.00000066,-0.00000131,0.00000239,0.00000022,-0.00000574,0.0000047
 9,0.00000120,-0.00000932,0.00000465,0.00000121,-0.00000879,-0.00000136
 ,-0.00000030,0.00000183,-0.00000106,-0.00000011,0.00000083,-0.00000322
 ,-0.00000080,0.00000588,-0.00000463,-0.00000107,0.00000811,-0.00000362
 ,-0.00000085,0.00000716,-0.00000193,-0.00000049,0.00000424,-0.00000207
 ,-0.00000060,0.00000523,0.00000018,-0.00000006,0.00000013,-0.00000516,
 -0.00000131,0.00001036,0.00000258,0.00000045,-0.00000337\\\@
 The archive entry for this job was punched.


 The chemist is a guest at the physicist's table and
 frequently dines well.
                   -- Richard Bersohn
 Job cpu time:       0 days  0 hours 48 minutes 42.4 seconds.
 Elapsed time:       0 days  0 hours  1 minutes 36.0 seconds.
 File lengths (MBytes):  RWF=    191 Int=      0 D2E=      0 Chk=     15 Scr=      1
 Normal termination of Gaussian 16 at Wed Apr 30 05:07:28 2025.
