/home/tahminaafroz
cn013.cluster.local
tahminaafroz
Fri May 30 05:12:00 CDT 2025
 Entering Gaussian System, Link 0=g16
 Initial command:
 /home/apps/g16/l1.exe "/tmp/2-cf3-ph-anion-opt-freq-2-thf-512/Gau-1739386.inp" -scrdir="/tmp/2-cf3-ph-anion-opt-freq-2-thf-512/"
 Entering Link 1 = /home/apps/g16/l1.exe PID=   1739387.
  
 Copyright (c) 1988-2019, Gaussian, Inc.  All Rights Reserved.
  
 This is part of the Gaussian(R) 16 program.  It is based on
 the Gaussian(R) 09 system (copyright 2009, Gaussian, Inc.),
 the Gaussian(R) 03 system (copyright 2003, Gaussian, Inc.),
 the Gaussian(R) 98 system (copyright 1998, Gaussian, Inc.),
 the Gaussian(R) 94 system (copyright 1995, Gaussian, Inc.),
 the Gaussian 92(TM) system (copyright 1992, Gaussian, Inc.),
 the Gaussian 90(TM) system (copyright 1990, Gaussian, Inc.),
 the Gaussian 88(TM) system (copyright 1988, Gaussian, Inc.),
 the Gaussian 86(TM) system (copyright 1986, Carnegie Mellon
 University), and the Gaussian 82(TM) system (copyright 1983,
 Carnegie Mellon University). Gaussian is a federally registered
 trademark of Gaussian, Inc.
  
 This software contains proprietary and confidential information,
 including trade secrets, belonging to Gaussian, Inc.
  
 This software is provided under written license and may be
 used, copied, transmitted, or stored only in accord with that
 written license.
  
 The following legend is applicable only to US Government
 contracts under FAR:
  
                    RESTRICTED RIGHTS LEGEND
  
 Use, reproduction and disclosure by the US Government is
 subject to restrictions as set forth in subparagraphs (a)
 and (c) of the Commercial Computer Software - Restricted
 Rights clause in FAR 52.227-19.
  
 Gaussian, Inc.
 340 Quinnipiac St., Bldg. 40, Wallingford CT 06492
  
  
 ---------------------------------------------------------------
 Warning -- This program may not be used in any manner that
 competes with the business of Gaussian, Inc. or will provide
 assistance to any competitor of Gaussian, Inc.  The licensee
 of this program is prohibited from giving any competitor of
 Gaussian, Inc. access to this program.  By using this program,
 the user acknowledges that Gaussian, Inc. is engaged in the
 business of creating and licensing software in the field of
 computational chemistry and represents and warrants to the
 licensee that it is not a competitor of Gaussian, Inc. and that
 it will not use this program in any manner prohibited above.
 ---------------------------------------------------------------
  

 Cite this work as:
 Gaussian 16, Revision C.01,
 M. J. Frisch, G. W. Trucks, H. B. Schlegel, G. E. Scuseria, 
 M. A. Robb, J. R. Cheeseman, G. Scalmani, V. Barone, 
 G. A. Petersson, H. Nakatsuji, X. Li, M. Caricato, A. V. Marenich, 
 J. Bloino, B. G. Janesko, R. Gomperts, B. Mennucci, H. P. Hratchian, 
 J. V. Ortiz, A. F. Izmaylov, J. L. Sonnenberg, D. Williams-Young, 
 F. Ding, F. Lipparini, F. Egidi, J. Goings, B. Peng, A. Petrone, 
 T. Henderson, D. Ranasinghe, V. G. Zakrzewski, J. Gao, N. Rega, 
 G. Zheng, W. Liang, M. Hada, M. Ehara, K. Toyota, R. Fukuda, 
 J. Hasegawa, M. Ishida, T. Nakajima, Y. Honda, O. Kitao, H. Nakai, 
 T. Vreven, K. Throssell, J. A. Montgomery, Jr., J. E. Peralta, 
 F. Ogliaro, M. J. Bearpark, J. J. Heyd, E. N. Brothers, K. N. Kudin, 
 V. N. Staroverov, T. A. Keith, R. Kobayashi, J. Normand, 
 K. Raghavachari, A. P. Rendell, J. C. Burant, S. S. Iyengar, 
 J. Tomasi, M. Cossi, J. M. Millam, M. Klene, C. Adamo, R. Cammi, 
 J. W. Ochterski, R. L. Martin, K. Morokuma, O. Farkas, 
 J. B. Foresman, and D. J. Fox, Gaussian, Inc., Wallingford CT, 2019.
 
 ******************************************
 Gaussian 16:  AS64L-G16RevC.01  3-Jul-2019
                30-May-2025 
 ******************************************
 %mem=20GB
 %nprocshared=32
 Will use up to   32 processors via shared memory.
 %chk=2-cf3-ph-anion-opt-freq-2-thf-512.chk
 ----------------------------------------------------------------------
 # opt=calcfc freq 6-311+g(d,p) scrf=(smd,solvent=thf) nosymm scf=(qc,f
 ermi,xqc,maxcycle=512) geom=connectivity int=ultrafine m062x
 ----------------------------------------------------------------------
 1/10=4,18=20,19=15,26=6,38=1,57=2/1,3;
 2/9=110,12=2,15=1,17=6,18=5,40=1/2;
 3/5=4,6=6,7=111,11=2,25=1,30=1,70=32201,71=2,72=20,74=-55,75=-5,140=1/1,2,3;
 4//1;
 5/5=2,7=512,22=13,38=5,53=20/2;
 8/6=4,10=90,11=11/1;
 11/6=1,8=1,9=11,15=111,16=1,31=1/1,2,10;
 10/6=1,13=1,31=1/2;
 6/7=2,8=2,9=2,10=2,28=1/1;
 7/10=1,25=1,30=1/1,2,3,16;
 1/10=4,18=20,19=15,26=6/3(2);
 2/9=110,15=1/2;
 99//99;
 2/9=110,15=1/2;
 3/5=4,6=6,7=111,11=2,25=1,30=1,70=32205,71=1,72=20,74=-55,75=-5/1,2,3;
 4/5=5,16=3,69=1/1;
 5/5=2,7=512,22=13,38=5,53=20/2;
 7/30=1/1,2,3,16;
 1/18=20,19=15,26=6/3(-5);
 2/9=110,15=1/2;
 6/7=2,8=2,9=2,10=2,19=2,28=1/1;
 99/9=1/99;
 ---------------------------------
 2-cf3-ph-anion-opt-freq-2-thf-512
 ---------------------------------
 Symbolic Z-matrix:
 Charge = -1 Multiplicity = 1
 C                     6.19102   7.03506   5.0371 
 C                     5.21211   6.07564   5.09759 
 H                     5.39595   5.08636   5.49923 
 C                     3.96521   6.45376   4.6095 
 H                     3.14144   5.74715   4.62391 
 C                     3.73985   7.75332   4.08913 
 C                     4.80911   8.68205   4.06745 
 H                     4.62862   9.6753    3.67049 
 C                     6.05667   8.3191    4.54911 
 C                     2.47292   8.18268   3.57903 
 H                     1.7784    7.33056   3.67109 
 C                     7.23484   9.24811   4.52709 
 F                     6.8752    10.51262   4.2864 
 F                     7.89762   9.23298   5.69301 
 F                     8.12214   8.90358   3.57843 
 

 GradGradGradGradGradGradGradGradGradGradGradGradGradGradGradGradGradGrad
 Berny optimization.
 Initialization pass.
                           ----------------------------
                           !    Initial Parameters    !
                           ! (Angstroms and Degrees)  !
 --------------------------                            --------------------------
 ! Name  Definition              Value          Derivative Info.                !
 --------------------------------------------------------------------------------
 ! R1    R(1,2)                  1.372          calculate D2E/DX2 analytically  !
 ! R2    R(1,9)                  1.3802         calculate D2E/DX2 analytically  !
 ! R3    R(2,3)                  1.0834         calculate D2E/DX2 analytically  !
 ! R4    R(2,4)                  1.3914         calculate D2E/DX2 analytically  !
 ! R5    R(4,5)                  1.0854         calculate D2E/DX2 analytically  !
 ! R6    R(4,6)                  1.4179         calculate D2E/DX2 analytically  !
 ! R7    R(6,7)                  1.4164         calculate D2E/DX2 analytically  !
 ! R8    R(6,10)                 1.4317         calculate D2E/DX2 analytically  !
 ! R9    R(7,8)                  1.0848         calculate D2E/DX2 analytically  !
 ! R10   R(7,9)                  1.3857         calculate D2E/DX2 analytically  !
 ! R11   R(9,12)                 1.5005         calculate D2E/DX2 analytically  !
 ! R12   R(10,11)                1.1031         calculate D2E/DX2 analytically  !
 ! R13   R(12,13)                1.3365         calculate D2E/DX2 analytically  !
 ! R14   R(12,14)                1.3412         calculate D2E/DX2 analytically  !
 ! R15   R(12,15)                1.3439         calculate D2E/DX2 analytically  !
 ! A1    A(2,1,9)              126.6334         calculate D2E/DX2 analytically  !
 ! A2    A(1,2,3)              122.2621         calculate D2E/DX2 analytically  !
 ! A3    A(1,2,4)              115.7152         calculate D2E/DX2 analytically  !
 ! A4    A(3,2,4)              122.0227         calculate D2E/DX2 analytically  !
 ! A5    A(2,4,5)              119.9051         calculate D2E/DX2 analytically  !
 ! A6    A(2,4,6)              121.349          calculate D2E/DX2 analytically  !
 ! A7    A(5,4,6)              118.7459         calculate D2E/DX2 analytically  !
 ! A8    A(4,6,7)              119.1168         calculate D2E/DX2 analytically  !
 ! A9    A(4,6,10)             123.1123         calculate D2E/DX2 analytically  !
 ! A10   A(7,6,10)             117.7709         calculate D2E/DX2 analytically  !
 ! A11   A(6,7,8)              118.7091         calculate D2E/DX2 analytically  !
 ! A12   A(6,7,9)              120.1707         calculate D2E/DX2 analytically  !
 ! A13   A(8,7,9)              121.12           calculate D2E/DX2 analytically  !
 ! A14   A(1,9,7)              117.0146         calculate D2E/DX2 analytically  !
 ! A15   A(1,9,12)             120.314          calculate D2E/DX2 analytically  !
 ! A16   A(7,9,12)             122.6586         calculate D2E/DX2 analytically  !
 ! A17   A(6,10,11)            107.2029         calculate D2E/DX2 analytically  !
 ! A18   A(9,12,13)            112.1559         calculate D2E/DX2 analytically  !
 ! A19   A(9,12,14)            111.608          calculate D2E/DX2 analytically  !
 ! A20   A(9,12,15)            111.7188         calculate D2E/DX2 analytically  !
 ! A21   A(13,12,14)           107.4693         calculate D2E/DX2 analytically  !
 ! A22   A(13,12,15)           107.0437         calculate D2E/DX2 analytically  !
 ! A23   A(14,12,15)           106.5283         calculate D2E/DX2 analytically  !
 ! D1    D(9,1,2,3)           -179.8272         calculate D2E/DX2 analytically  !
 ! D2    D(9,1,2,4)              0.1741         calculate D2E/DX2 analytically  !
 ! D3    D(2,1,9,7)             -0.1217         calculate D2E/DX2 analytically  !
 ! D4    D(2,1,9,12)          -178.8565         calculate D2E/DX2 analytically  !
 ! D5    D(1,2,4,5)            179.9499         calculate D2E/DX2 analytically  !
 ! D6    D(1,2,4,6)             -0.1157         calculate D2E/DX2 analytically  !
 ! D7    D(3,2,4,5)             -0.0488         calculate D2E/DX2 analytically  !
 ! D8    D(3,2,4,6)            179.8856         calculate D2E/DX2 analytically  !
 ! D9    D(2,4,6,7)              0.0194         calculate D2E/DX2 analytically  !
 ! D10   D(2,4,6,10)          -179.9267         calculate D2E/DX2 analytically  !
 ! D11   D(5,4,6,7)            179.9545         calculate D2E/DX2 analytically  !
 ! D12   D(5,4,6,10)             0.0085         calculate D2E/DX2 analytically  !
 ! D13   D(4,6,7,8)           -179.83           calculate D2E/DX2 analytically  !
 ! D14   D(4,6,7,9)              0.0372         calculate D2E/DX2 analytically  !
 ! D15   D(10,6,7,8)             0.119          calculate D2E/DX2 analytically  !
 ! D16   D(10,6,7,9)           179.9861         calculate D2E/DX2 analytically  !
 ! D17   D(4,6,10,11)           -0.509          calculate D2E/DX2 analytically  !
 ! D18   D(7,6,10,11)          179.5443         calculate D2E/DX2 analytically  !
 ! D19   D(6,7,9,1)              0.0081         calculate D2E/DX2 analytically  !
 ! D20   D(6,7,9,12)           178.7107         calculate D2E/DX2 analytically  !
 ! D21   D(8,7,9,1)            179.872          calculate D2E/DX2 analytically  !
 ! D22   D(8,7,9,12)            -1.4254         calculate D2E/DX2 analytically  !
 ! D23   D(1,9,12,13)         -167.2221         calculate D2E/DX2 analytically  !
 ! D24   D(1,9,12,14)          -46.564          calculate D2E/DX2 analytically  !
 ! D25   D(1,9,12,15)           72.5893         calculate D2E/DX2 analytically  !
 ! D26   D(7,9,12,13)           14.1168         calculate D2E/DX2 analytically  !
 ! D27   D(7,9,12,14)          134.7749         calculate D2E/DX2 analytically  !
 ! D28   D(7,9,12,15)         -106.0718         calculate D2E/DX2 analytically  !
 --------------------------------------------------------------------------------
 Trust Radius=3.00D-01 FncErr=5.00D-06 GrdErr=5.00D-06 EigMax=2.50D+02 EigMin=1.00D-04
 Number of steps in this run=     76 maximum allowed number of steps=    100.
 GradGradGradGradGradGradGradGradGradGradGradGradGradGradGradGradGradGrad

                          Input orientation:                          
 ---------------------------------------------------------------------
 Center     Atomic      Atomic             Coordinates (Angstroms)
 Number     Number       Type             X           Y           Z
 ---------------------------------------------------------------------
      1          6           0        6.191025    7.035063    5.037104
      2          6           0        5.212107    6.075642    5.097591
      3          1           0        5.395950    5.086358    5.499230
      4          6           0        3.965207    6.453760    4.609498
      5          1           0        3.141440    5.747154    4.623912
      6          6           0        3.739848    7.753323    4.089134
      7          6           0        4.809107    8.682051    4.067447
      8          1           0        4.628618    9.675303    3.670485
      9          6           0        6.056671    8.319101    4.549110
     10          6           0        2.472918    8.182676    3.579034
     11          1           0        1.778396    7.330565    3.671091
     12          6           0        7.234841    9.248107    4.527086
     13          9           0        6.875204   10.512618    4.286397
     14          9           0        7.897623    9.232978    5.693010
     15          9           0        8.122136    8.903581    3.578429
 ---------------------------------------------------------------------
                    Distance matrix (angstroms):
                    1          2          3          4          5
     1  C    0.000000
     2  C    1.372016   0.000000
     3  H    2.154798   1.083418   0.000000
     4  C    2.339877   1.391391   2.169893   0.000000
     5  H    3.336076   2.149404   2.507120   1.085399   0.000000
     6  C    2.724484   2.449315   3.441475   1.417896   2.160739
     7  C    2.358496   2.831426   3.914511   2.443618   3.421167
     8  H    3.358516   3.915948   4.999152   3.420555   4.307096
     9  C    1.380197   2.459111   3.433643   2.803099   3.888326
    10  C    4.155394   3.774754   4.671023   2.505580   2.733214
    11  H    4.628672   3.924297   4.633061   2.536048   2.296290
    12  C    2.499447   3.805452   4.652606   4.301822   5.387205
    13  F    3.622851   4.807357   5.753560   5.004678   6.063378
    14  F    2.858937   4.187516   4.846687   4.935782   5.992931
    15  F    3.057496   4.332824   5.068802   4.934043   5.988606
                    6          7          8          9         10
     6  C    0.000000
     7  C    1.416447   0.000000
     8  H    2.158515   1.084760   0.000000
     9  C    2.428858   1.385694   2.156525   0.000000
    10  C    1.431663   2.438381   2.623612   3.715231   0.000000
    11  H    2.049580   3.341979   3.690740   4.477919   1.103145
    12  C    3.826377   2.532957   2.776447   1.500540   4.970901
    13  F    4.181277   2.769056   2.475397   2.355957   5.030816
    14  F    4.695625   3.533399   3.869451   2.352187   5.916034
    15  F    4.559426   3.356244   3.578924   2.355840   5.695030
                   11         12         13         14         15
    11  H    0.000000
    12  C    5.846579   0.000000
    13  F    6.039993   1.336510   0.000000
    14  F    6.719544   1.341226   2.159023   0.000000
    15  F    6.536513   1.343853   2.155240   2.151827   0.000000
 Symmetry turned off by external request.
 Stoichiometry    C8H4F3(1-)
 Framework group  C1[X(C8H4F3)]
 Deg. of freedom    39
 Full point group                 C1      NOp   1
 Rotational constants (GHZ):           2.2713955           0.7651967           0.6356813
 Standard basis: 6-311+G(d,p) (5D, 7F)
   266 basis functions,   428 primitive gaussians,   277 cartesian basis functions
    40 alpha electrons       40 beta electrons
       nuclear repulsion energy       578.2709703256 Hartrees.
 NAtoms=   15 NActive=   15 NUniq=   15 SFac= 1.00D+00 NAtFMM=   60 NAOKFM=F Big=F
 Integral buffers will be    131072 words long.
 Raffenetti 2 integral format.
 Two-electron integral symmetry is turned off.
 Force inversion solution in PCM.
 ------------------------------------------------------------------------------
 Polarizable Continuum Model (PCM)
 =================================
 Model                : PCM.
 Atomic radii         : SMD-Coulomb.
 Polarization charges : Total charges.
 Charge compensation  : None.
 Solution method      : Matrix inversion.
 Cavity type          : VdW (van der Waals Surface) (Alpha=1.000).
 Cavity algorithm     : GePol (No added spheres)
                        Default sphere list used, NSphG=   15.
                        Lebedev-Laikov grids with approx.  5.0 points / Ang**2.
                        Smoothing algorithm: York/Karplus (Gamma=1.0000).
                        Polarization charges: spherical gaussians, with
                                              point-specific exponents (IZeta= 3).
                        Self-potential: point-specific (ISelfS= 7).
                        Self-field    : sphere-specific E.n sum rule (ISelfD= 2).
 1st derivatives      : Analytical E(r).r(x)/FMM algorithm (CHGder, D1EAlg=3).
                        Cavity 1st derivative terms included.
 2nd derivatives      : Analytical E(r).r(xy)/FMM algorithm (CHGder, D2EAlg=3).
                        Cavity 2nd derivative terms included.
 Solvent              : TetraHydroFuran, Eps=   7.425700 Eps(inf)=   1.974025
 ------------------------------------------------------------------------------
 Spheres list:
 ISph  on   Nord     Re0    Alpha      Xe            Ye            Ze
    1   C      1    1.8500  1.000      6.191025      7.035063      5.037104
    2   C      2    1.8500  1.000      5.212107      6.075642      5.097591
    3   H      3    1.2000  1.000      5.395950      5.086358      5.499230
    4   C      4    1.8500  1.000      3.965207      6.453760      4.609498
    5   H      5    1.2000  1.000      3.141440      5.747154      4.623912
    6   C      6    1.8500  1.000      3.739848      7.753323      4.089134
    7   C      7    1.8500  1.000      4.809107      8.682051      4.067447
    8   H      8    1.2000  1.000      4.628618      9.675303      3.670485
    9   C      9    1.8500  1.000      6.056671      8.319101      4.549110
   10   C     10    1.8500  1.000      2.472918      8.182676      3.579034
   11   H     11    1.2000  1.000      1.778396      7.330565      3.671091
   12   C     12    1.8500  1.000      7.234841      9.248107      4.527086
   13   F     13    1.7300  1.000      6.875204     10.512618      4.286397
   14   F     14    1.7300  1.000      7.897623      9.232978      5.693010
   15   F     15    1.7300  1.000      8.122136      8.903581      3.578429
 ------------------------------------------------------------------------------
 ------------------------------------------------------------------------------
 Atomic radii for non-electrostatic terms: SMD-CDS.
 ------------------------------------------------------------------------------
 Nuclear repulsion after PCM non-electrostatic terms =      578.2719210063 Hartrees.
 One-electron integrals computed using PRISM.
 NBasis=   266 RedAO= T EigKep=  1.64D-06  NBF=   266
 NBsUse=   266 1.00D-06 EigRej= -1.00D+00 NBFU=   266
 ExpMin= 4.38D-02 ExpMax= 1.14D+04 ExpMxC= 1.72D+03 IAcc=3 IRadAn=         5 AccDes= 0.00D+00
 Harris functional with IExCor= 1009 and IRadAn=       5 diagonalized for initial guess.
 HarFok:  IExCor= 1009 AccDes= 0.00D+00 IRadAn=         5 IDoV= 1 UseB2=F ITyADJ=14
 ICtDFT=  3500011 ScaDFX=  1.000000  1.000000  1.000000  1.000000
 FoFCou: FMM=F IPFlag=           0 FMFlag=      100000 FMFlg1=           0
         NFxFlg=           0 DoJE=T BraDBF=F KetDBF=T FulRan=T
         wScrn=  0.000000 ICntrl=       500 IOpCl=  0 I1Cent=   200000004 NGrid=           0
         NMat0=    1 NMatS0=      1 NMatT0=    0 NMatD0=    1 NMtDS0=    0 NMtDT0=    0
 Symmetry not used in FoFCou.
 Requested convergence on RMS density matrix=1.00D-08 within 512 cycles.
 Requested convergence on MAX density matrix=1.00D-06.
 Requested convergence on             energy=1.00D-06.
 Level shift goal  0.100 maximum shift  0.100.
 No special actions if energy rises.
 Dynamic level shift is on during FON iterations.
 Inv3:  Mode=1 IEnd=     5556963.
 Iteration    1 A*A^-1 deviation from unit magnitude is 3.66D-15 for   1354.
 Iteration    1 A*A^-1 deviation from orthogonality  is 5.34D-15 for   1357   1223.
 Iteration    1 A^-1*A deviation from unit magnitude is 3.55D-15 for   1342.
 Iteration    1 A^-1*A deviation from orthogonality  is 1.64D-15 for   1244   1116.
 Error on total polarization charges =  0.04728
 SCF Done:  E(RM062X) =  -606.676320494     A.U. after   18 cycles
            NFock= 18  Conv=0.20D-08     -V/T= 2.0028
 SMD-CDS (non-electrostatic) energy       (kcal/mol) =       0.60
 (included in total energy above)
 DoSCS=F DFT=T ScalE2(SS,OS)=  1.000000  1.000000
 Range of M.O.s used for correlation:     1   266
 NBasis=   266 NAE=    40 NBE=    40 NFC=     0 NFV=     0
 NROrb=    266 NOA=    40 NOB=    40 NVA=   226 NVB=   226

 **** Warning!!: The largest alpha MO coefficient is  0.27945347D+03

 Symmetrizing basis deriv contribution to polar:
 IMax=3 JMax=2 DiffMx= 0.00D+00
 G2DrvN: will do    16 centers at a time, making    1 passes.
 Calling FoFCou, ICntrl=  3107 FMM=F I1Cent=   0 AccDes= 0.00D+00.
 NEqPCM:  Using equilibrium solvation (IEInf=0, Eps=   7.4257, EpsInf=   1.9740)
 G2PCM: DoFxE=T DoFxN=T DoGrad=T DoDP/DQ/DG/TGxP=FFFF NFrqRd=   0 IEInf=0 SqF1=F DoCFld=F IF1Alg=4.
 End of G2Drv F.D. properties file   721 does not exist.
 End of G2Drv F.D. properties file   722 does not exist.
 End of G2Drv F.D. properties file   788 does not exist.
          IDoAtm=111111111111111
 NEqPCM:  Using equilibrium solvation (IEInf=0, Eps=   7.4257, EpsInf=   1.9740)
          Differentiating once with respect to nuclear coordinates.
 Keep R1 ints in memory in canonical form, NReq=665950669.
          There are    48 degrees of freedom in the 1st order CPHF.  IDoFFX=6 NUNeed=     0.
     42 vectors produced by pass  0 Test12= 1.88D-14 2.08D-09 XBig12= 2.74D-01 1.30D-01.
 AX will form    42 AO Fock derivatives at one time.
     42 vectors produced by pass  1 Test12= 1.88D-14 2.08D-09 XBig12= 2.07D-02 5.04D-02.
     42 vectors produced by pass  2 Test12= 1.88D-14 2.08D-09 XBig12= 1.40D-03 9.12D-03.
     42 vectors produced by pass  3 Test12= 1.88D-14 2.08D-09 XBig12= 1.55D-05 6.48D-04.
     42 vectors produced by pass  4 Test12= 1.88D-14 2.08D-09 XBig12= 1.17D-07 5.58D-05.
     42 vectors produced by pass  5 Test12= 1.88D-14 2.08D-09 XBig12= 9.97D-10 4.44D-06.
     42 vectors produced by pass  6 Test12= 1.88D-14 2.08D-09 XBig12= 4.15D-12 3.29D-07.
     20 vectors produced by pass  7 Test12= 1.88D-14 2.08D-09 XBig12= 1.88D-14 1.85D-08.
 InvSVY:  IOpt=1 It=  1 EMax= 1.78D-15
 Solved reduced A of dimension   314 with    42 vectors.
 End of Minotr F.D. properties file   721 does not exist.
 End of Minotr F.D. properties file   722 does not exist.
 End of Minotr F.D. properties file   788 does not exist.

 **********************************************************************

            Population analysis using the SCF Density.

 **********************************************************************

 Alpha  occ. eigenvalues --  -25.26109 -25.25471 -25.25330 -10.77274 -10.54227
 Alpha  occ. eigenvalues --  -10.53773 -10.53005 -10.52856 -10.52428 -10.51088
 Alpha  occ. eigenvalues --  -10.47369  -1.45080  -1.35928  -1.35282  -0.94903
 Alpha  occ. eigenvalues --   -0.86623  -0.82982  -0.78705  -0.70931  -0.69387
 Alpha  occ. eigenvalues --   -0.67519  -0.67408  -0.64173  -0.59285  -0.55719
 Alpha  occ. eigenvalues --   -0.55667  -0.52226  -0.51430  -0.50634  -0.49463
 Alpha  occ. eigenvalues --   -0.49014  -0.48749  -0.46020  -0.42513  -0.40862
 Alpha  occ. eigenvalues --   -0.38599  -0.30246  -0.29662  -0.25734  -0.19733
 Alpha virt. eigenvalues --   -0.04532   0.02854   0.03678   0.04581   0.05618
 Alpha virt. eigenvalues --    0.05880   0.06664   0.07547   0.07598   0.08659
 Alpha virt. eigenvalues --    0.09489   0.10132   0.10200   0.11627   0.11980
 Alpha virt. eigenvalues --    0.13116   0.14179   0.14908   0.15131   0.15684
 Alpha virt. eigenvalues --    0.16231   0.17942   0.18312   0.18895   0.19944
 Alpha virt. eigenvalues --    0.20323   0.21424   0.21654   0.22091   0.22791
 Alpha virt. eigenvalues --    0.23367   0.24972   0.25423   0.25661   0.25982
 Alpha virt. eigenvalues --    0.26666   0.27044   0.28697   0.29010   0.29485
 Alpha virt. eigenvalues --    0.30908   0.31224   0.31535   0.32655   0.32750
 Alpha virt. eigenvalues --    0.34872   0.36868   0.37694   0.38339   0.39120
 Alpha virt. eigenvalues --    0.39626   0.39840   0.41252   0.41884   0.45592
 Alpha virt. eigenvalues --    0.46668   0.47006   0.48015   0.48185   0.48449
 Alpha virt. eigenvalues --    0.52635   0.54911   0.56875   0.57260   0.58732
 Alpha virt. eigenvalues --    0.60042   0.61908   0.63637   0.63988   0.64373
 Alpha virt. eigenvalues --    0.66136   0.66923   0.67985   0.68693   0.70333
 Alpha virt. eigenvalues --    0.72012   0.73465   0.75410   0.75977   0.76332
 Alpha virt. eigenvalues --    0.76969   0.79566   0.80310   0.82493   0.83069
 Alpha virt. eigenvalues --    0.83364   0.86688   0.90547   0.93021   0.93905
 Alpha virt. eigenvalues --    0.98090   0.98915   1.00969   1.01520   1.05001
 Alpha virt. eigenvalues --    1.07933   1.08639   1.09290   1.10288   1.14146
 Alpha virt. eigenvalues --    1.16168   1.17914   1.20045   1.27089   1.27154
 Alpha virt. eigenvalues --    1.31733   1.39486   1.41954   1.45108   1.47176
 Alpha virt. eigenvalues --    1.47817   1.49481   1.51474   1.52239   1.54311
 Alpha virt. eigenvalues --    1.55387   1.56288   1.58161   1.58785   1.60092
 Alpha virt. eigenvalues --    1.61423   1.62124   1.62751   1.66715   1.67496
 Alpha virt. eigenvalues --    1.68735   1.75880   1.77554   1.78686   1.82361
 Alpha virt. eigenvalues --    1.82545   1.83343   1.85896   1.89776   1.90146
 Alpha virt. eigenvalues --    1.92504   1.94486   1.99536   2.00257   2.01530
 Alpha virt. eigenvalues --    2.02086   2.06207   2.06800   2.08295   2.09683
 Alpha virt. eigenvalues --    2.10840   2.14463   2.18364   2.23416   2.25356
 Alpha virt. eigenvalues --    2.31218   2.32765   2.40682   2.42721   2.46249
 Alpha virt. eigenvalues --    2.53516   2.59653   2.62033   2.65469   2.67930
 Alpha virt. eigenvalues --    2.73953   2.74564   2.76562   2.79704   2.80555
 Alpha virt. eigenvalues --    2.82871   2.85476   2.87734   2.93215   2.94054
 Alpha virt. eigenvalues --    2.98130   3.01401   3.06131   3.07793   3.13025
 Alpha virt. eigenvalues --    3.14543   3.17686   3.24242   3.26853   3.43497
 Alpha virt. eigenvalues --    3.47018   3.52546   3.58513   3.63196   3.69401
 Alpha virt. eigenvalues --    3.79319   3.82717   3.86343   3.86689   3.88541
 Alpha virt. eigenvalues --    3.88949   3.89720   3.92346   4.03609   4.05372
 Alpha virt. eigenvalues --    4.06480   4.17359   4.22029   4.26628   4.28831
 Alpha virt. eigenvalues --    4.30423   4.33850   4.80181   4.85955   5.00859
 Alpha virt. eigenvalues --    5.03564   6.46581   6.50539   6.52870   6.53893
 Alpha virt. eigenvalues --    6.55303   6.58671   6.64362   6.89918   6.93299
 Alpha virt. eigenvalues --   23.57890  23.70160  23.91987  24.04527  24.07851
 Alpha virt. eigenvalues --   24.16183  24.19937  24.31347  66.90839  66.93034
 Alpha virt. eigenvalues --   66.98697
          Condensed to atoms (all electrons):
               1          2          3          4          5          6
     1  C   22.212484  -2.739364  -0.146794   1.394085  -0.059376  -1.102503
     2  C   -2.739364  12.289197   0.554658  -2.563897   0.108552   2.696094
     3  H   -0.146794   0.554658   0.521036  -0.104679  -0.001166   0.048961
     4  C    1.394085  -2.563897  -0.104679  10.628241   0.217589  -1.102648
     5  H   -0.059376   0.108552  -0.001166   0.217589   0.479864   0.067032
     6  C   -1.102503   2.696094   0.048961  -1.102648   0.067032  13.847883
     7  C   -9.538452  -4.806901  -0.087425   0.059345  -0.060580 -11.281930
     8  H   -0.037471   0.020494   0.000111  -0.011319  -0.000006   0.121038
     9  C   -3.511903   1.775712   0.038034  -1.899422   0.027717   5.002949
    10  C   -0.198596   0.244675   0.009405  -1.291118   0.039577  -0.486750
    11  H    0.005357   0.055293   0.000002   0.023969  -0.000080  -0.170016
    12  C    0.202234  -1.564645  -0.004032   1.010506  -0.003444  -1.872744
    13  F    0.132845   0.001661  -0.000032   0.009416  -0.000013   0.098221
    14  F   -0.169860   0.047641  -0.000050  -0.007480  -0.000006   0.050400
    15  F   -0.272181  -0.015345  -0.000025  -0.008994  -0.000007   0.028292
               7          8          9         10         11         12
     1  C   -9.538452  -0.037471  -3.511903  -0.198596   0.005357   0.202234
     2  C   -4.806901   0.020494   1.775712   0.244675   0.055293  -1.564645
     3  H   -0.087425   0.000111   0.038034   0.009405   0.000002  -0.004032
     4  C    0.059345  -0.011319  -1.899422  -1.291118   0.023969   1.010506
     5  H   -0.060580  -0.000006   0.027717   0.039577  -0.000080  -0.003444
     6  C  -11.281930   0.121038   5.002949  -0.486750  -0.170016  -1.872744
     7  C   41.414660   0.065280 -13.264397   0.861582   0.054650   3.304707
     8  H    0.065280   0.457042   0.165084   0.020968   0.000149   0.001367
     9  C  -13.264397   0.165084  22.635248  -0.940361   0.012234  -3.781160
    10  C    0.861582   0.020968  -0.940361   8.194111   0.283771  -0.345147
    11  H    0.054650   0.000149   0.012234   0.283771   0.598300   0.001064
    12  C    3.304707   0.001367  -3.781160  -0.345147   0.001064   7.840446
    13  F   -0.148866   0.004511  -0.111637   0.002821   0.000014   0.161844
    14  F   -0.027528   0.000188   0.070245  -0.000884  -0.000001   0.197858
    15  F   -0.079624  -0.000093   0.377971  -0.001954  -0.000002   0.146931
              13         14         15
     1  C    0.132845  -0.169860  -0.272181
     2  C    0.001661   0.047641  -0.015345
     3  H   -0.000032  -0.000050  -0.000025
     4  C    0.009416  -0.007480  -0.008994
     5  H   -0.000013  -0.000006  -0.000007
     6  C    0.098221   0.050400   0.028292
     7  C   -0.148866  -0.027528  -0.079624
     8  H    0.004511   0.000188  -0.000093
     9  C   -0.111637   0.070245   0.377971
    10  C    0.002821  -0.000884  -0.001954
    11  H    0.000014  -0.000001  -0.000002
    12  C    0.161844   0.197858   0.146931
    13  F    9.063391  -0.020796  -0.034278
    14  F   -0.020796   9.024598  -0.054018
    15  F   -0.034278  -0.054018   9.007294
 Mulliken charges:
               1
     1  C   -0.170503
     2  C   -0.103826
     3  H    0.171996
     4  C   -0.353595
     5  H    0.184349
     6  C    0.055722
     7  C   -0.464521
     8  H    0.192658
     9  C   -0.596314
    10  C   -0.392099
    11  H    0.135295
    12  C    0.704216
    13  F   -0.159103
    14  F   -0.110308
    15  F   -0.093967
 Sum of Mulliken charges =  -1.00000
 Mulliken charges with hydrogens summed into heavy atoms:
               1
     1  C   -0.170503
     2  C    0.068170
     4  C   -0.169247
     6  C    0.055722
     7  C   -0.271863
     9  C   -0.596314
    10  C   -0.256804
    12  C    0.704216
    13  F   -0.159103
    14  F   -0.110308
    15  F   -0.093967
 APT charges:
               1
     1  C   -1.150900
     2  C    1.581996
     3  H    0.047489
     4  C   -0.065032
     5  H   -0.830763
     6  C   -2.961974
     7  C   -0.411593
     8  H    1.251586
     9  C    3.150879
    10  C   -0.068943
    11  H   -0.557895
    12  C   -1.125915
    13  F    0.268358
    14  F    0.318363
    15  F   -0.445655
 Sum of APT charges =  -1.00000
 APT charges with hydrogens summed into heavy atoms:
               1
     1  C   -1.150900
     2  C    1.629485
     4  C   -0.895795
     6  C   -2.961974
     7  C    0.839992
     9  C    3.150879
    10  C   -0.626839
    12  C   -1.125915
    13  F    0.268358
    14  F    0.318363
    15  F   -0.445655
 Electronic spatial extent (au):  <R**2>=          36778.2185
 Charge=             -1.0000 electrons
 Dipole moment (field-independent basis, Debye):
    X=            -27.9076    Y=            -39.5875    Z=            -21.5420  Tot=             53.0100
 Quadrupole moment (field-independent basis, Debye-Ang):
   XX=           -255.3101   YY=           -396.4028   ZZ=           -169.3841
   XY=           -219.4818   XZ=           -135.5494   YZ=           -173.9934
 Traceless Quadrupole moment (field-independent basis, Debye-Ang):
   XX=             18.3889   YY=           -122.7038   ZZ=            104.3149
   XY=           -219.4818   XZ=           -135.5494   YZ=           -173.9934
 Octapole moment (field-independent basis, Debye-Ang**2):
  XXX=          -2460.9518  YYY=          -4411.1458  ZZZ=          -1407.0366  XYY=          -2125.5285
  XXY=          -2003.4977  XXZ=          -1238.2359  XZZ=          -1053.7420  YZZ=          -1356.1101
  YYZ=          -1716.6472  XYZ=          -1053.4828
 Hexadecapole moment (field-independent basis, Debye-Ang**3):
 XXXX=         -23538.1403 YYYY=         -51066.2069 ZZZZ=         -10875.1650 XXXY=         -19679.8686
 XXXZ=         -11814.2684 YYYX=         -23564.9669 YYYZ=         -18956.7263 ZZZX=          -8599.5901
 ZZZY=         -11217.9444 XXYY=         -18357.3914 XXZZ=          -8473.7293 YYZZ=         -12400.1408
 XXYZ=          -9631.9899 YYXZ=          -9993.4425 ZZXY=          -8337.7010
 N-N= 5.782719210063D+02 E-N=-2.597287559646D+03  KE= 6.049677574830D+02
  Exact polarizability:       0.000       0.000       0.000       0.000       0.000       0.000
 Approx polarizability:     168.093      -6.597     130.678      25.760     -17.844      99.089
 D2PCM: PCM CHGder 2nd derivatives, FixD1E=F FixD2E=F DoIter=F DoCFld=F I1PDM=0
 Calling FoFJK, ICntrl=    100127 FMM=F ISym2X=0 I1Cent= 0 IOpClX= 0 NMat=1 NMatS=1 NMatT=0.
 -------------------------------------------------------------------
 Center     Atomic                   Forces (Hartrees/Bohr)
 Number     Number              X              Y              Z
 -------------------------------------------------------------------
      1        6           0.079304313   -0.013315207    0.024901077
      2        6          -0.037646041    0.016686457   -0.015873313
      3        1          -0.001754878   -0.002264771    0.000162423
      4        6           0.003164091   -0.019341893    0.007870298
      5        1          -0.004829697    0.000819888   -0.001722827
      6        6          -0.021954129    0.008148191   -0.009076542
      7        6           0.014137480    0.015710392   -0.001199589
      8        1          -0.004557269    0.001079392   -0.001802524
      9        6          -0.038644291   -0.004527083   -0.008752771
     10        6           0.013482656   -0.002908495    0.004715051
     11        1          -0.000629377   -0.001495698    0.000486463
     12        6          -0.011151059   -0.014687161    0.004205781
     13        9           0.001563971    0.009093589   -0.001621653
     14        9           0.004109288    0.005132352    0.000827000
     15        9           0.005404944    0.001870046   -0.003118874
 -------------------------------------------------------------------
 Cartesian Forces:  Max     0.079304313 RMS     0.016968718
 FormGI is forming the generalized inverse of G from B-inverse, IUseBI=4.

 GradGradGradGradGradGradGradGradGradGradGradGradGradGradGradGradGradGrad
 Berny optimization.
 Internal  Forces:  Max     0.049440679 RMS     0.010167394
 Search for a local minimum.
 Step number   1 out of a maximum of   76
 All quantities printed in internal units (Hartrees-Bohrs-Radians)
 Mixed Optimization -- RFO/linear search
 Second derivative matrix not updated -- analytic derivatives used.
 ITU=  0
     Eigenvalues ---    0.00286   0.00469   0.01039   0.01457   0.02008
     Eigenvalues ---    0.02365   0.02680   0.02953   0.03236   0.03678
     Eigenvalues ---    0.11051   0.11362   0.11967   0.12649   0.13629
     Eigenvalues ---    0.18088   0.18392   0.18865   0.19220   0.20512
     Eigenvalues ---    0.20730   0.25568   0.25768   0.28205   0.31123
     Eigenvalues ---    0.32191   0.34163   0.35651   0.36101   0.36334
     Eigenvalues ---    0.36922   0.38571   0.39547   0.43522   0.44283
     Eigenvalues ---    0.46918   0.49750   0.52866   0.56073
 RFO step:  Lambda=-2.75199594D-02 EMin= 2.86056119D-03
 Linear search not attempted -- first point.
 Maximum step size (   0.300) exceeded in Quadratic search.
    -- Step size scaled by   0.871
 Iteration  1 RMS(Cart)=  0.04449311 RMS(Int)=  0.00240652
 Iteration  2 RMS(Cart)=  0.00435222 RMS(Int)=  0.00076102
 Iteration  3 RMS(Cart)=  0.00000412 RMS(Int)=  0.00076102
 Iteration  4 RMS(Cart)=  0.00000000 RMS(Int)=  0.00076102
 Variable       Old X    -DE/DX   Delta X   Delta X   Delta X     New X
                                 (Linear)    (Quad)   (Total)
    R1        2.59273   0.03261   0.00000   0.06880   0.06993   2.66266
    R2        2.60819   0.02164   0.00000   0.05570   0.05691   2.66510
    R3        2.04736   0.00183   0.00000   0.00574   0.00574   2.05310
    R4        2.62935  -0.00055   0.00000  -0.02210  -0.02218   2.60717
    R5        2.05111   0.00311   0.00000   0.00317   0.00317   2.05428
    R6        2.67944   0.00398   0.00000   0.01114   0.00992   2.68936
    R7        2.67670   0.00315   0.00000   0.00692   0.00579   2.68248
    R8        2.70545  -0.01457   0.00000  -0.03542  -0.03542   2.67003
    R9        2.04990   0.00240   0.00000   0.00110   0.00110   2.05100
   R10        2.61858   0.00216   0.00000  -0.01063  -0.01052   2.60806
   R11        2.83561   0.00082   0.00000   0.00052   0.00052   2.83613
   R12        2.08464   0.00162   0.00000   0.00443   0.00443   2.08907
   R13        2.52564   0.00850   0.00000   0.02045   0.02045   2.54609
   R14        2.53455   0.00269   0.00000   0.00690   0.00690   2.54145
   R15        2.53951   0.00527   0.00000   0.01407   0.01407   2.55358
    A1        2.21017  -0.04944   0.00000  -0.19296  -0.18950   2.02067
    A2        2.13388  -0.01081   0.00000  -0.05222  -0.05266   2.08122
    A3        2.01961   0.02608   0.00000   0.11235   0.11323   2.13284
    A4        2.12970  -0.01527   0.00000  -0.06013  -0.06057   2.06913
    A5        2.09274   0.00416   0.00000   0.00978   0.01054   2.10328
    A6        2.11794   0.00015   0.00000   0.00148  -0.00003   2.11791
    A7        2.07251  -0.00431   0.00000  -0.01127  -0.01051   2.06200
    A8        2.07898  -0.00406   0.00000  -0.03309  -0.03577   2.04321
    A9        2.14871   0.00128   0.00000   0.01342   0.01477   2.16348
   A10        2.05549   0.00278   0.00000   0.01967   0.02101   2.07650
   A11        2.07187  -0.00460   0.00000  -0.01398  -0.01335   2.05852
   A12        2.09737   0.00014   0.00000  -0.00058  -0.00185   2.09552
   A13        2.11394   0.00446   0.00000   0.01457   0.01520   2.12915
   A14        2.04229   0.02713   0.00000   0.11279   0.11390   2.15619
   A15        2.09988  -0.00957   0.00000  -0.05213  -0.05270   2.04718
   A16        2.14080  -0.01756   0.00000  -0.06078  -0.06134   2.07946
   A17        1.87104  -0.00122   0.00000   0.00004   0.00004   1.87108
   A18        1.95749   0.00342   0.00000   0.01355   0.01345   1.97094
   A19        1.94793   0.00833   0.00000   0.02437   0.02419   1.97212
   A20        1.94986   0.00405   0.00000   0.00940   0.00930   1.95916
   A21        1.87569  -0.00679   0.00000  -0.02029  -0.02044   1.85525
   A22        1.86826  -0.00529   0.00000  -0.01876  -0.01878   1.84948
   A23        1.85927  -0.00501   0.00000  -0.01213  -0.01229   1.84698
    D1       -3.13858   0.00005   0.00000   0.00205   0.00184  -3.13674
    D2        0.00304   0.00031   0.00000   0.00528   0.00519   0.00823
    D3       -0.00212  -0.00048   0.00000  -0.00587  -0.00586  -0.00799
    D4       -3.12163   0.00009   0.00000   0.00059   0.00101  -3.12062
    D5        3.14072  -0.00019   0.00000  -0.00286  -0.00305   3.13767
    D6       -0.00202  -0.00004   0.00000  -0.00115  -0.00141  -0.00343
    D7       -0.00085   0.00006   0.00000   0.00036   0.00029  -0.00057
    D8        3.13960   0.00021   0.00000   0.00207   0.00192   3.14152
    D9        0.00034  -0.00015   0.00000  -0.00237  -0.00249  -0.00215
   D10       -3.14031  -0.00014   0.00000  -0.00284  -0.00282   3.14005
   D11        3.14080   0.00000   0.00000  -0.00067  -0.00088   3.13992
   D12        0.00015   0.00002   0.00000  -0.00114  -0.00121  -0.00106
   D13       -3.13863  -0.00001   0.00000  -0.00031  -0.00010  -3.13872
   D14        0.00065  -0.00004   0.00000   0.00172   0.00182   0.00247
   D15        0.00208  -0.00002   0.00000   0.00014   0.00021   0.00229
   D16        3.14135  -0.00005   0.00000   0.00217   0.00213  -3.13971
   D17       -0.00888   0.00010   0.00000   0.00138   0.00131  -0.00757
   D18        3.13364   0.00012   0.00000   0.00094   0.00101   3.13464
   D19        0.00014   0.00038   0.00000   0.00223   0.00264   0.00278
   D20        3.11909  -0.00008   0.00000  -0.00421  -0.00418   3.11491
   D21        3.13936   0.00033   0.00000   0.00427   0.00460  -3.13923
   D22       -0.02488  -0.00013   0.00000  -0.00217  -0.00222  -0.02710
   D23       -2.91858  -0.00096   0.00000  -0.01439  -0.01428  -2.93285
   D24       -0.81270  -0.00141   0.00000  -0.01376  -0.01360  -0.82630
   D25        1.26692   0.00061   0.00000  -0.00632  -0.00611   1.26081
   D26        0.24639  -0.00094   0.00000  -0.00980  -0.01001   0.23638
   D27        2.35227  -0.00139   0.00000  -0.00917  -0.00933   2.34293
   D28       -1.85130   0.00062   0.00000  -0.00174  -0.00184  -1.85314
         Item               Value     Threshold  Converged?
 Maximum Force            0.049441     0.000450     NO 
 RMS     Force            0.010167     0.000300     NO 
 Maximum Displacement     0.216780     0.001800     NO 
 RMS     Displacement     0.043926     0.001200     NO 
 Predicted change in Energy=-1.477463D-02
 GradGradGradGradGradGradGradGradGradGradGradGradGradGradGradGradGradGrad

                          Input orientation:                          
 ---------------------------------------------------------------------
 Center     Atomic      Atomic             Coordinates (Angstroms)
 Number     Number       Type             X           Y           Z
 ---------------------------------------------------------------------
      1          6           0        6.305740    6.984280    5.085423
      2          6           0        5.209919    6.098557    5.087654
      3          1           0        5.341219    5.092720    5.476807
      4          6           0        3.969075    6.462898    4.607022
      5          1           0        3.143367    5.755927    4.618655
      6          6           0        3.730776    7.764807    4.083961
      7          6           0        4.824149    8.670091    4.081660
      8          1           0        4.657510    9.667861    3.688402
      9          6           0        6.052212    8.272262    4.569865
     10          6           0        2.484447    8.195565    3.576566
     11          1           0        1.783967    7.344848    3.664392
     12          6           0        7.202950    9.234710    4.525755
     13          9           0        6.819425   10.499780    4.265343
     14          9           0        7.894693    9.279693    5.678214
     15          9           0        8.101641    8.914282    3.568841
 ---------------------------------------------------------------------
                    Distance matrix (angstroms):
                    1          2          3          4          5
     1  C    0.000000
     2  C    1.409019   0.000000
     3  H    2.159046   1.086456   0.000000
     4  C    2.441457   1.379654   2.125251   0.000000
     5  H    3.424518   2.146623   2.450881   1.087077   0.000000
     6  C    2.870991   2.443697   3.416665   1.423147   2.160219
     7  C    2.458579   2.788123   3.874452   2.424635   3.406719
     8  H    3.445278   3.873370   4.959613   3.404349   4.296652
     9  C    1.410310   2.388003   3.381944   2.759464   3.846518
    10  C    4.283240   3.756198   4.625981   2.503616   2.733488
    11  H    4.753501   3.913575   4.583773   2.537929   2.298534
    12  C    2.486494   3.758107   4.639680   4.259988   5.347034
    13  F    3.646251   4.757885   5.734896   4.953549   6.011852
    14  F    2.853961   4.204331   4.908313   4.948966   6.009549
    15  F    3.041413   4.312443   5.085726   4.915812   5.971750
                    6          7          8          9         10
     6  C    0.000000
     7  C    1.419510   0.000000
     8  H    2.153350   1.085341   0.000000
     9  C    2.425424   1.380128   2.160988   0.000000
    10  C    1.412918   2.440185   2.627235   3.704251   0.000000
    11  H    2.035306   3.342617   3.695161   4.460706   1.105488
    12  C    3.796287   2.484897   2.714415   1.500816   4.923927
    13  F    4.129495   2.713416   2.387222   2.375538   4.957404
    14  F    4.709005   3.514092   3.819605   2.374466   5.904492
    15  F    4.548748   3.326345   3.527636   2.369472   5.662993
                   11         12         13         14         15
    11  H    0.000000
    12  C    5.803353   0.000000
    13  F    5.972484   1.347333   0.000000
    14  F    6.718637   1.344877   2.154302   0.000000
    15  F    6.510396   1.351297   2.154761   2.150769   0.000000
 Symmetry turned off by external request.
 Stoichiometry    C8H4F3(1-)
 Framework group  C1[X(C8H4F3)]
 Deg. of freedom    39
 Full point group                 C1      NOp   1
 Rotational constants (GHZ):           2.2447151           0.7738626           0.6394918
 Standard basis: 6-311+G(d,p) (5D, 7F)
   266 basis functions,   428 primitive gaussians,   277 cartesian basis functions
    40 alpha electrons       40 beta electrons
       nuclear repulsion energy       577.9449022359 Hartrees.
 NAtoms=   15 NActive=   15 NUniq=   15 SFac= 1.00D+00 NAtFMM=   60 NAOKFM=F Big=F
 Integral buffers will be    131072 words long.
 Raffenetti 2 integral format.
 Two-electron integral symmetry is turned off.
 ------------------------------------------------------------------------------
 Polarizable Continuum Model (PCM)
 =================================
 Model                : PCM.
 Atomic radii         : SMD-Coulomb.
 Polarization charges : Total charges.
 Charge compensation  : None.
 Solution method      : Matrix inversion.
 Cavity type          : VdW (van der Waals Surface) (Alpha=1.000).
 Cavity algorithm     : GePol (No added spheres)
                        Default sphere list used, NSphG=   15.
                        Lebedev-Laikov grids with approx.  5.0 points / Ang**2.
                        Smoothing algorithm: York/Karplus (Gamma=1.0000).
                        Polarization charges: spherical gaussians, with
                                              point-specific exponents (IZeta= 3).
                        Self-potential: point-specific (ISelfS= 7).
                        Self-field    : sphere-specific E.n sum rule (ISelfD= 2).
 1st derivatives      : Analytical E(r).r(x)/FMM algorithm (CHGder, D1EAlg=3).
                        Cavity 1st derivative terms included.
 Solvent              : TetraHydroFuran, Eps=   7.425700 Eps(inf)=   1.974025
 ------------------------------------------------------------------------------
 Spheres list:
 ISph  on   Nord     Re0    Alpha      Xe            Ye            Ze
    1   C      1    1.8500  1.000      6.305740      6.984280      5.085423
    2   C      2    1.8500  1.000      5.209919      6.098557      5.087654
    3   H      3    1.2000  1.000      5.341219      5.092720      5.476807
    4   C      4    1.8500  1.000      3.969075      6.462898      4.607022
    5   H      5    1.2000  1.000      3.143367      5.755927      4.618655
    6   C      6    1.8500  1.000      3.730776      7.764807      4.083961
    7   C      7    1.8500  1.000      4.824149      8.670091      4.081660
    8   H      8    1.2000  1.000      4.657510      9.667861      3.688402
    9   C      9    1.8500  1.000      6.052212      8.272262      4.569865
   10   C     10    1.8500  1.000      2.484447      8.195565      3.576566
   11   H     11    1.2000  1.000      1.783967      7.344848      3.664392
   12   C     12    1.8500  1.000      7.202950      9.234710      4.525755
   13   F     13    1.7300  1.000      6.819425     10.499780      4.265343
   14   F     14    1.7300  1.000      7.894693      9.279693      5.678214
   15   F     15    1.7300  1.000      8.101641      8.914282      3.568841
 ------------------------------------------------------------------------------
 ------------------------------------------------------------------------------
 Atomic radii for non-electrostatic terms: SMD-CDS.
 ------------------------------------------------------------------------------
 Nuclear repulsion after PCM non-electrostatic terms =      577.9458790152 Hartrees.
 One-electron integrals computed using PRISM.
 NBasis=   266 RedAO= T EigKep=  1.61D-06  NBF=   266
 NBsUse=   266 1.00D-06 EigRej= -1.00D+00 NBFU=   266
 Initial guess from the checkpoint file:  "2-cf3-ph-anion-opt-freq-2-thf-512.chk"
 B after Tr=     0.063664   -0.084335    0.070232
         Rot=    0.999995    0.001755   -0.000743   -0.002530 Ang=   0.36 deg.
 ExpMin= 4.38D-02 ExpMax= 1.14D+04 ExpMxC= 1.72D+03 IAcc=3 IRadAn=         5 AccDes= 0.00D+00
 Harris functional with IExCor= 1009 and IRadAn=       5 diagonalized for initial guess.
 HarFok:  IExCor= 1009 AccDes= 0.00D+00 IRadAn=         5 IDoV= 1 UseB2=F ITyADJ=14
 ICtDFT=  3500011 ScaDFX=  1.000000  1.000000  1.000000  1.000000
 FoFCou: FMM=F IPFlag=           0 FMFlag=      100000 FMFlg1=           0
         NFxFlg=           0 DoJE=T BraDBF=F KetDBF=T FulRan=T
         wScrn=  0.000000 ICntrl=       500 IOpCl=  0 I1Cent=   200000004 NGrid=           0
         NMat0=    1 NMatS0=      1 NMatT0=    0 NMatD0=    1 NMtDS0=    0 NMtDT0=    0
 Symmetry not used in FoFCou.
 Requested convergence on RMS density matrix=1.00D-08 within 512 cycles.
 Requested convergence on MAX density matrix=1.00D-06.
 Requested convergence on             energy=1.00D-06.
 Level shift goal  0.100 maximum shift  0.100.
 No special actions if energy rises.
 Dynamic level shift is on during FON iterations.
 Inv3:  Mode=1 IEnd=     5475603.
 Iteration    1 A*A^-1 deviation from unit magnitude is 7.55D-15 for   1350.
 Iteration    1 A*A^-1 deviation from orthogonality  is 2.00D-15 for   1350   1275.
 Iteration    1 A^-1*A deviation from unit magnitude is 7.33D-15 for   1350.
 Iteration    1 A^-1*A deviation from orthogonality  is 5.32D-15 for    896    619.
 Error on total polarization charges =  0.04626
 SCF Done:  E(RM062X) =  -606.690927097     A.U. after   16 cycles
            NFock= 16  Conv=0.54D-08     -V/T= 2.0030
 SMD-CDS (non-electrostatic) energy       (kcal/mol) =       0.61
 (included in total energy above)
 D1PCM: PCM CHGder 1st derivatives, ID1Alg=3 FixD1E=F DoIter=F DoCFld=F I1PDM=0.
 Calling FoFJK, ICntrl=      2127 FMM=F ISym2X=0 I1Cent= 0 IOpClX= 0 NMat=1 NMatS=1 NMatT=0.
 -------------------------------------------------------------------
 Center     Atomic                   Forces (Hartrees/Bohr)
 Number     Number              X              Y              Z
 -------------------------------------------------------------------
      1        6           0.018288636   -0.003074723    0.005195165
      2        6          -0.007250176    0.002832088   -0.002953101
      3        1          -0.000707027   -0.001205962    0.000143500
      4        6          -0.000339080   -0.005576149    0.001923758
      5        1          -0.001266486    0.000215570   -0.000431184
      6        6          -0.005166808    0.002098324   -0.002176212
      7        6           0.003484096    0.004645770   -0.000355720
      8        1          -0.001068010    0.000277830   -0.000445383
      9        6          -0.008284373   -0.001007906   -0.001365220
     10        6           0.002182237   -0.000391096    0.000670983
     11        1          -0.000215610   -0.000142332    0.000109478
     12        6          -0.002026739   -0.002996700    0.000925640
     13        9           0.000809274    0.002470911   -0.000606478
     14        9           0.000249000    0.001580553    0.000081601
     15        9           0.001311066    0.000273823   -0.000716827
 -------------------------------------------------------------------
 Cartesian Forces:  Max     0.018288636 RMS     0.003809189

 GradGradGradGradGradGradGradGradGradGradGradGradGradGradGradGradGradGrad
 Berny optimization.
 Using GEDIIS/GDIIS optimizer.
 FormGI is forming the generalized inverse of G from B-inverse, IUseBI=4.
 Internal  Forces:  Max     0.009668009 RMS     0.002353789
 Search for a local minimum.
 Step number   2 out of a maximum of   76
 All quantities printed in internal units (Hartrees-Bohrs-Radians)
 Mixed Optimization -- RFO/linear search
 Update second derivatives using D2CorX and points    1    2
 DE= -1.46D-02 DEPred=-1.48D-02 R= 9.89D-01
 TightC=F SS=  1.41D+00  RLast= 3.01D-01 DXNew= 5.0454D-01 9.0325D-01
 Trust test= 9.89D-01 RLast= 3.01D-01 DXMaxT set to 5.05D-01
 ITU=  1  0
 Use linear search instead of GDIIS.
     Eigenvalues ---    0.00286   0.00469   0.01038   0.01450   0.02005
     Eigenvalues ---    0.02364   0.02680   0.02949   0.03235   0.03675
     Eigenvalues ---    0.11053   0.11365   0.11991   0.12650   0.13627
     Eigenvalues ---    0.18207   0.18400   0.18980   0.19771   0.20495
     Eigenvalues ---    0.20752   0.25591   0.25812   0.28254   0.31106
     Eigenvalues ---    0.32190   0.34147   0.35654   0.36104   0.36304
     Eigenvalues ---    0.36923   0.38585   0.39561   0.43347   0.44322
     Eigenvalues ---    0.46874   0.49713   0.51771   0.56053
 RFO step:  Lambda=-4.61769060D-04 EMin= 2.85808271D-03
 Quartic linear search produced a step of  0.26631.
 Iteration  1 RMS(Cart)=  0.06307746 RMS(Int)=  0.00314560
 Iteration  2 RMS(Cart)=  0.00332420 RMS(Int)=  0.00024583
 Iteration  3 RMS(Cart)=  0.00000786 RMS(Int)=  0.00024577
 Iteration  4 RMS(Cart)=  0.00000000 RMS(Int)=  0.00024577
 Variable       Old X    -DE/DX   Delta X   Delta X   Delta X     New X
                                 (Linear)    (Quad)   (Total)
    R1        2.66266   0.00929   0.01862   0.00449   0.02346   2.68612
    R2        2.66510   0.00650   0.01516   0.00450   0.02004   2.68514
    R3        2.05310   0.00108   0.00153   0.00220   0.00373   2.05684
    R4        2.60717   0.00158  -0.00591   0.00502  -0.00091   2.60626
    R5        2.05428   0.00082   0.00084   0.00057   0.00141   2.05569
    R6        2.68936   0.00270   0.00264   0.00548   0.00773   2.69709
    R7        2.68248   0.00199   0.00154   0.00512   0.00630   2.68878
    R8        2.67003  -0.00218  -0.00943   0.00137  -0.00806   2.66197
    R9        2.05100   0.00058   0.00029  -0.00002   0.00028   2.05127
   R10        2.60806   0.00122  -0.00280   0.00023  -0.00252   2.60554
   R11        2.83613   0.00112   0.00014   0.00163   0.00177   2.83790
   R12        2.08907   0.00026   0.00118  -0.00020   0.00098   2.09005
   R13        2.54609   0.00221   0.00545   0.00016   0.00560   2.55169
   R14        2.54145   0.00026   0.00184   0.00441   0.00625   2.54770
   R15        2.55358   0.00131   0.00375  -0.00348   0.00027   2.55385
    A1        2.02067  -0.00967  -0.05047   0.00211  -0.04721   1.97346
    A2        2.08122  -0.00162  -0.01402   0.00544  -0.00872   2.07250
    A3        2.13284   0.00507   0.03015  -0.00283   0.02760   2.16044
    A4        2.06913  -0.00345  -0.01613  -0.00261  -0.01888   2.05025
    A5        2.10328   0.00127   0.00281   0.00292   0.00598   2.10926
    A6        2.11791  -0.00031  -0.00001  -0.00014  -0.00065   2.11726
    A7        2.06200  -0.00095  -0.00280  -0.00278  -0.00533   2.05667
    A8        2.04321  -0.00084  -0.00953   0.00163  -0.00877   2.03444
    A9        2.16348   0.00064   0.00393   0.00060   0.00496   2.16844
   A10        2.07650   0.00021   0.00559  -0.00223   0.00380   2.08030
   A11        2.05852  -0.00105  -0.00355  -0.00047  -0.00382   2.05470
   A12        2.09552  -0.00003  -0.00049  -0.00176  -0.00267   2.09286
   A13        2.12915   0.00108   0.00405   0.00223   0.00648   2.13563
   A14        2.15619   0.00578   0.03033   0.00102   0.03171   2.18790
   A15        2.04718  -0.00182  -0.01403  -0.00874  -0.02297   2.02421
   A16        2.07946  -0.00397  -0.01633   0.00793  -0.00859   2.07087
   A17        1.87108   0.00007   0.00001   0.00159   0.00160   1.87267
   A18        1.97094   0.00179   0.00358   0.00623   0.00977   1.98071
   A19        1.97212   0.00144   0.00644  -0.00842  -0.00201   1.97011
   A20        1.95916   0.00068   0.00248   0.00278   0.00521   1.96437
   A21        1.85525  -0.00203  -0.00544  -0.00241  -0.00789   1.84737
   A22        1.84948  -0.00150  -0.00500   0.00064  -0.00441   1.84507
   A23        1.84698  -0.00081  -0.00327   0.00117  -0.00214   1.84483
    D1       -3.13674  -0.00004   0.00049  -0.00252  -0.00206  -3.13880
    D2        0.00823   0.00000   0.00138  -0.00467  -0.00331   0.00492
    D3       -0.00799  -0.00014  -0.00156   0.00232   0.00077  -0.00722
    D4       -3.12062   0.00012   0.00027  -0.00608  -0.00573  -3.12635
    D5        3.13767   0.00000  -0.00081   0.00351   0.00269   3.14036
    D6       -0.00343   0.00005  -0.00038   0.00359   0.00318  -0.00025
    D7       -0.00057   0.00003   0.00008   0.00136   0.00143   0.00086
    D8        3.14152   0.00009   0.00051   0.00144   0.00193  -3.13974
    D9       -0.00215  -0.00004  -0.00066   0.00006  -0.00060  -0.00275
   D10        3.14005  -0.00002  -0.00075  -0.00228  -0.00300   3.13706
   D11        3.13992   0.00001  -0.00023   0.00014  -0.00012   3.13981
   D12       -0.00106   0.00003  -0.00032  -0.00220  -0.00251  -0.00357
   D13       -3.13872   0.00000  -0.00003  -0.00273  -0.00269  -3.14141
   D14        0.00247  -0.00009   0.00048  -0.00233  -0.00179   0.00068
   D15        0.00229  -0.00002   0.00006  -0.00051  -0.00042   0.00187
   D16       -3.13971  -0.00011   0.00057  -0.00011   0.00048  -3.13922
   D17       -0.00757   0.00010   0.00035   0.00576   0.00610  -0.00147
   D18        3.13464   0.00012   0.00027   0.00337   0.00365   3.13829
   D19        0.00278   0.00022   0.00070   0.00111   0.00187   0.00465
   D20        3.11491   0.00000  -0.00111   0.00939   0.00833   3.12324
   D21       -3.13923   0.00013   0.00122   0.00153   0.00281  -3.13642
   D22       -0.02710  -0.00010  -0.00059   0.00982   0.00927  -0.01783
   D23       -2.93285  -0.00052  -0.00380  -0.12449  -0.12829  -3.06114
   D24       -0.82630  -0.00079  -0.00362  -0.12929  -0.13292  -0.95922
   D25        1.26081  -0.00033  -0.00163  -0.13176  -0.13339   1.12742
   D26        0.23638  -0.00044  -0.00267  -0.13240  -0.13506   0.10132
   D27        2.34293  -0.00071  -0.00249  -0.13720  -0.13969   2.20325
   D28       -1.85314  -0.00025  -0.00049  -0.13967  -0.14016  -1.99330
         Item               Value     Threshold  Converged?
 Maximum Force            0.009668     0.000450     NO 
 RMS     Force            0.002354     0.000300     NO 
 Maximum Displacement     0.252829     0.001800     NO 
 RMS     Displacement     0.063166     0.001200     NO 
 Predicted change in Energy=-9.687364D-04
 GradGradGradGradGradGradGradGradGradGradGradGradGradGradGradGradGradGrad

                          Input orientation:                          
 ---------------------------------------------------------------------
 Center     Atomic      Atomic             Coordinates (Angstroms)
 Number     Number       Type             X           Y           Z
 ---------------------------------------------------------------------
      1          6           0        6.346327    6.965848    5.062014
      2          6           0        5.223114    6.094770    5.052382
      3          1           0        5.346274    5.077736    5.420018
      4          6           0        3.972929    6.460386    4.599088
      5          1           0        3.146018    5.753702    4.612420
      6          6           0        3.720334    7.772447    4.097397
      7          6           0        4.820108    8.675203    4.094422
      8          1           0        4.648939    9.678432    3.716909
      9          6           0        6.050110    8.261965    4.560680
     10          6           0        2.471208    8.209710    3.614918
     11          1           0        1.768684    7.360103    3.703689
     12          6           0        7.197183    9.230480    4.522406
     13          9           0        6.839896   10.472608    4.131551
     14          9           0        7.797252    9.379864    5.720406
     15          9           0        8.172714    8.845026    3.670259
 ---------------------------------------------------------------------
                    Distance matrix (angstroms):
                    1          2          3          4          5
     1  C    0.000000
     2  C    1.421435   0.000000
     3  H    2.166389   1.088432   0.000000
     4  C    2.470387   1.379171   2.114645   0.000000
     5  H    3.451581   2.150401   2.439318   1.087824   0.000000
     6  C    2.911516   2.446415   3.413865   1.427236   2.161116
     7  C    2.487463   2.781858   3.869861   2.424421   3.406768
     8  H    3.471102   3.867273   4.955125   3.404564   4.297002
     9  C    1.420915   2.371166   3.372412   2.749881   3.837684
    10  C    4.319471   3.756629   4.618837   2.506769   2.735389
    11  H    4.791169   3.918307   4.577569   2.543605   2.302904
    12  C    2.478646   3.743059   4.634312   4.251483   5.339290
    13  F    3.661521   4.756824   5.744189   4.953385   6.011992
    14  F    2.892427   4.226615   4.960426   4.940258   6.000888
    15  F    2.967150   4.263133   5.024230   4.918071   5.975920
                    6          7          8          9         10
     6  C    0.000000
     7  C    1.422842   0.000000
     8  H    2.154033   1.085488   0.000000
     9  C    2.425308   1.378792   2.163703   0.000000
    10  C    1.408652   2.442118   2.628700   3.702126   0.000000
    11  H    2.033217   3.345646   3.697390   4.458520   1.106007
    12  C    3.794070   2.478303   2.709803   1.501752   4.919385
    13  F    4.125979   2.703995   2.367052   2.386390   4.947025
    14  F    4.673244   3.464644   3.743664   2.376376   5.845433
    15  F    4.599626   3.383596   3.621289   2.374501   5.737060
                   11         12         13         14         15
    11  H    0.000000
    12  C    5.799759   0.000000
    13  F    5.965563   1.350298   0.000000
    14  F    6.670098   1.348185   2.152924   0.000000
    15  F    6.574018   1.351440   2.153653   2.151772   0.000000
 Symmetry turned off by external request.
 Stoichiometry    C8H4F3(1-)
 Framework group  C1[X(C8H4F3)]
 Deg. of freedom    39
 Full point group                 C1      NOp   1
 Rotational constants (GHZ):           2.2362618           0.7746603           0.6393924
 Standard basis: 6-311+G(d,p) (5D, 7F)
   266 basis functions,   428 primitive gaussians,   277 cartesian basis functions
    40 alpha electrons       40 beta electrons
       nuclear repulsion energy       577.4645525936 Hartrees.
 NAtoms=   15 NActive=   15 NUniq=   15 SFac= 1.00D+00 NAtFMM=   60 NAOKFM=F Big=F
 Integral buffers will be    131072 words long.
 Raffenetti 2 integral format.
 Two-electron integral symmetry is turned off.
 ------------------------------------------------------------------------------
 Polarizable Continuum Model (PCM)
 =================================
 Model                : PCM.
 Atomic radii         : SMD-Coulomb.
 Polarization charges : Total charges.
 Charge compensation  : None.
 Solution method      : Matrix inversion.
 Cavity type          : VdW (van der Waals Surface) (Alpha=1.000).
 Cavity algorithm     : GePol (No added spheres)
                        Default sphere list used, NSphG=   15.
                        Lebedev-Laikov grids with approx.  5.0 points / Ang**2.
                        Smoothing algorithm: York/Karplus (Gamma=1.0000).
                        Polarization charges: spherical gaussians, with
                                              point-specific exponents (IZeta= 3).
                        Self-potential: point-specific (ISelfS= 7).
                        Self-field    : sphere-specific E.n sum rule (ISelfD= 2).
 1st derivatives      : Analytical E(r).r(x)/FMM algorithm (CHGder, D1EAlg=3).
                        Cavity 1st derivative terms included.
 Solvent              : TetraHydroFuran, Eps=   7.425700 Eps(inf)=   1.974025
 ------------------------------------------------------------------------------
 Spheres list:
 ISph  on   Nord     Re0    Alpha      Xe            Ye            Ze
    1   C      1    1.8500  1.000      6.346327      6.965848      5.062014
    2   C      2    1.8500  1.000      5.223114      6.094770      5.052382
    3   H      3    1.2000  1.000      5.346274      5.077736      5.420018
    4   C      4    1.8500  1.000      3.972929      6.460386      4.599088
    5   H      5    1.2000  1.000      3.146018      5.753702      4.612420
    6   C      6    1.8500  1.000      3.720334      7.772447      4.097397
    7   C      7    1.8500  1.000      4.820108      8.675203      4.094422
    8   H      8    1.2000  1.000      4.648939      9.678432      3.716909
    9   C      9    1.8500  1.000      6.050110      8.261965      4.560680
   10   C     10    1.8500  1.000      2.471208      8.209710      3.614918
   11   H     11    1.2000  1.000      1.768684      7.360103      3.703689
   12   C     12    1.8500  1.000      7.197183      9.230480      4.522406
   13   F     13    1.7300  1.000      6.839896     10.472608      4.131551
   14   F     14    1.7300  1.000      7.797252      9.379864      5.720406
   15   F     15    1.7300  1.000      8.172714      8.845026      3.670259
 ------------------------------------------------------------------------------
 ------------------------------------------------------------------------------
 Atomic radii for non-electrostatic terms: SMD-CDS.
 ------------------------------------------------------------------------------
 Nuclear repulsion after PCM non-electrostatic terms =      577.4655493537 Hartrees.
 One-electron integrals computed using PRISM.
 NBasis=   266 RedAO= T EigKep=  1.55D-06  NBF=   266
 NBsUse=   266 1.00D-06 EigRej= -1.00D+00 NBFU=   266
 Initial guess from the checkpoint file:  "2-cf3-ph-anion-opt-freq-2-thf-512.chk"
 B after Tr=     0.114803   -0.173415    0.178307
         Rot=    0.999920    0.010504    0.007023    0.000126 Ang=   1.45 deg.
 ExpMin= 4.38D-02 ExpMax= 1.14D+04 ExpMxC= 1.72D+03 IAcc=3 IRadAn=         5 AccDes= 0.00D+00
 Harris functional with IExCor= 1009 and IRadAn=       5 diagonalized for initial guess.
 HarFok:  IExCor= 1009 AccDes= 0.00D+00 IRadAn=         5 IDoV= 1 UseB2=F ITyADJ=14
 ICtDFT=  3500011 ScaDFX=  1.000000  1.000000  1.000000  1.000000
 FoFCou: FMM=F IPFlag=           0 FMFlag=      100000 FMFlg1=           0
         NFxFlg=           0 DoJE=T BraDBF=F KetDBF=T FulRan=T
         wScrn=  0.000000 ICntrl=       500 IOpCl=  0 I1Cent=   200000004 NGrid=           0
         NMat0=    1 NMatS0=      1 NMatT0=    0 NMatD0=    1 NMtDS0=    0 NMtDT0=    0
 Symmetry not used in FoFCou.
 Requested convergence on RMS density matrix=1.00D-08 within 512 cycles.
 Requested convergence on MAX density matrix=1.00D-06.
 Requested convergence on             energy=1.00D-06.
 Level shift goal  0.100 maximum shift  0.100.
 No special actions if energy rises.
 Dynamic level shift is on during FON iterations.
 Inv3:  Mode=1 IEnd=     5516208.
 Iteration    1 A*A^-1 deviation from unit magnitude is 6.44D-15 for   1335.
 Iteration    1 A*A^-1 deviation from orthogonality  is 1.53D-15 for   1345   1218.
 Iteration    1 A^-1*A deviation from unit magnitude is 6.00D-15 for   1335.
 Iteration    1 A^-1*A deviation from orthogonality  is 4.58D-15 for   1214   1206.
 Error on total polarization charges =  0.04601
 SCF Done:  E(RM062X) =  -606.691921236     A.U. after   15 cycles
            NFock= 15  Conv=0.64D-08     -V/T= 2.0031
 SMD-CDS (non-electrostatic) energy       (kcal/mol) =       0.63
 (included in total energy above)
 D1PCM: PCM CHGder 1st derivatives, ID1Alg=3 FixD1E=F DoIter=F DoCFld=F I1PDM=0.
 Calling FoFJK, ICntrl=      2127 FMM=F ISym2X=0 I1Cent= 0 IOpClX= 0 NMat=1 NMatS=1 NMatT=0.
 -------------------------------------------------------------------
 Center     Atomic                   Forces (Hartrees/Bohr)
 Number     Number              X              Y              Z
 -------------------------------------------------------------------
      1        6           0.000673895    0.000034088   -0.000039515
      2        6          -0.000587132   -0.000885251    0.000313064
      3        1          -0.000065560   -0.000218405    0.000026916
      4        6          -0.000278312   -0.000376593    0.000049980
      5        1          -0.000064602   -0.000027473   -0.000046120
      6        6          -0.000026470    0.000132645    0.000028774
      7        6          -0.000065636    0.000416903    0.000006887
      8        1          -0.000082286    0.000073470   -0.000070470
      9        6           0.000665604    0.000029215   -0.000325798
     10        6          -0.000232526    0.000094988   -0.000076596
     11        1          -0.000010009    0.000039099    0.000020550
     12        6           0.000213559    0.000270845    0.000163253
     13        9           0.000089611    0.000306938   -0.000156549
     14        9          -0.000131874    0.000155368   -0.000030306
     15        9          -0.000098263   -0.000045838    0.000135930
 -------------------------------------------------------------------
 Cartesian Forces:  Max     0.000885251 RMS     0.000264379

 GradGradGradGradGradGradGradGradGradGradGradGradGradGradGradGradGradGrad
 Berny optimization.
 Using GEDIIS/GDIIS optimizer.
 FormGI is forming the generalized inverse of G from B-inverse, IUseBI=4.
 Internal  Forces:  Max     0.001305529 RMS     0.000276511
 Search for a local minimum.
 Step number   3 out of a maximum of   76
 All quantities printed in internal units (Hartrees-Bohrs-Radians)
 Mixed Optimization -- En-DIIS/RFO-DIIS
 Update second derivatives using D2CorX and points    1    2    3
 DE= -9.94D-04 DEPred=-9.69D-04 R= 1.03D+00
 TightC=F SS=  1.41D+00  RLast= 3.41D-01 DXNew= 8.4853D-01 1.0232D+00
 Trust test= 1.03D+00 RLast= 3.41D-01 DXMaxT set to 8.49D-01
 ITU=  1  1  0
 Use linear search instead of GDIIS.
     Eigenvalues ---    0.00275   0.00465   0.01037   0.01446   0.02011
     Eigenvalues ---    0.02363   0.02679   0.02948   0.03234   0.03673
     Eigenvalues ---    0.11055   0.11371   0.11984   0.12649   0.13627
     Eigenvalues ---    0.18275   0.18400   0.18985   0.20382   0.20681
     Eigenvalues ---    0.21212   0.25599   0.26036   0.28256   0.31088
     Eigenvalues ---    0.32199   0.34144   0.35657   0.36107   0.36292
     Eigenvalues ---    0.36927   0.38589   0.39548   0.43131   0.44284
     Eigenvalues ---    0.46745   0.49676   0.50506   0.56045
 RFO step:  Lambda=-4.46413588D-05 EMin= 2.74589439D-03
 Quartic linear search produced a step of  0.07320.
 Iteration  1 RMS(Cart)=  0.02214394 RMS(Int)=  0.00038171
 Iteration  2 RMS(Cart)=  0.00041180 RMS(Int)=  0.00000689
 Iteration  3 RMS(Cart)=  0.00000011 RMS(Int)=  0.00000689
 Variable       Old X    -DE/DX   Delta X   Delta X   Delta X     New X
                                 (Linear)    (Quad)   (Total)
    R1        2.68612   0.00131   0.00172   0.00130   0.00303   2.68915
    R2        2.68514   0.00085   0.00147   0.00035   0.00182   2.68696
    R3        2.05684   0.00021   0.00027   0.00027   0.00054   2.05738
    R4        2.60626   0.00033  -0.00007   0.00064   0.00057   2.60683
    R5        2.05569   0.00007   0.00010   0.00011   0.00021   2.05590
    R6        2.69709   0.00056   0.00057   0.00092   0.00148   2.69856
    R7        2.68878   0.00045   0.00046   0.00081   0.00127   2.69005
    R8        2.66197   0.00027  -0.00059   0.00076   0.00017   2.66213
    R9        2.05127   0.00010   0.00002   0.00020   0.00022   2.05150
   R10        2.60554   0.00046  -0.00018   0.00093   0.00075   2.60629
   R11        2.83790   0.00050   0.00013   0.00085   0.00098   2.83888
   R12        2.09005  -0.00001   0.00007  -0.00005   0.00003   2.09008
   R13        2.55169   0.00031   0.00041   0.00002   0.00043   2.55213
   R14        2.54770  -0.00007   0.00046   0.00113   0.00159   2.54929
   R15        2.55385  -0.00015   0.00002  -0.00170  -0.00168   2.55217
    A1        1.97346   0.00024  -0.00346   0.00368   0.00025   1.97371
    A2        2.07250   0.00022  -0.00064   0.00113   0.00049   2.07298
    A3        2.16044  -0.00025   0.00202  -0.00249  -0.00047   2.15997
    A4        2.05025   0.00003  -0.00138   0.00137  -0.00002   2.05023
    A5        2.10926   0.00005   0.00044   0.00023   0.00067   2.10993
    A6        2.11726  -0.00005  -0.00005  -0.00014  -0.00020   2.11706
    A7        2.05667   0.00000  -0.00039  -0.00009  -0.00047   2.05620
    A8        2.03444   0.00029  -0.00064   0.00149   0.00084   2.03528
    A9        2.16844  -0.00011   0.00036  -0.00083  -0.00046   2.16798
   A10        2.08030  -0.00018   0.00028  -0.00066  -0.00037   2.07993
   A11        2.05470  -0.00014  -0.00028  -0.00065  -0.00093   2.05377
   A12        2.09286   0.00011  -0.00020  -0.00009  -0.00029   2.09257
   A13        2.13563   0.00003   0.00047   0.00075   0.00122   2.13685
   A14        2.18790  -0.00034   0.00232  -0.00244  -0.00012   2.18777
   A15        2.02421   0.00063  -0.00168   0.00085  -0.00086   2.02335
   A16        2.07087  -0.00029  -0.00063   0.00181   0.00115   2.07202
   A17        1.87267   0.00003   0.00012  -0.00010   0.00001   1.87269
   A18        1.98071   0.00026   0.00072   0.00073   0.00144   1.98215
   A19        1.97011   0.00002  -0.00015  -0.00238  -0.00252   1.96759
   A20        1.96437  -0.00013   0.00038   0.00073   0.00111   1.96547
   A21        1.84737  -0.00017  -0.00058  -0.00006  -0.00063   1.84673
   A22        1.84507  -0.00007  -0.00032   0.00070   0.00038   1.84545
   A23        1.84483   0.00007  -0.00016   0.00038   0.00023   1.84506
    D1       -3.13880  -0.00002  -0.00015  -0.00114  -0.00129  -3.14009
    D2        0.00492   0.00001  -0.00024  -0.00147  -0.00172   0.00320
    D3       -0.00722  -0.00002   0.00006   0.00086   0.00092  -0.00630
    D4       -3.12635  -0.00016  -0.00042  -0.01085  -0.01127  -3.13762
    D5        3.14036  -0.00002   0.00020   0.00119   0.00139  -3.14144
    D6       -0.00025  -0.00001   0.00023   0.00115   0.00138   0.00114
    D7        0.00086   0.00001   0.00010   0.00087   0.00098   0.00184
    D8       -3.13974   0.00002   0.00014   0.00082   0.00096  -3.13877
    D9       -0.00275   0.00002  -0.00004  -0.00006  -0.00010  -0.00285
   D10        3.13706   0.00004  -0.00022   0.00071   0.00049   3.13755
   D11        3.13981   0.00003  -0.00001  -0.00011  -0.00011   3.13969
   D12       -0.00357   0.00004  -0.00018   0.00066   0.00048  -0.00309
   D13       -3.14141   0.00003  -0.00020  -0.00020  -0.00039   3.14138
   D14        0.00068  -0.00003  -0.00013  -0.00053  -0.00066   0.00002
   D15        0.00187   0.00002  -0.00003  -0.00093  -0.00096   0.00091
   D16       -3.13922  -0.00005   0.00004  -0.00126  -0.00122  -3.14045
   D17       -0.00147   0.00002   0.00045   0.00124   0.00169   0.00021
   D18        3.13829   0.00004   0.00027   0.00203   0.00230   3.14059
   D19        0.00465   0.00004   0.00014   0.00009   0.00022   0.00487
   D20        3.12324   0.00018   0.00061   0.01208   0.01270   3.13593
   D21       -3.13642  -0.00003   0.00021  -0.00026  -0.00006  -3.13648
   D22       -0.01783   0.00011   0.00068   0.01173   0.01242  -0.00542
   D23       -3.06114  -0.00008  -0.00939  -0.02943  -0.03882  -3.09996
   D24       -0.95922  -0.00009  -0.00973  -0.03075  -0.04048  -0.99970
   D25        1.12742  -0.00008  -0.00976  -0.03143  -0.04120   1.08622
   D26        0.10132  -0.00020  -0.00989  -0.04026  -0.05014   0.05118
   D27        2.20325  -0.00021  -0.01022  -0.04158  -0.05180   2.15144
   D28       -1.99330  -0.00020  -0.01026  -0.04226  -0.05252  -2.04582
         Item               Value     Threshold  Converged?
 Maximum Force            0.001306     0.000450     NO 
 RMS     Force            0.000277     0.000300     YES
 Maximum Displacement     0.078301     0.001800     NO 
 RMS     Displacement     0.022151     0.001200     NO 
 Predicted change in Energy=-2.849493D-05
 GradGradGradGradGradGradGradGradGradGradGradGradGradGradGradGradGradGrad

                          Input orientation:                          
 ---------------------------------------------------------------------
 Center     Atomic      Atomic             Coordinates (Angstroms)
 Number     Number       Type             X           Y           Z
 ---------------------------------------------------------------------
      1          6           0        6.351157    6.961039    5.045702
      2          6           0        5.226053    6.089749    5.040380
      3          1           0        5.350588    5.070823    5.403129
      4          6           0        3.972846    6.458779    4.597393
      5          1           0        3.144435    5.753758    4.614348
      6          6           0        3.718716    7.773589    4.101482
      7          6           0        4.819790    8.675783    4.092981
      8          1           0        4.645829    9.680062    3.719212
      9          6           0        6.052883    8.259792    4.549706
     10          6           0        2.466378    8.214141    3.630197
     11          1           0        1.762874    7.365830    3.723633
     12          6           0        7.198306    9.231419    4.521964
     13          9           0        6.851104   10.463359    4.091037
     14          9           0        7.759051    9.411099    5.735700
     15          9           0        8.201081    8.829058    3.711694
 ---------------------------------------------------------------------
                    Distance matrix (angstroms):
                    1          2          3          4          5
     1  C    0.000000
     2  C    1.423036   0.000000
     3  H    2.168365   1.088719   0.000000
     4  C    2.471762   1.379474   2.115137   0.000000
     5  H    3.453499   2.151169   2.440428   1.087937   0.000000
     6  C    2.912307   2.447225   3.415002   1.428018   2.161608
     7  C    2.488596   2.783915   3.872206   2.426284   3.408353
     8  H    3.472867   3.869430   4.957555   3.405991   4.297827
     9  C    1.421879   2.373498   3.375066   2.751813   3.839721
    10  C    4.320351   3.757322   4.619785   2.507232   2.735289
    11  H    4.792083   3.918650   4.578150   2.543654   2.302360
    12  C    2.479232   3.745481   4.636926   4.254036   5.341960
    13  F    3.664366   4.761355   5.749137   4.957562   6.016111
    14  F    2.908790   4.234491   4.974867   4.934297   5.994018
    15  F    2.948100   4.256760   5.011047   4.927541   5.986812
                    6          7          8          9         10
     6  C    0.000000
     7  C    1.423513   0.000000
     8  H    2.154138   1.085606   0.000000
     9  C    2.426033   1.379191   2.164876   0.000000
    10  C    1.408740   2.442505   2.628090   3.702783   0.000000
[...]
 ! D24   D(1,9,12,14)          -58.7783         -DE/DX =    0.0                 !
 ! D25   D(1,9,12,15)           60.7991         -DE/DX =    0.0                 !
 ! D26   D(7,9,12,13)            1.047          -DE/DX =    0.0                 !
 ! D27   D(7,9,12,14)          121.2589         -DE/DX =    0.0                 !
 ! D28   D(7,9,12,15)         -119.1638         -DE/DX =    0.0                 !
 --------------------------------------------------------------------------------
 GradGradGradGradGradGradGradGradGradGradGradGradGradGradGradGradGradGrad


 ----------------------------------------------------------------------

 Electric dipole moment (input orientation):
 (Debye = 10**-18 statcoulomb cm , SI units = C m)
                  (au)            (Debye)         (10**-30 SI)
   Tot        0.209401D+02      0.532245D+02      0.177538D+03
   x         -0.110221D+02     -0.280153D+02     -0.934490D+02
   y         -0.156727D+02     -0.398361D+02     -0.132879D+03
   z         -0.844801D+01     -0.214727D+02     -0.716252D+02

 Dipole polarizability, Alpha (input orientation).
 (esu units = cm**3 , SI units = C**2 m**2 J**-1)
 Alpha(0;0):
               (au)            (10**-24 esu)      (10**-40 SI)
   iso        0.154714D+03      0.229263D+02      0.255089D+02
   aniso      0.125593D+03      0.186110D+02      0.207075D+02
   xx         0.214599D+03      0.318002D+02      0.353825D+02
   yx        -0.165526D+02     -0.245284D+01     -0.272916D+01
   yy         0.144571D+03      0.214232D+02      0.238366D+02
   zx         0.374329D+02      0.554698D+01      0.617185D+01
   zy        -0.223846D+02     -0.331705D+01     -0.369072D+01
   zz         0.104973D+03      0.155554D+02      0.173077D+02

 ----------------------------------------------------------------------

 Dipole orientation:
     6          0.93762238          2.59629280        -19.99635473
     6         -0.30633907          2.98145127        -17.64322440
     1          0.06383318          4.71536582        -16.59975867
     6         -1.97112193          1.27504368        -16.58874265
     1         -2.87486968          1.66068788        -14.78290276
     6         -2.56528410         -1.04945760        -17.82342989
     6         -1.35969327         -1.50185771        -20.18462903
     1         -1.78960132         -3.25922645        -21.15176070
     6          0.28752335          0.26496618        -21.16396044
     6         -4.24220501         -2.87539234        -16.85262269
     1         -4.95810378         -2.15364515        -15.02652589
     6          1.52327870         -0.26965558        -23.66402696
     9          0.80478672         -2.48804687        -24.70156632
     9          1.01177128          1.51228391        -25.41477926
     9          4.06723320         -0.37215649        -23.50570782

 Electric dipole moment (dipole orientation):
 (Debye = 10**-18 statcoulomb cm , SI units = C m)
                  (au)            (Debye)         (10**-30 SI)
   Tot        0.209401D+02      0.532245D+02      0.177538D+03
   x          0.000000D+00      0.000000D+00      0.000000D+00
   y          0.000000D+00      0.000000D+00      0.000000D+00
   z          0.209401D+02      0.532245D+02      0.177538D+03

 Dipole polarizability, Alpha (dipole orientation).
 (esu units = cm**3 , SI units = C**2 m**2 J**-1)
 Alpha(0;0):
               (au)            (10**-24 esu)      (10**-40 SI)
   iso        0.154714D+03      0.229263D+02      0.255089D+02
   aniso      0.125593D+03      0.186110D+02      0.207075D+02
   xx         0.147925D+03      0.219202D+02      0.243895D+02
   yx         0.552419D+02      0.818601D+01      0.910817D+01
   yy         0.169353D+03      0.250955D+02      0.279225D+02
   zx        -0.435976D+02     -0.646050D+01     -0.718828D+01
   zy        -0.120200D+02     -0.178118D+01     -0.198183D+01
   zz         0.146865D+03      0.217632D+02      0.242148D+02

 ----------------------------------------------------------------------
 Unable to Open any file for archive entry.
 1\1\GINC-CN013\Freq\RM062X\6-311+G(d,p)\C8H4F3(1-)\TAHMINAAFROZ\30-May
 -2025\0\\#N Geom=AllCheck Guess=TCheck SCRF=Check GenChk RM062X/6-311+
 G(d,p) Freq\\2-cf3-ph-anion-opt-freq-2-thf-512\\-1,1\C,6.3536289888,6.
 9550713748,5.0361436757\C,5.2270816662,6.0853996022,5.0328139838\H,5.3
 512168488,5.0658250051,5.3936810118\C,3.9728387867,6.4576122655,4.5955
 505458\H,3.1432973622,5.7540116863,4.6144914118\C,3.7191065296,7.77397
 56778,4.1039862615\C,4.8216165098,8.6739228029,4.0930941741\H,4.647364
 9302,9.6795949757,3.7232799565\C,6.0564410974,8.255345417,4.5431354628
 \C,2.4652599091,8.2191362286,3.6406268337\H,1.7597840347,7.3727429103,
 3.7360385949\C,7.1982285422,9.2319550715,4.5209229926\F,6.8525409193,1
 0.4549654216,4.0639267776\F,7.7333342974,9.4347713211,5.7429277981\F,8
 .2193505777,8.8239502397,3.7379385193\\Version=AS64L-G16RevC.01\HF=-60
 6.6919637\RMSD=3.411e-09\RMSF=8.673e-06\ZeroPoint=0.0947608\Thermal=0.
 103667\ETot=-606.5882967\HTot=-606.5873525\GTot=-606.632202\Dipole=-0.
 0417087,0.0241799,-0.0095905\DipoleDeriv=0.2464443,-0.0795613,0.264676
 5,0.1167123,-0.1250888,-0.1553208,0.1922005,-0.2006313,-0.5810307,-1.4
 411256,-0.037957,-0.3096756,-0.1944553,0.2437998,-0.1801374,-0.2573121
 ,-0.1427339,-0.1755642,0.0726075,0.0009731,-0.0113067,-0.0045442,-0.19
 11464,0.0981304,-0.009153,0.1007555,0.0819207,0.8208106,-0.0511377,0.1
 954373,-0.9023363,0.3038546,-0.2889587,0.4714279,-0.0753312,0.2559675,
 -0.0427513,-0.124064,-0.0068438,-0.0859312,0.0183134,0.018756,-0.01989
 79,0.0099232,0.1359494,-2.2641058,0.560358,-0.7746386,0.8367203,-0.463
 3182,0.3836496,-0.8692604,0.3152988,-0.2576972,1.1872693,-0.4184168,0.
 4314732,0.308535,-0.0777152,0.1116423,0.1953591,-0.0739606,0.1042241,0
 .1154465,0.054131,-0.0237362,0.0179164,-0.0027653,0.0487216,-0.0132387
 ,0.0628098,0.113339,-0.852466,0.4932725,-0.3487048,0.5347704,-0.541054
 8,0.2738977,-0.3585694,0.2579899,-0.2905244,1.1950331,-0.3460681,0.625
 6156,-0.2512609,0.0797909,-0.3583772,0.5990591,-0.3835179,-0.5501597,-
 0.0032325,-0.087997,-0.0404256,-0.4271207,-0.1910482,0.0407583,0.07062
 72,0.1268697,0.2450344,2.4456691,0.2277404,0.0427466,0.4293971,2.08649
 38,0.0755602,-0.0235296,0.023074,1.9685875,-0.531781,-0.0066742,-0.034
 7811,-0.0384761,-1.1655481,0.2315097,-0.0259515,0.2394618,-0.4502066,-
 0.7794929,-0.2071008,-0.3671604,-0.2817334,-0.494791,-0.2012617,-0.357
 4247,-0.1611906,-0.982399,-1.1683251,0.0225017,0.3573236,-0.0581934,-0
 .4797763,-0.0985699,0.4056635,-0.0988172,-0.6174409\Polar=214.5986245,
 -16.5526009,144.5712263,37.432894,-22.3845849,104.9727497\Quadrupole=1
 3.5531558,-93.5106003,79.9574445,-164.7592923,-100.5353896,-129.763953
 3\PG=C01 [X(C8H4F3)]\NImag=0\\0.34727512,0.08531101,0.44538359,0.04855
 182,-0.10676456,0.09606871,-0.20473120,-0.08775978,-0.01405386,0.59551
 182,-0.10135386,-0.16796467,0.01677053,-0.00447159,0.64083610,-0.00972
 349,0.02044027,-0.04702479,0.12065520,-0.16818680,0.21088134,0.0018875
 1,-0.02392901,0.00867805,-0.05765199,0.03178125,-0.01423753,0.06387134
 ,-0.00231424,-0.01445900,0.00352652,0.03624211,-0.28832731,0.08899120,
 -0.03125330,0.30917672,0.00160001,-0.00195603,-0.00071639,-0.01558193,
 0.08786647,-0.07359220,0.01925926,-0.09910481,0.06386037,-0.04914274,-
 0.04215281,-0.00344363,-0.31329571,0.09412370,-0.09270433,-0.00236444,
 -0.00120407,-0.00151796,0.69723453,-0.00247659,0.04547817,-0.00929697,
 0.02347512,-0.14808656,0.03184688,0.03014464,-0.00645951,0.01135557,0.
 06792793,0.60940434,-0.01619343,-0.01949313,0.02051046,-0.06989967,0.0
 4979802,-0.10236266,-0.01162424,0.00341319,0.00097694,0.11687584,-0.13
 289355,0.22107753,-0.00455880,0.00161493,-0.00261431,-0.01335776,-0.02
 079889,0.00071992,0.00066322,0.00052058,0.00111547,-0.21734762,-0.1387
 8993,0.00099058,0.22741669,0.00149048,0.00050424,0.00143908,0.00834460
 ,0.01024384,0.00218277,-0.00018609,0.00018532,-0.00155149,-0.13741818,
 -0.17298127,0.00752951,0.14913093,0.17896383,-0.00260580,0.00145009,0.
 00266910,-0.00870407,-0.00519787,0.00994248,0.00135525,-0.00137134,-0.
 00367523,0.00054544,0.00719150,-0.04471822,0.00239389,-0.01190579,0.03
 041394,0.00160883,-0.01686466,0.00899631,-0.01616937,0.02078524,-0.014
 68183,-0.00340845,0.00193411,-0.00406218,-0.09238803,0.00979053,-0.008
 20175,0.00457080,-0.02219036,0.00782599,0.62675844,-0.01463403,-0.0340
 3651,0.00289448,0.05973788,0.00359439,0.01902388,-0.00129458,0.0027851
 8,0.00206680,-0.00751074,-0.25795328,0.05881426,0.00476510,-0.01441990
 ,0.00652777,0.03552312,0.58427437,0.00857865,0.00236899,-0.01208174,-0
 .02741644,0.00916365,0.00574365,-0.00302974,0.00290820,0.00853505,-0.0
 0256225,0.06310226,-0.09289977,-0.00089653,-0.00028783,0.00186115,0.11
 662901,-0.14089872,0.19733521,0.01493696,0.07274457,-0.02452320,-0.046
 33052,-0.00350420,-0.00854904,-0.00136489,-0.00102185,0.00027746,0.027
 17820,-0.03454177,0.01652713,0.00082451,0.00215384,-0.00204269,-0.1780
 1521,-0.09229280,0.00258663,0.64445220,0.03018344,-0.00654914,0.016076
 73,-0.01049961,-0.00194995,-0.00470545,-0.00033249,0.00030141,-0.00052
 739,-0.01988960,-0.03938318,0.00961067,0.00143503,-0.00378363,0.003587
 08,-0.10878018,-0.19788461,0.01390086,0.00383350,0.67223691,-0.0109377
 0,0.02691120,0.00839227,-0.00626449,-0.00298169,-0.00901629,0.00003605
 ,-0.00070997,-0.00084239,0.01182415,0.00590626,0.00700550,-0.00180520,
 0.00377531,0.00446530,0.00778635,0.01790419,-0.07369950,0.12418464,-0.
 16698373,0.23873119,-0.00517290,0.00165080,-0.00264891,-0.00006955,-0.
 00059670,-0.00011430,0.00009092,0.00018584,0.00039986,-0.00380284,-0.0
 0304551,-0.00160388,0.00043551,-0.00127927,0.00033873,0.00648540,-0.02
 153996,0.00783230,-0.06350545,0.04230297,-0.01893359,0.06193238,0.0009
 6102,0.00084088,0.00103014,0.00009517,0.00051433,0.00020135,0.00018250
 ,-0.00023183,-0.00043419,-0.00372112,0.00031585,0.00102092,0.00015135,
 -0.00059365,0.00047641,0.00481361,-0.01462088,0.00696691,0.04121372,-0
 .30026711,0.09374550,-0.04176227,0.31629466,-0.00250678,0.00129895,0.0
 0221379,-0.00034954,0.00000319,0.00095892,0.00039511,-0.00043207,-0.00
 147046,-0.00135136,0.00114991,0.00565046,-0.00012650,0.00011298,0.0006
 9095,-0.00072119,0.00028886,0.00283376,-0.01867069,0.09391362,-0.07773
 493,0.02275697,-0.10414122,0.06569173,-0.10658076,0.02037037,-0.024028
 85,0.03456308,-0.02552735,0.01896590,-0.00174577,-0.00325162,-0.001672
 53,-0.02104182,0.02248241,-0.01039967,0.00019007,0.00025951,-0.0003756
 0,-0.05723444,-0.01865111,-0.01182540,-0.30698766,0.08853667,-0.090292
 63,0.00370859,-0.00139297,-0.00111285,0.65502956,0.03072520,-0.2282029
 1,0.06913710,-0.02538875,-0.03872086,0.00354730,-0.00570570,-0.0017599
 3,0.00204489,0.01288850,-0.01908244,0.00661629,0.00059777,0.00018670,0
 .00049538,0.01974680,0.02912851,-0.00030504,0.01939574,-0.14134231,0.0
 2942326,0.02324875,-0.00214789,0.00987601,0.01044342,0.54902668,-0.027
 29038,0.06610928,-0.06553112,0.01886350,0.00370035,-0.00370237,-0.0008
 8188,0.00266245,0.00791923,-0.00734246,0.00907177,-0.01359571,-0.00046
 148,0.00040677,0.00096758,-0.02400652,-0.01005665,0.00982154,-0.068060
 89,0.04697234,-0.09896340,-0.00921038,0.00364208,0.00677830,0.12287598
 ,-0.12251829,0.23163547,-0.00356580,-0.00162470,-0.00017111,0.01888323
 ,0.00715459,0.00315147,-0.00064894,-0.00028446,0.00029800,-0.02605477,
 0.02576212,-0.01941319,0.00105794,-0.00155401,0.00101221,-0.26411099,0
 .08265143,-0.08845396,-0.05466134,-0.00005370,-0.01194253,0.00128153,0
 .00260709,0.00032747,0.00452144,-0.01447563,0.00414331,0.45556223,-0.0
 0219610,-0.00763583,0.00169909,0.00304217,-0.00644019,0.00199003,0.001
 79994,-0.00063644,0.00016903,0.03031715,-0.00845781,0.01603018,0.00136
 864,0.00133066,-0.00036226,0.04382223,-0.10464441,0.03776212,-0.006166
 49,0.01129415,-0.00785492,0.00028071,0.00118597,-0.00145895,-0.0116803
 0,0.00587723,-0.00279076,0.04662035,0.30335325,-0.00008261,0.00193064,
 -0.00109546,0.00451926,0.00301878,-0.00253341,-0.00036666,-0.00035228,
 -0.00147906,-0.02088618,0.01491840,0.00694974,0.00003436,-0.00111683,-
 0.00048908,-0.07579121,0.04768759,-0.05681110,-0.01002959,-0.00636575,
 -0.00825337,0.00101181,-0.00090505,-0.00277736,0.00335071,-0.00357551,
 0.00834088,0.09301427,-0.07608373,0.07965987,0.00021812,-0.00008388,0.
 00013958,0.00025175,-0.00022525,-0.00085817,0.00009307,-0.00005097,-0.
 00010851,0.00160977,-0.00207190,0.00329054,0.00026606,0.00130696,-0.00
 018007,-0.02694070,-0.02982838,0.00265002,-0.00455835,0.00293827,-0.00
 496767,0.00014054,-0.00002871,-0.00015396,-0.00151650,-0.00127389,0.00
 076614,-0.13141091,-0.10607131,0.00542082,0.16250859,0.00028725,0.0001
 5943,-0.00006314,-0.00102242,0.00069030,0.00078409,-0.00017300,0.00016
 613,0.00009034,0.00432068,-0.00104096,-0.00132709,0.00013453,0.0004458
 0,-0.00033438,0.00968205,0.00158165,0.00213411,-0.00095443,0.00232426,
 0.00264748,0.00031800,0.00068166,0.00012354,-0.00031108,0.00009116,-0.
 00105300,-0.14740538,-0.19605497,0.02050423,0.13510318,0.19102266,0.00
 002143,-0.00016448,-0.00018367,-0.00057364,0.00099172,0.00342472,-0.00
 006868,0.00012003,0.00052274,0.00118715,-0.00295377,-0.00743234,0.0002
 1070,-0.00002413,-0.00066474,-0.01017146,-0.00789591,0.00061099,-0.003
 70139,0.00362753,0.00911052,-0.00025559,0.00002454,0.00069996,0.000468
 92,-0.00128147,-0.00237352,0.01880207,0.03098743,-0.02275547,-0.006115
 65,-0.02304988,0.02035396,0.01147217,-0.00940194,0.00878271,0.00157474
 ,0.00409621,-0.00348074,0.00116078,0.00142014,-0.00016941,0.00240349,0
 .00154852,0.00017173,-0.00001897,0.00031648,0.00033829,0.00401228,0.00
 407141,-0.00256485,-0.03189096,-0.01842232,-0.00275191,-0.00084460,0.0
 0039942,0.00061705,-0.16317503,-0.05537094,-0.00623649,-0.00248122,0.0
 0115633,-0.00119460,0.00005942,0.00065437,0.00005974,0.55496953,-0.013
 74609,-0.02354906,0.00045327,-0.00089313,-0.00384933,0.00410175,-0.000
 25576,0.00021744,-0.00012509,0.00360135,-0.00062449,0.00108978,0.00036
 445,-0.00008799,-0.00041519,0.01012631,0.00044229,0.00522329,-0.008706
 77,0.01306369,-0.00566572,0.00254320,-0.00185283,0.00006691,-0.0652458
 5,-0.13414983,0.00462258,-0.00205911,0.00288501,-0.00124254,0.00073370
 ,0.00032183,-0.00024869,0.05561622,0.53577826,0.01016272,0.00168110,-0
 .00921778,-0.00187727,0.00551466,0.00769257,0.00037795,0.00029795,0.00
 001250,-0.00050653,0.00054315,-0.00040094,0.00030790,-0.00045511,-0.00
 150850,-0.00447319,0.00369310,0.00633079,-0.00617016,-0.00810276,0.003
 88022,-0.00004754,-0.00050467,-0.00355392,-0.00326243,0.00694635,-0.07
 189923,-0.00011940,-0.00041794,0.00076674,0.00003276,-0.00026143,-0.00
 089788,0.00682723,-0.01074509,0.46602484,-0.00292364,-0.00068035,-0.00
 123882,-0.00051242,-0.00147070,0.00064288,-0.00031184,-0.00028796,0.00
 004095,0.00001815,-0.00080646,0.00026543,0.00000009,-0.00014895,0.0000
 2946,0.00062863,-0.00054935,0.00030674,-0.00418082,-0.00144938,-0.0007
 2194,-0.00142889,-0.00378364,0.00068765,0.01113140,-0.01953752,0.00667
 486,0.00038766,-0.00005619,0.00010092,-0.00007907,-0.00012196,0.000026
 74,-0.07778668,0.02330118,-0.00970290,0.10943516,-0.00866661,-0.005309
 62,0.00017933,-0.00030794,-0.00269681,0.00057135,-0.00080512,-0.000735
 16,0.00001184,0.00002381,-0.00084197,0.00025061,-0.00024796,0.00004053
 ,-0.00006806,-0.00325598,0.00072552,-0.00098603,0.00486168,-0.00165065
 ,0.00187017,-0.00193888,-0.00041519,-0.00050844,0.01541865,-0.03384324
 ,0.01668254,0.00142638,-0.00076228,0.00064519,-0.00015112,-0.00015105,
 0.00000061,0.00649020,-0.22795218,0.05047765,-0.07676481,0.32164028,0.
 00125166,0.00225071,0.00229250,0.00025779,0.00010748,-0.00106194,0.000
 18858,0.00012446,-0.00007824,0.00000400,0.00005095,-0.00006339,0.00005
 849,-0.00002847,0.00010036,0.00113304,-0.00033124,0.00051475,-0.002512
 43,0.00030893,-0.00095318,0.00008392,-0.00096227,0.00027007,-0.0039854
 9,0.00832121,0.00477224,-0.00036650,0.00025323,-0.00007671,0.00003436,
 0.00000135,-0.00002593,-0.00467759,0.05459638,-0.08560761,0.03094257,-
 0.09244786,0.11587350,-0.00122788,-0.00015679,-0.00128856,0.00033904,0
 .00050617,0.00155693,-0.00009111,-0.00028358,-0.00000498,-0.00133129,0
 .00026169,-0.00058463,0.00000985,-0.00018216,-0.00023286,-0.00324862,0
 .00054387,0.00181423,0.00260636,-0.00474067,0.00027397,0.00052684,-0.0
 0013960,-0.00075314,-0.01436994,-0.00801907,-0.03605942,0.00047365,-0.
 00086119,0.00081806,-0.00016672,-0.00036175,-0.00037033,-0.11142862,-0
 .02506083,-0.06988602,-0.00611252,0.01781158,-0.03160308,0.11911252,-0
 .00192535,-0.00189462,-0.00078139,-0.00033186,0.00107082,-0.00023284,0
 .00001741,-0.00020822,-0.00007940,-0.00082847,-0.00007476,0.00000574,-
 0.00012367,-0.00004881,-0.00005897,-0.00322426,0.00103605,0.00043812,0
 .00153998,-0.00470353,0.00019193,0.00001459,0.00001532,-0.00053012,-0.
 01671584,0.00408544,-0.02354640,0.00055592,-0.00070154,0.00080882,-0.0
 0014074,-0.00024244,-0.00033956,-0.02105404,-0.08179211,-0.02837594,0.
 02507638,-0.00356219,0.04818086,0.01194844,0.08382670,-0.00084045,0.00
 268580,0.00165408,0.00010710,-0.00032149,0.00067835,-0.00015703,-0.000
 21925,0.00007650,-0.00045783,-0.00009792,-0.00057124,0.00001193,-0.000
 13225,-0.00006858,-0.00156918,0.00068363,0.00073569,-0.00008239,-0.004
 26535,-0.00013884,0.00051546,-0.00011348,-0.00011933,-0.01253237,-0.00
 293902,-0.01506866,-0.00002610,-0.00047518,0.00048664,-0.00017193,-0.0
 0023338,-0.00022101,-0.07463230,-0.03743616,-0.19356043,-0.03200112,0.
 03493824,-0.04951360,0.10492445,0.03368120,0.33467622,0.00050501,0.000
 96222,-0.00113724,0.00099487,-0.00049861,-0.00134287,-0.00017942,-0.00
 035072,0.00012650,-0.00167488,0.00033921,-0.00020078,-0.00015156,-0.00
 004378,0.00030184,-0.00254856,-0.00099186,-0.00364841,0.00149697,-0.00
 506192,0.00451251,0.00022253,0.00040446,0.00096177,-0.03649222,0.01272
 533,0.02622610,0.00076631,-0.00137594,0.00008065,-0.00047506,-0.000150
 03,0.00047997,-0.18802634,0.01968114,0.07833687,-0.02826521,0.04610611
 ,0.00919069,0.01490845,0.00519151,0.01691176,0.23891912,-0.00164553,-0
 .00276495,0.00369980,-0.00026198,0.00108590,-0.00055578,0.00000932,-0.
 00001481,0.00017347,-0.00047813,-0.00021213,-0.00046540,-0.00012287,0.
 00001430,-0.00001437,-0.00190855,-0.00000838,-0.00149089,0.00144529,-0
 .00170631,0.00182071,-0.00038226,0.00028069,0.00023684,-0.01473490,0.0
 1085369,0.00609493,0.00067911,-0.00059280,0.00012804,-0.00015596,0.000
 00454,0.00020604,0.02847993,-0.07885069,-0.02029103,0.05727972,-0.0444
 8600,-0.02042574,0.00873391,0.00319388,-0.02575538,-0.07693711,0.11320
 307,0.00001434,0.00125119,0.00205005,0.00031806,-0.00024700,-0.0000283
 8,0.00007552,0.00014571,-0.00004933,0.00033593,0.00010555,-0.00012635,
 0.00006077,0.00005548,0.00001350,0.00130782,-0.00040205,0.00116954,0.0
 0076662,0.00295268,-0.00198310,-0.00012485,-0.00004696,-0.00013193,0.0
 1382631,-0.00578847,0.00089876,-0.00025601,0.00055262,0.00006716,0.000
 22172,0.00003716,-0.00016831,0.07891116,-0.01427547,-0.11806136,0.0039
 4659,-0.01161714,0.01355719,0.03139538,-0.02936206,-0.07904580,-0.1307
 9936,0.05663877,0.18183837\\0.00000335,0.00001270,0.00000560,-0.000010
 70,-0.00000637,0.00001691,-0.00000679,0.00000701,0.00002188,-0.0000048
 8,0.00000603,0.00001108,-0.00000460,0.00000617,0.00001786,0.00000129,0
 .00000056,0.00000270,0.00000044,-0.00000377,-0.00000551,0.00000447,-0.
 00000467,-0.00001415,0.00000447,0.00000073,-0.00000462,-0.00000048,0.0
 0000056,-0.00000142,-0.00000155,0.00000301,0.00000595,0.00000625,-0.00
 000264,-0.00001227,0.00000615,-0.00000852,-0.00002095,0.00000257,0.000
 00236,-0.00001479,0.,-0.00001317,-0.00000826\\\@
 The archive entry for this job was punched.


 Standing in the middle of the road is very dangerous;
 you get knocked down by the traffic from both sides.
                                -- Margaret Thatcher
 Job cpu time:       0 days  0 hours 41 minutes 59.7 seconds.
 Elapsed time:       0 days  0 hours  1 minutes 22.5 seconds.
 File lengths (MBytes):  RWF=    147 Int=      0 D2E=      0 Chk=     14 Scr=      1
 Normal termination of Gaussian 16 at Fri May 30 05:16:27 2025.
