/home/tahminaafroz
cn012.cluster.local
tahminaafroz
Tue Apr 22 20:46:36 CDT 2025
 Entering Gaussian System, Link 0=g16
 Initial command:
 /home/apps/g16/l1.exe "/tmp/2-cl-phboh2-opt-freq/Gau-2294171.inp" -scrdir="/tmp/2-cl-phboh2-opt-freq/"
 Entering Link 1 = /home/apps/g16/l1.exe PID=   2294172.
  
 Copyright (c) 1988-2019, Gaussian, Inc.  All Rights Reserved.
  
 This is part of the Gaussian(R) 16 program.  It is based on
 the Gaussian(R) 09 system (copyright 2009, Gaussian, Inc.),
 the Gaussian(R) 03 system (copyright 2003, Gaussian, Inc.),
 the Gaussian(R) 98 system (copyright 1998, Gaussian, Inc.),
 the Gaussian(R) 94 system (copyright 1995, Gaussian, Inc.),
 the Gaussian 92(TM) system (copyright 1992, Gaussian, Inc.),
 the Gaussian 90(TM) system (copyright 1990, Gaussian, Inc.),
 the Gaussian 88(TM) system (copyright 1988, Gaussian, Inc.),
 the Gaussian 86(TM) system (copyright 1986, Carnegie Mellon
 University), and the Gaussian 82(TM) system (copyright 1983,
 Carnegie Mellon University). Gaussian is a federally registered
 trademark of Gaussian, Inc.
  
 This software contains proprietary and confidential information,
 including trade secrets, belonging to Gaussian, Inc.
  
 This software is provided under written license and may be
 used, copied, transmitted, or stored only in accord with that
 written license.
  
 The following legend is applicable only to US Government
 contracts under FAR:
  
                    RESTRICTED RIGHTS LEGEND
  
 Use, reproduction and disclosure by the US Government is
 subject to restrictions as set forth in subparagraphs (a)
 and (c) of the Commercial Computer Software - Restricted
 Rights clause in FAR 52.227-19.
  
 Gaussian, Inc.
 340 Quinnipiac St., Bldg. 40, Wallingford CT 06492
  
  
 ---------------------------------------------------------------
 Warning -- This program may not be used in any manner that
 competes with the business of Gaussian, Inc. or will provide
 assistance to any competitor of Gaussian, Inc.  The licensee
 of this program is prohibited from giving any competitor of
 Gaussian, Inc. access to this program.  By using this program,
 the user acknowledges that Gaussian, Inc. is engaged in the
 business of creating and licensing software in the field of
 computational chemistry and represents and warrants to the
 licensee that it is not a competitor of Gaussian, Inc. and that
 it will not use this program in any manner prohibited above.
 ---------------------------------------------------------------
  

 Cite this work as:
 Gaussian 16, Revision C.01,
 M. J. Frisch, G. W. Trucks, H. B. Schlegel, G. E. Scuseria, 
 M. A. Robb, J. R. Cheeseman, G. Scalmani, V. Barone, 
 G. A. Petersson, H. Nakatsuji, X. Li, M. Caricato, A. V. Marenich, 
 J. Bloino, B. G. Janesko, R. Gomperts, B. Mennucci, H. P. Hratchian, 
 J. V. Ortiz, A. F. Izmaylov, J. L. Sonnenberg, D. Williams-Young, 
 F. Ding, F. Lipparini, F. Egidi, J. Goings, B. Peng, A. Petrone, 
 T. Henderson, D. Ranasinghe, V. G. Zakrzewski, J. Gao, N. Rega, 
 G. Zheng, W. Liang, M. Hada, M. Ehara, K. Toyota, R. Fukuda, 
 J. Hasegawa, M. Ishida, T. Nakajima, Y. Honda, O. Kitao, H. Nakai, 
 T. Vreven, K. Throssell, J. A. Montgomery, Jr., J. E. Peralta, 
 F. Ogliaro, M. J. Bearpark, J. J. Heyd, E. N. Brothers, K. N. Kudin, 
 V. N. Staroverov, T. A. Keith, R. Kobayashi, J. Normand, 
 K. Raghavachari, A. P. Rendell, J. C. Burant, S. S. Iyengar, 
 J. Tomasi, M. Cossi, J. M. Millam, M. Klene, C. Adamo, R. Cammi, 
 J. W. Ochterski, R. L. Martin, K. Morokuma, O. Farkas, 
 J. B. Foresman, and D. J. Fox, Gaussian, Inc., Wallingford CT, 2019.
 
 ******************************************
 Gaussian 16:  AS64L-G16RevC.01  3-Jul-2019
                22-Apr-2025 
 ******************************************
 %mem=20GB
 %nprocshared=32
 Will use up to   32 processors via shared memory.
 %chk=2-cl-phboh2-opt-freq.chk
 ----------------------------------------------------------------------
 # opt=(calcfc,tight) freq 6-311+g(d,p) nosymm scf=(qc,fermi,xqc) geom=
 connectivity int=ultrafine m062x
 ----------------------------------------------------------------------
 1/7=10,10=4,18=20,19=15,26=4,38=1,57=2/1,3;
 2/9=110,12=2,15=1,17=6,18=5,40=1/2;
 3/5=4,6=6,7=111,11=2,25=1,30=1,71=2,74=-55,75=-5,140=1/1,2,3;
 4//1;
 5/5=2,22=13,38=5/2;
 8/6=4,10=90,11=11/1;
 11/6=1,8=1,9=11,15=111,16=1,31=1/1,2,10;
 10/6=1,13=1,31=1/2;
 6/7=2,8=2,9=2,10=2,28=1/1;
 7/10=1,25=1,30=1/1,2,3,16;
 1/7=10,10=4,18=20,19=15,26=4/3(2);
 2/9=110,15=1/2;
 99//99;
 2/9=110,15=1/2;
 3/5=4,6=6,7=111,11=2,25=1,30=1,71=1,74=-55,75=-5/1,2,3;
 4/5=5,16=3,69=1/1;
 5/5=2,22=13,38=5/2;
 7/30=1/1,2,3,16;
 1/7=10,18=20,19=15,26=4/3(-5);
 2/9=110,15=1/2;
 6/7=2,8=2,9=2,10=2,19=2,28=1/1;
 99/9=1/99;
 -------------------
 2-cl-phboh2-optfreq
 -------------------
 Symbolic Z-matrix:
 Charge =  0 Multiplicity = 1
 O                     8.68516   7.45621   5.54176 
 H                     9.49823   7.14809   5.95219 
 C                     6.24256   6.99584   5.1734 
 B                     7.63957   6.61458   5.77245 
 O                     7.87708   5.49076   6.51526 
 H                     7.10779   4.94127   6.67183 
 C                     5.1173    6.17405   5.28872 
 H                     5.17713   5.2192    5.80383 
 C                     3.88893   6.53713   4.75026 
 H                     3.02194   5.89581   4.84229 
 C                     3.78662   7.74959   4.08134 
 C                     4.88098   8.59388   3.94284 
 H                     4.77381   9.53307   3.41525 
 C                     6.09833   8.20841   4.48865 
 H                     2.84482   8.03774   3.66315 
 Cl                    7.49724   9.26315   4.32089 
 

 GradGradGradGradGradGradGradGradGradGradGradGradGradGradGradGradGradGrad
 Berny optimization.
 Initialization pass.
                           ----------------------------
                           !    Initial Parameters    !
                           ! (Angstroms and Degrees)  !
 --------------------------                            --------------------------
 ! Name  Definition              Value          Derivative Info.                !
 --------------------------------------------------------------------------------
 ! R1    R(1,2)                  0.9615         calculate D2E/DX2 analytically  !
 ! R2    R(1,4)                  1.3619         calculate D2E/DX2 analytically  !
 ! R3    R(3,4)                  1.5671         calculate D2E/DX2 analytically  !
 ! R4    R(3,7)                  1.3982         calculate D2E/DX2 analytically  !
 ! R5    R(3,14)                 1.4            calculate D2E/DX2 analytically  !
 ! R6    R(4,5)                  1.3679         calculate D2E/DX2 analytically  !
 ! R7    R(5,6)                  0.9583         calculate D2E/DX2 analytically  !
 ! R8    R(7,8)                  1.0866         calculate D2E/DX2 analytically  !
 ! R9    R(7,9)                  1.3895         calculate D2E/DX2 analytically  !
 ! R10   R(9,10)                 1.0823         calculate D2E/DX2 analytically  !
 ! R11   R(9,11)                 1.3885         calculate D2E/DX2 analytically  !
 ! R12   R(11,12)                1.3891         calculate D2E/DX2 analytically  !
 ! R13   R(11,15)                1.07           calculate D2E/DX2 analytically  !
 ! R14   R(12,13)                1.0825         calculate D2E/DX2 analytically  !
 ! R15   R(12,14)                1.3887         calculate D2E/DX2 analytically  !
 ! R16   R(14,16)                1.76           calculate D2E/DX2 analytically  !
 ! A1    A(2,1,4)              112.264          calculate D2E/DX2 analytically  !
 ! A2    A(4,3,7)              122.8829         calculate D2E/DX2 analytically  !
 ! A3    A(4,3,14)             119.3092         calculate D2E/DX2 analytically  !
 ! A4    A(7,3,14)             117.8079         calculate D2E/DX2 analytically  !
 ! A5    A(1,4,3)              117.9891         calculate D2E/DX2 analytically  !
 ! A6    A(1,4,5)              117.7997         calculate D2E/DX2 analytically  !
 ! A7    A(3,4,5)              124.2111         calculate D2E/DX2 analytically  !
 ! A8    A(4,5,6)              114.8621         calculate D2E/DX2 analytically  !
 ! A9    A(3,7,8)              120.7508         calculate D2E/DX2 analytically  !
 ! A10   A(3,7,9)              121.7316         calculate D2E/DX2 analytically  !
 ! A11   A(8,7,9)              117.5171         calculate D2E/DX2 analytically  !
 ! A12   A(7,9,10)             121.3576         calculate D2E/DX2 analytically  !
 ! A13   A(7,9,11)             118.6858         calculate D2E/DX2 analytically  !
 ! A14   A(10,9,11)            119.9565         calculate D2E/DX2 analytically  !
 ! A15   A(9,11,12)            121.3795         calculate D2E/DX2 analytically  !
 ! A16   A(9,11,15)            119.2283         calculate D2E/DX2 analytically  !
 ! A17   A(12,11,15)           119.3921         calculate D2E/DX2 analytically  !
 ! A18   A(11,12,13)           119.8606         calculate D2E/DX2 analytically  !
 ! A19   A(11,12,14)           118.8632         calculate D2E/DX2 analytically  !
 ! A20   A(13,12,14)           121.2762         calculate D2E/DX2 analytically  !
 ! A21   A(3,14,12)            121.5316         calculate D2E/DX2 analytically  !
 ! A22   A(3,14,16)            118.933          calculate D2E/DX2 analytically  !
 ! A23   A(12,14,16)           119.5354         calculate D2E/DX2 analytically  !
 ! D1    D(2,1,4,3)            179.4719         calculate D2E/DX2 analytically  !
 ! D2    D(2,1,4,5)             -0.4141         calculate D2E/DX2 analytically  !
 ! D3    D(7,3,4,1)            176.6408         calculate D2E/DX2 analytically  !
 ! D4    D(7,3,4,5)             -3.4812         calculate D2E/DX2 analytically  !
 ! D5    D(14,3,4,1)            -3.2945         calculate D2E/DX2 analytically  !
 ! D6    D(14,3,4,5)           176.5835         calculate D2E/DX2 analytically  !
 ! D7    D(4,3,7,8)             -0.398          calculate D2E/DX2 analytically  !
 ! D8    D(4,3,7,9)            179.8746         calculate D2E/DX2 analytically  !
 ! D9    D(14,3,7,8)           179.5382         calculate D2E/DX2 analytically  !
 ! D10   D(14,3,7,9)            -0.1892         calculate D2E/DX2 analytically  !
 ! D11   D(4,3,14,12)         -179.8146         calculate D2E/DX2 analytically  !
 ! D12   D(4,3,14,16)            0.1562         calculate D2E/DX2 analytically  !
 ! D13   D(7,3,14,12)            0.2468         calculate D2E/DX2 analytically  !
 ! D14   D(7,3,14,16)         -179.7824         calculate D2E/DX2 analytically  !
 ! D15   D(1,4,5,6)            178.4041         calculate D2E/DX2 analytically  !
 ! D16   D(3,4,5,6)             -1.4741         calculate D2E/DX2 analytically  !
 ! D17   D(3,7,9,10)           179.9409         calculate D2E/DX2 analytically  !
 ! D18   D(3,7,9,11)             0.0334         calculate D2E/DX2 analytically  !
 ! D19   D(8,7,9,10)             0.2052         calculate D2E/DX2 analytically  !
 ! D20   D(8,7,9,11)          -179.7024         calculate D2E/DX2 analytically  !
 ! D21   D(7,9,11,12)            0.0735         calculate D2E/DX2 analytically  !
 ! D22   D(7,9,11,15)          179.99           calculate D2E/DX2 analytically  !
 ! D23   D(10,9,11,12)        -179.8354         calculate D2E/DX2 analytically  !
 ! D24   D(10,9,11,15)           0.0811         calculate D2E/DX2 analytically  !
 ! D25   D(9,11,12,13)         179.9161         calculate D2E/DX2 analytically  !
 ! D26   D(9,11,12,14)          -0.0178         calculate D2E/DX2 analytically  !
 ! D27   D(15,11,12,13)         -0.0002         calculate D2E/DX2 analytically  !
 ! D28   D(15,11,12,14)       -179.9341         calculate D2E/DX2 analytically  !
 ! D29   D(11,12,14,3)          -0.1471         calculate D2E/DX2 analytically  !
 ! D30   D(11,12,14,16)        179.8823         calculate D2E/DX2 analytically  !
 ! D31   D(13,12,14,3)         179.92           calculate D2E/DX2 analytically  !
 ! D32   D(13,12,14,16)         -0.0506         calculate D2E/DX2 analytically  !
 --------------------------------------------------------------------------------
 Trust Radius=3.00D-01 FncErr=1.00D-07 GrdErr=1.00D-06 EigMax=2.50D+02 EigMin=1.00D-04
 Number of steps in this run=     81 maximum allowed number of steps=    100.
 GradGradGradGradGradGradGradGradGradGradGradGradGradGradGradGradGradGrad

                          Input orientation:                          
 ---------------------------------------------------------------------
 Center     Atomic      Atomic             Coordinates (Angstroms)
 Number     Number       Type             X           Y           Z
 ---------------------------------------------------------------------
      1          8           0        8.685162    7.456214    5.541765
      2          1           0        9.498228    7.148086    5.952188
      3          6           0        6.242555    6.995843    5.173404
      4          5           0        7.639566    6.614580    5.772452
      5          8           0        7.877080    5.490758    6.515262
      6          1           0        7.107787    4.941274    6.671834
      7          6           0        5.117302    6.174045    5.288723
      8          1           0        5.177127    5.219196    5.803826
      9          6           0        3.888928    6.537127    4.750260
     10          1           0        3.021935    5.895810    4.842289
     11          6           0        3.786616    7.749593    4.081337
     12          6           0        4.880982    8.593882    3.942844
     13          1           0        4.773806    9.533066    3.415249
     14          6           0        6.098326    8.208410    4.488648
     15          1           0        2.844815    8.037741    3.663147
     16         17           0        7.497244    9.263154    4.320892
 ---------------------------------------------------------------------
                    Distance matrix (angstroms):
                    1          2          3          4          5
     1  O    0.000000
     2  H    0.961492   0.000000
     3  C    2.512759   3.350983   0.000000
     4  B    1.361923   1.942050   1.567118   0.000000
     5  O    2.337458   2.385772   2.595676   1.367902   0.000000
     6  H    3.176490   3.331984   2.686107   1.972721   0.958258
     7  C    3.799686   4.536679   1.398158   2.605740   3.096394
     8  H    4.168841   4.734400   2.165420   2.830492   2.805287
     9  C    4.947228   5.769068   2.434960   3.888208   4.485028
    10  H    5.915764   6.688979   3.419372   4.764908   5.151246
    11  C    5.120027   6.040232   2.791485   4.358136   5.268607
    12  C    4.280493   5.238965   2.433493   3.856798   5.022282
    13  H    4.912646   5.868931   3.418455   4.720863   5.964951
    14  C    2.892503   3.850399   1.400004   2.562005   3.828415
    15  H    6.162550   7.092185   3.861484   5.428092   6.320235
    16  Cl   2.483286   3.337450   2.727952   3.023611   4.380697
                    6          7          8          9         10
     6  H    0.000000
     7  C    2.719329   0.000000
     8  H    2.134977   1.086576   0.000000
     9  C    4.074340   1.389487   2.122828   0.000000
    10  H    4.577397   2.160389   2.455038   1.082328   0.000000
    11  C    5.062362   2.389740   3.362053   1.388524   2.144830
    12  C    5.074209   2.779001   3.865160   2.422051   3.397742
    13  H    6.094044   3.861466   4.947468   3.397192   4.281954
    14  C    4.057030   2.396074   3.393185   2.782637   3.864888
    15  H    6.067391   3.358579   4.238676   2.126929   2.451451
    16  Cl   4.935307   4.017887   4.892406   4.542634   5.624878
                   11         12         13         14         15
    11  C    0.000000
    12  C    1.389115   0.000000
    13  H    2.144526   1.082548   0.000000
    14  C    2.391740   1.388675   2.158993   0.000000
    15  H    1.070000   2.129201   2.453254   3.360939   0.000000
    16  Cl   4.014601   2.726843   2.882735   1.760000   4.855859
                   16
    16  Cl   0.000000
 Symmetry turned off by external request.
 Stoichiometry    C6H6BClO2
 Framework group  C1[X(C6H6BClO2)]
 Deg. of freedom    42
 Full point group                 C1      NOp   1
 Rotational constants (GHZ):           1.5483544           1.1125686           0.6476240
 Standard basis: 6-311+G(d,p) (5D, 7F)
   264 basis functions,   425 primitive gaussians,   274 cartesian basis functions
    40 alpha electrons       40 beta electrons
       nuclear repulsion energy       563.7073693136 Hartrees.
 NAtoms=   16 NActive=   16 NUniq=   16 SFac= 1.00D+00 NAtFMM=   60 NAOKFM=F Big=F
 Integral buffers will be    131072 words long.
 Raffenetti 2 integral format.
 Two-electron integral symmetry is turned off.
 One-electron integrals computed using PRISM.
 NBasis=   264 RedAO= T EigKep=  1.60D-06  NBF=   264
 NBsUse=   264 1.00D-06 EigRej= -1.00D+00 NBFU=   264
 ExpMin= 3.15D-02 ExpMax= 1.06D+05 ExpMxC= 3.62D+03 IAcc=3 IRadAn=         5 AccDes= 0.00D+00
 Harris functional with IExCor= 1009 and IRadAn=       5 diagonalized for initial guess.
 HarFok:  IExCor= 1009 AccDes= 0.00D+00 IRadAn=         5 IDoV= 1 UseB2=F ITyADJ=14
 ICtDFT=  3500011 ScaDFX=  1.000000  1.000000  1.000000  1.000000
 FoFCou: FMM=F IPFlag=           0 FMFlag=      100000 FMFlg1=           0
         NFxFlg=           0 DoJE=T BraDBF=F KetDBF=T FulRan=T
         wScrn=  0.000000 ICntrl=       500 IOpCl=  0 I1Cent=   200000004 NGrid=           0
         NMat0=    1 NMatS0=      1 NMatT0=    0 NMatD0=    1 NMtDS0=    0 NMtDT0=    0
 Symmetry not used in FoFCou.
 Requested convergence on RMS density matrix=1.00D-08 within 128 cycles.
 Requested convergence on MAX density matrix=1.00D-06.
 Requested convergence on             energy=1.00D-06.
 Level shift goal  0.100 maximum shift  0.100.
 No special actions if energy rises.
 Dynamic level shift is on during FON iterations.
 SCF Done:  E(RM062X) =  -867.806941848     A.U. after   16 cycles
            NFock= 16  Conv=0.96D-08     -V/T= 2.0027
 DoSCS=F DFT=T ScalE2(SS,OS)=  1.000000  1.000000
 Range of M.O.s used for correlation:     1   264
 NBasis=   264 NAE=    40 NBE=    40 NFC=     0 NFV=     0
 NROrb=    264 NOA=    40 NOB=    40 NVA=   224 NVB=   224

 **** Warning!!: The largest alpha MO coefficient is  0.21761210D+03

 Symmetrizing basis deriv contribution to polar:
 IMax=3 JMax=2 DiffMx= 0.00D+00
 G2DrvN: will do    17 centers at a time, making    1 passes.
 Calling FoFCou, ICntrl=  3107 FMM=F I1Cent=   0 AccDes= 0.00D+00.
 End of G2Drv F.D. properties file   721 does not exist.
 End of G2Drv F.D. properties file   722 does not exist.
 End of G2Drv F.D. properties file   788 does not exist.
          IDoAtm=1111111111111111
          Differentiating once with respect to nuclear coordinates.
 Keep R1 ints in memory in canonical form, NReq=647109699.
          There are    51 degrees of freedom in the 1st order CPHF.  IDoFFX=6 NUNeed=     0.
     45 vectors produced by pass  0 Test12= 1.76D-14 1.96D-09 XBig12= 2.59D-01 1.07D-01.
 AX will form    45 AO Fock derivatives at one time.
     45 vectors produced by pass  1 Test12= 1.76D-14 1.96D-09 XBig12= 2.19D-02 4.00D-02.
     45 vectors produced by pass  2 Test12= 1.76D-14 1.96D-09 XBig12= 5.42D-04 4.27D-03.
     45 vectors produced by pass  3 Test12= 1.76D-14 1.96D-09 XBig12= 4.02D-06 2.80D-04.
     45 vectors produced by pass  4 Test12= 1.76D-14 1.96D-09 XBig12= 3.10D-08 2.24D-05.
     45 vectors produced by pass  5 Test12= 1.76D-14 1.96D-09 XBig12= 1.61D-10 1.37D-06.
     44 vectors produced by pass  6 Test12= 1.76D-14 1.96D-09 XBig12= 7.26D-13 8.85D-08.
     11 vectors produced by pass  7 Test12= 1.76D-14 1.96D-09 XBig12= 3.34D-15 7.20D-09.
 InvSVY:  IOpt=1 It=  1 EMax= 5.00D-16
 Solved reduced A of dimension   325 with    51 vectors.
 End of Minotr F.D. properties file   721 does not exist.
 End of Minotr F.D. properties file   722 does not exist.
 End of Minotr F.D. properties file   788 does not exist.

 **********************************************************************

            Population analysis using the SCF Density.

 **********************************************************************

 Alpha  occ. eigenvalues -- -102.65744 -19.64418 -19.62905 -10.61403 -10.56732
 Alpha  occ. eigenvalues --  -10.56113 -10.55985 -10.55739 -10.54722  -9.80083
 Alpha  occ. eigenvalues --   -7.52592  -7.51926  -7.51868  -7.09180  -1.17382
 Alpha  occ. eigenvalues --   -1.13662  -0.99650  -0.93611  -0.86344  -0.83313
 Alpha  occ. eigenvalues --   -0.71693  -0.69061  -0.66005  -0.63500  -0.59824
 Alpha  occ. eigenvalues --   -0.54895  -0.53837  -0.51644  -0.49872  -0.49203
 Alpha  occ. eigenvalues --   -0.47282  -0.46082  -0.45989  -0.42445  -0.41277
 Alpha  occ. eigenvalues --   -0.40274  -0.39170  -0.34141  -0.32710  -0.30402
 Alpha virt. eigenvalues --   -0.01538  -0.00688   0.00317   0.01346   0.01721
 Alpha virt. eigenvalues --    0.03301   0.03454   0.03677   0.05173   0.06154
 Alpha virt. eigenvalues --    0.06931   0.07482   0.08836   0.09253   0.10037
 Alpha virt. eigenvalues --    0.10207   0.11419   0.12407   0.12701   0.12806
 Alpha virt. eigenvalues --    0.13537   0.14193   0.14685   0.16197   0.16337
 Alpha virt. eigenvalues --    0.16668   0.17349   0.18260   0.18934   0.20078
 Alpha virt. eigenvalues --    0.20219   0.20336   0.21225   0.21856   0.22204
 Alpha virt. eigenvalues --    0.23007   0.23699   0.24086   0.24273   0.25429
 Alpha virt. eigenvalues --    0.25634   0.26322   0.26647   0.26939   0.27942
 Alpha virt. eigenvalues --    0.29021   0.29622   0.31215   0.33148   0.33799
 Alpha virt. eigenvalues --    0.35196   0.35609   0.37040   0.38815   0.41423
 Alpha virt. eigenvalues --    0.43159   0.46148   0.47994   0.48124   0.49193
 Alpha virt. eigenvalues --    0.49807   0.50976   0.51451   0.52992   0.56255
 Alpha virt. eigenvalues --    0.56867   0.57106   0.58030   0.58240   0.60890
 Alpha virt. eigenvalues --    0.61990   0.62613   0.63950   0.64288   0.66985
 Alpha virt. eigenvalues --    0.67920   0.68754   0.69886   0.71608   0.71904
 Alpha virt. eigenvalues --    0.73116   0.74466   0.76968   0.79245   0.82640
 Alpha virt. eigenvalues --    0.84527   0.85400   0.86197   0.87192   0.89101
 Alpha virt. eigenvalues --    0.90492   0.91942   0.92921   0.93987   0.94441
 Alpha virt. eigenvalues --    0.96066   0.98551   1.00384   1.01196   1.04801
 Alpha virt. eigenvalues --    1.04900   1.05637   1.06894   1.08191   1.10981
 Alpha virt. eigenvalues --    1.11765   1.12755   1.13512   1.14939   1.18405
 Alpha virt. eigenvalues --    1.19647   1.22911   1.25726   1.33253   1.34542
 Alpha virt. eigenvalues --    1.34696   1.38523   1.39445   1.40299   1.45984
 Alpha virt. eigenvalues --    1.47089   1.49381   1.50809   1.53308   1.56177
 Alpha virt. eigenvalues --    1.60692   1.60899   1.62154   1.63677   1.65740
 Alpha virt. eigenvalues --    1.68655   1.70529   1.72942   1.74606   1.77170
 Alpha virt. eigenvalues --    1.78077   1.83146   1.86111   1.89266   1.91308
 Alpha virt. eigenvalues --    1.91735   1.93827   1.95520   1.96079   1.98869
 Alpha virt. eigenvalues --    2.00713   2.01641   2.05946   2.08563   2.08959
 Alpha virt. eigenvalues --    2.15381   2.19454   2.20228   2.27658   2.34461
 Alpha virt. eigenvalues --    2.34719   2.35670   2.40437   2.43462   2.46478
 Alpha virt. eigenvalues --    2.49612   2.56110   2.58163   2.59818   2.61803
 Alpha virt. eigenvalues --    2.64587   2.65912   2.69109   2.70899   2.71214
 Alpha virt. eigenvalues --    2.74060   2.77140   2.77834   2.82408   2.83972
 Alpha virt. eigenvalues --    2.85243   2.85681   2.90561   2.93627   2.95486
 Alpha virt. eigenvalues --    3.06814   3.10982   3.13386   3.23800   3.24388
 Alpha virt. eigenvalues --    3.26463   3.26952   3.32012   3.39299   3.43730
 Alpha virt. eigenvalues --    3.45715   3.52238   3.56971   3.58185   3.62778
 Alpha virt. eigenvalues --    3.66376   3.85193   3.92348   3.96983   4.05858
 Alpha virt. eigenvalues --    4.08731   4.16052   4.18673   4.84595   5.07854
 Alpha virt. eigenvalues --    5.09586   5.40084   5.49958   5.69041   5.76979
 Alpha virt. eigenvalues --   10.04128  14.79661  23.61529  23.97954  24.03740
 Alpha virt. eigenvalues --   24.12533  24.15961  24.25650  25.97138  26.41732
 Alpha virt. eigenvalues --   26.78639  50.00765  50.05864 216.15614
          Condensed to atoms (all electrons):
               1          2          3          4          5          6
     1  O    8.059110   0.262849  -0.462379   0.372155  -0.100301   0.017659
     2  H    0.262849   0.431484   0.001814  -0.005584  -0.032497   0.002989
     3  C   -0.462379   0.001814  18.412146   0.639334  -0.028242  -0.006633
     4  B    0.372155  -0.005584   0.639334   3.359299   0.377839   0.013004
     5  O   -0.100301  -0.032497  -0.028242   0.377839   7.981060   0.249347
     6  H    0.017659   0.002989  -0.006633   0.013004   0.249347   0.442416
     7  C   -0.028943  -0.009412  -1.155425   0.083872   0.101408  -0.078203
     8  H    0.001901  -0.000040   0.041583   0.010717  -0.004870   0.011428
     9  C   -0.008772  -0.000368   0.660358   0.102204   0.050615   0.033338
    10  H   -0.000028   0.000000  -0.033387   0.000591   0.000280  -0.000057
    11  C    0.052549   0.000918  -2.974640  -0.055166   0.001934  -0.003529
    12  C    0.258289  -0.007806  -1.713729  -0.118160  -0.003083   0.001658
    13  H    0.000046   0.000002   0.013231   0.001036  -0.000027   0.000002
    14  C    0.240346   0.019845  -7.017255  -0.340148  -0.219441   0.063973
    15  H    0.000011   0.000000   0.004789  -0.000058   0.000004  -0.000003
    16  Cl  -0.362527   0.006561   0.802739   0.111871   0.001526  -0.000146
               7          8          9         10         11         12
     1  O   -0.028943   0.001901  -0.008772  -0.000028   0.052549   0.258289
     2  H   -0.009412  -0.000040  -0.000368   0.000000   0.000918  -0.007806
     3  C   -1.155425   0.041583   0.660358  -0.033387  -2.974640  -1.713729
     4  B    0.083872   0.010717   0.102204   0.000591  -0.055166  -0.118160
     5  O    0.101408  -0.004870   0.050615   0.000280   0.001934  -0.003083
     6  H   -0.078203   0.011428   0.033338  -0.000057  -0.003529   0.001658
     7  C   12.269636   0.296448  -1.184203   0.043349   0.510444  -2.641598
     8  H    0.296448   0.544914   0.032244  -0.006425  -0.022491  -0.003484
     9  C   -1.184203   0.032244   7.861929   0.307408   0.234130   0.386787
    10  H    0.043349  -0.006425   0.307408   0.500293   0.059248  -0.044648
    11  C    0.510444  -0.022491   0.234130   0.059248   7.341171   0.762275
    12  C   -2.641598  -0.003484   0.386787  -0.044648   0.762275  12.094648
    13  H    0.007651   0.000066  -0.026558  -0.000147  -0.019627   0.244203
    14  C   -2.483257  -0.031777  -2.536845   0.020022   0.057813  -1.782411
    15  H   -0.037440  -0.000346   0.051831  -0.006905   0.338262   0.019603
    16  Cl   0.502871   0.001115   0.062586   0.000974  -0.070743  -0.944715
              13         14         15         16
     1  O    0.000046   0.240346   0.000011  -0.362527
     2  H    0.000002   0.019845   0.000000   0.006561
     3  C    0.013231  -7.017255   0.004789   0.802739
     4  B    0.001036  -0.340148  -0.000058   0.111871
     5  O   -0.000027  -0.219441   0.000004   0.001526
     6  H    0.000002   0.063973  -0.000003  -0.000146
     7  C    0.007651  -2.483257  -0.037440   0.502871
     8  H    0.000066  -0.031777  -0.000346   0.001115
     9  C   -0.026558  -2.536845   0.051831   0.062586
    10  H   -0.000147   0.020022  -0.006905   0.000974
    11  C   -0.019627   0.057813   0.338262  -0.070743
    12  C    0.244203  -1.782411   0.019603  -0.944715
    13  H    0.476588   0.125477  -0.007188   0.002923
    14  C    0.125477  20.031525  -0.025402  -0.979364
    15  H   -0.007188  -0.025402   0.495362   0.002122
    16  Cl   0.002923  -0.979364   0.002122  17.578346
 Mulliken charges:
               1
     1  O   -0.301965
     2  H    0.329247
     3  C   -1.184304
     4  B    0.447195
     5  O   -0.375552
     6  H    0.252756
     7  C   -0.197199
     8  H    0.129018
     9  C   -0.026684
    10  H    0.159434
    11  C   -0.212549
    12  C   -0.507831
    13  H    0.182321
    14  C    0.856896
    15  H    0.165357
    16  Cl   0.283860
 Sum of Mulliken charges =   0.00000
 Mulliken charges with hydrogens summed into heavy atoms:
               1
     1  O    0.027282
     3  C   -1.184304
     4  B    0.447195
     5  O   -0.122796
     7  C   -0.068181
     9  C    0.132750
    11  C   -0.047193
    12  C   -0.325511
    14  C    0.856896
    16  Cl   0.283860
 APT charges:
               1
     1  O   -0.162148
     2  H    1.966968
     3  C   -3.244109
     4  B   -0.591541
     5  O    1.142871
     6  H   -1.138246
     7  C   -1.595435
     8  H   -0.203563
     9  C   -0.111287
    10  H   -0.797699
    11  C   -1.091274
    12  C   -1.866294
    13  H    1.204883
    14  C    7.087977
    15  H   -0.170324
    16  Cl  -0.430779
 Sum of APT charges =   0.00000
 APT charges with hydrogens summed into heavy atoms:
               1
     1  O    1.804820
     3  C   -3.244109
     4  B   -0.591541
     5  O    0.004625
     7  C   -1.798997
     9  C   -0.908986
    11  C   -1.261598
    12  C   -0.661411
    14  C    7.087977
    16  Cl  -0.430779
 Electronic spatial extent (au):  <R**2>=          36387.4188
 Charge=              0.0000 electrons
 Dipole moment (field-independent basis, Debye):
    X=             -1.9980    Y=             -2.0310    Z=              0.6439  Tot=              2.9209
 Quadrupole moment (field-independent basis, Debye-Ang):
   XX=            -82.1585   YY=            -92.6387   ZZ=            -59.1746
   XY=            -27.1155   XZ=             -2.9247   YZ=             -8.4579
 Traceless Quadrupole moment (field-independent basis, Debye-Ang):
   XX=             -4.1679   YY=            -14.6482   ZZ=             18.8160
   XY=            -27.1155   XZ=             -2.9247   YZ=             -8.4579
 Octapole moment (field-independent basis, Debye-Ang**2):
  XXX=          -1307.0723  YYY=          -1756.0915  ZZZ=           -917.2822  XYY=           -697.7467
  XXY=           -687.5250  XXZ=           -345.2078  XZZ=           -393.4510  YZZ=           -525.0460
  YYZ=           -463.6316  XYZ=            -92.3785
 Hexadecapole moment (field-independent basis, Debye-Ang**3):
 XXXX=         -16322.2956 YYYY=         -25499.4230 ZZZZ=          -9479.5295 XXXY=         -10233.5657
 XXXZ=          -6051.1527 YYYX=         -12072.2364 YYYZ=          -8675.6223 ZZZX=          -5951.9636
 ZZZY=          -7200.4464 XXYY=          -8613.3606 XXZZ=          -4254.2635 YYZZ=          -6157.4519
 XXYZ=          -2892.9218 YYXZ=          -3227.0122 ZZXY=          -3358.1294
 N-N= 5.637073693136D+02 E-N=-3.174184287838D+03  KE= 8.655102648991D+02
  Exact polarizability:       0.000       0.000       0.000       0.000       0.000       0.000
 Approx polarizability:     146.306      15.359     128.555      11.762     -24.706      91.428
 Calling FoFJK, ICntrl=    100127 FMM=F ISym2X=0 I1Cent= 0 IOpClX= 0 NMat=1 NMatS=1 NMatT=0.
 -------------------------------------------------------------------
 Center     Atomic                   Forces (Hartrees/Bohr)
 Number     Number              X              Y              Z
 -------------------------------------------------------------------
      1        8           0.010554836   -0.021358271    0.013745356
      2        1           0.000552309   -0.002815471    0.001493621
      3        6           0.004881835    0.001645077    0.000449550
      4        5           0.005234615   -0.000738591    0.001610708
      5        8          -0.001740959   -0.000758992    0.000006060
      6        1          -0.000068608   -0.000210495    0.000127426
      7        6          -0.003592486   -0.001341258   -0.000295466
      8        1           0.002128555    0.000350988    0.000428154
      9        6           0.003917902    0.001370567    0.000353070
     10        1           0.000588151   -0.000978905    0.000689438
     11        6           0.003987395   -0.001440322    0.001861876
     12        6          -0.000424202    0.000677657   -0.000483078
     13        1           0.002614331    0.000357800    0.000558577
     14        6           0.005771693    0.002235327    0.000454934
     15        1          -0.008360895    0.003769722   -0.004336454
     16       17          -0.026044472    0.019235169   -0.016663772
 -------------------------------------------------------------------
 Cartesian Forces:  Max     0.026044472 RMS     0.007017397
 FormGI is forming the generalized inverse of G from B-inverse, IUseBI=4.

 GradGradGradGradGradGradGradGradGradGradGradGradGradGradGradGradGradGrad
 Berny optimization.
 Internal  Forces:  Max     0.086107048 RMS     0.019516186
 Search for a local minimum.
 Step number   1 out of a maximum of   81
 All quantities printed in internal units (Hartrees-Bohrs-Radians)
 Mixed Optimization -- RFO/linear search
 Second derivative matrix not updated -- analytic derivatives used.
 ITU=  0
     Eigenvalues ---   -0.02654  -0.00439   0.00983   0.01533   0.01807
     Eigenvalues ---    0.01840   0.02350   0.02384   0.02583   0.02663
     Eigenvalues ---    0.02763   0.03994   0.04446   0.09863   0.10665
     Eigenvalues ---    0.10921   0.11553   0.12223   0.12424   0.15551
     Eigenvalues ---    0.16471   0.17725   0.18670   0.18895   0.19601
     Eigenvalues ---    0.24653   0.26310   0.28686   0.35610   0.36723
     Eigenvalues ---    0.36733   0.38041   0.38825   0.39695   0.42473
     Eigenvalues ---    0.47700   0.48181   0.48914   0.51988   0.54999
     Eigenvalues ---    0.56292   1.70457
 RFO step:  Lambda=-2.65416210D-02 EMin=-2.65406047D-02
 I=     1 Eig=   -2.65D-02 Dot1=  5.92D-05
 I=     1 Stepn=  6.00D-01 RXN=   6.00D-01 EDone=F
 I=     2 Eig=   -4.39D-03 Dot1= -3.22D-05
 I=     2 Stepn= -3.00D-01 RXN=   6.71D-01 EDone=F
 Mixed    2 eigenvectors in step.  Raw Step.Grad=  9.14D-05.
 RFO eigenvector is Hessian eigenvector with negative curvature.
 Taking step of  6.00D-01 in eigenvector direction(s).  Step.Grad=  5.06D-02.
 Linear search not attempted -- first point.
 Iteration  1 RMS(Cart)=  0.12161778 RMS(Int)=  0.02363611
 Iteration  2 RMS(Cart)=  0.05273329 RMS(Int)=  0.00122150
 Iteration  3 RMS(Cart)=  0.00199519 RMS(Int)=  0.00024484
 Iteration  4 RMS(Cart)=  0.00000299 RMS(Int)=  0.00024483
 Iteration  5 RMS(Cart)=  0.00000000 RMS(Int)=  0.00024483
 Variable       Old X    -DE/DX   Delta X   Delta X   Delta X     New X
                                 (Linear)    (Quad)   (Total)
    R1        1.81696   0.00200   0.00000  -0.00022  -0.00022   1.81674
    R2        2.57366  -0.00898   0.00000   0.00027   0.00027   2.57394
    R3        2.96142   0.02575   0.00000  -0.00106  -0.00106   2.96036
    R4        2.64213   0.00526   0.00000  -0.00055  -0.00053   2.64161
    R5        2.64562   0.03971   0.00000  -0.00050  -0.00044   2.64518
    R6        2.58496   0.00055   0.00000  -0.00104  -0.00104   2.58392
    R7        1.81085   0.00019   0.00000   0.00058   0.00058   1.81143
    R8        2.05333   0.00001   0.00000   0.00007   0.00007   2.05341
    R9        2.62575  -0.00376   0.00000   0.00049   0.00046   2.62621
   R10        2.04530   0.00017   0.00000   0.00001   0.00001   2.04531
   R11        2.62393  -0.00694   0.00000   0.00001  -0.00005   2.62388
   R12        2.62505  -0.00558   0.00000   0.00050   0.00047   2.62552
   R13        2.02201   0.01007   0.00000   0.00001   0.00001   2.02201
   R14        2.04572  -0.00022   0.00000   0.00004   0.00004   2.04576
   R15        2.62421   0.00342   0.00000  -0.00039  -0.00036   2.62385
   R16        3.32592  -0.00759   0.00000   0.00142   0.00142   3.32734
    A1        1.95938  -0.00456   0.00000   0.00384   0.00384   1.96321
    A2        2.14471  -0.06501   0.00000   0.00228   0.00197   2.14668
    A3        2.08234   0.08611   0.00000  -0.00387  -0.00418   2.07816
    A4        2.05614  -0.02109   0.00000   0.00162   0.00154   2.05768
    A5        2.05930   0.05479   0.00000  -0.00740  -0.00849   2.05081
    A6        2.05599  -0.02500   0.00000   0.00561   0.00450   2.06049
    A7        2.16789  -0.02979   0.00000   0.00194   0.00084   2.16873
    A8        2.00472   0.00030   0.00000  -0.00345  -0.00345   2.00127
    A9        2.10750  -0.01040   0.00000  -0.00165  -0.00175   2.10575
   A10        2.12462   0.01627   0.00000  -0.00143  -0.00143   2.12319
   A11        2.05106  -0.00587   0.00000   0.00300   0.00291   2.05397
   A12        2.11809  -0.00266   0.00000   0.00007   0.00009   2.11818
   A13        2.07146   0.00259   0.00000   0.00025   0.00022   2.07168
   A14        2.09364   0.00007   0.00000  -0.00032  -0.00030   2.09333
   A15        2.11847  -0.00519   0.00000   0.00051   0.00047   2.11894
   A16        2.08093   0.00384   0.00000  -0.00016  -0.00016   2.08077
   A17        2.08379   0.00135   0.00000  -0.00034  -0.00034   2.08344
   A18        2.09196  -0.00375   0.00000   0.00005   0.00000   2.09197
   A19        2.07455   0.01299   0.00000  -0.00068  -0.00062   2.07393
   A20        2.11667  -0.00924   0.00000   0.00064   0.00060   2.11727
   A21        2.12113  -0.00557   0.00000  -0.00023  -0.00031   2.12082
   A22        2.07577   0.06201   0.00000  -0.00175  -0.00207   2.07370
   A23        2.08629  -0.05644   0.00000   0.00197   0.00165   2.08794
    D1        3.13238   0.00082   0.00000   0.05890   0.05886  -3.09195
    D2       -0.00723  -0.00029   0.00000  -0.02478  -0.02474  -0.03197
    D3        3.08296  -0.00153   0.00000  -0.31081  -0.31071   2.77225
    D4       -0.06076  -0.00032   0.00000  -0.22129  -0.22143  -0.28218
    D5       -0.05750  -0.00181   0.00000  -0.35235  -0.35222  -0.40972
    D6        3.08196  -0.00060   0.00000  -0.26283  -0.26293   2.81903
    D7       -0.00695  -0.00016   0.00000  -0.04262  -0.04266  -0.04960
    D8        3.13940  -0.00010   0.00000  -0.02149  -0.02156   3.11785
    D9        3.13353   0.00018   0.00000  -0.00167  -0.00161   3.13192
   D10       -0.00330   0.00024   0.00000   0.01947   0.01948   0.01618
   D11       -3.13836   0.00002   0.00000   0.03077   0.03070  -3.10765
   D12        0.00273  -0.00051   0.00000  -0.00999  -0.01000  -0.00728
   D13        0.00431  -0.00021   0.00000  -0.00868  -0.00868  -0.00437
   D14       -3.13779  -0.00075   0.00000  -0.04944  -0.04939   3.09600
   D15        3.11374   0.00064   0.00000   0.00367   0.00386   3.11760
   D16       -0.02573  -0.00066   0.00000  -0.08568  -0.08587  -0.11160
   D17        3.14056  -0.00006   0.00000  -0.01365  -0.01365   3.12691
   D18        0.00058  -0.00011   0.00000  -0.01547  -0.01549  -0.01491
   D19        0.00358   0.00001   0.00000   0.00684   0.00686   0.01044
   D20       -3.13640  -0.00004   0.00000   0.00502   0.00502  -3.13138
   D21        0.00128  -0.00005   0.00000   0.00033   0.00034   0.00162
   D22        3.14142   0.00008   0.00000   0.00974   0.00975  -3.13202
   D23       -3.13872  -0.00009   0.00000  -0.00148  -0.00147  -3.14019
   D24        0.00142   0.00003   0.00000   0.00793   0.00794   0.00935
   D25        3.14013   0.00022   0.00000   0.01781   0.01781  -3.12524
   D26       -0.00031   0.00013   0.00000   0.01002   0.01003   0.00972
   D27        0.00000   0.00009   0.00000   0.00838   0.00839   0.00838
   D28       -3.14044   0.00000   0.00000   0.00059   0.00061  -3.13983
   D29       -0.00257  -0.00002   0.00000  -0.00568  -0.00570  -0.00826
   D30        3.13954   0.00049   0.00000   0.03533   0.03534  -3.10831
   D31        3.14020  -0.00011   0.00000  -0.01358  -0.01359   3.12660
   D32       -0.00088   0.00039   0.00000   0.02742   0.02744   0.02656
         Item               Value     Threshold  Converged?
 Maximum Force            0.086107     0.000015     NO 
 RMS     Force            0.019516     0.000010     NO 
 Maximum Displacement     0.648536     0.000060     NO 
 RMS     Displacement     0.170775     0.000040     NO 
 Predicted change in Energy=-4.062565D-03
 GradGradGradGradGradGradGradGradGradGradGradGradGradGradGradGradGradGrad

                          Input orientation:                          
 ---------------------------------------------------------------------
 Center     Atomic      Atomic             Coordinates (Angstroms)
 Number     Number       Type             X           Y           Z
 ---------------------------------------------------------------------
      1          8           0        8.733873    7.273948    5.299039
      2          1           0        9.550634    6.965719    5.701710
      3          6           0        6.249259    6.983047    5.150389
      4          5           0        7.638538    6.620383    5.776871
      5          8           0        7.832535    5.627287    6.696530
      6          1           0        7.028239    5.214351    7.015025
      7          6           0        5.140512    6.134116    5.214149
      8          1           0        5.220365    5.152067    5.672336
      9          6           0        3.912863    6.496051    4.672641
     10          1           0        3.061004    5.829590    4.712769
     11          6           0        3.790646    7.741421    4.070944
     12          6           0        4.864501    8.620209    4.000957
     13          1           0        4.737187    9.591201    3.539528
     14          6           0        6.084584    8.230455    4.537029
     15          1           0        2.846831    8.032199    3.659154
     16         17           0        7.445889    9.346733    4.505048
 ---------------------------------------------------------------------
                    Distance matrix (angstroms):
                    1          2          3          4          5
     1  O    0.000000
     2  H    0.961378   0.000000
     3  C    2.505999   3.347138   0.000000
     4  B    1.362068   1.944483   1.566557   0.000000
     5  O    2.340274   2.394354   2.595265   1.367351   0.000000
     6  H    3.177379   3.339844   2.685510   1.970385   0.958565
     7  C    3.770765   4.514250   1.397879   2.606385   3.114694
     8  H    4.121464   4.694829   2.164148   2.830978   2.845740
     9  C    4.923376   5.750133   2.433958   3.887857   4.496077
    10  H    5.883139   6.662138   3.418616   4.765656   5.171435
    11  C    5.114904   6.036437   2.790181   4.355822   5.263092
    12  C    4.297613   5.252593   2.432909   3.853369   5.003291
    13  H    4.943586   5.893849   3.418143   4.716916   5.938052
    14  C    2.917926   3.869048   1.399769   2.558185   3.807264
    15  H    6.158038   7.088750   3.860183   5.425717   6.313992
    16  Cl   2.566274   3.395759   2.726794   3.014570   4.334325
                    6          7          8          9         10
     6  H    0.000000
     7  C    2.766339   0.000000
     8  H    2.252798   1.086615   0.000000
     9  C    4.103057   1.389730   2.124911   0.000000
    10  H    4.627942   2.160664   2.458179   1.082333   0.000000
    11  C    5.053286   2.390081   3.363526   1.388496   2.144624
    12  C    5.036490   2.780049   3.866285   2.422565   3.398063
    13  H    6.040266   3.862443   4.948560   3.397559   4.282033
    14  C    4.015946   2.396747   3.392973   2.782610   3.864851
    15  H    6.056922   3.358824   4.240486   2.126812   2.451012
    16  Cl   4.852937   4.017274   4.889861   4.542769   5.625003
                   11         12         13         14         15
    11  C    0.000000
    12  C    1.389364   0.000000
    13  H    2.144768   1.082567   0.000000
    14  C    2.391348   1.388483   2.159194   0.000000
    15  H    1.070004   2.129220   2.453211   3.360508   0.000000
    16  Cl   4.015754   2.728646   2.886011   1.760753   4.857455
                   16
    16  Cl   0.000000
 Symmetry turned off by external request.
 Stoichiometry    C6H6BClO2
 Framework group  C1[X(C6H6BClO2)]
 Deg. of freedom    42
 Full point group                 C1      NOp   1
 Rotational constants (GHZ):           1.5469541           1.1021826           0.6528230
 Standard basis: 6-311+G(d,p) (5D, 7F)
   264 basis functions,   425 primitive gaussians,   274 cartesian basis functions
    40 alpha electrons       40 beta electrons
       nuclear repulsion energy       562.9277638938 Hartrees.
 NAtoms=   16 NActive=   16 NUniq=   16 SFac= 1.00D+00 NAtFMM=   60 NAOKFM=F Big=F
 Integral buffers will be    131072 words long.
 Raffenetti 2 integral format.
 Two-electron integral symmetry is turned off.
 One-electron integrals computed using PRISM.
 NBasis=   264 RedAO= T EigKep=  1.62D-06  NBF=   264
 NBsUse=   264 1.00D-06 EigRej= -1.00D+00 NBFU=   264
 Initial guess from the checkpoint file:  "2-cl-phboh2-opt-freq.chk"
 B after Tr=     0.224669    0.134769   -0.420888
         Rot=    0.999891   -0.012982    0.004379   -0.005533 Ang=  -1.69 deg.
 ExpMin= 3.15D-02 ExpMax= 1.06D+05 ExpMxC= 3.62D+03 IAcc=3 IRadAn=         5 AccDes= 0.00D+00
 Harris functional with IExCor= 1009 and IRadAn=       5 diagonalized for initial guess.
 HarFok:  IExCor= 1009 AccDes= 0.00D+00 IRadAn=         5 IDoV= 1 UseB2=F ITyADJ=14
 ICtDFT=  3500011 ScaDFX=  1.000000  1.000000  1.000000  1.000000
 FoFCou: FMM=F IPFlag=           0 FMFlag=      100000 FMFlg1=           0
         NFxFlg=           0 DoJE=T BraDBF=F KetDBF=T FulRan=T
         wScrn=  0.000000 ICntrl=       500 IOpCl=  0 I1Cent=   200000004 NGrid=           0
         NMat0=    1 NMatS0=      1 NMatT0=    0 NMatD0=    1 NMtDS0=    0 NMtDT0=    0
 Symmetry not used in FoFCou.
 Requested convergence on RMS density matrix=1.00D-08 within 128 cycles.
 Requested convergence on MAX density matrix=1.00D-06.
 Requested convergence on             energy=1.00D-06.
 Level shift goal  0.100 maximum shift  0.100.
 No special actions if energy rises.
 Dynamic level shift is on during FON iterations.
 SCF Done:  E(RM062X) =  -867.810409484     A.U. after   15 cycles
            NFock= 15  Conv=0.70D-08     -V/T= 2.0027
 Calling FoFJK, ICntrl=      2127 FMM=F ISym2X=0 I1Cent= 0 IOpClX= 0 NMat=1 NMatS=1 NMatT=0.
 -------------------------------------------------------------------
 Center     Atomic                   Forces (Hartrees/Bohr)
 Number     Number              X              Y              Z
 -------------------------------------------------------------------
      1        8           0.007211696   -0.016473423    0.009868768
      2        1           0.000379144   -0.002010909    0.001215001
      3        6           0.002728250    0.005183217    0.005364192
      4        5           0.007961585   -0.007296431   -0.007513921
      5        8          -0.002023930    0.000637994    0.001593065
      6        1          -0.000472940    0.000276088    0.000461163
      7        6          -0.002953935   -0.002510473   -0.001400038
      8        1           0.002522511    0.000520483    0.000693078
      9        6           0.003802479    0.001944302   -0.000041007
     10        1           0.000575377   -0.000970087    0.000760304
     11        6           0.003670888   -0.001787894    0.001935597
     12        6           0.000173796    0.000706740   -0.000695564
     13        1           0.002554317    0.000321392    0.000440308
     14        6           0.004243353    0.002452087    0.001993092
     15        1          -0.008344529    0.003778502   -0.004352872
     16       17          -0.022028062    0.015228411   -0.010321166
 -------------------------------------------------------------------
 Cartesian Forces:  Max     0.022028062 RMS     0.005946148

 GradGradGradGradGradGradGradGradGradGradGradGradGradGradGradGradGradGrad
 Berny optimization.
 Using GEDIIS/GDIIS optimizer.
 FormGI is forming the generalized inverse of G from B-inverse, IUseBI=4.
 Internal  Forces:  Max     0.066301943 RMS     0.014997591
 Search for a local minimum.
 Step number   2 out of a maximum of   81
 All quantities printed in internal units (Hartrees-Bohrs-Radians)
 Mixed Optimization -- RFO/linear search
 Update second derivatives using D2CorX and points    1    2
 ITU=  0  0
 Use linear search instead of GDIIS.
     Eigenvalues ---   -0.02337  -0.00419   0.00983   0.01532   0.01804
     Eigenvalues ---    0.01839   0.02350   0.02384   0.02582   0.02663
     Eigenvalues ---    0.02763   0.03976   0.04439   0.09815   0.10663
     Eigenvalues ---    0.10920   0.11548   0.12221   0.12409   0.15542
     Eigenvalues ---    0.16416   0.17711   0.18645   0.18892   0.19590
     Eigenvalues ---    0.24650   0.26252   0.28649   0.35609   0.36723
     Eigenvalues ---    0.36731   0.38039   0.38742   0.39658   0.42467
     Eigenvalues ---    0.47680   0.48180   0.48908   0.51979   0.54999
     Eigenvalues ---    0.56290   1.43710
 RFO step:  Lambda=-2.45864795D-02 EMin=-2.33737425D-02
 I=     1 Eig=   -2.34D-02 Dot1= -2.33D-03
 I=     1 Stepn= -6.00D-01 RXN=   6.00D-01 EDone=F
 I=     2 Eig=   -4.19D-03 Dot1=  1.48D-04
 I=     2 Stepn=  3.00D-01 RXN=   6.71D-01 EDone=F
 Mixed    2 eigenvectors in step.  Raw Step.Grad=  2.48D-03.
 RFO eigenvector is Hessian eigenvector with negative curvature.
 Taking step of  6.00D-01 in eigenvector direction(s).  Step.Grad= -3.89D-02.
 Skip linear search -- no minimum in search direction.
 Iteration  1 RMS(Cart)=  0.12467257 RMS(Int)=  0.02386247
 Iteration  2 RMS(Cart)=  0.05496726 RMS(Int)=  0.00125227
 Iteration  3 RMS(Cart)=  0.00205741 RMS(Int)=  0.00024052
 Iteration  4 RMS(Cart)=  0.00000287 RMS(Int)=  0.00024052
 Iteration  5 RMS(Cart)=  0.00000000 RMS(Int)=  0.00024052
 Variable       Old X    -DE/DX   Delta X   Delta X   Delta X     New X
                                 (Linear)    (Quad)   (Total)
    R1        1.81674   0.00147   0.00000  -0.00080  -0.00080   1.81594
    R2        2.57394  -0.00665   0.00000   0.00152   0.00152   2.57546
    R3        2.96036   0.01959   0.00000  -0.00333  -0.00333   2.95704
    R4        2.64161   0.00354   0.00000  -0.00224  -0.00223   2.63938
    R5        2.64518   0.03018   0.00000  -0.00123  -0.00119   2.64399
    R6        2.58392   0.00036   0.00000  -0.00358  -0.00358   2.58034
    R7        1.81143   0.00043   0.00000   0.00150   0.00150   1.81292
    R8        2.05341   0.00001   0.00000   0.00006   0.00006   2.05347
    R9        2.62621  -0.00241   0.00000   0.00182   0.00178   2.62799
   R10        2.04531   0.00017   0.00000   0.00009   0.00009   2.04540
   R11        2.62388  -0.00473   0.00000  -0.00028  -0.00031   2.62356
   R12        2.62552  -0.00388   0.00000   0.00201   0.00201   2.62752
   R13        2.02201   0.01006   0.00000  -0.00001  -0.00001   2.02201
   R14        2.04576  -0.00020   0.00000   0.00002   0.00002   2.04578
   R15        2.62385   0.00223   0.00000  -0.00164  -0.00161   2.62224
   R16        3.32734  -0.00719   0.00000   0.00468   0.00468   3.33203
    A1        1.96321  -0.00324   0.00000   0.01397   0.01397   1.97718
    A2        2.14668  -0.04986   0.00000   0.01171   0.01155   2.15823
    A3        2.07816   0.06630   0.00000  -0.01771  -0.01785   2.06031
    A4        2.05768  -0.01644   0.00000   0.00505   0.00501   2.06269
    A5        2.05081   0.03985   0.00000  -0.03180  -0.03260   2.01820
    A6        2.06049  -0.01714   0.00000   0.01697   0.01605   2.07654
    A7        2.16873  -0.02285   0.00000   0.00912   0.00823   2.17696
    A8        2.00127  -0.00027   0.00000  -0.01038  -0.01038   1.99089
    A9        2.10575  -0.00881   0.00000  -0.00411  -0.00418   2.10158
   A10        2.12319   0.01218   0.00000  -0.00510  -0.00516   2.11802
   A11        2.05397  -0.00338   0.00000   0.00874   0.00866   2.06263
   A12        2.11818  -0.00272   0.00000  -0.00023  -0.00021   2.11797
   A13        2.07168   0.00268   0.00000   0.00112   0.00107   2.07275
   A14        2.09333   0.00004   0.00000  -0.00089  -0.00087   2.09247
   A15        2.11894  -0.00489   0.00000   0.00163   0.00160   2.12054
   A16        2.08077   0.00371   0.00000  -0.00069  -0.00070   2.08007
   A17        2.08344   0.00118   0.00000  -0.00101  -0.00101   2.08243
   A18        2.09197  -0.00232   0.00000  -0.00008  -0.00012   2.09185
   A19        2.07393   0.00994   0.00000  -0.00271  -0.00267   2.07126
   A20        2.11727  -0.00762   0.00000   0.00275   0.00272   2.11999
   A21        2.12082  -0.00346   0.00000  -0.00033  -0.00046   2.12036
   A22        2.07370   0.04763   0.00000  -0.00791  -0.00818   2.06552
   A23        2.08794  -0.04423   0.00000   0.00682   0.00654   2.09448
    D1       -3.09195   0.00192   0.00000   0.04570   0.04550  -3.04644
    D2       -0.03197  -0.00102   0.00000  -0.02755  -0.02736  -0.05933
    D3        2.77225  -0.00646   0.00000  -0.31306  -0.31278   2.45947
    D4       -0.28218  -0.00388   0.00000  -0.23506  -0.23541  -0.51760
    D5       -0.40972  -0.00669   0.00000  -0.34140  -0.34104  -0.75076
    D6        2.81903  -0.00411   0.00000  -0.26340  -0.26368   2.55536
    D7       -0.04960   0.00155   0.00000  -0.02503  -0.02514  -0.07474
    D8        3.11785   0.00217   0.00000  -0.00303  -0.00325   3.11460
    D9        3.13192  -0.00004   0.00000   0.00350   0.00366   3.13557
   D10        0.01618   0.00057   0.00000   0.02549   0.02555   0.04173
   D11       -3.10765   0.00012   0.00000   0.01021   0.00998  -3.09767
   D12       -0.00728  -0.00262   0.00000  -0.02952  -0.02955  -0.03683
   D13       -0.00437  -0.00101   0.00000  -0.01649  -0.01652  -0.02089
   D14        3.09600  -0.00375   0.00000  -0.05622  -0.05605   3.03995
   D15        3.11760  -0.00047   0.00000   0.00361   0.00428   3.12188
   D16       -0.11160  -0.00044   0.00000  -0.07704  -0.07772  -0.18932
   D17        3.12691  -0.00028   0.00000  -0.01507  -0.01508   3.11183
   D18       -0.01491   0.00004   0.00000  -0.01608  -0.01612  -0.03103
   D19        0.01044   0.00041   0.00000   0.00648   0.00652   0.01696
   D20       -3.13138   0.00073   0.00000   0.00546   0.00548  -3.12590
   D21        0.00162  -0.00049   0.00000  -0.00294  -0.00290  -0.00127
   D22       -3.13202  -0.00023   0.00000   0.00712   0.00716  -3.12486
   D23       -3.14019  -0.00018   0.00000  -0.00394  -0.00392   3.13907
   D24        0.00935   0.00009   0.00000   0.00612   0.00613   0.01549
   D25       -3.12524   0.00056   0.00000   0.01962   0.01962  -3.10563
   D26        0.00972   0.00006   0.00000   0.01161   0.01165   0.02137
   D27        0.00838   0.00031   0.00000   0.00955   0.00955   0.01794
   D28       -3.13983  -0.00020   0.00000   0.00154   0.00158  -3.13825
   D29       -0.00826   0.00075   0.00000  -0.00159  -0.00167  -0.00993
   D30       -3.10831   0.00138   0.00000   0.03881   0.03885  -3.06946
   D31        3.12660   0.00026   0.00000  -0.00973  -0.00979   3.11682
   D32        0.02656   0.00089   0.00000   0.03067   0.03074   0.05729
         Item               Value     Threshold  Converged?
 Maximum Force            0.066302     0.000015     NO 
 RMS     Force            0.014998     0.000010     NO 
 Maximum Displacement     0.653835     0.000060     NO 
 RMS     Displacement     0.174047     0.000040     NO 
 Predicted change in Energy=-5.731065D-03
 GradGradGradGradGradGradGradGradGradGradGradGradGradGradGradGradGradGrad

                          Input orientation:                          
 ---------------------------------------------------------------------
 Center     Atomic      Atomic             Coordinates (Angstroms)
 Number     Number       Type             X           Y           Z
 ---------------------------------------------------------------------
      1          8           0        8.727957    7.050835    5.078917
      2          1           0        9.560122    6.753373    5.456340
      3          6           0        6.249926    6.966985    5.139049
      4          5           0        7.637376    6.626950    5.777757
      5          8           0        7.818754    5.801293    6.850073
      6          1           0        7.006521    5.560345    7.300170
      7          6           0        5.159189    6.094639    5.147548
      8          1           0        5.260490    5.091215    5.552123
      9          6           0        3.937036    6.458815    4.592846
     10          1           0        3.099922    5.772904    4.575090
     11          6           0        3.800132    7.731557    4.055403
     12          6           0        4.852374    8.640408    4.063067
     13          1           0        4.706354    9.637254    3.666891
     14          6           0        6.069324    8.245556    4.600322
     15          1           0        2.858129    8.024211    3.640810
     16         17           0        7.393854    9.402439    4.727714
 ---------------------------------------------------------------------
                    Distance matrix (angstroms):
                    1          2          3          4          5
     1  O    0.000000
     2  H    0.960953   0.000000
     3  C    2.480179   3.332222   0.000000
     4  B    1.362873   1.953520   1.564797   0.000000
     5  O    2.350532   2.425141   2.597627   1.365456   0.000000
     6  H    3.181016   3.368070   2.687288   1.962999   0.959357
     7  C    3.695284   4.460661   1.396698   2.611882   3.171424
     8  H    4.010905   4.610724   2.160584   2.838834   2.955267
     9  C    4.851770   5.696620   2.430233   3.889061   4.538187
    10  H    5.793248   6.593337   3.415611   4.771194   5.238676
    11  C    5.078821   6.008074   2.785740   4.348690   5.261694
    12  C    4.310317   5.259753   2.431302   3.840626   4.962599
    13  H    4.985647   5.922665   3.417630   4.701976   5.876588
    14  C    2.953768   3.891664   1.399138   2.542642   3.754506
    15  H    6.121314   7.058887   3.855740   5.418494   6.312570
    16  Cl   2.726392   3.498738   2.721985   2.977454   4.201572
                    6          7          8          9         10
     6  H    0.000000
     7  C    2.886501   0.000000
     8  H    2.514831   1.086647   0.000000
     9  C    4.190296   1.390674   2.131213   0.000000
    10  H    4.767888   2.161435   2.467255   1.082381   0.000000
    11  C    5.052089   2.391509   3.368118   1.388330   2.143989
    12  C    4.960440   2.784093   3.870480   2.424430   3.399387
    13  H    5.925594   3.866203   4.952538   3.398782   4.282365
    14  C    3.921463   2.398801   3.392640   2.781933   3.864193
    15  H    6.055634   3.359819   4.245812   2.126236   2.449434
    16  Cl   4.639961   4.013917   4.880322   4.542324   5.624470
                   11         12         13         14         15
    11  C    0.000000
    12  C    1.390426   0.000000
    13  H    2.145661   1.082580   0.000000
    14  C    2.389637   1.387630   2.160047   0.000000
    15  H    1.070001   2.129557   2.453267   3.358784   0.000000
    16  Cl   4.019787   2.735245   2.898817   1.763232   4.863504
                   16
    16  Cl   0.000000
 Symmetry turned off by external request.
 Stoichiometry    C6H6BClO2
 Framework group  C1[X(C6H6BClO2)]
 Deg. of freedom    42
 Full point group                 C1      NOp   1
 Rotational constants (GHZ):           1.5523109           1.0796633           0.6670203
 Standard basis: 6-311+G(d,p) (5D, 7F)
   264 basis functions,   425 primitive gaussians,   274 cartesian basis functions
    40 alpha electrons       40 beta electrons
       nuclear repulsion energy       562.0093911759 Hartrees.
 NAtoms=   16 NActive=   16 NUniq=   16 SFac= 1.00D+00 NAtFMM=   60 NAOKFM=F Big=F
 Integral buffers will be    131072 words long.
 Raffenetti 2 integral format.
 Two-electron integral symmetry is turned off.
 One-electron integrals computed using PRISM.
 NBasis=   264 RedAO= T EigKep=  1.67D-06  NBF=   264
 NBsUse=   264 1.00D-06 EigRej= -1.00D+00 NBFU=   264
 Initial guess from the checkpoint file:  "2-cl-phboh2-opt-freq.chk"
 B after Tr=     0.232574    0.170252   -0.484314
         Rot=    0.999857   -0.015166    0.005182   -0.005395 Ang=  -1.94 deg.
 ExpMin= 3.15D-02 ExpMax= 1.06D+05 ExpMxC= 3.62D+03 IAcc=3 IRadAn=         5 AccDes= 0.00D+00
 Harris functional with IExCor= 1009 and IRadAn=       5 diagonalized for initial guess.
 HarFok:  IExCor= 1009 AccDes= 0.00D+00 IRadAn=         5 IDoV= 1 UseB2=F ITyADJ=14
 ICtDFT=  3500011 ScaDFX=  1.000000  1.000000  1.000000  1.000000
 FoFCou: FMM=F IPFlag=           0 FMFlag=      100000 FMFlg1=           0
         NFxFlg=           0 DoJE=T BraDBF=F KetDBF=T FulRan=T
         wScrn=  0.000000 ICntrl=       500 IOpCl=  0 I1Cent=   200000004 NGrid=           0
         NMat0=    1 NMatS0=      1 NMatT0=    0 NMatD0=    1 NMtDS0=    0 NMtDT0=    0
 Symmetry not used in FoFCou.
 Requested convergence on RMS density matrix=1.00D-08 within 128 cycles.
 Requested convergence on MAX density matrix=1.00D-06.
 Requested convergence on             energy=1.00D-06.
 Level shift goal  0.100 maximum shift  0.100.
 No special actions if energy rises.
 Dynamic level shift is on during FON iterations.
 SCF Done:  E(RM062X) =  -867.813447697     A.U. after   14 cycles
            NFock= 14  Conv=0.85D-08     -V/T= 2.0027
 Calling FoFJK, ICntrl=      2127 FMM=F ISym2X=0 I1Cent= 0 IOpClX= 0 NMat=1 NMatS=1 NMatT=0.
 -------------------------------------------------------------------
 Center     Atomic                   Forces (Hartrees/Bohr)
 Number     Number              X              Y              Z
 -------------------------------------------------------------------
      1        8           0.003984805   -0.009095084    0.007537692
      2        1           0.000380710   -0.000735649    0.001538425
      3        6          -0.000062831    0.009362194    0.009670906
      4        5           0.009268371   -0.014682942   -0.014475498
      5        8          -0.001923353    0.002886233    0.002730583
      6        1          -0.000196181    0.000183176    0.000134729
      7        6          -0.001818316   -0.003702378   -0.003232282
      8        1           0.002287857    0.000998853    0.001301463
      9        6           0.003779013    0.002514820   -0.000250914
     10        1           0.000525622   -0.000933323    0.000897155
     11        6           0.003416325   -0.001929472    0.002033034
     12        6           0.000606431    0.000810220   -0.000894068
     13        1           0.002486686    0.000341598    0.000334149
     14        6           0.001468134    0.001641972    0.003523484
     15        1          -0.008283339    0.003815543   -0.004419442
     16       17          -0.015919933    0.008524237   -0.006429417
 -------------------------------------------------------------------
 Cartesian Forces:  Max     0.015919933 RMS     0.005483768

 GradGradGradGradGradGradGradGradGradGradGradGradGradGradGradGradGradGrad
 Berny optimization.
 Using GEDIIS/GDIIS optimizer.
 FormGI is forming the generalized inverse of G from B-inverse, IUseBI=4.
 Internal  Forces:  Max     0.042731811 RMS     0.009704535
 Search for a local minimum.
 Step number   3 out of a maximum of   81
 All quantities printed in internal units (Hartrees-Bohrs-Radians)
 Mixed Optimization -- RFO/linear search
 Update second derivatives using D2CorX and points    2    3
 ITU=  0  0  0
 Use linear search instead of GDIIS.
     Eigenvalues ---   -2.75689  -0.00466   0.00050   0.00993   0.01532
     Eigenvalues ---    0.01830   0.01890   0.02354   0.02388   0.02632
     Eigenvalues ---    0.02722   0.02768   0.04245   0.05523   0.09827
     Eigenvalues ---    0.10660   0.10919   0.11553   0.12223   0.12406
     Eigenvalues ---    0.15551   0.16382   0.17691   0.18590   0.18909
     Eigenvalues ---    0.19569   0.24660   0.26666   0.28740   0.35611
     Eigenvalues ---    0.36723   0.36749   0.38045   0.39151   0.40031
     Eigenvalues ---    0.42462   0.47763   0.48189   0.48903   0.52012
     Eigenvalues ---    0.55012   0.56292
 RFO step:  Lambda=-2.75909462D+00 EMin=-2.75689050D+00
 I=     1 Eig=   -2.76D+00 Dot1=  4.68D-02
 I=     1 Stepn=  6.00D-01 RXN=   6.00D-01 EDone=F
 I=     2 Eig=   -4.66D-03 Dot1= -7.96D-04
 I=     2 Stepn= -3.00D-01 RXN=   6.71D-01 EDone=F
 Mixed    2 eigenvectors in step.  Raw Step.Grad=  4.76D-02.
 RFO eigenvector is Hessian eigenvector with negative curvature.
 Taking step of  6.00D-01 in eigenvector direction(s).  Step.Grad= -2.38D-03.
 Skip linear search -- no minimum in search direction.
 Maximum step size (   0.300) exceeded in Quadratic search.
    -- Step size not scaled.
 Iteration  1 RMS(Cart)=  0.24422941 RMS(Int)=  0.02525145
 Iteration  2 RMS(Cart)=  0.08064624 RMS(Int)=  0.00299218
 Iteration  3 RMS(Cart)=  0.00348324 RMS(Int)=  0.00234401
 Iteration  4 RMS(Cart)=  0.00000880 RMS(Int)=  0.00234401
 Iteration  5 RMS(Cart)=  0.00000008 RMS(Int)=  0.00234401
 Variable       Old X    -DE/DX   Delta X   Delta X   Delta X     New X
                                 (Linear)    (Quad)   (Total)
    R1        1.81594   0.00116   0.00000   0.00221   0.00221   1.81814
    R2        2.57546  -0.00422   0.00000  -0.02925  -0.02925   2.54621
    R3        2.95704   0.01383   0.00000   0.05939   0.05939   3.01643
    R4        2.63938   0.00174   0.00000   0.02084   0.02112   2.66049
    R5        2.64399   0.01835   0.00000   0.12501   0.12527   2.76926
    R6        2.58034   0.00011   0.00000   0.00586   0.00586   2.58619
    R7        1.81292   0.00018   0.00000   0.00275   0.00275   1.81567
    R8        2.05347  -0.00023   0.00000   0.00363   0.00363   2.05710
    R9        2.62799  -0.00080   0.00000  -0.01933  -0.01949   2.60850
   R10        2.04540   0.00017   0.00000   0.00007   0.00007   2.04547
   R11        2.62356  -0.00206   0.00000  -0.02948  -0.02987   2.59369
   R12        2.62752  -0.00232   0.00000  -0.01598  -0.01613   2.61139
   R13        2.02201   0.01005   0.00000   0.00024   0.00024   2.02225
   R14        2.04578  -0.00014   0.00000  -0.00082  -0.00082   2.04496
   R15        2.62224   0.00082   0.00000   0.01662   0.01677   2.63901
   R16        3.33203  -0.00683   0.00000  -0.00775  -0.00775   3.32428
    A1        1.97718  -0.00232   0.00000  -0.01220  -0.01220   1.96499
    A2        2.15823  -0.03114   0.00000  -0.22180  -0.22241   1.93582
    A3        2.06031   0.04273   0.00000   0.27846   0.27830   2.33860
    A4        2.06269  -0.01154   0.00000  -0.05456  -0.05437   2.00832
    A5        2.01820   0.02501   0.00000   0.16998   0.16884   2.18704
    A6        2.07654  -0.01014   0.00000  -0.08103  -0.08122   1.99532
    A7        2.17696  -0.01476   0.00000  -0.09859  -0.09883   2.07813
    A8        1.99089  -0.00021   0.00000   0.00120   0.00120   1.99209
    A9        2.10158  -0.00640   0.00000  -0.02821  -0.02846   2.07312
   A10        2.11802   0.00740   0.00000   0.05761   0.05784   2.17586
   A11        2.06263  -0.00100   0.00000  -0.03013  -0.03015   2.03249
   A12        2.11797  -0.00286   0.00000   0.00347   0.00373   2.12170
   A13        2.07275   0.00296   0.00000  -0.00737  -0.00792   2.06482
   A14        2.09247  -0.00010   0.00000   0.00390   0.00417   2.09664
   A15        2.12054  -0.00469   0.00000  -0.00356  -0.00409   2.11645
   A16        2.08007   0.00365   0.00000   0.00109   0.00135   2.08142
   A17        2.08243   0.00104   0.00000   0.00224   0.00243   2.08486
   A18        2.09185  -0.00049   0.00000  -0.02200  -0.02192   2.06992
   A19        2.07126   0.00610   0.00000   0.04738   0.04727   2.11852
   A20        2.11999  -0.00562   0.00000  -0.02566  -0.02576   2.09422
   A21        2.12036  -0.00022   0.00000  -0.04015  -0.04011   2.08025
   A22        2.06552   0.02962   0.00000   0.20889   0.20666   2.27218
   A23        2.09448  -0.02945   0.00000  -0.17361  -0.17323   1.92125
    D1       -3.04644   0.00009   0.00000   0.06658   0.06823  -2.97821
    D2       -0.05933  -0.00054   0.00000  -0.00636  -0.00801  -0.06734
    D3        2.45947  -0.00504   0.00000  -0.03003  -0.03039   2.42908
    D4       -0.51760  -0.00514   0.00000   0.04383   0.04581  -0.47179
    D5       -0.75076  -0.00450   0.00000   0.00578   0.00380  -0.74696
    D6        2.55536  -0.00460   0.00000   0.07964   0.08001   2.63536
    D7       -0.07474   0.00256   0.00000   0.05410   0.04912  -0.02563
    D8        3.11460   0.00274   0.00000   0.07327   0.06675  -3.10184
    D9        3.13557   0.00003   0.00000   0.00602   0.00774  -3.13987
   D10        0.04173   0.00020   0.00000   0.02519   0.02537   0.06711
   D11       -3.09767  -0.00054   0.00000  -0.06563  -0.06796   3.11756
   D12       -0.03683  -0.00261   0.00000  -0.14276  -0.15086  -0.18770
   D13       -0.02089  -0.00097   0.00000  -0.03951  -0.03866  -0.05955
   D14        3.03995  -0.00304   0.00000  -0.11664  -0.12157   2.91838
   D15        3.12188  -0.00173   0.00000   0.03194   0.02744  -3.13386
   D16       -0.18932   0.00139   0.00000  -0.02261  -0.01811  -0.20743
   D17        3.11183  -0.00004   0.00000  -0.00475  -0.00469   3.10714
   D18       -0.03103   0.00034   0.00000   0.00489   0.00446  -0.02656
   D19        0.01696   0.00029   0.00000   0.01403   0.01260   0.02956
   D20       -3.12590   0.00066   0.00000   0.02366   0.02175  -3.10415
   D21       -0.00127  -0.00056   0.00000  -0.02344  -0.02313  -0.02440
   D22       -3.12486  -0.00049   0.00000  -0.00791  -0.00865  -3.13351
   D23        3.13907  -0.00019   0.00000  -0.01395  -0.01412   3.12496
   D24        0.01549  -0.00012   0.00000   0.00158   0.00036   0.01585
   D25       -3.10563   0.00016   0.00000   0.03020   0.02740  -3.07823
   D26        0.02137  -0.00024   0.00000   0.00877   0.00753   0.02890
   D27        0.01794   0.00012   0.00000   0.01464   0.01288   0.03082
   D28       -3.13825  -0.00029   0.00000  -0.00679  -0.00699   3.13794
   D29       -0.00993   0.00110   0.00000   0.02420   0.02532   0.01539
   D30       -3.06946   0.00048   0.00000   0.08507   0.07617  -2.99329
   D31        3.11682   0.00073   0.00000   0.00246   0.00522   3.12204
   D32        0.05729   0.00012   0.00000   0.06333   0.05607   0.11336
         Item               Value     Threshold  Converged?
 Maximum Force            0.042732     0.000015     NO 
 RMS     Force            0.009705     0.000010     NO 
 Maximum Displacement     1.124234     0.000060     NO 
 RMS     Displacement     0.310619     0.000040     NO 
 Predicted change in Energy=-4.376871D-01
 GradGradGradGradGradGradGradGradGradGradGradGradGradGradGradGradGradGrad

                          Input orientation:                          
 ---------------------------------------------------------------------
 Center     Atomic      Atomic             Coordinates (Angstroms)
 Number     Number       Type             X           Y           Z
 ---------------------------------------------------------------------
      1          8           0        8.966030    6.722564    5.248968
      2          1           0        9.612330    6.164859    5.692743
      3          6           0        6.393597    7.185000    5.113634
      4          5           0        7.724211    6.575414    5.750670
      5          8           0        7.617888    5.614808    6.719625
      6          1           0        6.729993    5.507470    7.070741
      7          6           0        5.334374    6.260057    5.181708
      8          1           0        5.523366    5.277425    5.610310
      9          6           0        4.069239    6.476348    4.673722
     10          1           0        3.300079    5.716566    4.726184
     11          6           0        3.802922    7.686695    4.083848
     12          6           0        4.761223    8.680360    4.021351
     13          1           0        4.487003    9.638680    3.600076
     14          6           0        6.048651    8.481758    4.524647
     15          1           0        2.824935    7.873417    3.691607
     16         17           0        6.941620    9.997358    4.514287
 ---------------------------------------------------------------------
                    Distance matrix (angstroms):
                    1          2          3          4          5
     1  O    0.000000
     2  H    0.962120   0.000000
     3  C    2.617169   3.425827   0.000000
     4  B    1.347394   1.933107   1.596228   0.000000
     5  O    2.281983   2.309728   2.558046   1.368555   0.000000
     6  H    3.129724   3.261734   2.599526   1.967629   0.960813
     7  C    3.661607   4.309423   1.407873   2.476790   2.827715
     8  H    3.751124   4.184969   2.154723   2.558944   2.394041
     9  C    4.936607   5.644580   2.469484   3.811621   4.185795
    10  H    5.778265   6.401540   3.446197   4.621703   4.756852
    11  C    5.380032   6.217214   2.832624   4.403380   5.078780
    12  C    4.797960   5.714415   2.468569   4.025003   4.983858
    13  H    5.593233   6.535722   3.456372   4.948553   5.977088
    14  C    3.482887   4.408205   1.465427   2.818649   3.936983
    15  H    6.439168   7.279591   3.902747   5.470600   6.102673
    16  Cl   3.919473   4.817623   2.927269   3.721666   4.952535
                    6          7          8          9         10
     6  H    0.000000
     7  C    2.466290   0.000000
     8  H    1.908331   1.088569   0.000000
     9  C    3.709991   1.380361   2.104542   0.000000
    10  H    4.159925   2.154354   2.432597   1.082418   0.000000
    11  C    4.715750   2.363459   3.330855   1.372522   2.132336
    12  C    4.821003   2.744595   3.832182   2.400437   3.378729
    13  H    5.843237   3.825531   4.912803   3.365648   4.249693
    14  C    3.974067   2.424433   3.423790   2.821695   3.904043
    15  H    5.680294   3.334759   4.207390   2.112971   2.438877
    16  Cl   5.171010   4.122634   5.048809   4.546812   5.624136
                   11         12         13         14         15
    11  C    0.000000
    12  C    1.381889   0.000000
    13  H    2.124205   1.082148   0.000000
    14  C    2.422752   1.396503   2.152219   0.000000
    15  H    1.070129   2.123464   2.426315   3.384728   0.000000
    16  Cl   3.921207   2.594533   2.643780   1.759132   4.704787
                   16
    16  Cl   0.000000
 Symmetry turned off by external request.
 Stoichiometry    C6H6BClO2
 Framework group  C1[X(C6H6BClO2)]
 Deg. of freedom    42
 Full point group                 C1      NOp   1
 Rotational constants (GHZ):           1.3558653           1.0090584           0.6030161
 Standard basis: 6-311+G(d,p) (5D, 7F)
   264 basis functions,   425 primitive gaussians,   274 cartesian basis functions
    40 alpha electrons       40 beta electrons
       nuclear repulsion energy       546.2296809125 Hartrees.
 NAtoms=   16 NActive=   16 NUniq=   16 SFac= 1.00D+00 NAtFMM=   60 NAOKFM=F Big=F
 Integral buffers will be    131072 words long.
 Raffenetti 2 integral format.
 Two-electron integral symmetry is turned off.
 One-electron integrals computed using PRISM.
 NBasis=   264 RedAO= T EigKep=  1.90D-06  NBF=   264
 NBsUse=   264 1.00D-06 EigRej= -1.00D+00 NBFU=   264
 Initial guess from the checkpoint file:  "2-cl-phboh2-opt-freq.chk"
 B after Tr=     0.484709   -0.221073   -0.164525
         Rot=    0.999753   -0.004229   -0.001452   -0.021783 Ang=  -2.55 deg.
 ExpMin= 3.15D-02 ExpMax= 1.06D+05 ExpMxC= 3.62D+03 IAcc=3 IRadAn=         5 AccDes= 0.00D+00
 Harris functional with IExCor= 1009 and IRadAn=       5 diagonalized for initial guess.
 HarFok:  IExCor= 1009 AccDes= 0.00D+00 IRadAn=         5 IDoV= 1 UseB2=F ITyADJ=14
 ICtDFT=  3500011 ScaDFX=  1.000000  1.000000  1.000000  1.000000
 FoFCou: FMM=F IPFlag=           0 FMFlag=      100000 FMFlg1=           0
         NFxFlg=           0 DoJE=T BraDBF=F KetDBF=T FulRan=T
         wScrn=  0.000000 ICntrl=       500 IOpCl=  0 I1Cent=   200000004 NGrid=           0
         NMat0=    1 NMatS0=      1 NMatT0=    0 NMatD0=    1 NMtDS0=    0 NMtDT0=    0
 Symmetry not used in FoFCou.
 Requested convergence on RMS density matrix=1.00D-08 within 128 cycles.
 Requested convergence on MAX density matrix=1.00D-06.
 Requested convergence on             energy=1.00D-06.
 Level shift goal  0.100 maximum shift  0.100.
 No special actions if energy rises.
 Dynamic level shift is on during FON iterations.
 SCF Done:  E(RM062X) =  -867.801090761     A.U. after   16 cycles
            NFock= 16  Conv=0.79D-08     -V/T= 2.0029
 Calling FoFJK, ICntrl=      2127 FMM=F ISym2X=0 I1Cent= 0 IOpClX= 0 NMat=1 NMatS=1 NMatT=0.
 -------------------------------------------------------------------
 Center     Atomic                   Forces (Hartrees/Bohr)
 Number     Number              X              Y              Z
 -------------------------------------------------------------------
      1        8           0.005126863    0.013770369   -0.008015805
      2        1          -0.001869397    0.000698146    0.000890954
      3        6          -0.004749065    0.033325264   -0.003600074
      4        5          -0.002409105   -0.005995488   -0.008612875
      5        8          -0.005561145    0.000663800    0.009305332
      6        1           0.003605861    0.001067910    0.001964159
      7        6           0.008139677   -0.005377530   -0.002494697
      8        1           0.000657031    0.002361517   -0.002208805
      9        6          -0.002077382   -0.002140961   -0.000294549
     10        1           0.001111445   -0.001255795    0.001464179
     11        6          -0.004392573    0.001797573   -0.002546887
     12        6           0.005414138   -0.002116751    0.001259557
     13        1           0.002640432    0.000809449    0.000156023
     14        6          -0.012120007   -0.024747255    0.012345931
     15        1          -0.008691553    0.003393601   -0.004575284
     16       17           0.015174781   -0.016253849    0.004962839
 -------------------------------------------------------------------
 Cartesian Forces:  Max     0.033325264 RMS     0.008440982

 GradGradGradGradGradGradGradGradGradGradGradGradGradGradGradGradGradGrad
 Berny optimization.
 Using GEDIIS/GDIIS optimizer.
 FormGI is forming the generalized inverse of G from B-inverse, IUseBI=4.
 Internal  Forces:  Max     0.048941795 RMS     0.011113935
 Search for a local minimum.
 Step number   4 out of a maximum of   81
 All quantities printed in internal units (Hartrees-Bohrs-Radians)
 Mixed Optimization -- RFO/linear search
 Update second derivatives using D2CorX and points    2    4    3
 ITU=  0  0  0  0
 Use linear search instead of GDIIS.
     Eigenvalues ---   -0.00493   0.00054   0.00993   0.01532   0.01828
     Eigenvalues ---    0.01889   0.02350   0.02379   0.02616   0.02687
     Eigenvalues ---    0.02767   0.04173   0.05431   0.09781   0.10652
     Eigenvalues ---    0.10916   0.11539   0.12214   0.12380   0.15494
     Eigenvalues ---    0.16283   0.17608   0.18529   0.18896   0.19353
     Eigenvalues ---    0.24069   0.24692   0.28661   0.30324   0.35638
     Eigenvalues ---    0.36723   0.36786   0.38039   0.39364   0.42239
     Eigenvalues ---    0.43098   0.48167   0.48221   0.49036   0.52010
     Eigenvalues ---    0.55028   0.56294
 RFO step:  Lambda=-1.65122565D-02 EMin=-4.92544731D-03
 Quartic linear search produced a step of -0.68352.
 Iteration  1 RMS(Cart)=  0.22117645 RMS(Int)=  0.07421657
 Iteration  2 RMS(Cart)=  0.09608238 RMS(Int)=  0.01555575
 Iteration  3 RMS(Cart)=  0.02273309 RMS(Int)=  0.00409170
 Iteration  4 RMS(Cart)=  0.00068986 RMS(Int)=  0.00407130
 Iteration  5 RMS(Cart)=  0.00000278 RMS(Int)=  0.00407130
 Iteration  6 RMS(Cart)=  0.00000009 RMS(Int)=  0.00407130
 Variable       Old X    -DE/DX   Delta X   Delta X   Delta X     New X
                                 (Linear)    (Quad)   (Total)
    R1        1.81814  -0.00125  -0.00151   0.00190   0.00039   1.81853
    R2        2.54621   0.00724   0.01999  -0.00203   0.01796   2.56417
    R3        3.01643  -0.00660  -0.04060   0.02178  -0.01882   2.99762
[...]
     1         14.46551117          9.59961084        -16.95278880
     6         10.00647196         11.94697559        -13.03832497
     5         12.62078716         11.06164574        -14.15713549
     8         14.77498087         11.15937920        -12.72699583
     1         14.55891712         12.00903608        -11.13995899
     6          9.36038765         11.17941714        -10.58619740
     1         10.67685351         10.00985777         -9.53165008
     6          7.06600853         11.82203958         -9.48317051
     1          6.61530759         11.17812893         -7.59349395
     6          5.35505522         13.29442285        -10.82675090
     6          5.94299658         14.11351967        -13.25120641
     1          4.64044262         15.27894251        -14.31395204
     6          8.24019124         13.42832460        -14.32277889
     1          3.56020761         13.81785005         -9.99238757
    17          8.90850465         14.56223223        -17.35067777

 Electric dipole moment (dipole orientation):
 (Debye = 10**-18 statcoulomb cm , SI units = C m)
                  (au)            (Debye)         (10**-30 SI)
   Tot        0.106316D+01      0.270229D+01      0.901386D+01
   x          0.000000D+00      0.000000D+00      0.000000D+00
   y          0.000000D+00      0.000000D+00      0.000000D+00
   z          0.106316D+01      0.270229D+01      0.901386D+01

 Dipole polarizability, Alpha (dipole orientation).
 (esu units = cm**3 , SI units = C**2 m**2 J**-1)
 Alpha(0;0):
               (au)            (10**-24 esu)      (10**-40 SI)
   iso        0.972831D+02      0.144159D+02      0.160398D+02
   aniso      0.558495D+02      0.827604D+01      0.920834D+01
   xx         0.104672D+03      0.155108D+02      0.172581D+02
   yx        -0.157941D+02     -0.234044D+01     -0.260409D+01
   yy         0.735513D+02      0.108992D+02      0.121270D+02
   zx        -0.125542D+02     -0.186034D+01     -0.206991D+01
   zy        -0.137920D+02     -0.204377D+01     -0.227400D+01
   zz         0.113626D+03      0.168376D+02      0.187344D+02

 ----------------------------------------------------------------------
 Unable to Open any file for archive entry.
 1\1\GINC-CN012\Freq\RM062X\6-311+G(d,p)\C6H6B1Cl1O2\TAHMINAAFROZ\22-Ap
 r-2025\0\\#N Geom=AllCheck Guess=TCheck SCRF=Check GenChk RM062X/6-311
 +G(d,p) Freq\\2-cl-phboh2-optfreq\\0,1\O,8.8287101427,6.8377494571,5.0
 654084546\H,9.5974927086,6.4944066029,5.530983151\C,6.2893110495,7.045
 9075474,5.1392278807\B,7.6753517335,6.5793076863,5.7266646367\O,7.7360
 810605,5.8452172321,6.8809291738\H,6.8929628021,5.7641909991,7.3316178
 417\C,5.2358005799,6.1215860045,5.1017350671\H,5.4034175828,5.11748373
 34,5.4804821523\C,3.9929170492,6.4407132522,4.5689489542\H,3.203976546
 8,5.6991808621,4.5436825647\C,3.7721086757,7.7183320536,4.0676849335\C
 ,4.788412717,8.6652384881,4.1019354961\H,4.6289781139,9.6677492611,3.7
 260737746\C,6.0265446514,8.3190381668,4.6291289854\H,2.8078565294,7.98
 47893234,3.6517637941\Cl,7.257537957,9.5578881698,4.6778538694\\Versio
 n=AS64L-G16RevC.01\HF=-867.8214593\RMSD=2.052e-09\RMSF=3.314e-06\ZeroP
 oint=0.1164514\Thermal=0.1254731\ETot=-867.6959862\HTot=-867.695042\GT
 ot=-867.7401586\Dipole=-0.8069847,-0.5875865,0.3658296\DipoleDeriv=-1.
 3478429,0.0349258,0.2301781,-0.0117669,-0.5249778,0.034041,0.2957512,0
 .0122312,-0.6162051,0.3599871,0.0116148,-0.0350408,0.0068557,0.3047305
 ,0.0385091,-0.0702025,0.0513003,0.2698906,-0.5220997,0.0131226,-0.1283
 068,-0.0661194,-0.3637218,0.0626821,-0.1352459,0.1034425,-0.2463628,1.
 8464533,-0.2911852,0.055719,-0.1312466,0.8446323,-0.5431602,-0.057237,
 -0.4988412,1.3887607,-0.6437889,0.1214766,-0.1471658,0.0786751,-0.7603
 943,0.4395219,-0.0747574,0.3992641,-1.1597927,0.2089466,-0.0163589,0.0
 421769,-0.0127145,0.3239616,-0.0474639,0.0632873,-0.0758336,0.4173913,
 0.0580302,-0.0138875,0.0644117,0.0440661,0.0487396,-0.03773,0.0030142,
 -0.0266218,-0.1241284,0.0651356,0.0174494,-0.0245753,0.0136041,-0.0566
 086,0.0692874,-0.0169577,0.0673633,0.0933198,-0.0563167,0.0925388,0.00
 23423,0.0721984,-0.0723486,0.0048791,0.0108086,0.010462,-0.1374734,-0.
 0014936,-0.0713255,-0.0262407,-0.0778575,0.0131727,0.0170572,-0.024413
 ,0.0167099,0.130707,0.0637623,-0.0022177,0.0617194,0.0387618,0.0587154
 ,-0.0416021,0.0518665,-0.0550971,-0.0793212,-0.2911704,-0.1576992,-0.0
 15751,-0.1031072,-0.0820657,-0.0450423,-0.0216756,-0.0736911,-0.098006
 1,0.0834058,-0.0012343,-0.0200846,0.0050341,0.0000324,0.0473752,-0.028
 5217,0.0427597,0.1192661,0.6192467,0.6399792,0.0153745,0.5071536,0.677
 6062,-0.0335085,0.0928484,0.0007095,0.0156996,-0.0345934,0.0149719,-0.
 0639905,0.0180898,0.0655501,0.0298289,-0.0652504,0.0300351,0.1061826,-
 0.4076619,-0.3921706,-0.0107665,-0.3816268,-0.4770239,0.005325,-0.0233
 148,-0.0041927,-0.079928\Polar=116.7863736,9.4508446,103.89172,13.8159
 649,-14.3729652,71.1712364\Quadrupole=-6.3302176,-7.7702769,14.1004945
 ,-18.6628107,-0.9147288,-2.3567186\PG=C01 [X(C6H6B1Cl1O2)]\NImag=0\\0.
 67419501,-0.08924771,0.13832388,0.04092939,-0.15881151,0.30284126,-0.3
 4652975,0.13358220,-0.17514821,0.37656330,0.15260136,-0.08238746,0.093
 59289,-0.14632679,0.07798200,-0.20848608,0.09689764,-0.14746651,0.1915
 6197,-0.09250392,0.13938346,-0.02605489,0.00498052,-0.00518651,-0.0010
 6402,-0.00077093,0.00140335,0.58504636,-0.00221030,0.00958420,0.000112
 18,-0.00119657,0.00383468,0.00256171,0.03361069,0.57771045,0.01068232,
 -0.00289493,0.00931422,0.00293157,0.00189344,0.00037573,0.12752806,-0.
 14887444,0.23291853,-0.29546199,-0.03072755,0.10148015,-0.03384473,-0.
 00547778,0.01649980,-0.16386575,0.03058421,-0.04285653,0.58599874,-0.0
 4886985,-0.06539598,0.03680524,0.01254582,0.00536766,-0.00615904,0.035
 74701,-0.08243215,0.01920657,-0.00485295,0.27692746,0.13141289,0.03437
 212,-0.13066397,-0.01506864,-0.00236657,0.01070922,-0.04501139,0.01481
 141,-0.07916056,-0.06381057,-0.18767270,0.45856283,-0.00369849,-0.0229
 9885,0.03960395,0.00518523,-0.00016736,-0.00111372,0.00262989,0.015886
 94,-0.02043084,-0.08403024,0.00608408,-0.00008826,0.51350868,-0.015195
 93,0.00229291,0.02276958,0.00111703,-0.00339979,-0.00043684,0.00396388
 ,0.00363675,0.01951798,0.02642352,-0.12906182,0.12597179,0.02246716,0.
 14625414,0.02845606,0.02403579,-0.03250516,-0.00371256,-0.00042585,-0.
 00249757,-0.00345626,0.01864308,-0.01049126,-0.03311512,0.13357530,-0.
 24980951,-0.21072703,-0.19998984,0.43486075,0.00303331,0.00132292,-0.0
 0124110,0.00031368,0.00009742,-0.00028186,-0.00033077,0.00111784,-0.00
 219732,-0.00051080,-0.00023578,0.00005766,-0.42886165,-0.04210099,0.22
 661077,0.42721538,0.00038795,0.00269040,0.00515591,0.00028204,-0.00072
 101,-0.00015034,-0.00009748,-0.00140640,-0.00195252,-0.01790210,-0.003
 78486,0.00971661,-0.02240029,-0.01983312,0.02326750,0.04000552,0.02299
 840,0.00001055,0.00480372,-0.00136102,-0.00043021,-0.00007935,-0.00065
 077,-0.00069611,-0.00211046,0.00140831,0.02867766,0.00147758,-0.013994
 12,0.19480248,0.03215525,-0.13814873,-0.22233276,-0.03563189,0.1530234
 7,-0.00133934,0.00138126,-0.00054702,-0.00041265,0.00071402,0.00065136
 ,-0.22909989,-0.07510209,-0.03445857,-0.01826250,-0.01242485,-0.003696
 67,-0.00015011,-0.00082948,0.00180722,-0.00014839,0.00031394,-0.000019
 69,0.62107728,0.00414785,-0.00150461,0.00061167,0.00054879,-0.00021868
 ,-0.00027466,-0.12979952,-0.19809403,0.00535267,-0.00102253,0.01225761
 ,-0.00433440,-0.00012745,-0.00476248,0.00266003,0.00140256,0.00188735,
 0.00072632,0.02559072,0.66558147,-0.00268833,0.00075352,0.00043616,0.0
 0005236,0.00017472,0.00037344,-0.01484810,0.02254608,-0.07529546,-0.00
 469811,-0.00758574,0.00218256,-0.00038163,0.00108695,0.00019858,-0.000
 02170,-0.00048376,-0.00032452,0.15481575,-0.16473263,0.24644590,0.0000
 5446,0.00028749,-0.00028581,-0.00011704,-0.00012876,-0.00001601,0.0061
 5576,-0.02111278,0.00834131,-0.00063773,-0.00201302,0.00180111,0.00025
 708,0.00090079,0.00031532,0.00006400,-0.00045880,-0.00083241,-0.063787
 66,0.03856776,-0.02057294,0.06480609,0.00011069,0.00038225,-0.00037068
 ,-0.00012530,-0.00002881,0.00004517,0.00373443,-0.01462359,0.00669966,
 0.00077121,-0.00213128,0.00094960,0.00090632,0.00171873,-0.00063065,-0
 .00096603,-0.00048192,-0.00095091,0.03892777,-0.29379956,0.09550952,-0
 .03954187,0.31060252,0.00080125,-0.00014215,-0.00000407,0.00007779,0.0
 0011448,0.00007301,0.00095628,-0.00143903,0.00277149,0.00047779,-0.000
 74692,-0.00212007,-0.00023848,0.00053077,-0.00045330,-0.00057136,-0.00
 041784,-0.00057721,-0.02146385,0.09327498,-0.07627358,0.02563205,-0.10
 464766,0.06946410,-0.00080285,0.00073084,-0.00018792,-0.00011353,0.000
 10756,0.00009542,-0.04802094,-0.05106679,-0.00164526,0.00066651,-0.006
 64848,0.00060990,0.00069611,0.00137543,-0.00063082,-0.00042015,0.00011
 523,-0.00056230,-0.29580365,0.07213480,-0.10348493,0.00052105,-0.00139
 746,-0.00083457,0.66691053,-0.00034320,0.00083698,-0.00036476,-0.00025
 744,0.00016277,0.00021060,-0.00054027,0.05427921,-0.01654865,-0.003839
 75,-0.00145447,0.00172561,0.00073580,0.00048034,0.00008595,-0.00018876
 ,-0.00057899,-0.00027995,0.00256447,-0.13502848,0.02442554,0.02693825,
 -0.00309287,0.01218247,0.09262340,0.66684894,-0.00112285,0.00012680,-0
 .00059273,-0.00021168,-0.00030730,-0.00013793,-0.01852114,-0.03063464,
 0.01511866,-0.00120331,0.00048741,0.00528238,0.00044293,-0.00109988,0.
 00025726,0.00024649,0.00039046,0.00013012,-0.08019979,0.04742473,-0.10
 818943,-0.00994588,0.00175276,0.00017806,0.15172968,-0.14468400,0.2344
 3915,-0.00061438,0.00017246,0.00000625,-0.00002197,0.00001972,0.000043
 33,-0.00342713,0.00153553,-0.00429203,0.00045250,-0.00124283,0.0004350
 7,-0.00011998,0.00037155,-0.00029832,-0.00003669,-0.00010365,0.0000788
 8,-0.01467090,-0.02062823,0.00071221,0.00032937,0.00066712,0.00129959,
 -0.20940100,-0.14533953,-0.01094741,0.21781951,0.00003944,-0.00003541,
 -0.00003117,0.00002069,-0.00001498,-0.00001099,0.00153638,0.00160294,0
 .00235511,0.00019641,0.00030274,0.00008233,-0.00006887,-0.00003612,-0.
 00006138,-0.00001203,0.00002053,0.00004728,0.00739971,0.00875945,0.000
 64788,0.00003246,0.00020343,-0.00143278,-0.14533208,-0.19178503,0.0013
 1515,0.15641437,0.19904458,-0.00020616,0.00006947,-0.00010311,-0.00004
 441,0.00003947,0.00002013,-0.00403728,0.00220601,0.00484616,-0.0000179
 3,-0.00048588,0.00043247,-0.00003937,0.00015124,-0.00022166,-0.0000769
 3,-0.00002699,0.00005349,-0.00850379,-0.00916256,0.00328370,0.00149096
 ,-0.00112492,-0.00323657,-0.01101989,0.00118572,-0.04144232,0.01414920
 ,-0.00369036,0.03198786,-0.00077432,0.00004171,-0.00004306,0.00001063,
 -0.00013851,-0.00006323,-0.00938181,-0.02164252,0.00606284,0.00168691,
 -0.00122830,0.00100675,-0.00030597,0.00025761,-0.00033880,-0.00005103,
 0.00006596,0.00019691,0.01862939,0.03439512,-0.00752167,-0.00416665,0.
 00095659,-0.00454391,-0.13097633,0.05962991,-0.04271073,0.00771367,-0.
 02241044,0.00908660,0.68709920,-0.00021274,0.00019736,-0.00020420,-0.0
 0006778,0.00003350,-0.00003985,-0.02362683,-0.06660768,0.01451186,-0.0
 0046862,-0.00296009,0.00039987,0.00051844,-0.00004894,0.00009615,0.000
 03713,0.00034332,-0.00044566,0.08883371,0.00655152,0.03029216,0.000462
 28,0.00209525,0.00182536,-0.00977717,-0.30626372,0.07692884,0.00555910
 ,-0.01377582,0.00776971,0.03148893,0.63378823,-0.00007467,-0.00006699,
 0.00010173,0.00008310,-0.00000708,0.00001081,0.00643689,0.01268506,-0.
 00789045,0.00096916,0.00012014,-0.00061666,-0.00029475,0.00031326,-0.0
 0015701,-0.00013608,-0.00014075,0.00010983,-0.02548217,0.01250452,-0.0
 0523210,-0.00408667,0.00195457,0.00511790,-0.01977541,0.10104834,-0.10
 443259,-0.00034860,-0.00201663,0.00383749,0.17634388,-0.15341402,0.249
 94524,0.00051628,0.00013364,0.00039687,0.00015904,-0.00005263,0.000058
 87,0.01915371,0.07794648,-0.02500434,0.00143547,0.00114165,-0.00140399
 ,-0.00043405,0.00080161,-0.00017557,-0.00017603,-0.00045626,0.00038006
 ,-0.07337000,-0.01607638,-0.01765638,-0.00127907,-0.00035485,0.0000245
 1,0.05388160,-0.06184385,0.03674711,0.00186731,0.00140267,-0.00250494,
 -0.24076654,-0.07739331,-0.03482920,0.62145976,0.00084713,0.00070749,-
 0.00042151,-0.00005328,-0.00022411,-0.00002833,0.03076901,0.00626147,0
 .01014015,-0.00288750,-0.00342051,0.00271546,0.00178738,0.00001832,0.0
 0140940,-0.00009408,-0.00018471,-0.00043990,-0.01675874,-0.00657152,-0
 .00528526,-0.00044295,0.00034809,-0.00076539,-0.01019072,-0.04426359,0
 .01386347,0.00103443,-0.00355625,0.00403107,-0.15039518,-0.22832416,0.
 00330366,0.04457724,0.71061648,-0.00087867,-0.00026278,-0.00014836,-0.
 00017424,-0.00018073,-0.00009256,-0.00736636,0.02913154,-0.00193145,0.
 00029740,0.00340859,0.00445521,0.00017726,-0.00079645,-0.00049261,0.00
 008180,0.00012087,0.00012392,-0.01694909,-0.00521460,-0.00967509,0.000
 05537,-0.00059305,-0.00078727,0.01875440,-0.00329189,0.01493838,-0.002
 22842,0.00407347,0.00513054,-0.01146774,0.02714001,-0.07507190,0.15070
 015,-0.17120994,0.23881834,-0.00032787,-0.00018612,0.00006832,-0.00000
 609,-0.00001159,-0.00000636,-0.00454161,0.00087567,-0.00362406,0.00110
 977,0.00083633,-0.00013384,-0.00046024,0.00018327,-0.00046206,-0.00005
 754,-0.00002961,0.00010451,-0.00119073,-0.00057239,0.00012641,0.000008
 77,0.00011945,0.00027997,-0.00254320,-0.00379722,-0.00218509,0.0002475
 2,-0.00109012,0.00043671,0.00814118,-0.02189260,0.00852079,-0.06135886
 ,0.03777259,-0.02027580,0.06181814,0.00020287,0.00001860,-0.00004370,0
 .00000789,-0.00000882,0.00000995,0.00086156,0.00174951,0.00159580,-0.0
 0053073,0.00006203,0.00001380,0.00017045,-0.00011138,0.00013382,0.0000
 3109,0.00001664,-0.00004539,-0.00037061,0.00053785,-0.00062661,0.00012
 089,-0.00013565,-0.00020332,-0.00402940,-0.00009592,0.00108066,0.00030
 954,-0.00067449,0.00037994,0.00531214,-0.01297526,0.00720736,0.0405636
 4,-0.30473111,0.09951204,-0.04020192,0.31974411,-0.00014788,-0.0001296
 6,-0.00000005,-0.00000071,-0.00000771,0.00000784,-0.00380186,0.0017732
 7,0.00414569,0.00041408,0.00043772,0.00024707,-0.00007224,-0.00000293,
 -0.00018469,0.00004260,0.00001795,0.00003295,-0.00026897,-0.00067365,-
 0.00081437,0.00027418,-0.00021580,-0.00077847,-0.00189588,0.00106116,0
 .00656973,-0.00005314,-0.00011607,0.00013999,-0.00006164,-0.00157287,0
 .00427827,-0.02154630,0.09846829,-0.07659007,0.02500456,-0.10799662,0.
 06886452,-0.00343174,-0.00356843,0.00110368,-0.00030116,-0.00059586,-0
 .00029042,-0.12614465,0.02006020,-0.02361279,0.01137824,0.02070427,-0.
 00642124,-0.00577456,0.00085723,-0.00469764,0.00008111,0.00015426,0.00
 107585,0.05521683,-0.00835204,0.01907544,-0.00167028,-0.00343532,-0.00
 184731,-0.03471266,0.03769636,-0.02232704,-0.00021545,0.00121405,-0.00
 019239,-0.05192827,-0.06077859,0.00029218,-0.27251261,0.09049117,-0.09
 880616,-0.00115749,-0.00235076,-0.00044718,0.53347439,-0.00738383,-0.0
 0261824,0.00062319,-0.00007701,0.00039107,0.00009562,0.06929633,-0.265
 98042,0.08841379,0.01481472,-0.00268126,0.00466094,-0.00410419,0.00288
 898,-0.00335686,-0.00010602,-0.00098135,0.00143808,-0.06523631,-0.0488
 7293,-0.00440843,-0.00346122,0.00022470,0.00127839,0.03663953,-0.03812
 907,0.02322881,0.00127664,-0.00055106,0.00044885,0.00255283,0.06030947
 ,-0.01674893,0.01911022,-0.13055209,0.02703098,0.02601054,-0.00453836,
 0.01095362,-0.02343847,0.53056207,0.00144581,0.00005874,-0.00049643,-0
 .00007985,0.00000385,-0.00022008,-0.04164537,0.07191657,-0.09858385,-0
 .00378305,0.00782624,-0.00263230,-0.00141174,-0.00057730,-0.00038128,-
 0.00012137,0.00020033,0.00012440,0.03945237,0.01554834,0.01382209,-0.0
 0199532,0.00134896,0.00684716,-0.02188531,0.02313353,-0.02239697,-0.00
 033342,0.00044017,-0.00082073,-0.02069204,-0.03908105,0.01171867,-0.07
 426830,0.05198873,-0.10681132,-0.00977623,0.00169367,-0.00051646,0.144
 80362,-0.13694243,0.22029260,-0.00006425,0.00005274,-0.00000654,0.0000
 0545,-0.00001249,-0.00000852,0.00020573,-0.00034250,0.00072306,-0.0000
 8035,0.00002065,0.00023154,-0.00000417,-0.00003645,-0.00005207,0.00001
 493,0.00000955,0.00003482,0.00233763,0.00017603,-0.00174082,-0.0001301
 6,-0.00012232,0.,0.00017000,-0.00131633,-0.00096403,0.00006693,0.00071
 303,0.00117012,-0.28417449,0.06085085,-0.10339628,-0.01525751,0.007852
 32,-0.00915370,0.00026506,0.00031586,0.00146692,-0.00015796,-0.0036437
 9,-0.00160241,0.29791810,0.00015791,0.00006524,-0.00003643,-0.00000177
 ,-0.00001156,0.00000138,-0.00049279,-0.00116393,-0.00020127,-0.0000683
 4,-0.00020728,-0.00009456,0.00007919,0.00016573,-0.00003835,-0.0000588
 6,-0.00004763,-0.00009466,-0.00011993,-0.00450068,0.00390872,0.0013269
 7,-0.00027834,0.00058148,0.02654812,-0.00097744,0.01073362,-0.00000745
 ,0.00044343,-0.00150490,0.06095521,-0.07483384,0.03245654,-0.02019368,
 0.00920683,-0.00851618,0.00093320,0.00026637,-0.00117570,-0.00367521,-
 0.00113125,0.00170836,-0.06420495,0.07337793,0.00006521,0.00001063,0.0
 0005736,0.00003180,0.00003057,0.00002011,0.00064533,-0.00059291,-0.001
 04607,0.00026745,-0.00018120,-0.00062302,-0.00011419,0.00010557,-0.000
 09174,0.00000371,0.00000596,0.00003732,-0.00164531,0.00411074,0.005396
 67,-0.00048893,0.00005803,-0.00024133,-0.01028344,0.00136416,0.0003473
 0,0.00142748,-0.00123962,-0.00318529,-0.10344537,0.03234974,-0.0851848
 0,0.00005892,0.00089310,0.00385482,0.00125320,-0.00134263,-0.00340781,
 -0.00144263,0.00177602,0.00677047,0.11355486,-0.03739703,0.07739802,0.
 00130081,0.00404288,-0.00094243,0.00017362,0.00014262,-0.00004790,-0.0
 0126000,-0.00894401,0.00185257,-0.00603406,0.00043626,0.00007969,0.001
 56248,-0.00055624,0.00047687,-0.00012934,0.00011374,-0.00048826,0.0009
 7470,-0.00038508,-0.00116757,-0.00040800,-0.00025041,-0.00004974,-0.00
 005148,-0.00272183,0.00117275,0.00001069,-0.00005568,0.00030948,-0.000
 75558,0.00646722,-0.00422217,-0.03331851,-0.03430883,-0.00276621,0.000
 05319,-0.00041253,0.00109346,-0.10214373,-0.06224998,-0.00810738,-0.00
 111494,-0.00117764,0.00011191,0.14114015,0.00496835,-0.00315762,0.0006
 1329,0.00000148,-0.00075645,-0.00021811,-0.02917200,-0.02835102,0.0007
 8475,-0.00501221,-0.00138780,-0.00095128,0.00123124,-0.00020226,0.0005
 9591,-0.00025194,0.00006336,-0.00057007,0.00511642,-0.00222228,0.00377
 731,-0.00147748,-0.00100296,0.00000718,-0.00183281,-0.00093865,-0.0006
 0688,-0.00003875,0.00005206,-0.00028586,0.00015894,0.00247087,0.000800
 93,-0.00930620,-0.00533065,-0.00035188,0.00105051,0.00087589,-0.000820
 99,-0.06498287,-0.09834027,0.00073329,-0.00031220,-0.00037358,0.000048
 86,0.09985951,0.13860136,-0.00019886,0.00117958,0.00059069,0.00013190,
 0.00002908,0.00009165,0.00760046,0.00726457,0.00350030,0.00040114,-0.0
 0051331,-0.00225153,-0.00011437,0.00030084,0.00011794,-0.00006254,-0.0
 0007152,0.00001256,-0.00349179,0.00217851,0.00366545,0.00031366,0.0002
 1539,0.00002014,0.00101633,-0.00125382,-0.00006906,0.00034934,-0.00036
 240,-0.00072215,-0.00180880,0.00344394,0.00346556,-0.01097747,-0.00866
 300,0.00427942,0.00066898,-0.00136877,-0.00199414,-0.00626596,0.001508
 36,-0.02671596,-0.00025696,-0.00033101,-0.00010202,0.01269494,-0.00355
 646,0.01611114\\-0.00000060,-0.00000255,-0.00000399,0.00000054,-0.0000
 0221,-0.00000605,-0.00000089,0.00000072,-0.00000117,0.00000157,0.00000
 115,-0.00000391,0.00000291,0.00000400,0.,0.00000294,0.00000539,0.00000
 171,-0.00000104,0.00000049,0.00000409,-0.00000057,0.00000176,0.0000070
 0,-0.00000121,0.00000061,0.00000572,-0.00000229,0.00000118,0.00000938,
 -0.00000212,-0.00000034,0.00000217,-0.00000038,-0.00000160,-0.00000219
 ,-0.00000033,-0.00000254,-0.00000471,0.00000079,-0.00000217,-0.0000030
 5,-0.00000068,-0.00000155,0.00000433,0.00000137,-0.00000235,-0.0000093
 2\\\@
 The archive entry for this job was punched.


 A true friend is someone who is there for
 you when he'd rather be anywhere else.
                               -- Len Wein
 Job cpu time:       0 days  0 hours 41 minutes 41.0 seconds.
 Elapsed time:       0 days  0 hours  1 minutes 20.0 seconds.
 File lengths (MBytes):  RWF=    119 Int=      0 D2E=      0 Chk=      7 Scr=      1
 Normal termination of Gaussian 16 at Tue Apr 22 20:52:36 2025.
