/home/tahminaafroz
cn008.cluster.local
tahminaafroz
Fri May  9 07:50:15 CDT 2025
 Entering Gaussian System, Link 0=g16
 Initial command:
 /home/apps/g16/l1.exe "/tmp/2-cl-ph-opt-freq-thf/Gau-322069.inp" -scrdir="/tmp/2-cl-ph-opt-freq-thf/"
 Entering Link 1 = /home/apps/g16/l1.exe PID=    322070.
  
 Copyright (c) 1988-2019, Gaussian, Inc.  All Rights Reserved.
  
 This is part of the Gaussian(R) 16 program.  It is based on
 the Gaussian(R) 09 system (copyright 2009, Gaussian, Inc.),
 the Gaussian(R) 03 system (copyright 2003, Gaussian, Inc.),
 the Gaussian(R) 98 system (copyright 1998, Gaussian, Inc.),
 the Gaussian(R) 94 system (copyright 1995, Gaussian, Inc.),
 the Gaussian 92(TM) system (copyright 1992, Gaussian, Inc.),
 the Gaussian 90(TM) system (copyright 1990, Gaussian, Inc.),
 the Gaussian 88(TM) system (copyright 1988, Gaussian, Inc.),
 the Gaussian 86(TM) system (copyright 1986, Carnegie Mellon
 University), and the Gaussian 82(TM) system (copyright 1983,
 Carnegie Mellon University). Gaussian is a federally registered
 trademark of Gaussian, Inc.
  
 This software contains proprietary and confidential information,
 including trade secrets, belonging to Gaussian, Inc.
  
 This software is provided under written license and may be
 used, copied, transmitted, or stored only in accord with that
 written license.
  
 The following legend is applicable only to US Government
 contracts under FAR:
  
                    RESTRICTED RIGHTS LEGEND
  
 Use, reproduction and disclosure by the US Government is
 subject to restrictions as set forth in subparagraphs (a)
 and (c) of the Commercial Computer Software - Restricted
 Rights clause in FAR 52.227-19.
  
 Gaussian, Inc.
 340 Quinnipiac St., Bldg. 40, Wallingford CT 06492
  
  
 ---------------------------------------------------------------
 Warning -- This program may not be used in any manner that
 competes with the business of Gaussian, Inc. or will provide
 assistance to any competitor of Gaussian, Inc.  The licensee
 of this program is prohibited from giving any competitor of
 Gaussian, Inc. access to this program.  By using this program,
 the user acknowledges that Gaussian, Inc. is engaged in the
 business of creating and licensing software in the field of
 computational chemistry and represents and warrants to the
 licensee that it is not a competitor of Gaussian, Inc. and that
 it will not use this program in any manner prohibited above.
 ---------------------------------------------------------------
  

 Cite this work as:
 Gaussian 16, Revision C.01,
 M. J. Frisch, G. W. Trucks, H. B. Schlegel, G. E. Scuseria, 
 M. A. Robb, J. R. Cheeseman, G. Scalmani, V. Barone, 
 G. A. Petersson, H. Nakatsuji, X. Li, M. Caricato, A. V. Marenich, 
 J. Bloino, B. G. Janesko, R. Gomperts, B. Mennucci, H. P. Hratchian, 
 J. V. Ortiz, A. F. Izmaylov, J. L. Sonnenberg, D. Williams-Young, 
 F. Ding, F. Lipparini, F. Egidi, J. Goings, B. Peng, A. Petrone, 
 T. Henderson, D. Ranasinghe, V. G. Zakrzewski, J. Gao, N. Rega, 
 G. Zheng, W. Liang, M. Hada, M. Ehara, K. Toyota, R. Fukuda, 
 J. Hasegawa, M. Ishida, T. Nakajima, Y. Honda, O. Kitao, H. Nakai, 
 T. Vreven, K. Throssell, J. A. Montgomery, Jr., J. E. Peralta, 
 F. Ogliaro, M. J. Bearpark, J. J. Heyd, E. N. Brothers, K. N. Kudin, 
 V. N. Staroverov, T. A. Keith, R. Kobayashi, J. Normand, 
 K. Raghavachari, A. P. Rendell, J. C. Burant, S. S. Iyengar, 
 J. Tomasi, M. Cossi, J. M. Millam, M. Klene, C. Adamo, R. Cammi, 
 J. W. Ochterski, R. L. Martin, K. Morokuma, O. Farkas, 
 J. B. Foresman, and D. J. Fox, Gaussian, Inc., Wallingford CT, 2019.
 
 ******************************************
 Gaussian 16:  AS64L-G16RevC.01  3-Jul-2019
                 9-May-2025 
 ******************************************
 %mem=20GB
 %nprocshared=32
 Will use up to   32 processors via shared memory.
 %chk=2-cl-ph-opt-freq-thf.chk
 ----------------------------------------------------------------------
 # opt=(calcfc,tight) freq 6-311+g(d,p) scrf=(smd,solvent=thf) nosymm s
 cf=(qc,fermi,xqc) geom=connectivity int=ultrafine m062x
 ----------------------------------------------------------------------
 1/7=10,10=4,18=20,19=15,26=6,38=1,57=2/1,3;
 2/9=110,12=2,15=1,17=6,18=5,40=1/2;
 3/5=4,6=6,7=111,11=2,25=1,30=1,70=32201,71=2,72=20,74=-55,75=-5,140=1/1,2,3;
 4//1;
 5/5=2,22=13,38=5,53=20/2;
 8/6=4,10=90,11=11/1;
 11/6=1,8=1,9=11,15=111,16=1,31=1/1,2,10;
 10/6=1,13=1,31=1/2;
 6/7=2,8=2,9=2,10=2,28=1/1;
 7/10=1,25=1,30=1/1,2,3,16;
 1/7=10,10=4,18=20,19=15,26=6/3(2);
 2/9=110,15=1/2;
 99//99;
 2/9=110,15=1/2;
 3/5=4,6=6,7=111,11=2,25=1,30=1,70=32205,71=1,72=20,74=-55,75=-5/1,2,3;
 4/5=5,16=3,69=1/1;
 5/5=2,22=13,38=5,53=20/2;
 7/30=1/1,2,3,16;
 1/7=10,18=20,19=15,26=6/3(-5);
 2/9=110,15=1/2;
 6/7=2,8=2,9=2,10=2,19=2,28=1/1;
 99/9=1/99;
 --------------------
 2-cl-ph-opt-freq-thf
 --------------------
 Symbolic Z-matrix:
 Charge =  0 Multiplicity = 2
 C                     6.28759   7.04286   5.14213 
 C                     5.23721   6.11441   5.09236 
 H                     5.40182   5.10961   5.47023 
 C                     3.99641   6.43658   4.55435 
 H                     3.209     5.69304   4.52077 
 C                     3.77274   7.71749   4.06098 
 C                     4.78533   8.6694    4.10853 
 H                     4.62031   9.67425   3.73963 
 C                     6.01896   8.31755   4.64109 
 H                     2.80959   7.98435   3.64187 
 Cl                    7.25198   9.56583   4.71126 
 

 GradGradGradGradGradGradGradGradGradGradGradGradGradGradGradGradGradGrad
 Berny optimization.
 Initialization pass.
                           ----------------------------
                           !    Initial Parameters    !
                           ! (Angstroms and Degrees)  !
 --------------------------                            --------------------------
 ! Name  Definition              Value          Derivative Info.                !
 --------------------------------------------------------------------------------
 ! R1    R(1,2)                  1.4028         calculate D2E/DX2 analytically  !
 ! R2    R(1,9)                  1.3957         calculate D2E/DX2 analytically  !
 ! R3    R(2,3)                  1.0861         calculate D2E/DX2 analytically  !
 ! R4    R(2,4)                  1.3903         calculate D2E/DX2 analytically  !
 ! R5    R(4,5)                  1.0835         calculate D2E/DX2 analytically  !
 ! R6    R(4,6)                  1.3907         calculate D2E/DX2 analytically  !
 ! R7    R(6,7)                  1.3906         calculate D2E/DX2 analytically  !
 ! R8    R(6,10)                 1.0838         calculate D2E/DX2 analytically  !
 ! R9    R(7,8)                  1.0831         calculate D2E/DX2 analytically  !
 ! R10   R(7,9)                  1.389          calculate D2E/DX2 analytically  !
 ! R11   R(9,11)                 1.756          calculate D2E/DX2 analytically  !
 ! A1    A(2,1,9)              116.5913         calculate D2E/DX2 analytically  !
 ! A2    A(1,2,3)              119.1117         calculate D2E/DX2 analytically  !
 ! A3    A(1,2,4)              121.9136         calculate D2E/DX2 analytically  !
 ! A4    A(3,2,4)              118.9673         calculate D2E/DX2 analytically  !
 ! A5    A(2,4,5)              120.1035         calculate D2E/DX2 analytically  !
 ! A6    A(2,4,6)              119.6201         calculate D2E/DX2 analytically  !
 ! A7    A(5,4,6)              120.2765         calculate D2E/DX2 analytically  !
 ! A8    A(4,6,7)              120.0824         calculate D2E/DX2 analytically  !
 ! A9    A(4,6,10)             120.4581         calculate D2E/DX2 analytically  !
 ! A10   A(7,6,10)             119.4588         calculate D2E/DX2 analytically  !
 ! A11   A(6,7,8)              120.8315         calculate D2E/DX2 analytically  !
 ! A12   A(6,7,9)              119.1064         calculate D2E/DX2 analytically  !
 ! A13   A(8,7,9)              120.0619         calculate D2E/DX2 analytically  !
 ! A14   A(1,9,7)              122.6786         calculate D2E/DX2 analytically  !
 ! A15   A(1,9,11)             119.9831         calculate D2E/DX2 analytically  !
 ! A16   A(7,9,11)             117.3156         calculate D2E/DX2 analytically  !
 ! D1    D(9,1,2,3)            179.924          calculate D2E/DX2 analytically  !
 ! D2    D(9,1,2,4)              0.9251         calculate D2E/DX2 analytically  !
 ! D3    D(2,1,9,7)             -0.3717         calculate D2E/DX2 analytically  !
 ! D4    D(2,1,9,11)           177.8502         calculate D2E/DX2 analytically  !
 ! D5    D(1,2,4,5)            179.3223         calculate D2E/DX2 analytically  !
 ! D6    D(1,2,4,6)             -0.7081         calculate D2E/DX2 analytically  !
 ! D7    D(3,2,4,5)              0.322          calculate D2E/DX2 analytically  !
 ! D8    D(3,2,4,6)           -179.7084         calculate D2E/DX2 analytically  !
 ! D9    D(2,4,6,7)             -0.0984         calculate D2E/DX2 analytically  !
 ! D10   D(2,4,6,10)          -179.7814         calculate D2E/DX2 analytically  !
 ! D11   D(5,4,6,7)            179.8712         calculate D2E/DX2 analytically  !
 ! D12   D(5,4,6,10)             0.1882         calculate D2E/DX2 analytically  !
 ! D13   D(4,6,7,8)           -179.1956         calculate D2E/DX2 analytically  !
 ! D14   D(4,6,7,9)              0.6321         calculate D2E/DX2 analytically  !
 ! D15   D(10,6,7,8)             0.4905         calculate D2E/DX2 analytically  !
 ! D16   D(10,6,7,9)          -179.6818         calculate D2E/DX2 analytically  !
 ! D17   D(6,7,9,1)             -0.3924         calculate D2E/DX2 analytically  !
 ! D18   D(6,7,9,11)          -178.659          calculate D2E/DX2 analytically  !
 ! D19   D(8,7,9,1)            179.4366         calculate D2E/DX2 analytically  !
 ! D20   D(8,7,9,11)             1.17           calculate D2E/DX2 analytically  !
 --------------------------------------------------------------------------------
 Trust Radius=3.00D-01 FncErr=5.00D-06 GrdErr=5.00D-06 EigMax=2.50D+02 EigMin=1.00D-04
 Number of steps in this run=     57 maximum allowed number of steps=    100.
 GradGradGradGradGradGradGradGradGradGradGradGradGradGradGradGradGradGrad

                          Input orientation:                          
 ---------------------------------------------------------------------
 Center     Atomic      Atomic             Coordinates (Angstroms)
 Number     Number       Type             X           Y           Z
 ---------------------------------------------------------------------
      1          6           0        6.287587    7.042856    5.142127
      2          6           0        5.237213    6.114411    5.092356
      3          1           0        5.401821    5.109608    5.470231
      4          6           0        3.996405    6.436581    4.554345
      5          1           0        3.208995    5.693041    4.520773
      6          6           0        3.772743    7.717488    4.060976
      7          6           0        4.785327    8.669403    4.108525
      8          1           0        4.620313    9.674247    3.739628
      9          6           0        6.018965    8.317549    4.641092
     10          1           0        2.809594    7.984351    3.641865
     11         17           0        7.251980    9.565827    4.711260
 ---------------------------------------------------------------------
                    Distance matrix (angstroms):
                    1          2          3          4          5
     1  C    0.000000
     2  C    1.402773   0.000000
     3  H    2.151669   1.086055   0.000000
     4  C    2.441838   1.390271   2.138901   0.000000
     5  H    3.418451   2.148936   2.459746   1.083510   0.000000
     6  C    2.819301   2.403804   3.382445   1.390741   2.151188
     7  C    2.443517   2.774907   3.860887   2.409699   3.393155
     8  H    3.416288   3.857832   4.943852   3.396396   4.295580
     9  C    1.395721   2.380881   3.370345   2.763388   3.846875
    10  H    3.903029   3.390270   4.280971   2.153307   2.486383
    11  Cl   2.735157   4.014573   4.884364   4.518359   5.601829
                    6          7          8          9         10
     6  C    0.000000
     7  C    1.390586   0.000000
     8  H    2.156512   1.083063   0.000000
     9  C    2.396272   1.388989   2.146973   0.000000
    10  H    1.083755   2.142566   2.478711   3.377801   0.000000
    11  Cl   3.993033   2.692813   2.807400   1.755975   4.835232
                   11
    11  Cl   0.000000
 Symmetry turned off by external request.
 Stoichiometry    C6H4Cl(2)
 Framework group  C1[X(C6H4Cl)]
 Deg. of freedom    27
 Full point group                 C1      NOp   1
 Rotational constants (GHZ):           5.9982733           1.5724135           1.2459049
 Standard basis: 6-311+G(d,p) (5D, 7F)
   186 basis functions,   301 primitive gaussians,   193 cartesian basis functions
    29 alpha electrons       28 beta electrons
       nuclear repulsion energy       303.1815393828 Hartrees.
 NAtoms=   11 NActive=   11 NUniq=   11 SFac= 1.00D+00 NAtFMM=   60 NAOKFM=F Big=F
 Integral buffers will be    131072 words long.
 Raffenetti 2 integral format.
 Two-electron integral symmetry is turned off.
 Force inversion solution in PCM.
 ------------------------------------------------------------------------------
 Polarizable Continuum Model (PCM)
 =================================
 Model                : PCM.
 Atomic radii         : SMD-Coulomb.
 Polarization charges : Total charges.
 Charge compensation  : None.
 Solution method      : Matrix inversion.
 Cavity type          : VdW (van der Waals Surface) (Alpha=1.000).
 Cavity algorithm     : GePol (No added spheres)
                        Default sphere list used, NSphG=   11.
                        Lebedev-Laikov grids with approx.  5.0 points / Ang**2.
                        Smoothing algorithm: York/Karplus (Gamma=1.0000).
                        Polarization charges: spherical gaussians, with
                                              point-specific exponents (IZeta= 3).
                        Self-potential: point-specific (ISelfS= 7).
                        Self-field    : sphere-specific E.n sum rule (ISelfD= 2).
 1st derivatives      : Analytical E(r).r(x)/FMM algorithm (CHGder, D1EAlg=3).
                        Cavity 1st derivative terms included.
 2nd derivatives      : Analytical E(r).r(xy)/FMM algorithm (CHGder, D2EAlg=3).
                        Cavity 2nd derivative terms included.
 Solvent              : TetraHydroFuran, Eps=   7.425700 Eps(inf)=   1.974025
 ------------------------------------------------------------------------------
 Spheres list:
 ISph  on   Nord     Re0    Alpha      Xe            Ye            Ze
    1   C      1    1.8500  1.000      6.287587      7.042856      5.142127
    2   C      2    1.8500  1.000      5.237213      6.114411      5.092356
    3   H      3    1.2000  1.000      5.401821      5.109608      5.470231
    4   C      4    1.8500  1.000      3.996405      6.436581      4.554345
    5   H      5    1.2000  1.000      3.208995      5.693041      4.520773
    6   C      6    1.8500  1.000      3.772743      7.717488      4.060976
    7   C      7    1.8500  1.000      4.785327      8.669403      4.108525
    8   H      8    1.2000  1.000      4.620313      9.674247      3.739628
    9   C      9    1.8500  1.000      6.018965      8.317549      4.641092
   10   H     10    1.2000  1.000      2.809594      7.984351      3.641865
   11  Cl     11    2.3800  1.000      7.251980      9.565827      4.711260
 ------------------------------------------------------------------------------
 ------------------------------------------------------------------------------
 Atomic radii for non-electrostatic terms: SMD-CDS.
 ------------------------------------------------------------------------------
 Nuclear repulsion after PCM non-electrostatic terms =      303.1780441042 Hartrees.
 One-electron integrals computed using PRISM.
 NBasis=   186 RedAO= T EigKep=  4.06D-06  NBF=   186
 NBsUse=   186 1.00D-06 EigRej= -1.00D+00 NBFU=   186
 ExpMin= 4.38D-02 ExpMax= 1.06D+05 ExpMxC= 3.62D+03 IAcc=3 IRadAn=         5 AccDes= 0.00D+00
 Harris functional with IExCor= 1009 and IRadAn=       5 diagonalized for initial guess.
 HarFok:  IExCor= 1009 AccDes= 0.00D+00 IRadAn=         5 IDoV= 1 UseB2=F ITyADJ=14
 ICtDFT=  3500011 ScaDFX=  1.000000  1.000000  1.000000  1.000000
 FoFCou: FMM=F IPFlag=           0 FMFlag=      100000 FMFlg1=           0
         NFxFlg=           0 DoJE=T BraDBF=F KetDBF=T FulRan=T
         wScrn=  0.000000 ICntrl=       500 IOpCl=  0 I1Cent=   200000004 NGrid=           0
         NMat0=    1 NMatS0=      1 NMatT0=    0 NMatD0=    1 NMtDS0=    0 NMtDT0=    0
 Symmetry not used in FoFCou.
 Initial guess <Sx>= 0.0000 <Sy>= 0.0000 <Sz>= 0.5000 <S**2>= 0.7500 S= 0.5000
 Keep R1 and R2 ints in memory in canonical form, NReq=335193157.
 Requested convergence on RMS density matrix=1.00D-08 within 128 cycles.
 Requested convergence on MAX density matrix=1.00D-06.
 Requested convergence on             energy=1.00D-06.
 Level shift goal  0.100 maximum shift  0.100.
 No special actions if energy rises.
 Dynamic level shift is on during FON iterations.
 Inv3:  Mode=1 IEnd=     4120752.
 Iteration    1 A*A^-1 deviation from unit magnitude is 3.77D-15 for   1148.
 Iteration    1 A*A^-1 deviation from orthogonality  is 1.38D-15 for    631    167.
 Iteration    1 A^-1*A deviation from unit magnitude is 4.22D-15 for   1148.
 Iteration    1 A^-1*A deviation from orthogonality  is 6.38D-14 for   1167    395.
 Error on total polarization charges =  0.02714
 SCF Done:  E(UM062X) =  -691.115132024     A.U. after   21 cycles
            NFock= 21  Conv=0.81D-08     -V/T= 2.0029
 <Sx>= 0.0000 <Sy>= 0.0000 <Sz>= 0.5000 <S**2>= 0.7640 S= 0.5070
 <L.S>=  0.00000000000    
 SMD-CDS (non-electrostatic) energy       (kcal/mol) =      -2.19
 (included in total energy above)
 Annihilation of the first spin contaminant:
 S**2 before annihilation     0.7640,   after     0.7501
 DoSCS=F DFT=T ScalE2(SS,OS)=  1.000000  1.000000
 Range of M.O.s used for correlation:     1   186
 NBasis=   186 NAE=    29 NBE=    28 NFC=     0 NFV=     0
 NROrb=    186 NOA=    29 NOB=    28 NVA=   157 NVB=   158

 **** Warning!!: The largest alpha MO coefficient is  0.18473244D+03


 **** Warning!!: The largest beta MO coefficient is  0.14841029D+03

 Symmetrizing basis deriv contribution to polar:
 IMax=3 JMax=2 DiffMx= 0.00D+00
 G2DrvN: will do    12 centers at a time, making    1 passes.
 Calling FoFCou, ICntrl=  3107 FMM=F I1Cent=   0 AccDes= 0.00D+00.
 NEqPCM:  Using equilibrium solvation (IEInf=0, Eps=   7.4257, EpsInf=   1.9740)
 G2PCM: DoFxE=T DoFxN=T DoGrad=T DoDP/DQ/DG/TGxP=FFFF NFrqRd=   0 IEInf=0 SqF1=F DoCFld=F IF1Alg=4.
 End of G2Drv F.D. properties file   721 does not exist.
 End of G2Drv F.D. properties file   722 does not exist.
 End of G2Drv F.D. properties file   788 does not exist.
          IDoAtm=11111111111
 NEqPCM:  Using equilibrium solvation (IEInf=0, Eps=   7.4257, EpsInf=   1.9740)
          Differentiating once with respect to nuclear coordinates.
 Keep R1 and R2 ints in memory in canonical form, NReq=335092193.
          There are    36 degrees of freedom in the 1st order CPHF.  IDoFFX=6 NUNeed=     0.
     30 vectors produced by pass  0 Test12= 2.49D-14 2.78D-09 XBig12= 3.43D-01 1.49D-01.
 AX will form    30 AO Fock derivatives at one time.
     30 vectors produced by pass  1 Test12= 2.49D-14 2.78D-09 XBig12= 4.51D-02 5.86D-02.
     30 vectors produced by pass  2 Test12= 2.49D-14 2.78D-09 XBig12= 1.43D-03 1.34D-02.
     30 vectors produced by pass  3 Test12= 2.49D-14 2.78D-09 XBig12= 3.48D-05 1.47D-03.
     30 vectors produced by pass  4 Test12= 2.49D-14 2.78D-09 XBig12= 7.24D-07 1.58D-04.
     30 vectors produced by pass  5 Test12= 2.49D-14 2.78D-09 XBig12= 1.12D-08 1.36D-05.
     30 vectors produced by pass  6 Test12= 2.49D-14 2.78D-09 XBig12= 1.09D-10 1.77D-06.
     24 vectors produced by pass  7 Test12= 2.49D-14 2.78D-09 XBig12= 7.40D-13 1.19D-07.
      3 vectors produced by pass  8 Test12= 2.49D-14 2.78D-09 XBig12= 4.19D-15 7.40D-09.
 InvSVY:  IOpt=1 It=  1 EMax= 2.00D-15
 Solved reduced A of dimension   237 with    30 vectors.
 End of Minotr F.D. properties file   721 does not exist.
 End of Minotr F.D. properties file   722 does not exist.
 End of Minotr F.D. properties file   788 does not exist.

 **********************************************************************

            Population analysis using the SCF Density.

 **********************************************************************

 Alpha  occ. eigenvalues -- -102.68108 -10.62110 -10.59810 -10.56450 -10.56277
 Alpha  occ. eigenvalues --  -10.55743 -10.55613  -9.82359  -7.54890  -7.54196
 Alpha  occ. eigenvalues --   -7.54193  -1.00670  -0.94555  -0.86139  -0.83740
 Alpha  occ. eigenvalues --   -0.70642  -0.68535  -0.59650  -0.54797  -0.53128
 Alpha  occ. eigenvalues --   -0.50215  -0.48053  -0.46962  -0.42572  -0.40768
 Alpha  occ. eigenvalues --   -0.38591  -0.34727  -0.33107  -0.31110
 Alpha virt. eigenvalues --   -0.00028   0.00467   0.01896   0.02841   0.03702
 Alpha virt. eigenvalues --    0.04846   0.06093   0.06325   0.06716   0.07425
 Alpha virt. eigenvalues --    0.08796   0.09497   0.09604   0.10167   0.12590
 Alpha virt. eigenvalues --    0.13961   0.14003   0.14459   0.14996   0.15068
 Alpha virt. eigenvalues --    0.15865   0.15967   0.18962   0.19060   0.20176
 Alpha virt. eigenvalues --    0.21070   0.21206   0.21670   0.21821   0.23209
 Alpha virt. eigenvalues --    0.24402   0.25031   0.25810   0.26141   0.27009
 Alpha virt. eigenvalues --    0.28476   0.33373   0.34019   0.35243   0.35996
 Alpha virt. eigenvalues --    0.44996   0.46090   0.48269   0.50299   0.51499
 Alpha virt. eigenvalues --    0.54230   0.55301   0.57223   0.57919   0.59333
 Alpha virt. eigenvalues --    0.60297   0.60644   0.62862   0.64040   0.64189
 Alpha virt. eigenvalues --    0.64298   0.66811   0.70683   0.71303   0.74107
 Alpha virt. eigenvalues --    0.75970   0.77947   0.81124   0.84897   0.86001
 Alpha virt. eigenvalues --    0.86347   0.87263   0.87801   0.89883   0.90314
 Alpha virt. eigenvalues --    0.92942   0.93485   0.96674   0.99080   1.00001
 Alpha virt. eigenvalues --    1.04093   1.04526   1.06643   1.13743   1.16724
 Alpha virt. eigenvalues --    1.17474   1.21579   1.23265   1.24940   1.34720
 Alpha virt. eigenvalues --    1.41157   1.51172   1.51906   1.53602   1.58525
 Alpha virt. eigenvalues --    1.60777   1.61345   1.68787   1.68997   1.73660
 Alpha virt. eigenvalues --    1.74223   1.77396   1.79631   1.85193   1.91163
 Alpha virt. eigenvalues --    1.92983   1.93534   1.96052   1.96449   1.97480
 Alpha virt. eigenvalues --    2.01404   2.03279   2.06629   2.07287   2.26273
 Alpha virt. eigenvalues --    2.28973   2.31535   2.31939   2.34756   2.42239
 Alpha virt. eigenvalues --    2.43385   2.47543   2.50604   2.56648   2.59641
 Alpha virt. eigenvalues --    2.67075   2.69359   2.71624   2.73518   2.76499
 Alpha virt. eigenvalues --    2.77787   2.82417   2.83231   2.83588   2.86670
 Alpha virt. eigenvalues --    2.92889   2.93511   3.05620   3.11468   3.18087
 Alpha virt. eigenvalues --    3.24322   3.38501   3.41181   3.54189   3.55893
 Alpha virt. eigenvalues --    3.72335   3.88373   4.06721   4.10477   4.15053
 Alpha virt. eigenvalues --    4.80953   9.95713  23.54033  23.95832  23.98295
 Alpha virt. eigenvalues --   24.09778  24.14840  24.23589  25.92929  26.19162
 Alpha virt. eigenvalues --   26.61913 216.05544
  Beta  occ. eigenvalues -- -102.68084 -10.62123 -10.58721 -10.56455 -10.56224
  Beta  occ. eigenvalues --  -10.55696 -10.55617  -9.82349  -7.54827  -7.54199
  Beta  occ. eigenvalues --   -7.54176  -1.00075  -0.94292  -0.85114  -0.82886
  Beta  occ. eigenvalues --   -0.69717  -0.67574  -0.58813  -0.53963  -0.52473
  Beta  occ. eigenvalues --   -0.49906  -0.47509  -0.45383  -0.42123  -0.40766
  Beta  occ. eigenvalues --   -0.38316  -0.32068  -0.30644
  Beta virt. eigenvalues --   -0.08517   0.00389   0.01194   0.01859   0.02947
  Beta virt. eigenvalues --    0.03965   0.04630   0.06016   0.06320   0.06768
  Beta virt. eigenvalues --    0.07162   0.08791   0.09276   0.09570   0.10709
  Beta virt. eigenvalues --    0.12656   0.13963   0.13977   0.14413   0.14887
  Beta virt. eigenvalues --    0.15150   0.15788   0.15960   0.18521   0.19016
  Beta virt. eigenvalues --    0.20178   0.21067   0.21758   0.21783   0.22032
  Beta virt. eigenvalues --    0.23313   0.23999   0.25022   0.25317   0.25877
  Beta virt. eigenvalues --    0.27198   0.28340   0.33600   0.34664   0.36101
  Beta virt. eigenvalues --    0.36353   0.44083   0.45468   0.48329   0.49804
  Beta virt. eigenvalues --    0.51524   0.52823   0.55394   0.57145   0.57957
  Beta virt. eigenvalues --    0.58197   0.59533   0.60700   0.63314   0.64083
  Beta virt. eigenvalues --    0.64162   0.64285   0.68513   0.70451   0.71264
  Beta virt. eigenvalues --    0.73880   0.75440   0.78046   0.81339   0.84760
  Beta virt. eigenvalues --    0.85654   0.86046   0.87785   0.88080   0.90198
  Beta virt. eigenvalues --    0.90290   0.91838   0.93110   0.97460   0.99017
  Beta virt. eigenvalues --    0.99924   1.04376   1.04864   1.06553   1.13951
  Beta virt. eigenvalues --    1.17169   1.18158   1.22252   1.23729   1.24322
  Beta virt. eigenvalues --    1.35180   1.41173   1.51889   1.53404   1.54468
  Beta virt. eigenvalues --    1.59070   1.60860   1.61681   1.69028   1.69052
  Beta virt. eigenvalues --    1.74317   1.74973   1.77388   1.79952   1.85545
  Beta virt. eigenvalues --    1.91416   1.93297   1.94174   1.96536   1.96867
  Beta virt. eigenvalues --    1.97717   2.02009   2.03514   2.06709   2.07683
  Beta virt. eigenvalues --    2.26284   2.29189   2.32029   2.32342   2.35020
  Beta virt. eigenvalues --    2.42396   2.43603   2.48063   2.50440   2.56822
  Beta virt. eigenvalues --    2.59910   2.67526   2.69626   2.71772   2.73697
  Beta virt. eigenvalues --    2.76626   2.77847   2.82788   2.83382   2.83419
  Beta virt. eigenvalues --    2.86868   2.93037   2.93448   3.07866   3.11507
  Beta virt. eigenvalues --    3.18573   3.24317   3.38865   3.41428   3.54280
  Beta virt. eigenvalues --    3.56140   3.73303   3.88720   4.06711   4.10447
  Beta virt. eigenvalues --    4.15378   4.81263   9.95723  23.54262  23.95883
  Beta virt. eigenvalues --   23.98860  24.10055  24.14840  24.23599  25.92937
  Beta virt. eigenvalues --   26.19196  26.62084 216.05583
          Condensed to atoms (all electrons):
               1          2          3          4          5          6
     1  C    9.687403   0.627212  -0.021074   0.196267  -0.022581  -0.963209
     2  C    0.627212   6.853103   0.378334   0.391928   0.003807   0.221309
     3  H   -0.021074   0.378334   0.448893  -0.015572  -0.005376  -0.008821
     4  C    0.196267   0.391928  -0.015572   5.485616   0.373165   0.486041
     5  H   -0.022581   0.003807  -0.005376   0.373165   0.446288   0.006194
     6  C   -0.963209   0.221309  -0.008821   0.486041   0.006194   5.807032
     7  C   -3.440572  -1.608694  -0.003784   0.258207  -0.023493   0.873787
     8  H    0.024150   0.013344   0.000028  -0.025702  -0.000115  -0.000952
     9  C   -0.219862  -0.270482   0.014073  -1.119552   0.022482  -0.439234
    10  H   -0.003568  -0.014900  -0.000140   0.016370  -0.004609   0.374783
    11  Cl  -0.109223   0.027385   0.001050   0.021893   0.000682   0.105510
               7          8          9         10         11
     1  C   -3.440572   0.024150  -0.219862  -0.003568  -0.109223
     2  C   -1.608694   0.013344  -0.270482  -0.014900   0.027385
     3  H   -0.003784   0.000028   0.014073  -0.000140   0.001050
     4  C    0.258207  -0.025702  -1.119552   0.016370   0.021893
     5  H   -0.023493  -0.000115   0.022482  -0.004609   0.000682
     6  C    0.873787  -0.000952  -0.439234   0.374783   0.105510
     7  C   11.718885   0.240088  -1.937430  -0.000595   0.373240
     8  H    0.240088   0.434445   0.101791  -0.005203  -0.005766
     9  C   -1.937430   0.101791  10.486496  -0.014455  -0.880355
    10  H   -0.000595  -0.005203  -0.014455   0.446170   0.001257
    11  Cl   0.373240  -0.005766  -0.880355   0.001257  17.207540
          Atomic-Atomic Spin Densities.
               1          2          3          4          5          6
     1  C    1.568373  -0.627938   0.033726   0.229851   0.006871  -0.301788
     2  C   -0.627938   0.476119  -0.026547  -0.277995  -0.009020   0.298666
     3  H    0.033726  -0.026547   0.024914   0.008465   0.000977  -0.010716
     4  C    0.229851  -0.277995   0.008465   0.196291   0.005411  -0.168954
     5  H    0.006871  -0.009020   0.000977   0.005411   0.002975  -0.003999
     6  C   -0.301788   0.298666  -0.010716  -0.168954  -0.003999   0.154576
     7  C    0.227735  -0.268817   0.009865   0.210596   0.003614  -0.278003
     8  H    0.011268  -0.002912   0.000012   0.000714   0.000035  -0.010749
     9  C   -0.360212   0.530621  -0.024170  -0.191127  -0.003605   0.271495
    10  H   -0.001324  -0.000311  -0.000011  -0.001080  -0.000396   0.007523
    11  Cl  -0.036545  -0.017832  -0.000270   0.002936  -0.000069   0.000766
               7          8          9         10         11
     1  C    0.227735   0.011268  -0.360212  -0.001324  -0.036545
     2  C   -0.268817  -0.002912   0.530621  -0.000311  -0.017832
     3  H    0.009865   0.000012  -0.024170  -0.000011  -0.000270
     4  C    0.210596   0.000714  -0.191127  -0.001080   0.002936
     5  H    0.003614   0.000035  -0.003605  -0.000396  -0.000069
     6  C   -0.278003  -0.010749   0.271495   0.007523   0.000766
     7  C    0.600950  -0.002912  -0.513930  -0.003116   0.057417
     8  H   -0.002912   0.007923   0.005789  -0.000586  -0.002856
     9  C   -0.513930   0.005789   0.414491  -0.001665  -0.011326
    10  H   -0.003116  -0.000586  -0.001665   0.004221   0.000215
    11  Cl   0.057417  -0.002856  -0.011326   0.000215   0.021593
 Mulliken charges and spin densities:
               1          2
     1  C    0.245055   0.750017
     2  C   -0.622347   0.074033
     3  H    0.212388   0.016245
     4  C   -0.068662   0.015108
     5  H    0.203555   0.002794
     6  C   -0.462441  -0.041182
     7  C   -0.449641   0.043398
     8  H    0.223891   0.005726
     9  C    0.256528   0.116363
    10  H    0.204888   0.003471
    11  Cl   0.256787   0.014027
 Sum of Mulliken charges =   0.00000   1.00000
 Mulliken charges and spin densities with hydrogens summed into heavy atoms:
               1          2
     1  C    0.245055   0.750017
     2  C   -0.409959   0.090278
     4  C    0.134892   0.017903
     6  C   -0.257552  -0.037711
     7  C   -0.225751   0.049124
     9  C    0.256528   0.116363
    11  Cl   0.256787   0.014027
 APT charges:
               1
     1  C    1.633159
     2  C   -2.470664
     3  H   -0.186199
     4  C    0.139374
     5  H   -0.957442
     6  C   -1.731345
     7  C   -1.067196
     8  H    1.435608
     9  C    4.081287
    10  H   -0.182604
    11  Cl  -0.693978
 Sum of APT charges =   0.00000
 APT charges with hydrogens summed into heavy atoms:
               1
     1  C    1.633159
     2  C   -2.656863
     4  C   -0.818068
     6  C   -1.913949
     7  C    0.368412
     9  C    4.081287
    11  Cl  -0.693978
 Electronic spatial extent (au):  <R**2>=          24748.5096
 Charge=              0.0000 electrons
 Dipole moment (field-independent basis, Debye):
    X=             -2.8704    Y=             -1.4540    Z=             -0.5277  Tot=              3.2607
 Quadrupole moment (field-independent basis, Debye-Ang):
   XX=            -77.2168   YY=            -66.3954   ZZ=            -54.7771
   XY=            -30.9274   XZ=            -14.0152   YZ=            -13.5395
 Traceless Quadrupole moment (field-independent basis, Debye-Ang):
   XX=            -11.0870   YY=             -0.2656   ZZ=             11.3527
   XY=            -30.9274   XZ=            -14.0152   YZ=            -13.5395
 Octapole moment (field-independent basis, Debye-Ang**2):
  XXX=          -1040.8353  YYY=          -1321.6821  ZZZ=           -725.5088  XYY=           -559.7299
  XXY=           -663.9464  XXZ=           -354.7518  XZZ=           -346.6282  YZZ=           -489.5544
  YYZ=           -379.1891  XYZ=           -162.3926
 Hexadecapole moment (field-independent basis, Debye-Ang**3):
 XXXX=         -11320.2646 YYYY=         -20274.1027 ZZZZ=          -6709.3658 XXXY=          -8740.3312
 XXXZ=          -4820.8988 YYYX=          -9138.9348 YYYZ=          -6798.4622 ZZZX=          -4232.0304
 ZZZY=          -6037.0604 XXYY=          -7278.1413 XXZZ=          -3294.2532 YYZZ=          -5330.3348
 XXYZ=          -3112.3815 YYXZ=          -2844.5633 ZZXY=          -3101.4044
 N-N= 3.031780441042D+02 E-N=-2.235917766806D+03  KE= 6.891316840537D+02
  Exact polarizability:       0.000       0.000       0.000       0.000       0.000       0.000
 Approx polarizability:     112.022      13.798     113.017      14.403     -12.692      67.053
                          Isotropic Fermi Contact Couplings
        Atom                 a.u.       MegaHertz       Gauss      10(-4) cm-1
     1  C(13)              0.57263     643.74035     229.70257     214.72867
     2  C(13)              0.01524      17.13738       6.11504       5.71642
     3  H(1)               0.01032      46.12798      16.45961      15.38664
     4  C(13)              0.03759      42.25694      15.07833      14.09540
     5  H(1)               0.00163       7.28784       2.60048       2.43096
     6  C(13)             -0.00822      -9.24232      -3.29789      -3.08290
     7  C(13)              0.02493      28.02922      10.00152       9.34954
     8  H(1)               0.00342      15.27293       5.44976       5.09450
     9  C(13)             -0.00125      -1.40321      -0.50070      -0.46806
    10  H(1)               0.00121       5.42823       1.93693       1.81066
    11  Cl(35)             0.01223       5.36056       1.91278       1.78809
 --------------------------------------------------------
       Center         ----  Spin Dipole Couplings  ----
                      3XX-RR        3YY-RR        3ZZ-RR
 --------------------------------------------------------
     1   Atom        0.613940     -0.441259     -0.172681
     2   Atom        0.078853      0.004185     -0.083038
     3   Atom       -0.001228      0.013570     -0.012342
     4   Atom        0.039171     -0.035473     -0.003698
     5   Atom        0.005488     -0.000612     -0.004876
     6   Atom        0.023197      0.016305     -0.039502
     7   Atom        0.017151     -0.020594      0.003443
     8   Atom       -0.002656      0.005261     -0.002605
     9   Atom       -0.028627      0.105553     -0.076926
    10   Atom        0.000597      0.001206     -0.001803
    11   Atom       -0.026501      0.126568     -0.100067
 --------------------------------------------------------
                        XY            XZ            YZ
 --------------------------------------------------------
     1   Atom       -0.320062      0.442277     -0.082294
     2   Atom        0.053904      0.044255     -0.016811
     3   Atom        0.016110     -0.001216     -0.003153
     4   Atom       -0.016795      0.020908      0.002926
     5   Atom        0.006298      0.001623      0.000752
     6   Atom        0.004369      0.025763     -0.021921
     7   Atom       -0.025761      0.016322     -0.004074
     8   Atom       -0.003715      0.001872     -0.004338
     9   Atom       -0.031374      0.039724     -0.077043
    10   Atom        0.000604      0.000795     -0.000938
    11   Atom        0.085742      0.004079     -0.048525
 --------------------------------------------------------


 ---------------------------------------------------------------------------------
              Anisotropic Spin Dipole Couplings in Principal Axis System
 ---------------------------------------------------------------------------------

       Atom             a.u.   MegaHertz   Gauss  10(-4) cm-1        Axes

              Baa    -0.5385   -72.265   -25.786   -24.105  0.3301  0.9244 -0.1911
     1 C(13)  Bbb    -0.3537   -47.459   -16.934   -15.830 -0.3134  0.2983  0.9016
              Bcc     0.8922   119.723    42.720    39.935  0.8904 -0.2377  0.3882
 
              Baa    -0.1035   -13.891    -4.957    -4.633 -0.3067  0.2948  0.9050
     2 C(13)  Bbb    -0.0089    -1.190    -0.425    -0.397 -0.3302  0.8588 -0.3917
              Bcc     0.1124    15.081     5.381     5.030  0.8927  0.4189  0.1661
 
              Baa    -0.0130    -6.918    -2.469    -2.308 -0.3203  0.3011  0.8982
     3 H(1)   Bbb    -0.0112    -5.993    -2.139    -1.999  0.7811 -0.4526  0.4303
              Bcc     0.0242    12.911     4.607     4.307  0.5361  0.8393 -0.0903
 
              Baa    -0.0407    -5.462    -1.949    -1.822  0.2553  0.9418 -0.2187
     4 C(13)  Bbb    -0.0095    -1.268    -0.453    -0.423 -0.2915  0.2906  0.9114
              Bcc     0.0502     6.731     2.402     2.245  0.9219 -0.1689  0.3487
 
              Baa    -0.0052    -2.760    -0.985    -0.921 -0.2773  0.2290  0.9331
     5 H(1)   Bbb    -0.0045    -2.389    -0.853    -0.797 -0.4626  0.8193 -0.3386
              Bcc     0.0097     5.150     1.838     1.718  0.8421  0.5256  0.1213
 
              Baa    -0.0555    -7.454    -2.660    -2.486 -0.3119  0.2946  0.9033
     6 C(13)  Bbb     0.0222     2.973     1.061     0.992  0.3705  0.9132 -0.1698
              Bcc     0.0334     4.481     1.599     1.495  0.8749 -0.2817  0.3939
 
              Baa    -0.0341    -4.573    -1.632    -1.525  0.4746  0.8731 -0.1117
     7 C(13)  Bbb    -0.0040    -0.531    -0.189    -0.177 -0.3323  0.2952  0.8958
              Bcc     0.0380     5.104     1.821     1.702  0.8150 -0.3880  0.4303
 
              Baa    -0.0046    -2.462    -0.878    -0.821 -0.3815  0.2477  0.8906
     8 H(1)   Bbb    -0.0041    -2.182    -0.779    -0.728  0.8581  0.4530  0.2416
              Bcc     0.0087     4.644     1.657     1.549 -0.3435  0.8564 -0.3854
 
              Baa    -0.1141   -15.315    -5.465    -5.108 -0.3215  0.2722  0.9070
     9 C(13)  Bbb    -0.0305    -4.094    -1.461    -1.366  0.9146  0.3372  0.2230
              Bcc     0.1446    19.408     6.925     6.474 -0.2451  0.9012 -0.3573
 
              Baa    -0.0024    -1.263    -0.451    -0.421 -0.3024  0.2897  0.9081
    10 H(1)   Bbb     0.0007     0.389     0.139     0.130  0.8617 -0.3241  0.3904
              Bcc     0.0016     0.873     0.312     0.291  0.4074  0.9006 -0.1516
 
              Baa    -0.1171    -6.130    -2.187    -2.045 -0.3159  0.2910  0.9031
    11 Cl(35) Bbb    -0.0546    -2.856    -1.019    -0.953  0.8652 -0.3023  0.4001
              Bcc     0.1717     8.987     3.207     2.998  0.3894  0.9077 -0.1562
 

 ---------------------------------------------------------------------------------

 D2PCM: PCM CHGder 2nd derivatives, FixD1E=F FixD2E=F DoIter=F DoCFld=F I1PDM=0
 Calling FoFJK, ICntrl=    100127 FMM=F ISym2X=0 I1Cent= 0 IOpClX= 1 NMat=1 NMatS=1 NMatT=0.
 -------------------------------------------------------------------
 Center     Atomic                   Forces (Hartrees/Bohr)
 Number     Number              X              Y              Z
 -------------------------------------------------------------------
      1        6          -0.047194638    0.012093743   -0.019228625
      2        6           0.026813018   -0.008653691    0.009848606
      3        1          -0.000137161   -0.000030674    0.000383254
      4        6           0.000120521    0.006271169   -0.001892771
      5        1           0.001171464   -0.000799497    0.000815621
      6        6          -0.000010125    0.001219960   -0.000260725
      7        6          -0.004540133   -0.005635343   -0.000474141
      8        1           0.001336664    0.000354033    0.000168545
      9        6           0.019590110   -0.003122043    0.010051026
     10        1           0.000156765   -0.000098366    0.000108375
     11       17           0.002693514   -0.001599291    0.000480835
 -------------------------------------------------------------------
 Cartesian Forces:  Max     0.047194638 RMS     0.011335977
 FormGI is forming the generalized inverse of G from B-inverse, IUseBI=4.

 GradGradGradGradGradGradGradGradGradGradGradGradGradGradGradGradGradGrad
 Berny optimization.
 Internal  Forces:  Max     0.028877790 RMS     0.007123874
 Search for a local minimum.
 Step number   1 out of a maximum of   57
 All quantities printed in internal units (Hartrees-Bohrs-Radians)
 Mixed Optimization -- RFO/linear search
 Second derivative matrix not updated -- analytic derivatives used.
 ITU=  0
     Eigenvalues ---    0.01758   0.01792   0.01963   0.02436   0.02670
     Eigenvalues ---    0.02878   0.03164   0.03809   0.10528   0.11081
     Eigenvalues ---    0.11763   0.11935   0.14867   0.17321   0.18377
     Eigenvalues ---    0.19812   0.25668   0.26254   0.35708   0.36456
     Eigenvalues ---    0.36592   0.36726   0.39429   0.41969   0.46313
     Eigenvalues ---    0.47764   0.51416
 RFO step:  Lambda=-9.73992731D-03 EMin= 1.75814785D-02
 Linear search not attempted -- first point.
 Iteration  1 RMS(Cart)=  0.03546307 RMS(Int)=  0.00152400
 Iteration  2 RMS(Cart)=  0.00222779 RMS(Int)=  0.00047181
 Iteration  3 RMS(Cart)=  0.00000104 RMS(Int)=  0.00047181
 Iteration  4 RMS(Cart)=  0.00000000 RMS(Int)=  0.00047181
 Variable       Old X    -DE/DX   Delta X   Delta X   Delta X     New X
                                 (Linear)    (Quad)   (Total)
    R1        2.65086  -0.02192   0.00000  -0.06213  -0.06150   2.58936
    R2        2.63753  -0.01931   0.00000  -0.05137  -0.05072   2.58681
    R3        2.05235   0.00014   0.00000  -0.00358  -0.00358   2.04877
    R4        2.62723   0.00157   0.00000   0.01395   0.01392   2.64115
    R5        2.04754  -0.00033   0.00000   0.00039   0.00039   2.04793
    R6        2.62812   0.00392   0.00000   0.00385   0.00321   2.63133
    R7        2.62783   0.00199   0.00000   0.00405   0.00343   2.63125
    R8        2.04800  -0.00021   0.00000  -0.00063  -0.00063   2.04737
    R9        2.04669   0.00007   0.00000   0.00164   0.00164   2.04834
   R10        2.62481   0.00072   0.00000   0.00540   0.00543   2.63024
   R11        3.31831   0.00077   0.00000  -0.01672  -0.01672   3.30159
    A1        2.03490   0.02888   0.00000   0.12946   0.13117   2.16608
    A2        2.07889   0.00773   0.00000   0.04480   0.04451   2.12340
    A3        2.12779  -0.01538   0.00000  -0.08325  -0.08275   2.04504
    A4        2.07637   0.00766   0.00000   0.03866   0.03837   2.11474
    A5        2.09620  -0.00183   0.00000  -0.00875  -0.00837   2.08783
    A6        2.08776   0.00036   0.00000   0.00994   0.00918   2.09695
    A7        2.09922   0.00146   0.00000  -0.00119  -0.00081   2.09841
    A8        2.09583   0.00101   0.00000   0.01649   0.01514   2.11097
    A9        2.10239  -0.00057   0.00000  -0.01041  -0.00974   2.09265
   A10        2.08495  -0.00044   0.00000  -0.00605  -0.00538   2.07957
   A11        2.10891   0.00235   0.00000   0.00635   0.00669   2.11560
   A12        2.07880  -0.00190   0.00000  -0.00541  -0.00610   2.07270
   A13        2.09548  -0.00046   0.00000  -0.00093  -0.00059   2.09488
   A14        2.14115  -0.01297   0.00000  -0.06703  -0.06652   2.07463
   A15        2.09410   0.00163   0.00000   0.01002   0.00965   2.10375
   A16        2.04754   0.01136   0.00000   0.05760   0.05723   2.10478
    D1        3.14027   0.00031   0.00000   0.00315   0.00293  -3.13999
    D2        0.01615  -0.00029   0.00000  -0.01181  -0.01189   0.00426
    D3       -0.00649  -0.00016   0.00000   0.00267   0.00292  -0.00357
    D4        3.10407   0.00109   0.00000   0.02664   0.02652   3.13059
    D5        3.12976   0.00043   0.00000   0.01029   0.00998   3.13974
    D6       -0.01236   0.00051   0.00000   0.01101   0.01071  -0.00165
    D7        0.00562  -0.00017   0.00000  -0.00472  -0.00483   0.00079
    D8       -3.13650  -0.00009   0.00000  -0.00399  -0.00410  -3.14060
    D9       -0.00172   0.00002   0.00000   0.00053   0.00024  -0.00148
   D10       -3.13778  -0.00019   0.00000  -0.00385  -0.00401   3.14139
   D11        3.13934   0.00010   0.00000   0.00125   0.00098   3.14032
   D12        0.00328  -0.00011   0.00000  -0.00313  -0.00328   0.00001
   D13       -3.12755  -0.00039   0.00000  -0.01053  -0.01052  -3.13807
   D14        0.01103  -0.00037   0.00000  -0.00871  -0.00882   0.00221
   D15        0.00856  -0.00019   0.00000  -0.00621  -0.00631   0.00225
   D16       -3.13604  -0.00016   0.00000  -0.00439  -0.00461  -3.14065
   D17       -0.00685   0.00036   0.00000   0.00688   0.00705   0.00020
   D18       -3.11819  -0.00070   0.00000  -0.01577  -0.01577  -3.13395
   D19        3.13176   0.00039   0.00000   0.00870   0.00874   3.14050
   D20        0.02042  -0.00068   0.00000  -0.01395  -0.01408   0.00635
         Item               Value     Threshold  Converged?
 Maximum Force            0.028878     0.000015     NO 
 RMS     Force            0.007124     0.000010     NO 
 Maximum Displacement     0.156253     0.000060     NO 
 RMS     Displacement     0.035620     0.000040     NO 
 Predicted change in Energy=-5.087858D-03
 GradGradGradGradGradGradGradGradGradGradGradGradGradGradGradGradGradGrad

                          Input orientation:                          
 ---------------------------------------------------------------------
 Center     Atomic      Atomic             Coordinates (Angstroms)
 Number     Number       Type             X           Y           Z
 ---------------------------------------------------------------------
      1          6           0        6.204902    7.073749    5.114944
      2          6           0        5.244799    6.096307    5.096513
      3          1           0        5.437894    5.101593    5.482085
      4          6           0        4.001152    6.433364    4.555103
      5          1           0        3.213354    5.690047    4.519096
      6          6           0        3.776660    7.717140    4.064781
      7          6           0        4.777621    8.684217    4.104945
      8          1           0        4.606534    9.685781    3.727441
      9          6           0        6.015238    8.344975    4.643933
     10          1           0        2.811138    7.974051    3.645775
     11         17           0        7.301652    9.524138    4.728563
 ---------------------------------------------------------------------
                    Distance matrix (angstroms):
                    1          2          3          4          5
     1  C    0.000000
     2  C    1.370230   0.000000
     3  H    2.147672   1.084162   0.000000
     4  C    2.362208   1.397637   2.167289   0.000000
     5  H    3.349481   2.150633   2.494434   1.083717   0.000000
     6  C    2.722710   2.418057   3.407276   1.392441   2.152399
     7  C    2.377148   2.810469   3.894569   2.423197   3.403455
     8  H    3.361942   3.894363   4.978425   3.410239   4.305062
     9  C    1.368882   2.419693   3.399316   2.778253   3.861966
    10  H    3.806131   3.399010   4.303824   2.148657   2.478133
    11  Cl   2.712297   4.014481   4.858013   4.525071   5.608771
                    6          7          8          9         10
     6  C    0.000000
     7  C    1.392399   0.000000
     8  H    2.162877   1.083934   0.000000
     9  C    2.396002   1.391865   2.149922   0.000000
    10  H    1.083422   2.140614   2.481962   3.376413   0.000000
    11  Cl   4.016394   2.732233   2.879590   1.747126   4.872363
                   11
    11  Cl   0.000000
 Symmetry turned off by external request.
 Stoichiometry    C6H4Cl(2)
 Framework group  C1[X(C6H4Cl)]
 Deg. of freedom    27
 Full point group                 C1      NOp   1
 Rotational constants (GHZ):           6.0885539           1.5647564           1.2448415
 Standard basis: 6-311+G(d,p) (5D, 7F)
   186 basis functions,   301 primitive gaussians,   193 cartesian basis functions
    29 alpha electrons       28 beta electrons
       nuclear repulsion energy       303.8569004707 Hartrees.
 NAtoms=   11 NActive=   11 NUniq=   11 SFac= 1.00D+00 NAtFMM=   60 NAOKFM=F Big=F
 Integral buffers will be    131072 words long.
 Raffenetti 2 integral format.
 Two-electron integral symmetry is turned off.
 ------------------------------------------------------------------------------
 Polarizable Continuum Model (PCM)
 =================================
 Model                : PCM.
 Atomic radii         : SMD-Coulomb.
 Polarization charges : Total charges.
 Charge compensation  : None.
 Solution method      : Matrix inversion.
 Cavity type          : VdW (van der Waals Surface) (Alpha=1.000).
 Cavity algorithm     : GePol (No added spheres)
                        Default sphere list used, NSphG=   11.
                        Lebedev-Laikov grids with approx.  5.0 points / Ang**2.
                        Smoothing algorithm: York/Karplus (Gamma=1.0000).
                        Polarization charges: spherical gaussians, with
                                              point-specific exponents (IZeta= 3).
                        Self-potential: point-specific (ISelfS= 7).
                        Self-field    : sphere-specific E.n sum rule (ISelfD= 2).
 1st derivatives      : Analytical E(r).r(x)/FMM algorithm (CHGder, D1EAlg=3).
                        Cavity 1st derivative terms included.
 Solvent              : TetraHydroFuran, Eps=   7.425700 Eps(inf)=   1.974025
 ------------------------------------------------------------------------------
 Spheres list:
 ISph  on   Nord     Re0    Alpha      Xe            Ye            Ze
    1   C      1    1.8500  1.000      6.204902      7.073749      5.114944
    2   C      2    1.8500  1.000      5.244799      6.096307      5.096513
    3   H      3    1.2000  1.000      5.437894      5.101593      5.482085
    4   C      4    1.8500  1.000      4.001152      6.433364      4.555103
    5   H      5    1.2000  1.000      3.213354      5.690047      4.519096
    6   C      6    1.8500  1.000      3.776660      7.717140      4.064781
    7   C      7    1.8500  1.000      4.777621      8.684217      4.104945
    8   H      8    1.2000  1.000      4.606534      9.685781      3.727441
    9   C      9    1.8500  1.000      6.015238      8.344975      4.643933
   10   H     10    1.2000  1.000      2.811138      7.974051      3.645775
   11  Cl     11    2.3800  1.000      7.301652      9.524138      4.728563
 ------------------------------------------------------------------------------
 ------------------------------------------------------------------------------
 Atomic radii for non-electrostatic terms: SMD-CDS.
 ------------------------------------------------------------------------------
 Nuclear repulsion after PCM non-electrostatic terms =      303.8533270843 Hartrees.
 One-electron integrals computed using PRISM.
 NBasis=   186 RedAO= T EigKep=  3.39D-06  NBF=   186
 NBsUse=   186 1.00D-06 EigRej= -1.00D+00 NBFU=   186
 Initial guess from the checkpoint file:  "2-cl-ph-opt-freq-thf.chk"
 B after Tr=    -0.143459    0.128503   -0.047233
         Rot=    0.999983   -0.001198    0.000800    0.005668 Ang=  -0.67 deg.
 Initial guess <Sx>= 0.0000 <Sy>= 0.0000 <Sz>= 0.5000 <S**2>= 0.7636 S= 0.5068
 ExpMin= 4.38D-02 ExpMax= 1.06D+05 ExpMxC= 3.62D+03 IAcc=3 IRadAn=         5 AccDes= 0.00D+00
 Harris functional with IExCor= 1009 and IRadAn=       5 diagonalized for initial guess.
 HarFok:  IExCor= 1009 AccDes= 0.00D+00 IRadAn=         5 IDoV= 1 UseB2=F ITyADJ=14
 ICtDFT=  3500011 ScaDFX=  1.000000  1.000000  1.000000  1.000000
 FoFCou: FMM=F IPFlag=           0 FMFlag=      100000 FMFlg1=           0
         NFxFlg=           0 DoJE=T BraDBF=F KetDBF=T FulRan=T
         wScrn=  0.000000 ICntrl=       500 IOpCl=  0 I1Cent=   200000004 NGrid=           0
         NMat0=    1 NMatS0=      1 NMatT0=    0 NMatD0=    1 NMtDS0=    0 NMtDT0=    0
 Symmetry not used in FoFCou.
 Keep R1 and R2 ints in memory in canonical form, NReq=335193157.
 Requested convergence on RMS density matrix=1.00D-08 within 128 cycles.
 Requested convergence on MAX density matrix=1.00D-06.
 Requested convergence on             energy=1.00D-06.
 Level shift goal  0.100 maximum shift  0.100.
 No special actions if energy rises.
 Dynamic level shift is on during FON iterations.
 Inv3:  Mode=1 IEnd=     4155987.
 Iteration    1 A*A^-1 deviation from unit magnitude is 3.89D-15 for   1177.
 Iteration    1 A*A^-1 deviation from orthogonality  is 1.88D-15 for   1176   1005.
 Iteration    1 A^-1*A deviation from unit magnitude is 3.77D-15 for   1177.
 Iteration    1 A^-1*A deviation from orthogonality  is 3.63D-14 for   1177    401.
 Error on total polarization charges =  0.02718
 SCF Done:  E(UM062X) =  -691.120201503     A.U. after   16 cycles
            NFock= 16  Conv=0.86D-08     -V/T= 2.0027
 <Sx>= 0.0000 <Sy>= 0.0000 <Sz>= 0.5000 <S**2>= 0.7621 S= 0.5060
 <L.S>=  0.00000000000    
 SMD-CDS (non-electrostatic) energy       (kcal/mol) =      -2.24
 (included in total energy above)
 Annihilation of the first spin contaminant:
 S**2 before annihilation     0.7621,   after     0.7501
 D1PCM: PCM CHGder 1st derivatives, ID1Alg=3 FixD1E=F DoIter=F DoCFld=F I1PDM=0.
 Calling FoFJK, ICntrl=      2127 FMM=F ISym2X=0 I1Cent= 0 IOpClX= 1 NMat=1 NMatS=1 NMatT=0.
 -------------------------------------------------------------------
 Center     Atomic                   Forces (Hartrees/Bohr)
 Number     Number              X              Y              Z
 -------------------------------------------------------------------
      1        6          -0.000944831    0.001116963   -0.000414108
      2        6           0.000665467   -0.002823015    0.000728818
      3        1          -0.000149275   -0.000143155    0.000044505
      4        6          -0.000746597    0.000071481   -0.000313285
      5        1          -0.000046245   -0.000044261    0.000008983
      6        6          -0.000320006    0.000121874   -0.000138002
      7        6          -0.000605972    0.000157925   -0.000332855
      8        1           0.000027800   -0.000020061   -0.000035713
      9        6           0.001519236    0.001245077    0.000562742
     10        1           0.000015049    0.000000582    0.000011490
     11       17           0.000585374    0.000316590   -0.000122574
 -------------------------------------------------------------------
 Cartesian Forces:  Max     0.002823015 RMS     0.000722784

 GradGradGradGradGradGradGradGradGradGradGradGradGradGradGradGradGradGrad
 Berny optimization.
 Using GEDIIS/GDIIS optimizer.
 FormGI is forming the generalized inverse of G from B-inverse, IUseBI=4.
 Internal  Forces:  Max     0.001640984 RMS     0.000551411
 Search for a local minimum.
 Step number   2 out of a maximum of   57
 All quantities printed in internal units (Hartrees-Bohrs-Radians)
 Mixed Optimization -- En-DIIS/RFO-DIIS
 Update second derivatives using D2CorX and points    1    2
 DE= -5.07D-03 DEPred=-5.09D-03 R= 9.96D-01
 TightC=F SS=  1.41D+00  RLast= 2.12D-01 DXNew= 5.0454D-01 6.3465D-01
 Trust test= 9.96D-01 RLast= 2.12D-01 DXMaxT set to 5.05D-01
 ITU=  1  0
 Use linear search instead of GDIIS.
     Eigenvalues ---    0.01757   0.01792   0.01961   0.02435   0.02669
     Eigenvalues ---    0.02877   0.03161   0.03804   0.10527   0.11080
     Eigenvalues ---    0.11761   0.11934   0.14859   0.17260   0.18279
     Eigenvalues ---    0.19654   0.25655   0.25954   0.35747   0.36466
     Eigenvalues ---    0.36592   0.36725   0.40373   0.41960   0.46325
     Eigenvalues ---    0.47773   0.51806
 RFO step:  Lambda=-4.06389997D-05 EMin= 1.75675656D-02
 Quartic linear search produced a step of  0.04250.
 Iteration  1 RMS(Cart)=  0.00359587 RMS(Int)=  0.00002673
 Iteration  2 RMS(Cart)=  0.00001549 RMS(Int)=  0.00002290
 Iteration  3 RMS(Cart)=  0.00000000 RMS(Int)=  0.00002290
 Variable       Old X    -DE/DX   Delta X   Delta X   Delta X     New X
                                 (Linear)    (Quad)   (Total)
    R1        2.58936   0.00160  -0.00261   0.00619   0.00361   2.59297
    R2        2.58681   0.00074  -0.00216   0.00286   0.00073   2.58755
    R3        2.04877   0.00012  -0.00015  -0.00004  -0.00019   2.04858
    R4        2.64115   0.00097   0.00059   0.00166   0.00225   2.64340
    R5        2.04793   0.00006   0.00002   0.00024   0.00026   2.04818
    R6        2.63133   0.00080   0.00014   0.00120   0.00130   2.63264
    R7        2.63125   0.00081   0.00015   0.00070   0.00082   2.63207
    R8        2.04737  -0.00002  -0.00003  -0.00001  -0.00004   2.04733
    R9        2.04834  -0.00001   0.00007   0.00000   0.00007   2.04841
   R10        2.63024   0.00090   0.00023   0.00204   0.00227   2.63251
   R11        3.30159   0.00064  -0.00071   0.00122   0.00051   3.30209
    A1        2.16608   0.00164   0.00558   0.00284   0.00850   2.17457
    A2        2.12340   0.00077   0.00189   0.00194   0.00382   2.12722
    A3        2.04504  -0.00122  -0.00352  -0.00294  -0.00644   2.03860
    A4        2.11474   0.00044   0.00163   0.00101   0.00262   2.11736
    A5        2.08783  -0.00003  -0.00036   0.00043   0.00009   2.08792
    A6        2.09695   0.00003   0.00039   0.00037   0.00072   2.09767
    A7        2.09841   0.00000  -0.00003  -0.00080  -0.00082   2.09759
    A8        2.11097   0.00054   0.00064   0.00175   0.00233   2.11329
    A9        2.09265  -0.00027  -0.00041  -0.00083  -0.00122   2.09143
   A10        2.07957  -0.00027  -0.00023  -0.00091  -0.00111   2.07846
   A11        2.11560  -0.00008   0.00028  -0.00093  -0.00063   2.11497
   A12        2.07270   0.00017  -0.00026   0.00075   0.00046   2.07316
   A13        2.09488  -0.00009  -0.00003   0.00018   0.00017   2.09506
   A14        2.07463  -0.00117  -0.00283  -0.00275  -0.00556   2.06907
   A15        2.10375   0.00046   0.00041   0.00176   0.00215   2.10590
   A16        2.10478   0.00071   0.00243   0.00103   0.00344   2.10822
    D1       -3.13999   0.00001   0.00012  -0.00177  -0.00166   3.14153
    D2        0.00426  -0.00009  -0.00051  -0.00437  -0.00489  -0.00063
    D3       -0.00357   0.00002   0.00012   0.00366   0.00380   0.00023
    D4        3.13059   0.00028   0.00113   0.00959   0.01072   3.14131
    D5        3.13974   0.00007   0.00042   0.00192   0.00232  -3.14112
    D6       -0.00165   0.00007   0.00046   0.00179   0.00222   0.00057
    D7        0.00079  -0.00003  -0.00021  -0.00067  -0.00088  -0.00010
    D8       -3.14060  -0.00003  -0.00017  -0.00080  -0.00099  -3.14159
    D9       -0.00148   0.00001   0.00001   0.00134   0.00133  -0.00015
   D10        3.14139  -0.00003  -0.00017   0.00015  -0.00003   3.14137
   D11        3.14032   0.00002   0.00004   0.00120   0.00122   3.14155
   D12        0.00001  -0.00003  -0.00014   0.00002  -0.00013  -0.00012
   D13       -3.13807  -0.00011  -0.00045  -0.00364  -0.00408   3.14103
   D14        0.00221  -0.00008  -0.00037  -0.00210  -0.00248  -0.00027
   D15        0.00225  -0.00006  -0.00027  -0.00246  -0.00273  -0.00048
   D16       -3.14065  -0.00004  -0.00020  -0.00092  -0.00113   3.14140
   D17        0.00020   0.00006   0.00030  -0.00029   0.00003   0.00023
   D18       -3.13395  -0.00020  -0.00067  -0.00623  -0.00689  -3.14085
   D19        3.14050   0.00009   0.00037   0.00123   0.00161  -3.14107
   D20        0.00635  -0.00017  -0.00060  -0.00471  -0.00531   0.00104
         Item               Value     Threshold  Converged?
 Maximum Force            0.001641     0.000015     NO 
 RMS     Force            0.000551     0.000010     NO 
 Maximum Displacement     0.010332     0.000060     NO 
 RMS     Displacement     0.003591     0.000040     NO 
 Predicted change in Energy=-2.882541D-05
 GradGradGradGradGradGradGradGradGradGradGradGradGradGradGradGradGradGrad

                          Input orientation:                          
 ---------------------------------------------------------------------
 Center     Atomic      Atomic             Coordinates (Angstroms)
 Number     Number       Type             X           Y           Z
 ---------------------------------------------------------------------
      1          6           0        6.200410    7.076870    5.117564
      2          6           0        5.244740    6.092468    5.097230
      3          1           0        5.438882    5.097965    5.482537
      4          6           0        4.001008    6.431887    4.554418
      5          1           0        3.212475    5.689277    4.515946
      6          6           0        3.777123    7.717196    4.065878
      7          6           0        4.776985    8.686033    4.106036
      8          1           0        4.604642    9.686421    3.725887
      9          6           0        6.015869    8.349370    4.646831
     10          1           0        2.811690    7.973751    3.646500
     11         17           0        7.307120    9.524123    4.724351
 ---------------------------------------------------------------------
                    Distance matrix (angstroms):
                    1          2          3          4          5
     1  C    0.000000
     2  C    1.372139   0.000000
     3  H    2.151556   1.084062   0.000000
     4  C    2.360192   1.398828   2.169847   0.000000
     5  H    3.348898   2.151872   2.498167   1.083852   0.000000
     6  C    2.718157   2.420191   3.410094   1.393131   2.152637
     7  C    2.374602   2.815642   3.899628   2.425770   3.405329
     8  H    3.360506   3.899591   4.983544   3.412159   4.305751
     9  C    1.369270   2.427160   3.406311   2.782974   3.866813
    10  H    3.801559   3.400526   4.306195   2.148519   2.476972
    11  Cl   2.714493   4.021033   4.863747   4.530030   5.613875
                    6          7          8          9         10
     6  C    0.000000
     7  C    1.392832   0.000000
     8  H    2.162921   1.083971   0.000000
     9  C    2.397734   1.393067   2.151141   0.000000
    10  H    1.083402   2.140304   2.480770   3.377649   0.000000
    11  Cl   4.019881   2.736109   2.885595   1.747393   4.875890
                   11
    11  Cl   0.000000
 Symmetry turned off by external request.
 Stoichiometry    C6H4Cl(2)
 Framework group  C1[X(C6H4Cl)]
 Deg. of freedom    27
 Full point group                 C1      NOp   1
 Rotational constants (GHZ):           6.0873787           1.5609458           1.2423726
 Standard basis: 6-311+G(d,p) (5D, 7F)
   186 basis functions,   301 primitive gaussians,   193 cartesian basis functions
    29 alpha electrons       28 beta electrons
       nuclear repulsion energy       303.6376096412 Hartrees.
 NAtoms=   11 NActive=   11 NUniq=   11 SFac= 1.00D+00 NAtFMM=   60 NAOKFM=F Big=F
 Integral buffers will be    131072 words long.
 Raffenetti 2 integral format.
 Two-electron integral symmetry is turned off.
 ------------------------------------------------------------------------------
 Polarizable Continuum Model (PCM)
 =================================
 Model                : PCM.
 Atomic radii         : SMD-Coulomb.
 Polarization charges : Total charges.
 Charge compensation  : None.
 Solution method      : Matrix inversion.
 Cavity type          : VdW (van der Waals Surface) (Alpha=1.000).
 Cavity algorithm     : GePol (No added spheres)
                        Default sphere list used, NSphG=   11.
                        Lebedev-Laikov grids with approx.  5.0 points / Ang**2.
                        Smoothing algorithm: York/Karplus (Gamma=1.0000).
                        Polarization charges: spherical gaussians, with
                                              point-specific exponents (IZeta= 3).
                        Self-potential: point-specific (ISelfS= 7).
                        Self-field    : sphere-specific E.n sum rule (ISelfD= 2).
 1st derivatives      : Analytical E(r).r(x)/FMM algorithm (CHGder, D1EAlg=3).
                        Cavity 1st derivative terms included.
 Solvent              : TetraHydroFuran, Eps=   7.425700 Eps(inf)=   1.974025
 ------------------------------------------------------------------------------
 Spheres list:
 ISph  on   Nord     Re0    Alpha      Xe            Ye            Ze
    1   C      1    1.8500  1.000      6.200410      7.076870      5.117564
    2   C      2    1.8500  1.000      5.244740      6.092468      5.097230
    3   H      3    1.2000  1.000      5.438882      5.097965      5.482537
    4   C      4    1.8500  1.000      4.001008      6.431887      4.554418
    5   H      5    1.2000  1.000      3.212475      5.689277      4.515946
    6   C      6    1.8500  1.000      3.777123      7.717196      4.065878
    7   C      7    1.8500  1.000      4.776985      8.686033      4.106036
    8   H      8    1.2000  1.000      4.604642      9.686421      3.725887
    9   C      9    1.8500  1.000      6.015869      8.349370      4.646831
   10   H     10    1.2000  1.000      2.811690      7.973751      3.646500
   11  Cl     11    2.3800  1.000      7.307120      9.524123      4.724351
 ------------------------------------------------------------------------------
 ------------------------------------------------------------------------------
 Atomic radii for non-electrostatic terms: SMD-CDS.
 ------------------------------------------------------------------------------
 Nuclear repulsion after PCM non-electrostatic terms =      303.6340409835 Hartrees.
 One-electron integrals computed using PRISM.
 NBasis=   186 RedAO= T EigKep=  3.38D-06  NBF=   186
 NBsUse=   186 1.00D-06 EigRej= -1.00D+00 NBFU=   186
 Initial guess from the checkpoint file:  "2-cl-ph-opt-freq-thf.chk"
 B after Tr=    -0.013532    0.002017    0.015880
         Rot=    1.000000    0.000338   -0.000310    0.000341 Ang=   0.07 deg.
 Initial guess <Sx>= 0.0000 <Sy>= 0.0000 <Sz>= 0.5000 <S**2>= 0.7621 S= 0.5061
 Keep R1 and R2 ints in memory in canonical form, NReq=335193157.
 Requested convergence on RMS density matrix=1.00D-08 within 128 cycles.
 Requested convergence on MAX density matrix=1.00D-06.
 Requested convergence on             energy=1.00D-06.
 Level shift goal  0.100 maximum shift  0.100.
 No special actions if energy rises.
 Dynamic level shift is on during FON iterations.
 Inv3:  Mode=1 IEnd=     4191372.
 Iteration    1 A*A^-1 deviation from unit magnitude is 5.00D-15 for   1178.
 Iteration    1 A*A^-1 deviation from orthogonality  is 1.59D-15 for   1166    776.
 Iteration    1 A^-1*A deviation from unit magnitude is 4.66D-15 for   1178.
 Iteration    1 A^-1*A deviation from orthogonality  is 2.26D-14 for   1165    404.
 Error on total polarization charges =  0.02721
 SCF Done:  E(UM062X) =  -691.120230059     A.U. after   12 cycles
            NFock= 12  Conv=0.83D-08     -V/T= 2.0028
 <Sx>= 0.0000 <Sy>= 0.0000 <Sz>= 0.5000 <S**2>= 0.7622 S= 0.5061
 <L.S>=  0.00000000000    
 SMD-CDS (non-electrostatic) energy       (kcal/mol) =      -2.24
 (included in total energy above)
 Annihilation of the first spin contaminant:
 S**2 before annihilation     0.7622,   after     0.7501
 D1PCM: PCM CHGder 1st derivatives, ID1Alg=3 FixD1E=F DoIter=F DoCFld=F I1PDM=0.
 Calling FoFJK, ICntrl=      2127 FMM=F ISym2X=0 I1Cent= 0 IOpClX= 1 NMat=1 NMatS=1 NMatT=0.
 -------------------------------------------------------------------
 Center     Atomic                   Forces (Hartrees/Bohr)
 Number     Number              X              Y              Z
 -------------------------------------------------------------------
      1        6          -0.000270180   -0.000177525   -0.000044491
      2        6           0.000313886    0.000274179    0.000055949
      3        1          -0.000010346   -0.000026957    0.000002142
      4        6          -0.000070202   -0.000059569   -0.000020160
      5        1          -0.000006624    0.000001122   -0.000021352
      6        6          -0.000032188    0.000008518   -0.000023563
      7        6          -0.000037589    0.000062533   -0.000039955
      8        1          -0.000006615   -0.000001601    0.000002188
      9        6           0.000066027   -0.000104527    0.000080048
     10        1           0.000007441   -0.000000757   -0.000018066
     11       17           0.000046390    0.000024585    0.000027259
 -------------------------------------------------------------------
 Cartesian Forces:  Max     0.000313886 RMS     0.000099659

 GradGradGradGradGradGradGradGradGradGradGradGradGradGradGradGradGradGrad
 Berny optimization.
 Using GEDIIS/GDIIS optimizer.
 FormGI is forming the generalized inverse of G from B-inverse, IUseBI=4.
 Internal  Forces:  Max     0.000322298 RMS     0.000055694
 Search for a local minimum.
 Step number   3 out of a maximum of   57
 All quantities printed in internal units (Hartrees-Bohrs-Radians)
 Mixed Optimization -- En-DIIS/RFO-DIIS
 Swapping is turned off.
 Update second derivatives using D2CorX and points    1    2    3
 DE= -2.86D-05 DEPred=-2.88D-05 R= 9.91D-01
 TightC=F SS=  1.41D+00  RLast= 2.24D-02 DXNew= 8.4853D-01 6.7090D-02
 Trust test= 9.91D-01 RLast= 2.24D-02 DXMaxT set to 5.05D-01
 ITU=  1  1  0
     Eigenvalues ---    0.01757   0.01792   0.01962   0.02435   0.02670
     Eigenvalues ---    0.02876   0.03164   0.03797   0.10534   0.11081
     Eigenvalues ---    0.11734   0.11923   0.14825   0.17105   0.18472
     Eigenvalues ---    0.19426   0.25189   0.26106   0.35741   0.36467
     Eigenvalues ---    0.36590   0.36724   0.41234   0.42015   0.46423
     Eigenvalues ---    0.47973   0.51875
 En-DIIS/RFO-DIIS/Sim-DIIS IScMMF=       -3 using points:     3    2
 RFO step:  Lambda=-4.33167070D-07.
 DidBck=F Rises=F RFO-DIIS coefs:    1.00310   -0.00310
 Iteration  1 RMS(Cart)=  0.00020849 RMS(Int)=  0.00000004
 Iteration  2 RMS(Cart)=  0.00000004 RMS(Int)=  0.00000002
 Variable       Old X    -DE/DX   Delta X   Delta X   Delta X     New X
                                 (Linear)    (Quad)   (Total)
    R1        2.59297  -0.00032   0.00001  -0.00093  -0.00092   2.59205
    R2        2.58755  -0.00006   0.00000  -0.00007  -0.00006   2.58748
    R3        2.04858   0.00002   0.00000   0.00009   0.00009   2.04867
    R4        2.64340   0.00008   0.00001   0.00030   0.00031   2.64371
    R5        2.04818   0.00000   0.00000   0.00000   0.00000   2.04818
    R6        2.63264   0.00004   0.00000   0.00003   0.00003   2.63267
    R7        2.63207   0.00004   0.00000   0.00020   0.00021   2.63228
    R8        2.04733   0.00000   0.00000   0.00000   0.00000   2.04734
    R9        2.04841   0.00000   0.00000  -0.00001  -0.00001   2.04840
   R10        2.63251   0.00010   0.00001   0.00013   0.00014   2.63265
   R11        3.30209   0.00005   0.00000   0.00020   0.00020   3.30229
    A1        2.17457   0.00008   0.00003   0.00032   0.00035   2.17492
    A2        2.12722  -0.00001   0.00001   0.00018   0.00019   2.12741
    A3        2.03860   0.00003  -0.00002   0.00008   0.00006   2.03867
    A4        2.11736  -0.00003   0.00001  -0.00026  -0.00025   2.11711
    A5        2.08792   0.00002   0.00000   0.00016   0.00016   2.08808
    A6        2.09767  -0.00003   0.00000  -0.00019  -0.00019   2.09748
    A7        2.09759   0.00001   0.00000   0.00004   0.00003   2.09762
    A8        2.11329  -0.00003   0.00001   0.00003   0.00004   2.11333
    A9        2.09143   0.00001   0.00000   0.00000   0.00000   2.09143
   A10        2.07846   0.00002   0.00000  -0.00004  -0.00004   2.07842
   A11        2.11497   0.00001   0.00000  -0.00007  -0.00007   2.11490
   A12        2.07316  -0.00004   0.00000  -0.00012  -0.00012   2.07305
   A13        2.09506   0.00003   0.00000   0.00019   0.00019   2.09524
   A14        2.06907  -0.00001  -0.00002  -0.00013  -0.00014   2.06892
   A15        2.10590  -0.00002   0.00001  -0.00004  -0.00003   2.10587
   A16        2.10822   0.00003   0.00001   0.00017   0.00018   2.10839
    D1        3.14153   0.00000  -0.00001  -0.00008  -0.00008   3.14145
    D2       -0.00063   0.00001  -0.00002   0.00028   0.00026  -0.00037
    D3        0.00023  -0.00001   0.00001  -0.00016  -0.00014   0.00009
    D4        3.14131   0.00000   0.00003   0.00002   0.00006   3.14136
    D5       -3.14112  -0.00001   0.00001  -0.00023  -0.00023  -3.14135
    D6        0.00057  -0.00001   0.00001  -0.00022  -0.00022   0.00036
    D7       -0.00010   0.00000   0.00000   0.00012   0.00012   0.00002
    D8       -3.14159   0.00000   0.00000   0.00013   0.00013  -3.14146
    D9       -0.00015   0.00000   0.00000   0.00006   0.00006  -0.00008
   D10        3.14137   0.00000   0.00000   0.00001   0.00001   3.14138
   D11        3.14155   0.00000   0.00000   0.00007   0.00007  -3.14157
   D12       -0.00012   0.00000   0.00000   0.00002   0.00002  -0.00010
   D13        3.14103   0.00000  -0.00001   0.00010   0.00009   3.14113
   D14       -0.00027   0.00000  -0.00001   0.00007   0.00006  -0.00021
   D15       -0.00048   0.00000  -0.00001   0.00015   0.00014  -0.00034
   D16        3.14140   0.00000   0.00000   0.00011   0.00011   3.14151
   D17        0.00023   0.00000   0.00000  -0.00003  -0.00003   0.00021
   D18       -3.14085  -0.00001  -0.00002  -0.00020  -0.00023  -3.14107
   D19       -3.14107   0.00000   0.00000  -0.00006  -0.00006  -3.14113
   D20        0.00104  -0.00001  -0.00002  -0.00024  -0.00026   0.00078
         Item               Value     Threshold  Converged?
 Maximum Force            0.000322     0.000015     NO 
 RMS     Force            0.000056     0.000010     NO 
 Maximum Displacement     0.000745     0.000060     NO 
 RMS     Displacement     0.000208     0.000040     NO 
 Predicted change in Energy=-2.165841D-07
 GradGradGradGradGradGradGradGradGradGradGradGradGradGradGradGradGradGrad

                          Input orientation:                          
 ---------------------------------------------------------------------
 Center     Atomic      Atomic             Coordinates (Angstroms)
 Number     Number       Type             X           Y           Z
 ---------------------------------------------------------------------
      1          6           0        6.200136    7.076831    5.117489
      2          6           0        5.244889    6.092691    5.097361
      3          1           0        5.439032    5.098095    5.482566
      4          6           0        4.000961    6.431845    4.554409
      5          1           0        3.212496    5.689166    4.515851
      6          6           0        3.777055    7.717166    4.065863
      7          6           0        4.776928    8.686146    4.106053
      8          1           0        4.604434    9.686523    3.725953
      9          6           0        6.015852    8.349379    4.646882
     10          1           0        2.811646    7.973681    3.646399
     11         17           0        7.307514    9.523840    4.724353
 ---------------------------------------------------------------------
                    Distance matrix (angstroms):
                    1          2          3          4          5
     1  C    0.000000
     2  C    1.371654   0.000000
     3  H    2.151269   1.084110   0.000000
     4  C    2.359966   1.398992   2.169887   0.000000
     5  H    3.348668   2.152116   2.498272   1.083852   0.000000
     6  C    2.717953   2.420215   3.410095   1.393148   2.152673
     7  C    2.374536   2.815615   3.899651   2.425906   3.405477
     8  H    3.360525   3.899560   4.983564   3.412250   4.305844
     9  C    1.369237   2.426923   3.406161   2.783033   3.866873
    10  H    3.801356   3.400600   4.306234   2.148536   2.477021
    11  Cl   2.714533   4.020739   4.863468   4.530188   5.614033
                    6          7          8          9         10
     6  C    0.000000
     7  C    1.392941   0.000000
     8  H    2.162976   1.083967   0.000000
     9  C    2.397810   1.393141   2.151317   0.000000
    10  H    1.083403   2.140378   2.480775   3.377728   0.000000
    11  Cl   4.020177   2.736401   2.886158   1.747498   4.876249
                   11
    11  Cl   0.000000
 Symmetry turned off by external request.
 Stoichiometry    C6H4Cl(2)
 Framework group  C1[X(C6H4Cl)]
 Deg. of freedom    27
 Full point group                 C1      NOp   1
 Rotational constants (GHZ):           6.0873115           1.5608919           1.2423356
 Standard basis: 6-311+G(d,p) (5D, 7F)
   186 basis functions,   301 primitive gaussians,   193 cartesian basis functions
    29 alpha electrons       28 beta electrons
       nuclear repulsion energy       303.6350195921 Hartrees.
 NAtoms=   11 NActive=   11 NUniq=   11 SFac= 1.00D+00 NAtFMM=   60 NAOKFM=F Big=F
 Integral buffers will be    131072 words long.
 Raffenetti 2 integral format.
 Two-electron integral symmetry is turned off.
 ------------------------------------------------------------------------------
 Polarizable Continuum Model (PCM)
 =================================
 Model                : PCM.
 Atomic radii         : SMD-Coulomb.
 Polarization charges : Total charges.
 Charge compensation  : None.
 Solution method      : Matrix inversion.
 Cavity type          : VdW (van der Waals Surface) (Alpha=1.000).
 Cavity algorithm     : GePol (No added spheres)
                        Default sphere list used, NSphG=   11.
                        Lebedev-Laikov grids with approx.  5.0 points / Ang**2.
                        Smoothing algorithm: York/Karplus (Gamma=1.0000).
                        Polarization charges: spherical gaussians, with
                                              point-specific exponents (IZeta= 3).
                        Self-potential: point-specific (ISelfS= 7).
                        Self-field    : sphere-specific E.n sum rule (ISelfD= 2).
 1st derivatives      : Analytical E(r).r(x)/FMM algorithm (CHGder, D1EAlg=3).
                        Cavity 1st derivative terms included.
 Solvent              : TetraHydroFuran, Eps=   7.425700 Eps(inf)=   1.974025
 ------------------------------------------------------------------------------
 Spheres list:
 ISph  on   Nord     Re0    Alpha      Xe            Ye            Ze
    1   C      1    1.8500  1.000      6.200136      7.076831      5.117489
    2   C      2    1.8500  1.000      5.244889      6.092691      5.097361
    3   H      3    1.2000  1.000      5.439032      5.098095      5.482566
    4   C      4    1.8500  1.000      4.000961      6.431845      4.554409
    5   H      5    1.2000  1.000      3.212496      5.689166      4.515851
    6   C      6    1.8500  1.000      3.777055      7.717166      4.065863
    7   C      7    1.8500  1.000      4.776928      8.686146      4.106053
    8   H      8    1.2000  1.000      4.604434      9.686523      3.725953
    9   C      9    1.8500  1.000      6.015852      8.349379      4.646882
   10   H     10    1.2000  1.000      2.811646      7.973681      3.646399
   11  Cl     11    2.3800  1.000      7.307514      9.523840      4.724353
 ------------------------------------------------------------------------------
 ------------------------------------------------------------------------------
 Atomic radii for non-electrostatic terms: SMD-CDS.
 ------------------------------------------------------------------------------
 Nuclear repulsion after PCM non-electrostatic terms =      303.6314505012 Hartrees.
 One-electron integrals computed using PRISM.
 NBasis=   186 RedAO= T EigKep=  3.38D-06  NBF=   186
 NBsUse=   186 1.00D-06 EigRej= -1.00D+00 NBFU=   186
 Initial guess from the checkpoint file:  "2-cl-ph-opt-freq-thf.chk"
 B after Tr=    -0.001211    0.000697    0.000280
         Rot=    1.000000    0.000006   -0.000004    0.000043 Ang=   0.00 deg.
 Initial guess <Sx>= 0.0000 <Sy>= 0.0000 <Sz>= 0.5000 <S**2>= 0.7622 S= 0.5061
[...]
    A4        2.11712   0.00000   0.00000   0.00000   0.00000   2.11712
    A5        2.08807   0.00000   0.00000   0.00000   0.00000   2.08807
    A6        2.09749   0.00000   0.00000   0.00000   0.00000   2.09749
    A7        2.09762   0.00000   0.00000   0.00000   0.00000   2.09762
    A8        2.11333   0.00000   0.00000   0.00000   0.00000   2.11333
    A9        2.09143   0.00000   0.00000   0.00000   0.00000   2.09143
   A10        2.07842   0.00000   0.00000   0.00000   0.00000   2.07842
   A11        2.11490   0.00000   0.00000   0.00000   0.00000   2.11490
   A12        2.07305   0.00000   0.00000   0.00000   0.00000   2.07305
   A13        2.09524   0.00000   0.00000   0.00000   0.00000   2.09524
   A14        2.06896   0.00000   0.00000   0.00000   0.00000   2.06896
   A15        2.10584   0.00000   0.00000   0.00000   0.00000   2.10585
   A16        2.10838   0.00000   0.00000   0.00000   0.00000   2.10838
    D1        3.14147   0.00000   0.00000   0.00000   0.00000   3.14147
    D2       -0.00035   0.00000   0.00000   0.00000   0.00000  -0.00035
    D3        0.00007   0.00000   0.00000   0.00000   0.00000   0.00007
    D4        3.14131   0.00000   0.00000   0.00000   0.00000   3.14131
    D5       -3.14135   0.00000   0.00000   0.00000   0.00000  -3.14135
    D6        0.00035   0.00000   0.00000   0.00000   0.00000   0.00035
    D7        0.00002   0.00000   0.00000   0.00000   0.00000   0.00002
    D8       -3.14147   0.00000   0.00000   0.00000   0.00000  -3.14147
    D9       -0.00009   0.00000   0.00000   0.00000   0.00000  -0.00009
   D10        3.14139   0.00000   0.00000   0.00000   0.00000   3.14139
   D11       -3.14158   0.00000   0.00000   0.00000   0.00000  -3.14158
   D12       -0.00010   0.00000   0.00000   0.00000   0.00000  -0.00010
   D13        3.14115   0.00000   0.00000   0.00000   0.00000   3.14115
   D14       -0.00019   0.00000   0.00000   0.00000   0.00000  -0.00019
   D15       -0.00033   0.00000   0.00000   0.00000   0.00000  -0.00033
   D16        3.14151   0.00000   0.00000   0.00000   0.00000   3.14151
   D17        0.00021   0.00000   0.00000   0.00000   0.00000   0.00021
   D18       -3.14104   0.00000   0.00000   0.00000   0.00000  -3.14104
   D19       -3.14114   0.00000   0.00000   0.00000   0.00000  -3.14114
   D20        0.00080   0.00000   0.00000   0.00000   0.00000   0.00080
         Item               Value     Threshold  Converged?
 Maximum Force            0.000004     0.000015     YES
 RMS     Force            0.000001     0.000010     YES
 Maximum Displacement     0.000006     0.000060     YES
 RMS     Displacement     0.000001     0.000040     YES
 Predicted change in Energy=-2.596622D-11
 Optimization completed.
    -- Stationary point found.
                           ----------------------------
                           !   Optimized Parameters   !
                           ! (Angstroms and Degrees)  !
 --------------------------                            --------------------------
 ! Name  Definition              Value          Derivative Info.                !
 --------------------------------------------------------------------------------
 ! R1    R(1,2)                  1.3717         -DE/DX =    0.0                 !
 ! R2    R(1,9)                  1.3692         -DE/DX =    0.0                 !
 ! R3    R(2,3)                  1.0841         -DE/DX =    0.0                 !
 ! R4    R(2,4)                  1.399          -DE/DX =    0.0                 !
 ! R5    R(4,5)                  1.0839         -DE/DX =    0.0                 !
 ! R6    R(4,6)                  1.3932         -DE/DX =    0.0                 !
 ! R7    R(6,7)                  1.3929         -DE/DX =    0.0                 !
 ! R8    R(6,10)                 1.0834         -DE/DX =    0.0                 !
 ! R9    R(7,8)                  1.084          -DE/DX =    0.0                 !
 ! R10   R(7,9)                  1.3931         -DE/DX =    0.0                 !
 ! R11   R(9,11)                 1.7475         -DE/DX =    0.0                 !
 ! A1    A(2,1,9)              124.6117         -DE/DX =    0.0                 !
 ! A2    A(1,2,3)              121.8912         -DE/DX =    0.0                 !
 ! A3    A(1,2,4)              116.8068         -DE/DX =    0.0                 !
 ! A4    A(3,2,4)              121.302          -DE/DX =    0.0                 !
 ! A5    A(2,4,5)              119.6378         -DE/DX =    0.0                 !
 ! A6    A(2,4,6)              120.1772         -DE/DX =    0.0                 !
 ! A7    A(5,4,6)              120.185          -DE/DX =    0.0                 !
 ! A8    A(4,6,7)              121.0849         -DE/DX =    0.0                 !
 ! A9    A(4,6,10)             119.8302         -DE/DX =    0.0                 !
 ! A10   A(7,6,10)             119.0849         -DE/DX =    0.0                 !
 ! A11   A(6,7,8)              121.1747         -DE/DX =    0.0                 !
 ! A12   A(6,7,9)              118.7768         -DE/DX =    0.0                 !
 ! A13   A(8,7,9)              120.0485         -DE/DX =    0.0                 !
 ! A14   A(1,9,7)              118.5426         -DE/DX =    0.0                 !
 ! A15   A(1,9,11)             120.656          -DE/DX =    0.0                 !
 ! A16   A(7,9,11)             120.8014         -DE/DX =    0.0                 !
 ! D1    D(9,1,2,3)            179.993          -DE/DX =    0.0                 !
 ! D2    D(9,1,2,4)             -0.0199         -DE/DX =    0.0                 !
 ! D3    D(2,1,9,7)              0.0039         -DE/DX =    0.0                 !
 ! D4    D(2,1,9,11)           179.984          -DE/DX =    0.0                 !
 ! D5    D(1,2,4,5)           -179.986          -DE/DX =    0.0                 !
 ! D6    D(1,2,4,6)              0.02           -DE/DX =    0.0                 !
 ! D7    D(3,2,4,5)              0.0012         -DE/DX =    0.0                 !
 ! D8    D(3,2,4,6)           -179.9928         -DE/DX =    0.0                 !
 ! D9    D(2,4,6,7)             -0.0052         -DE/DX =    0.0                 !
 ! D10   D(2,4,6,10)           179.9881         -DE/DX =    0.0                 !
 ! D11   D(5,4,6,7)           -179.9992         -DE/DX =    0.0                 !
 ! D12   D(5,4,6,10)            -0.0059         -DE/DX =    0.0                 !
 ! D13   D(4,6,7,8)            179.9747         -DE/DX =    0.0                 !
 ! D14   D(4,6,7,9)             -0.0111         -DE/DX =    0.0                 !
 ! D15   D(10,6,7,8)            -0.0187         -DE/DX =    0.0                 !
 ! D16   D(10,6,7,9)           179.9955         -DE/DX =    0.0                 !
 ! D17   D(6,7,9,1)              0.0119         -DE/DX =    0.0                 !
 ! D18   D(6,7,9,11)          -179.9681         -DE/DX =    0.0                 !
 ! D19   D(8,7,9,1)           -179.9742         -DE/DX =    0.0                 !
 ! D20   D(8,7,9,11)             0.0458         -DE/DX =    0.0                 !
 --------------------------------------------------------------------------------
 GradGradGradGradGradGradGradGradGradGradGradGradGradGradGradGradGradGrad


 ----------------------------------------------------------------------

 Electric dipole moment (input orientation):
 (Debye = 10**-18 statcoulomb cm , SI units = C m)
                  (au)            (Debye)         (10**-30 SI)
   Tot        0.123421D+01      0.313705D+01      0.104641D+02
   x         -0.108943D+01     -0.276905D+01     -0.923655D+01
   y         -0.541240D+00     -0.137570D+01     -0.458882D+01
   z         -0.208521D+00     -0.530009D+00     -0.176792D+01

 Dipole polarizability, Alpha (input orientation).
 (esu units = cm**3 , SI units = C**2 m**2 J**-1)
 Alpha(0;0):
               (au)            (10**-24 esu)      (10**-40 SI)
   iso        0.100341D+03      0.148690D+02      0.165440D+02
   aniso      0.682768D+02      0.101176D+02      0.112573D+02
   xx         0.115380D+03      0.170975D+02      0.190236D+02
   yx         0.188375D+02      0.279143D+01      0.310588D+01
   yy         0.118664D+03      0.175842D+02      0.195651D+02
   zx         0.140737D+02      0.208550D+01      0.232043D+01
   zy        -0.127872D+02     -0.189486D+01     -0.210832D+01
   zz         0.669785D+02      0.992519D+01      0.110433D+02

 ----------------------------------------------------------------------

 Dipole orientation:
     6         -9.05753319         -3.05245637        -17.84067491
     6         -9.01011289         -2.11307436        -15.42517540
     1         -8.90795106         -0.10206658        -15.04777243
     6         -9.10055904         -3.87690586        -13.45798561
     1         -9.06838441         -3.22968418        -11.51501822
     6         -9.23103145         -6.45120333        -13.99367669
     6         -9.27433881         -7.32205753        -16.47732645
     1         -9.37504879         -9.32441736        -16.89727129
     6         -9.18499263         -5.56688538        -18.43749857
     1         -9.30024143         -7.80793250        -12.46198509
    17         -9.23529441         -6.54871294        -21.59005607

 Electric dipole moment (dipole orientation):
 (Debye = 10**-18 statcoulomb cm , SI units = C m)
                  (au)            (Debye)         (10**-30 SI)
   Tot        0.123421D+01      0.313705D+01      0.104641D+02
   x          0.000000D+00      0.000000D+00      0.000000D+00
   y          0.000000D+00      0.000000D+00      0.000000D+00
   z          0.123421D+01      0.313705D+01      0.104641D+02

 Dipole polarizability, Alpha (dipole orientation).
 (esu units = cm**3 , SI units = C**2 m**2 J**-1)
 Alpha(0;0):
               (au)            (10**-24 esu)      (10**-40 SI)
   iso        0.100341D+03      0.148690D+02      0.165440D+02
   aniso      0.682768D+02      0.101176D+02      0.112573D+02
   xx         0.581076D+02      0.861066D+01      0.958065D+01
   yx         0.270142D+01      0.400310D+00      0.445405D+00
   yy         0.111398D+03      0.165075D+02      0.183671D+02
   zx         0.517499D+00      0.766854D-01      0.853240D-01
   zy         0.103650D+02      0.153594D+01      0.170897D+01
   zz         0.131516D+03      0.194887D+02      0.216841D+02

 ----------------------------------------------------------------------
 Unable to Open any file for archive entry.
 1\1\GINC-CN008\Freq\UM062X\6-311+G(d,p)\C6H4Cl1(2)\TAHMINAAFROZ\09-May
 -2025\0\\#N Geom=AllCheck Guess=TCheck SCRF=Check GenChk UM062X/6-311+
 G(d,p) Freq\\2-cl-ph-opt-freq-thf\\0,2\C,6.2001806204,7.0768513192,5.1
 174721363\C,5.2448778103,6.0926792652,5.0973577401\H,5.4390146293,5.09
 80907297,5.4825726115\C,4.0009612004,6.4318447661,4.5544115825\H,3.212
 4920808,5.6891703392,4.5158662668\C,3.7770583475,7.7171681423,4.065854
 8019\C,4.7769282622,8.6861370008,4.1060436652\H,4.6044343755,9.6865200
 097,3.7259609483\C,6.0158554113,8.3493641952,4.6468667021\H,2.81164817
 9,7.9736866167,3.6463976202\Cl,7.3074920833,9.5238496158,4.724373925\\
 Version=AS64L-G16RevC.01\HF=-691.1202303\S2=0.762158\S2-1=0.\S2A=0.750
 068\RMSD=1.224e-09\RMSF=7.054e-06\ZeroPoint=0.0785186\Thermal=0.083980
 3\ETot=-691.03625\HTot=-691.0353058\GTot=-691.072118\Dipole=-1.089427,
 -0.5412401,-0.2085214\DipoleDeriv=-0.1832205,-0.0104114,-0.0246957,-0.
 1029015,-0.178949,-0.0125736,0.0047806,0.0203133,-0.1091069,-0.0996394
 ,0.0185078,-0.0061668,0.0131347,-0.01968,-0.0197708,-0.0042161,-0.0215
 461,-0.0924762,0.1345914,0.0038217,-0.0259269,0.0123,0.038102,0.057689
 6,-0.0282652,0.0561162,0.1781318,0.0128429,-0.0045497,0.0781566,-0.008
 1226,0.0084261,-0.071554,0.0784896,-0.0700124,-0.1555481,0.0286299,-0.
 0884338,-0.0260698,-0.0687028,0.0441401,0.0206305,-0.0327125,0.0136213
 ,0.1676895,0.0058855,-0.0476404,0.0699064,0.0030321,-0.0856744,-0.0189
 499,0.0534364,-0.035943,-0.1226614,-0.1541572,-0.080014,0.0347039,-0.0
 707397,-0.1135138,-0.045428,0.0314393,-0.0497978,-0.1530294,0.1193746,
 -0.0001179,-0.0229906,-0.0073072,0.0269154,0.0483,-0.0209573,0.0510633
 ,0.1630079,0.7552771,0.6484138,0.0421449,0.6882883,0.7366968,0.0204858
 ,0.0284088,0.0066892,0.0551389,-0.0083901,0.0159042,-0.0753021,0.01554
 28,0.0982715,0.035352,-0.0749818,0.0352212,0.1554023,-0.6111941,-0.455
 4803,-0.0437599,-0.4745241,-0.5547347,-0.0141816,-0.0354216,-0.0057253
 ,-0.0865483\Polar=115.3798007,18.8374984,118.6640051,14.0736587,-12.78
 71629,66.9784741\Quadrupole=-8.2531807,0.4693481,7.7838326,-21.8971456
 ,-10.2110215,-9.8635425\PG=C01 [X(C6H4Cl1)]\NImag=0\\0.36182186,0.1292
 6383,0.61190618,0.05963804,-0.12685332,0.13478761,-0.21609244,-0.11810
 970,-0.01979305,0.56405180,-0.15443438,-0.23608181,0.00492109,0.047931
 27,0.69837088,-0.00816249,0.01766630,-0.06006180,0.13729562,-0.1657516
 0,0.22777085,0.00613340,-0.01890481,0.00839292,-0.06040873,0.04377960,
 -0.02243292,0.05975875,0.00115942,-0.01649420,0.00546478,0.04892241,-0
 .29547562,0.09988544,-0.04690205,0.31213893,0.00198330,-0.00149795,0.0
 0054692,-0.02407141,0.09804884,-0.07589145,0.02764009,-0.10854079,0.06
 779361,-0.05536277,-0.06591502,-0.00283766,-0.27143839,0.07888704,-0.0
 9825075,0.00046921,-0.00160673,-0.00147245,0.64356574,-0.00418709,0.05
 458154,-0.01482898,0.00046611,-0.12896551,0.02147075,0.02599262,-0.001
 35699,0.01148289,0.09595532,0.65792524,-0.02252616,-0.03644917,0.01666
 227,-0.07318864,0.04891166,-0.10328380,-0.01028379,0.00184262,0.001992
 80,0.14782382,-0.13389692,0.22730669,-0.00382485,-0.00001880,-0.003742
 96,-0.01501938,-0.01848033,-0.00087716,0.00082665,0.00046124,0.0016011
 6,-0.20836085,-0.14675942,-0.01280069,0.21615280,0.00138610,0.00199136
 ,0.00205844,0.00859180,0.00810185,0.00180968,-0.00026917,0.00012905,-0
 .00146780,-0.14599633,-0.19156880,-0.00196446,0.15624032,0.19836280,-0
 .00419625,0.00156237,0.00494439,-0.00952625,-0.00765472,0.00349707,0.0
 0183405,-0.00121850,-0.00313770,-0.01304335,-0.00224238,-0.04186685,0.
 01676505,-0.00051658,0.03182079,-0.01138711,-0.02339620,0.00530437,0.0
 1373458,0.03288732,-0.00796366,-0.00368296,0.00052479,-0.00382165,-0.1
 2873621,0.05670206,-0.04073211,0.00790898,-0.02128461,0.00830836,0.681
 63321,-0.02256466,-0.07498649,0.01440220,0.08465656,0.01044744,0.02830
 682,0.00026441,0.00219827,0.00155415,-0.00907409,-0.30262687,0.0728396
 3,0.00606270,-0.01325954,0.00751639,0.02953925,0.62844689,0.00502855,0
 .01416602,-0.00805833,-0.02451650,0.01023936,-0.00540390,-0.00374245,0
 .00164870,0.00494155,-0.01971385,0.09585646,-0.10148480,-0.00043162,-0
 .00205862,0.00409726,0.18048663,-0.14657060,0.24780405,0.01755201,0.08
 988135,-0.02731630,-0.06928380,-0.01971046,-0.01710982,-0.00127857,-0.
 00056902,-0.00008055,0.05072161,-0.05970205,0.03499133,0.00160139,0.00
 116629,-0.00221192,-0.22898460,-0.07663805,-0.03355604,0.59738776,0.02
 948346,0.00139789,0.01437799,-0.02053956,-0.00319814,-0.00684690,-0.00
 020009,0.00021188,-0.00030018,-0.00970016,-0.04719457,0.01333737,0.000
 86056,-0.00327099,0.00353673,-0.14533667,-0.22762929,0.00225379,0.0381
 3778,0.70056672,-0.00813298,0.03545443,-0.00020356,-0.01687077,-0.0064
 5453,-0.00595417,-0.00019722,-0.00043553,-0.00045356,0.01899936,-0.004
 12875,0.01313699,-0.00210837,0.00363399,0.00494950,-0.01161638,0.02632
 582,-0.07494594,0.15045119,-0.16916499,0.23777552,-0.00365906,0.001705
 51,-0.00388274,-0.00061640,-0.00094861,0.00051893,0.00005587,0.0000975
 1,0.00016341,-0.00215408,-0.00348919,-0.00202738,0.00033887,-0.0010906
 6,0.00041937,0.00828597,-0.02100724,0.00817037,-0.06147527,0.04124544,
 -0.02159156,0.06099492,0.00085851,0.00105747,0.00183520,-0.00022911,0.
 00032016,-0.00057851,0.00011848,-0.00009645,-0.00008888,-0.00372427,-0
 .00016807,0.00093670,0.00035190,-0.00061224,0.00035999,0.00534627,-0.0
 1246977,0.00719262,0.04240327,-0.30155781,0.09938370,-0.04325957,0.315
 40200,-0.00361029,0.00211608,0.00391947,0.00028161,-0.00082828,-0.0008
 7123,0.00015702,-0.00009604,-0.00041574,-0.00193510,0.00100635,0.00581
 631,-0.00004068,-0.00014357,0.00016374,-0.00026531,-0.00201699,0.00469
 774,-0.02203873,0.09894919,-0.07645969,0.02649243,-0.10783165,0.068578
 11,-0.09170744,0.02170339,-0.01966008,0.05197455,-0.01093532,0.0199034
 3,-0.00145079,-0.00188383,-0.00202358,-0.02788207,0.03866761,-0.020752
 01,0.00043244,0.00072713,0.00018238,-0.05093930,-0.05657913,-0.0019192
 8,-0.26218584,0.09176630,-0.09846014,-0.00325626,-0.00259563,-0.001650
 25,0.49109741,0.04676407,-0.31173503,0.09813861,-0.05514777,-0.0473806
 2,-0.00249166,-0.00413015,-0.00061895,0.00066312,0.03720159,-0.0384947
 6,0.02410822,0.00143254,-0.00056775,0.00044159,0.00571253,0.06054643,-
 0.01542256,0.01193365,-0.12523849,0.02368511,0.02460734,-0.00279801,0.
 01075261,-0.00746496,0.55602705,-0.02757127,0.08930850,-0.09407093,0.0
 3408562,0.01287579,0.01270689,-0.00130206,0.00146631,0.00510449,-0.020
 29157,0.02461703,-0.01874931,-0.00004676,0.00019715,-0.00082313,-0.021
 79973,-0.03715441,0.01044538,-0.07303573,0.05168712,-0.10593897,-0.010
 37636,0.00123309,-0.00009891,0.13311048,-0.14257257,0.21042569,0.00024
 843,-0.00047363,0.00063508,0.00227264,0.00010379,-0.00156495,-0.000114
 05,-0.00010698,0.00006856,0.00031548,-0.00128268,-0.00087552,0.0000423
 8,0.00060579,0.00125835,-0.28638148,0.05953578,-0.10579996,-0.01472135
 ,0.00674122,-0.00862175,0.00039643,0.00053451,0.00145082,0.00000555,-0
 .00319494,-0.00145732,0.29904637,-0.00064836,-0.00134029,-0.00015750,0
 .00046739,-0.00411364,0.00359610,0.00121293,-0.00019703,0.00041958,0.0
 2586763,-0.00173917,0.01088139,-0.00001694,0.00068694,-0.00153006,0.05
 971877,-0.07228995,0.03181543,-0.02068823,0.00826352,-0.00867676,0.001
 07539,0.00041816,-0.00110632,-0.00348992,-0.00112632,0.00140353,-0.062
 16854,0.07184633,0.00068921,-0.00007864,-0.00085069,-0.00168730,0.0034
 5250,0.00494903,-0.00035183,-0.00004301,-0.00032152,-0.00950602,0.0013
 5892,0.00021709,0.00145054,-0.00131511,-0.00316338,-0.10586552,0.03178
 036,-0.08515291,0.00011913,0.00094616,0.00349973,0.00127406,-0.0013041
 9,-0.00336716,-0.00135987,0.00148744,0.00612801,0.11515459,-0.03626988
 ,0.07815745,-0.00372202,-0.01573591,0.00326237,0.00082557,0.00092009,-
 0.00135624,-0.00030880,-0.00009676,0.00001312,-0.00113769,-0.00236327,
 0.00037116,-0.00009844,-0.00007666,0.00021020,-0.00145110,0.00580446,-
 0.00400586,-0.02933334,-0.03245829,-0.00185138,0.00108902,0.00019564,0
 .00115848,-0.10608827,-0.05771390,-0.01131532,-0.00111041,-0.00133013,
 0.00008302,0.14133547,-0.02708089,-0.03029661,0.00064149,0.00299061,-0
 .00202498,0.00293358,-0.00096178,-0.00043891,-0.00027298,-0.00189496,-
 0.00039205,-0.00054704,-0.00013378,0.00000731,-0.00025485,-0.00041350,
 0.00162287,0.00087938,-0.00621453,-0.00235071,0.00037752,0.00106408,0.
 00050455,-0.00080139,-0.06991565,-0.08861356,-0.00306155,-0.00029432,-
 0.00040856,-0.00001455,0.10285474,0.12239065,0.00686034,0.00460538,0.0
 0238464,-0.00200893,0.00223988,0.00254250,0.00028620,0.00002602,-0.000
 15940,0.00022756,-0.00069539,0.00025260,0.00023147,-0.00023311,-0.0004
 8170,-0.00203500,0.00301661,0.00305990,-0.01021256,-0.00877628,0.00459
 416,0.00083946,-0.00113808,-0.00196263,-0.00737107,0.00121008,-0.02512
 922,-0.00024789,-0.00037552,-0.00009564,0.01343044,0.00012041,0.014994
 78\\0.00000512,0.00000511,-0.00001231,0.00000443,-0.00000002,-0.000001
 19,0.00000754,0.00000076,-0.00000232,-0.00000036,-0.00000004,0.0000079
 2,-0.00000040,0.00000030,0.00001539,-0.00000394,-0.00000019,0.00000857
 ,-0.00000291,-0.00000006,-0.00000079,-0.00000612,-0.00000074,-0.000000
 34,0.00000146,-0.00000436,-0.00000885,-0.00000706,-0.00000054,0.000016
 26,0.00000225,-0.00000021,-0.00002234\\\@
 The archive entry for this job was punched.


 THERE IS NO SCIENCE WITHOUT FANCY, NOR ART WITHOUT FACTS.
     -- VLADIMIR NABAKOV
 Job cpu time:       0 days  0 hours 27 minutes 53.9 seconds.
 Elapsed time:       0 days  0 hours  0 minutes 55.3 seconds.
 File lengths (MBytes):  RWF=    109 Int=      0 D2E=      0 Chk=     11 Scr=      1
 Normal termination of Gaussian 16 at Fri May  9 07:52:51 2025.
