/home/tahminaafroz
cn011.cluster.local
tahminaafroz
Sat Apr 26 20:02:52 CDT 2025
 Entering Gaussian System, Link 0=g16
 Initial command:
 /home/apps/g16/l1.exe "/tmp/2-Me-phboh2-opt-freq-thf/Gau-1392619.inp" -scrdir="/tmp/2-Me-phboh2-opt-freq-thf/"
 Entering Link 1 = /home/apps/g16/l1.exe PID=   1392620.
  
 Copyright (c) 1988-2019, Gaussian, Inc.  All Rights Reserved.
  
 This is part of the Gaussian(R) 16 program.  It is based on
 the Gaussian(R) 09 system (copyright 2009, Gaussian, Inc.),
 the Gaussian(R) 03 system (copyright 2003, Gaussian, Inc.),
 the Gaussian(R) 98 system (copyright 1998, Gaussian, Inc.),
 the Gaussian(R) 94 system (copyright 1995, Gaussian, Inc.),
 the Gaussian 92(TM) system (copyright 1992, Gaussian, Inc.),
 the Gaussian 90(TM) system (copyright 1990, Gaussian, Inc.),
 the Gaussian 88(TM) system (copyright 1988, Gaussian, Inc.),
 the Gaussian 86(TM) system (copyright 1986, Carnegie Mellon
 University), and the Gaussian 82(TM) system (copyright 1983,
 Carnegie Mellon University). Gaussian is a federally registered
 trademark of Gaussian, Inc.
  
 This software contains proprietary and confidential information,
 including trade secrets, belonging to Gaussian, Inc.
  
 This software is provided under written license and may be
 used, copied, transmitted, or stored only in accord with that
 written license.
  
 The following legend is applicable only to US Government
 contracts under FAR:
  
                    RESTRICTED RIGHTS LEGEND
  
 Use, reproduction and disclosure by the US Government is
 subject to restrictions as set forth in subparagraphs (a)
 and (c) of the Commercial Computer Software - Restricted
 Rights clause in FAR 52.227-19.
  
 Gaussian, Inc.
 340 Quinnipiac St., Bldg. 40, Wallingford CT 06492
  
  
 ---------------------------------------------------------------
 Warning -- This program may not be used in any manner that
 competes with the business of Gaussian, Inc. or will provide
 assistance to any competitor of Gaussian, Inc.  The licensee
 of this program is prohibited from giving any competitor of
 Gaussian, Inc. access to this program.  By using this program,
 the user acknowledges that Gaussian, Inc. is engaged in the
 business of creating and licensing software in the field of
 computational chemistry and represents and warrants to the
 licensee that it is not a competitor of Gaussian, Inc. and that
 it will not use this program in any manner prohibited above.
 ---------------------------------------------------------------
  

 Cite this work as:
 Gaussian 16, Revision C.01,
 M. J. Frisch, G. W. Trucks, H. B. Schlegel, G. E. Scuseria, 
 M. A. Robb, J. R. Cheeseman, G. Scalmani, V. Barone, 
 G. A. Petersson, H. Nakatsuji, X. Li, M. Caricato, A. V. Marenich, 
 J. Bloino, B. G. Janesko, R. Gomperts, B. Mennucci, H. P. Hratchian, 
 J. V. Ortiz, A. F. Izmaylov, J. L. Sonnenberg, D. Williams-Young, 
 F. Ding, F. Lipparini, F. Egidi, J. Goings, B. Peng, A. Petrone, 
 T. Henderson, D. Ranasinghe, V. G. Zakrzewski, J. Gao, N. Rega, 
 G. Zheng, W. Liang, M. Hada, M. Ehara, K. Toyota, R. Fukuda, 
 J. Hasegawa, M. Ishida, T. Nakajima, Y. Honda, O. Kitao, H. Nakai, 
 T. Vreven, K. Throssell, J. A. Montgomery, Jr., J. E. Peralta, 
 F. Ogliaro, M. J. Bearpark, J. J. Heyd, E. N. Brothers, K. N. Kudin, 
 V. N. Staroverov, T. A. Keith, R. Kobayashi, J. Normand, 
 K. Raghavachari, A. P. Rendell, J. C. Burant, S. S. Iyengar, 
 J. Tomasi, M. Cossi, J. M. Millam, M. Klene, C. Adamo, R. Cammi, 
 J. W. Ochterski, R. L. Martin, K. Morokuma, O. Farkas, 
 J. B. Foresman, and D. J. Fox, Gaussian, Inc., Wallingford CT, 2019.
 
 ******************************************
 Gaussian 16:  AS64L-G16RevC.01  3-Jul-2019
                26-Apr-2025 
 ******************************************
 %mem=20GB
 %nprocshared=32
 Will use up to   32 processors via shared memory.
 %chk=2-Me-phboh2-opt-freq-thf.chk
 ----------------------------------------------------------------------
 # opt=(calcfc,tight) freq 6-311+g(d,p) scrf=(smd,solvent=thf) nosymm s
 cf=(qc,fermi,xqc) geom=connectivity int=ultrafine m062x
 ----------------------------------------------------------------------
 1/7=10,10=4,18=20,19=15,26=6,38=1,57=2/1,3;
 2/9=110,12=2,15=1,17=6,18=5,40=1/2;
 3/5=4,6=6,7=111,11=2,25=1,30=1,70=32201,71=2,72=20,74=-55,75=-5,140=1/1,2,3;
 4//1;
 5/5=2,22=13,38=5,53=20/2;
 8/6=4,10=90,11=11/1;
 11/6=1,8=1,9=11,15=111,16=1,31=1/1,2,10;
 10/6=1,13=1,31=1/2;
 6/7=2,8=2,9=2,10=2,28=1/1;
 7/10=1,25=1,30=1/1,2,3,16;
 1/7=10,10=4,18=20,19=15,26=6/3(2);
 2/9=110,15=1/2;
 99//99;
 2/9=110,15=1/2;
 3/5=4,6=6,7=111,11=2,25=1,30=1,70=32205,71=1,72=20,74=-55,75=-5/1,2,3;
 4/5=5,16=3,69=1/1;
 5/5=2,22=13,38=5,53=20/2;
 7/30=1/1,2,3,16;
 1/7=10,18=20,19=15,26=6/3(-5);
 2/9=110,15=1/2;
 6/7=2,8=2,9=2,10=2,19=2,28=1/1;
 99/9=1/99;
 ------------------------
 2-Me-phboh2-opt-freq-thf
 ------------------------
 Symbolic Z-matrix:
 Charge =  0 Multiplicity = 1
 O                     8.84764   7.01942   5.26472 
 H                     9.59527   6.64159   5.73811 
 C                     6.29635   7.01702   5.13202 
 B                     7.66314   6.54773   5.74637 
 O                     7.7287    5.63919   6.77178 
 H                     6.87363   5.40477   7.13719 
 C                     5.19872   6.15089   5.22058 
 H                     5.31855   5.17588   5.68608 
 C                     3.9536    6.48003   4.69867 
 H                     3.1262    5.7848    4.77374 
 C                     3.78814   7.71146   4.07851 
 C                     4.86396   8.5872    3.98074 
 H                     4.72624   9.54812   3.49633 
 C                     6.12158   8.25997   4.48924 
 H                     2.82445   7.99209   3.66927 
 C                     7.25246   9.2473    4.33732 
 H                     7.74472   9.44032   5.29176 
 H                     8.01877   8.85904   3.66433 
 H                     6.88169   10.19244   3.93914 
 

 GradGradGradGradGradGradGradGradGradGradGradGradGradGradGradGradGradGrad
 Berny optimization.
 Initialization pass.
                           ----------------------------
                           !    Initial Parameters    !
                           ! (Angstroms and Degrees)  !
 --------------------------                            --------------------------
 ! Name  Definition              Value          Derivative Info.                !
 --------------------------------------------------------------------------------
 ! R1    R(1,2)                  0.9622         calculate D2E/DX2 analytically  !
 ! R2    R(1,4)                  1.3629         calculate D2E/DX2 analytically  !
 ! R3    R(3,4)                  1.5703         calculate D2E/DX2 analytically  !
 ! R4    R(3,7)                  1.401          calculate D2E/DX2 analytically  !
 ! R5    R(3,14)                 1.4102         calculate D2E/DX2 analytically  !
 ! R6    R(4,5)                  1.3716         calculate D2E/DX2 analytically  !
 ! R7    R(5,6)                  0.959          calculate D2E/DX2 analytically  !
 ! R8    R(7,8)                  1.0871         calculate D2E/DX2 analytically  !
 ! R9    R(7,9)                  1.3896         calculate D2E/DX2 analytically  !
 ! R10   R(9,10)                 1.0833         calculate D2E/DX2 analytically  !
 ! R11   R(9,11)                 1.3887         calculate D2E/DX2 analytically  !
 ! R12   R(11,12)                1.3906         calculate D2E/DX2 analytically  !
 ! R13   R(11,15)                1.0839         calculate D2E/DX2 analytically  !
 ! R14   R(12,13)                1.0849         calculate D2E/DX2 analytically  !
 ! R15   R(12,14)                1.3954         calculate D2E/DX2 analytically  !
 ! R16   R(14,16)                1.5089         calculate D2E/DX2 analytically  !
 ! R17   R(16,17)                1.0911         calculate D2E/DX2 analytically  !
 ! R18   R(16,18)                1.0913         calculate D2E/DX2 analytically  !
 ! R19   R(16,19)                1.0906         calculate D2E/DX2 analytically  !
 ! A1    A(2,1,4)              111.4393         calculate D2E/DX2 analytically  !
 ! A2    A(4,3,7)              118.1925         calculate D2E/DX2 analytically  !
 ! A3    A(4,3,14)             123.3409         calculate D2E/DX2 analytically  !
 ! A4    A(7,3,14)             118.4651         calculate D2E/DX2 analytically  !
 ! A5    A(1,4,3)              120.9823         calculate D2E/DX2 analytically  !
 ! A6    A(1,4,5)              116.867          calculate D2E/DX2 analytically  !
 ! A7    A(3,4,5)              122.1454         calculate D2E/DX2 analytically  !
 ! A8    A(4,5,6)              113.8399         calculate D2E/DX2 analytically  !
 ! A9    A(3,7,8)              119.6836         calculate D2E/DX2 analytically  !
 ! A10   A(3,7,9)              122.1282         calculate D2E/DX2 analytically  !
 ! A11   A(8,7,9)              118.1668         calculate D2E/DX2 analytically  !
 ! A12   A(7,9,10)             120.4184         calculate D2E/DX2 analytically  !
 ! A13   A(7,9,11)             118.9817         calculate D2E/DX2 analytically  !
 ! A14   A(10,9,11)            120.5999         calculate D2E/DX2 analytically  !
 ! A15   A(9,11,12)            119.8452         calculate D2E/DX2 analytically  !
 ! A16   A(9,11,15)            120.2736         calculate D2E/DX2 analytically  !
 ! A17   A(12,11,15)           119.8811         calculate D2E/DX2 analytically  !
 ! A18   A(11,12,13)           119.4043         calculate D2E/DX2 analytically  !
 ! A19   A(11,12,14)           121.5952         calculate D2E/DX2 analytically  !
 ! A20   A(13,12,14)           119.0004         calculate D2E/DX2 analytically  !
 ! A21   A(3,14,12)            118.9782         calculate D2E/DX2 analytically  !
 ! A22   A(3,14,16)            121.988          calculate D2E/DX2 analytically  !
 ! A23   A(12,14,16)           119.0337         calculate D2E/DX2 analytically  !
 ! A24   A(14,16,17)           111.4575         calculate D2E/DX2 analytically  !
 ! A25   A(14,16,18)           110.8287         calculate D2E/DX2 analytically  !
 ! A26   A(14,16,19)           110.4283         calculate D2E/DX2 analytically  !
 ! A27   A(17,16,18)           106.5941         calculate D2E/DX2 analytically  !
 ! A28   A(17,16,19)           108.6298         calculate D2E/DX2 analytically  !
 ! A29   A(18,16,19)           108.7789         calculate D2E/DX2 analytically  !
 ! D1    D(2,1,4,3)           -179.8956         calculate D2E/DX2 analytically  !
 ! D2    D(2,1,4,5)             -0.7211         calculate D2E/DX2 analytically  !
 ! D3    D(7,3,4,1)            153.1245         calculate D2E/DX2 analytically  !
 ! D4    D(7,3,4,5)            -26.0058         calculate D2E/DX2 analytically  !
 ! D5    D(14,3,4,1)           -26.4316         calculate D2E/DX2 analytically  !
 ! D6    D(14,3,4,5)           154.4381         calculate D2E/DX2 analytically  !
 ! D7    D(4,3,7,8)             -1.3589         calculate D2E/DX2 analytically  !
 ! D8    D(4,3,7,9)           -179.6458         calculate D2E/DX2 analytically  !
 ! D9    D(14,3,7,8)           178.2193         calculate D2E/DX2 analytically  !
 ! D10   D(14,3,7,9)            -0.0676         calculate D2E/DX2 analytically  !
 ! D11   D(4,3,14,12)         -179.7169         calculate D2E/DX2 analytically  !
 ! D12   D(4,3,14,16)            0.1607         calculate D2E/DX2 analytically  !
 ! D13   D(7,3,14,12)            0.7281         calculate D2E/DX2 analytically  !
 ! D14   D(7,3,14,16)         -179.3943         calculate D2E/DX2 analytically  !
 ! D15   D(1,4,5,6)            174.0426         calculate D2E/DX2 analytically  !
 ! D16   D(3,4,5,6)             -6.7932         calculate D2E/DX2 analytically  !
 ! D17   D(3,7,9,10)           179.3691         calculate D2E/DX2 analytically  !
 ! D18   D(3,7,9,11)            -0.5249         calculate D2E/DX2 analytically  !
 ! D19   D(8,7,9,10)             1.0573         calculate D2E/DX2 analytically  !
 ! D20   D(8,7,9,11)          -178.8367         calculate D2E/DX2 analytically  !
 ! D21   D(7,9,11,12)            0.445          calculate D2E/DX2 analytically  !
 ! D22   D(7,9,11,15)         -179.6405         calculate D2E/DX2 analytically  !
 ! D23   D(10,9,11,12)        -179.4488         calculate D2E/DX2 analytically  !
 ! D24   D(10,9,11,15)           0.4657         calculate D2E/DX2 analytically  !
 ! D25   D(9,11,12,13)        -179.8944         calculate D2E/DX2 analytically  !
 ! D26   D(9,11,12,14)           0.2266         calculate D2E/DX2 analytically  !
 ! D27   D(15,11,12,13)          0.1907         calculate D2E/DX2 analytically  !
 ! D28   D(15,11,12,14)       -179.6883         calculate D2E/DX2 analytically  !
 ! D29   D(11,12,14,3)          -0.8201         calculate D2E/DX2 analytically  !
 ! D30   D(11,12,14,16)        179.2987         calculate D2E/DX2 analytically  !
 ! D31   D(13,12,14,3)         179.3004         calculate D2E/DX2 analytically  !
 ! D32   D(13,12,14,16)         -0.5808         calculate D2E/DX2 analytically  !
 ! D33   D(3,14,16,17)         -51.3986         calculate D2E/DX2 analytically  !
 ! D34   D(3,14,16,18)          67.1463         calculate D2E/DX2 analytically  !
 ! D35   D(3,14,16,19)        -172.2407         calculate D2E/DX2 analytically  !
 ! D36   D(12,14,16,17)        128.4789         calculate D2E/DX2 analytically  !
 ! D37   D(12,14,16,18)       -112.9762         calculate D2E/DX2 analytically  !
 ! D38   D(12,14,16,19)          7.6368         calculate D2E/DX2 analytically  !
 --------------------------------------------------------------------------------
 Trust Radius=3.00D-01 FncErr=5.00D-06 GrdErr=5.00D-06 EigMax=2.50D+02 EigMin=1.00D-04
 Number of steps in this run=     96 maximum allowed number of steps=    114.
 GradGradGradGradGradGradGradGradGradGradGradGradGradGradGradGradGradGrad

                          Input orientation:                          
 ---------------------------------------------------------------------
 Center     Atomic      Atomic             Coordinates (Angstroms)
 Number     Number       Type             X           Y           Z
 ---------------------------------------------------------------------
      1          8           0        8.847644    7.019424    5.264716
      2          1           0        9.595273    6.641589    5.738112
      3          6           0        6.296346    7.017022    5.132020
      4          5           0        7.663137    6.547726    5.746373
      5          8           0        7.728698    5.639189    6.771777
      6          1           0        6.873629    5.404766    7.137188
      7          6           0        5.198723    6.150892    5.220581
      8          1           0        5.318548    5.175884    5.686079
      9          6           0        3.953601    6.480035    4.698670
     10          1           0        3.126204    5.784800    4.773737
     11          6           0        3.788137    7.711456    4.078514
     12          6           0        4.863955    8.587203    3.980741
     13          1           0        4.726235    9.548118    3.496326
     14          6           0        6.121579    8.259974    4.489240
     15          1           0        2.824448    7.992090    3.669270
     16          6           0        7.252463    9.247300    4.337324
     17          1           0        7.744720    9.440321    5.291764
     18          1           0        8.018770    8.859039    3.664329
     19          1           0        6.881690   10.192441    3.939144
 ---------------------------------------------------------------------
                    Distance matrix (angstroms):
                    1          2          3          4          5
     1  O    0.000000
     2  H    0.962191   0.000000
     3  C    2.554748   3.375088   0.000000
     4  B    1.362919   1.934432   1.570282   0.000000
     5  O    2.329876   2.357408   2.576598   1.371565   0.000000
     6  H    3.163860   3.300680   2.636916   1.965718   0.958969
     7  C    3.751123   4.454018   1.401000   2.550935   3.011449
     8  H    4.003836   4.521214   2.157049   2.717109   2.683694
     9  C    4.956108   5.738903   2.442253   3.855246   4.388183
    10  H    5.873690   6.596435   3.420020   4.702323   5.019593
    11  C    5.242575   6.133654   2.807708   4.376259   5.203458
    12  C    4.469486   5.409172   2.417159   3.887460   4.968644
    13  H    5.148544   6.097626   3.398116   4.763450   5.918031
    14  C    3.093826   4.030558   1.410191   2.624610   3.829010
    15  H    6.306379   7.207498   3.891590   5.460170   6.262057
    16  C    2.892765   3.773685   2.553398   3.072747   4.378564
    17  H    2.660435   3.384771   2.827664   2.929237   4.079130
    18  H    2.575355   3.420968   2.917857   3.131062   4.484173
    19  H    3.961080   4.817506   3.442218   4.142546   5.428935
                    6          7          8          9         10
     6  H    0.000000
     7  C    2.652432   0.000000
     8  H    2.139248   1.087054   0.000000
     9  C    3.953370   1.389624   2.130462   0.000000
    10  H    4.446743   2.151518   2.451432   1.083316   0.000000
    11  C    4.919001   2.393623   3.369799   1.388657   2.152555
    12  C    4.912215   2.754067   3.840824   2.405062   3.391472
    13  H    5.918998   3.838938   4.925676   3.384631   4.284208
    14  C    3.966033   2.415523   3.404246   2.812858   3.896113
    15  H    5.925923   3.381384   4.268380   2.149642   2.486571
    16  C    4.769468   3.819127   4.704848   4.320974   5.404200
    17  H    4.522178   4.160230   4.922115   4.846405   5.912857
    18  H    5.030318   4.208164   4.994427   4.822356   5.883786
    19  H    5.757550   4.561642   5.537241   4.788794   5.850429
                   11         12         13         14         15
    11  C    0.000000
    12  C    1.390639   0.000000
    13  H    2.142965   1.084888   0.000000
    14  C    2.431978   1.395446   2.142937   0.000000
    15  H    1.083943   2.147269   2.463316   3.408106   0.000000
    16  C    3.798336   2.503567   2.679477   1.508903   4.650717
    17  H    4.485031   3.278017   3.513754   2.161446   5.379492
    18  H    4.403039   3.182274   3.368062   2.153762   5.266176
    19  H    3.967969   2.578716   2.292864   2.148209   4.623374
                   16         17         18         19
    16  C    0.000000
    17  H    1.091114   0.000000
    18  H    1.091281   1.749725   0.000000
    19  H    1.090556   1.772029   1.773819   0.000000
 Symmetry turned off by external request.
 Stoichiometry    C7H9BO2
 Framework group  C1[X(C7H9BO2)]
 Deg. of freedom    51
 Full point group                 C1      NOp   1
 Rotational constants (GHZ):           2.1892469           1.0989944           0.7520594
 Standard basis: 6-311+G(d,p) (5D, 7F)
   274 basis functions,   432 primitive gaussians,   284 cartesian basis functions
    36 alpha electrons       36 beta electrons
       nuclear repulsion energy       485.6369364587 Hartrees.
 NAtoms=   19 NActive=   19 NUniq=   19 SFac= 1.00D+00 NAtFMM=   60 NAOKFM=F Big=F
 Integral buffers will be    131072 words long.
 Raffenetti 2 integral format.
 Two-electron integral symmetry is turned off.
 Force inversion solution in PCM.
 ------------------------------------------------------------------------------
 Polarizable Continuum Model (PCM)
 =================================
 Model                : PCM.
 Atomic radii         : SMD-Coulomb.
 Polarization charges : Total charges.
 Charge compensation  : None.
 Solution method      : Matrix inversion.
 Cavity type          : VdW (van der Waals Surface) (Alpha=1.000).
 Cavity algorithm     : GePol (No added spheres)
                        Default sphere list used, NSphG=   19.
                        Lebedev-Laikov grids with approx.  5.0 points / Ang**2.
                        Smoothing algorithm: York/Karplus (Gamma=1.0000).
                        Polarization charges: spherical gaussians, with
                                              point-specific exponents (IZeta= 3).
                        Self-potential: point-specific (ISelfS= 7).
                        Self-field    : sphere-specific E.n sum rule (ISelfD= 2).
 1st derivatives      : Analytical E(r).r(x)/FMM algorithm (CHGder, D1EAlg=3).
                        Cavity 1st derivative terms included.
 2nd derivatives      : Analytical E(r).r(xy)/FMM algorithm (CHGder, D2EAlg=3).
                        Cavity 2nd derivative terms included.
 Solvent              : TetraHydroFuran, Eps=   7.425700 Eps(inf)=   1.974025
 ------------------------------------------------------------------------------
 Spheres list:
 ISph  on   Nord     Re0    Alpha      Xe            Ye            Ze
    1   O      1    2.2940  1.000      8.847644      7.019424      5.264716
    2   H      2    1.2000  1.000      9.595273      6.641589      5.738112
    3   C      3    1.8500  1.000      6.296346      7.017022      5.132020
    4   B      4    1.8000  1.000      7.663137      6.547726      5.746373
    5   O      5    2.2940  1.000      7.728698      5.639189      6.771777
    6   H      6    1.2000  1.000      6.873629      5.404766      7.137188
    7   C      7    1.8500  1.000      5.198723      6.150892      5.220581
    8   H      8    1.2000  1.000      5.318548      5.175884      5.686079
    9   C      9    1.8500  1.000      3.953601      6.480035      4.698670
   10   H     10    1.2000  1.000      3.126204      5.784800      4.773737
   11   C     11    1.8500  1.000      3.788137      7.711456      4.078514
   12   C     12    1.8500  1.000      4.863955      8.587203      3.980741
   13   H     13    1.2000  1.000      4.726235      9.548118      3.496326
   14   C     14    1.8500  1.000      6.121579      8.259974      4.489240
   15   H     15    1.2000  1.000      2.824448      7.992090      3.669270
   16   C     16    1.8500  1.000      7.252463      9.247300      4.337324
   17   H     17    1.2000  1.000      7.744720      9.440321      5.291764
   18   H     18    1.2000  1.000      8.018770      8.859039      3.664329
   19   H     19    1.2000  1.000      6.881690     10.192441      3.939144
 ------------------------------------------------------------------------------
 ------------------------------------------------------------------------------
 Atomic radii for non-electrostatic terms: SMD-CDS.
 ------------------------------------------------------------------------------
 Nuclear repulsion after PCM non-electrostatic terms =      485.6327706596 Hartrees.
 One-electron integrals computed using PRISM.
 NBasis=   274 RedAO= T EigKep=  1.44D-06  NBF=   274
 NBsUse=   274 1.00D-06 EigRej= -1.00D+00 NBFU=   274
 ExpMin= 3.15D-02 ExpMax= 8.59D+03 ExpMxC= 1.30D+03 IAcc=3 IRadAn=         5 AccDes= 0.00D+00
 Harris functional with IExCor= 1009 and IRadAn=       5 diagonalized for initial guess.
 HarFok:  IExCor= 1009 AccDes= 0.00D+00 IRadAn=         5 IDoV= 1 UseB2=F ITyADJ=14
 ICtDFT=  3500011 ScaDFX=  1.000000  1.000000  1.000000  1.000000
 FoFCou: FMM=F IPFlag=           0 FMFlag=      100000 FMFlg1=           0
         NFxFlg=           0 DoJE=T BraDBF=F KetDBF=T FulRan=T
         wScrn=  0.000000 ICntrl=       500 IOpCl=  0 I1Cent=   200000004 NGrid=           0
         NMat0=    1 NMatS0=      1 NMatT0=    0 NMatD0=    1 NMtDS0=    0 NMtDT0=    0
 Symmetry not used in FoFCou.
 Requested convergence on RMS density matrix=1.00D-08 within 128 cycles.
 Requested convergence on MAX density matrix=1.00D-06.
 Requested convergence on             energy=1.00D-06.
 Level shift goal  0.100 maximum shift  0.100.
 No special actions if energy rises.
 Dynamic level shift is on during FON iterations.
 Inv3:  Mode=1 IEnd=     7300800.
 Iteration    1 A*A^-1 deviation from unit magnitude is 4.11D-15 for    254.
 Iteration    1 A*A^-1 deviation from orthogonality  is 2.19D-15 for    637    336.
 Iteration    1 A^-1*A deviation from unit magnitude is 4.00D-15 for   1560.
 Iteration    1 A^-1*A deviation from orthogonality  is 1.92D-14 for    614    596.
 Error on total polarization charges =  0.03024
 SCF Done:  E(RM062X) =  -447.542348714     A.U. after   14 cycles
            NFock= 14  Conv=0.40D-08     -V/T= 2.0038
 SMD-CDS (non-electrostatic) energy       (kcal/mol) =      -2.61
 (included in total energy above)
 DoSCS=F DFT=T ScalE2(SS,OS)=  1.000000  1.000000
 Range of M.O.s used for correlation:     1   274
 NBasis=   274 NAE=    36 NBE=    36 NFC=     0 NFV=     0
 NROrb=    274 NOA=    36 NOB=    36 NVA=   238 NVB=   238

 **** Warning!!: The largest alpha MO coefficient is  0.16704609D+03

 Symmetrizing basis deriv contribution to polar:
 IMax=3 JMax=2 DiffMx= 0.00D+00
 G2DrvN: will do    20 centers at a time, making    1 passes.
 Calling FoFCou, ICntrl=  3107 FMM=F I1Cent=   0 AccDes= 0.00D+00.
 NEqPCM:  Using equilibrium solvation (IEInf=0, Eps=   7.4257, EpsInf=   1.9740)
 G2PCM: DoFxE=T DoFxN=T DoGrad=T DoDP/DQ/DG/TGxP=FFFF NFrqRd=   0 IEInf=0 SqF1=F DoCFld=F IF1Alg=4.
 End of G2Drv F.D. properties file   721 does not exist.
 End of G2Drv F.D. properties file   722 does not exist.
 End of G2Drv F.D. properties file   788 does not exist.
          IDoAtm=1111111111111111111
 NEqPCM:  Using equilibrium solvation (IEInf=0, Eps=   7.4257, EpsInf=   1.9740)
          Differentiating once with respect to nuclear coordinates.
 Keep R1 ints in memory in canonical form, NReq=745413662.
          There are    60 degrees of freedom in the 1st order CPHF.  IDoFFX=6 NUNeed=     0.
     54 vectors produced by pass  0 Test12= 1.43D-14 1.67D-09 XBig12= 1.81D-01 9.17D-02.
 AX will form    54 AO Fock derivatives at one time.
     54 vectors produced by pass  1 Test12= 1.43D-14 1.67D-09 XBig12= 1.35D-02 2.84D-02.
     54 vectors produced by pass  2 Test12= 1.43D-14 1.67D-09 XBig12= 3.17D-04 3.15D-03.
     54 vectors produced by pass  3 Test12= 1.43D-14 1.67D-09 XBig12= 1.87D-06 1.98D-04.
     54 vectors produced by pass  4 Test12= 1.43D-14 1.67D-09 XBig12= 1.14D-08 1.27D-05.
     54 vectors produced by pass  5 Test12= 1.43D-14 1.67D-09 XBig12= 5.31D-11 7.58D-07.
     45 vectors produced by pass  6 Test12= 1.43D-14 1.67D-09 XBig12= 2.24D-13 6.38D-08.
      5 vectors produced by pass  7 Test12= 1.43D-14 1.67D-09 XBig12= 9.57D-16 3.06D-09.
 InvSVY:  IOpt=1 It=  1 EMax= 6.11D-16
 Solved reduced A of dimension   374 with    60 vectors.
 End of Minotr F.D. properties file   721 does not exist.
 End of Minotr F.D. properties file   722 does not exist.
 End of Minotr F.D. properties file   788 does not exist.

 **********************************************************************

            Population analysis using the SCF Density.

 **********************************************************************

 Alpha  occ. eigenvalues --  -19.63314 -19.62939 -10.55414 -10.54586 -10.54357
 Alpha  occ. eigenvalues --  -10.53912 -10.53732 -10.52774 -10.52019  -7.08216
 Alpha  occ. eigenvalues --   -1.16605  -1.12827  -0.96278  -0.86872  -0.84228
 Alpha  occ. eigenvalues --   -0.77085  -0.69375  -0.66623  -0.64713  -0.62114
 Alpha  occ. eigenvalues --   -0.57899  -0.53310  -0.51795  -0.50075  -0.48876
 Alpha  occ. eigenvalues --   -0.47116  -0.46627  -0.45945  -0.44699  -0.43004
 Alpha  occ. eigenvalues --   -0.42411  -0.40146  -0.39428  -0.37370  -0.31074
 Alpha  occ. eigenvalues --   -0.29822
 Alpha virt. eigenvalues --   -0.00189   0.00220   0.01788   0.02080   0.02279
 Alpha virt. eigenvalues --    0.03302   0.04028   0.04589   0.05419   0.06761
 Alpha virt. eigenvalues --    0.07250   0.07612   0.08389   0.10051   0.10522
 Alpha virt. eigenvalues --    0.11084   0.11282   0.12416   0.12566   0.13464
 Alpha virt. eigenvalues --    0.14072   0.14397   0.15886   0.16427   0.17834
 Alpha virt. eigenvalues --    0.17908   0.18097   0.19157   0.19322   0.20033
 Alpha virt. eigenvalues --    0.20369   0.21172   0.22271   0.22347   0.22831
 Alpha virt. eigenvalues --    0.23138   0.23817   0.24081   0.24512   0.25136
 Alpha virt. eigenvalues --    0.26330   0.26717   0.27144   0.27615   0.27695
 Alpha virt. eigenvalues --    0.28593   0.30213   0.30621   0.31275   0.32321
 Alpha virt. eigenvalues --    0.33119   0.34044   0.35481   0.36647   0.38838
 Alpha virt. eigenvalues --    0.39455   0.39821   0.40319   0.41234   0.44862
 Alpha virt. eigenvalues --    0.46902   0.47546   0.49992   0.52323   0.52523
 Alpha virt. eigenvalues --    0.55360   0.56919   0.57268   0.57704   0.58199
 Alpha virt. eigenvalues --    0.59280   0.61404   0.62131   0.62906   0.63721
 Alpha virt. eigenvalues --    0.64434   0.66088   0.67131   0.68219   0.69628
 Alpha virt. eigenvalues --    0.70292   0.71474   0.71867   0.73043   0.75071
 Alpha virt. eigenvalues --    0.75425   0.76794   0.78477   0.79706   0.81165
 Alpha virt. eigenvalues --    0.84379   0.86384   0.86735   0.87969   0.89927
 Alpha virt. eigenvalues --    0.90923   0.93921   0.95696   0.95801   0.99606
 Alpha virt. eigenvalues --    1.01900   1.03233   1.04083   1.05264   1.06802
 Alpha virt. eigenvalues --    1.08039   1.08440   1.11434   1.13374   1.14083
 Alpha virt. eigenvalues --    1.14787   1.17085   1.18506   1.19463   1.20970
 Alpha virt. eigenvalues --    1.29977   1.32552   1.33975   1.35547   1.38440
 Alpha virt. eigenvalues --    1.43209   1.46414   1.48027   1.50310   1.51025
 Alpha virt. eigenvalues --    1.53255   1.53771   1.56373   1.57874   1.59075
 Alpha virt. eigenvalues --    1.60832   1.61932   1.62517   1.62849   1.64537
 Alpha virt. eigenvalues --    1.67873   1.70382   1.71188   1.74049   1.76043
 Alpha virt. eigenvalues --    1.76902   1.78100   1.78884   1.81980   1.85182
 Alpha virt. eigenvalues --    1.86041   1.89447   1.92040   1.94072   1.94556
 Alpha virt. eigenvalues --    1.95532   1.97824   1.99330   2.01476   2.02387
 Alpha virt. eigenvalues --    2.06531   2.08410   2.10334   2.10920   2.14136
 Alpha virt. eigenvalues --    2.16363   2.20485   2.25594   2.26066   2.29805
 Alpha virt. eigenvalues --    2.35757   2.42569   2.42850   2.44072   2.45288
 Alpha virt. eigenvalues --    2.51440   2.54026   2.54734   2.57082   2.60500
 Alpha virt. eigenvalues --    2.61286   2.64754   2.65550   2.67482   2.69007
 Alpha virt. eigenvalues --    2.72021   2.73195   2.74429   2.74936   2.76523
 Alpha virt. eigenvalues --    2.78524   2.79127   2.85947   2.87753   2.90264
 Alpha virt. eigenvalues --    2.90453   2.96180   2.98718   3.00040   3.03345
 Alpha virt. eigenvalues --    3.09164   3.14902   3.16831   3.25602   3.26254
 Alpha virt. eigenvalues --    3.26544   3.27861   3.31941   3.42472   3.44009
 Alpha virt. eigenvalues --    3.46897   3.53975   3.58981   3.59356   3.63176
 Alpha virt. eigenvalues --    3.66102   3.75262   3.84829   3.90813   3.92851
 Alpha virt. eigenvalues --    3.97629   4.05632   4.09071   4.16742   4.21253
 Alpha virt. eigenvalues --    4.37859   4.87017   5.11795   5.13101   5.36159
 Alpha virt. eigenvalues --    5.50394   5.68530   5.76024  14.80941  23.67844
 Alpha virt. eigenvalues --   24.00491  24.04733  24.07426  24.15407  24.17914
 Alpha virt. eigenvalues --   24.27373  50.01025  50.05054
          Condensed to atoms (all electrons):
               1          2          3          4          5          6
     1  O    7.859080   0.285301   0.124036   0.420347  -0.109790   0.015146
     2  H    0.285301   0.404864   0.029614  -0.005188  -0.012811   0.001875
     3  C    0.124036   0.029614  12.988706   0.410865  -0.209013   0.087908
     4  B    0.420347  -0.005188   0.410865   3.404456   0.373277   0.007328
     5  O   -0.109790  -0.012811  -0.209013   0.373277   7.910412   0.265436
     6  H    0.015146   0.001875   0.087908   0.007328   0.265436   0.420914
     7  C    0.146545   0.003319  -3.042484  -0.082993   0.076118  -0.080215
     8  H    0.001792   0.000006  -0.105194   0.002955   0.001334   0.004745
     9  C    0.016924   0.002424  -0.798320   0.055552   0.030775   0.017537
    10  H   -0.000015   0.000000  -0.038466  -0.000822   0.000226  -0.000039
    11  C   -0.002284  -0.000306  -1.301529  -0.015030   0.009757  -0.004934
    12  C   -0.058014  -0.006480   1.267213   0.073803  -0.001345   0.003530
    13  H    0.000138   0.000001  -0.021295  -0.000139  -0.000009   0.000002
    14  C   -0.319556  -0.016614  -1.788153  -0.036481   0.031526  -0.016286
    15  H   -0.000002   0.000000  -0.009598  -0.000315  -0.000004  -0.000001
    16  C    0.018060   0.003656  -0.755662  -0.036013   0.008411  -0.006165
    17  H   -0.011476  -0.000437   0.028938   0.003926  -0.000511   0.000143
    18  H   -0.007155   0.000453  -0.005466  -0.003768   0.000614   0.000001
    19  H    0.002952   0.000001  -0.059824   0.001395  -0.000012  -0.000004
               7          8          9         10         11         12
     1  O    0.146545   0.001792   0.016924  -0.000015  -0.002284  -0.058014
     2  H    0.003319   0.000006   0.002424   0.000000  -0.000306  -0.006480
     3  C   -3.042484  -0.105194  -0.798320  -0.038466  -1.301529   1.267213
     4  B   -0.082993   0.002955   0.055552  -0.000822  -0.015030   0.073803
     5  O    0.076118   0.001334   0.030775   0.000226   0.009757  -0.001345
     6  H   -0.080215   0.004745   0.017537  -0.000039  -0.004934   0.003530
     7  C   11.916167   0.440192  -1.640822   0.054847   0.782575  -3.397202
     8  H    0.440192   0.490089   0.067145  -0.005640   0.000460  -0.017834
     9  C   -1.640822   0.067145   8.484248   0.316398   0.035373   1.492361
    10  H    0.054847  -0.005640   0.316398   0.468021   0.038191  -0.054563
    11  C    0.782575   0.000460   0.035373   0.038191   6.277738  -1.004210
    12  C   -3.397202  -0.017834   1.492361  -0.054563  -1.004210  12.091050
    13  H    0.027701   0.000052  -0.033479  -0.000140   0.034267   0.218060
    14  C    0.443368  -0.053341  -1.796942   0.039359   1.004465  -3.377210
    15  H   -0.023289  -0.000231   0.026854  -0.005794   0.352481   0.009919
    16  C    0.319673   0.003457   0.038078   0.002250  -0.139695  -0.487357
    17  H    0.014662   0.000005  -0.003886  -0.000001   0.005269  -0.063484
    18  H    0.005599   0.000010  -0.003643  -0.000001   0.004312  -0.016753
    19  H   -0.002403   0.000008   0.001906  -0.000002   0.026265   0.097958
              13         14         15         16         17         18
     1  O    0.000138  -0.319556  -0.000002   0.018060  -0.011476  -0.007155
     2  H    0.000001  -0.016614   0.000000   0.003656  -0.000437   0.000453
     3  C   -0.021295  -1.788153  -0.009598  -0.755662   0.028938  -0.005466
     4  B   -0.000139  -0.036481  -0.000315  -0.036013   0.003926  -0.003768
     5  O   -0.000009   0.031526  -0.000004   0.008411  -0.000511   0.000614
     6  H    0.000002  -0.016286  -0.000001  -0.006165   0.000143   0.000001
     7  C    0.027701   0.443368  -0.023289   0.319673   0.014662   0.005599
     8  H    0.000052  -0.053341  -0.000231   0.003457   0.000005   0.000010
     9  C   -0.033479  -1.796942   0.026854   0.038078  -0.003886  -0.003643
    10  H   -0.000140   0.039359  -0.005794   0.002250  -0.000001  -0.000001
    11  C    0.034267   1.004465   0.352481  -0.139695   0.005269   0.004312
    12  C    0.218060  -3.377210   0.009919  -0.487357  -0.063484  -0.016753
    13  H    0.472658   0.093542  -0.005576   0.028811   0.000330   0.000202
    14  C    0.093542  11.480094  -0.007265  -0.719000   0.000248   0.044897
    15  H   -0.005576  -0.007265   0.465673   0.007145   0.000004   0.000003
    16  C    0.028811  -0.719000   0.007145   7.318333   0.379398   0.341316
    17  H    0.000330   0.000248   0.000004   0.379398   0.504621  -0.027885
    18  H    0.000202   0.044897   0.000003   0.341316  -0.027885   0.478554
    19  H    0.001202  -0.138998  -0.000011   0.441641  -0.023956  -0.023367
              19
     1  O    0.002952
     2  H    0.000001
     3  C   -0.059824
     4  B    0.001395
     5  O   -0.000012
     6  H   -0.000004
     7  C   -0.002403
     8  H    0.000008
     9  C    0.001906
    10  H   -0.000002
    11  C    0.026265
    12  C    0.097958
    13  H    0.001202
    14  C   -0.138998
    15  H   -0.000011
    16  C    0.441641
    17  H   -0.023956
    18  H   -0.023367
    19  H    0.496388
 Mulliken charges:
               1
     1  O   -0.382031
     2  H    0.310323
     3  C   -0.802277
     4  B    0.426843
     5  O   -0.374390
     6  H    0.283076
     7  C    0.038643
     8  H    0.169991
     9  C   -0.308484
    10  H    0.186191
    11  C   -0.103166
    12  C   -0.769442
    13  H    0.183672
    14  C    1.132349
    15  H    0.190007
    16  C   -0.766336
    17  H    0.194094
    18  H    0.212077
    19  H    0.178860
 Sum of Mulliken charges =   0.00000
 Mulliken charges with hydrogens summed into heavy atoms:
               1
     1  O   -0.071708
     3  C   -0.802277
     4  B    0.426843
     5  O   -0.091315
     7  C    0.208634
     9  C   -0.122292
    11  C    0.086841
    12  C   -0.585770
    14  C    1.132349
    16  C   -0.181305
 APT charges:
               1
     1  O   -0.778119
     2  H    1.873658
     3  C   -2.169815
     4  B   -0.291765
     5  O    0.818364
     6  H   -0.623512
     7  C    0.015720
     8  H   -0.185732
     9  C   -0.138479
    10  H   -0.835885
    11  C   -0.207227
    12  C   -1.328924
    13  H    1.150998
    14  C    4.435999
    15  H   -0.162210
    16  C   -4.229801
    17  H    1.540302
    18  H    0.188795
    19  H    0.927632
 Sum of APT charges =   0.00000
 APT charges with hydrogens summed into heavy atoms:
               1
     1  O    1.095539
     3  C   -2.169815
     4  B   -0.291765
     5  O    0.194853
     7  C   -0.170012
     9  C   -0.974364
    11  C   -0.369436
    12  C   -0.177926
    14  C    4.435999
    16  C   -1.573072
 Electronic spatial extent (au):  <R**2>=          31616.1301
 Charge=              0.0000 electrons
 Dipole moment (field-independent basis, Debye):
    X=             -1.0125    Y=             -0.3261    Z=              0.8138  Tot=              1.3393
 Quadrupole moment (field-independent basis, Debye-Ang):
   XX=            -65.9681   YY=            -59.9074   ZZ=            -51.6187
   XY=             -7.7180   XZ=              2.0116   YZ=              0.3101
 Traceless Quadrupole moment (field-independent basis, Debye-Ang):
   XX=             -6.8034   YY=             -0.7427   ZZ=              7.5461
   XY=             -7.7180   XZ=              2.0116   YZ=              0.3101
 Octapole moment (field-independent basis, Debye-Ang**2):
  XXX=          -1100.3590  YYY=          -1259.6375  ZZZ=           -821.6206  XYY=           -408.0921
  XXY=           -478.7992  XXZ=           -273.5110  XZZ=           -326.3513  YZZ=           -424.3290
  YYZ=           -313.1280  XYZ=             -2.8840
 Hexadecapole moment (field-independent basis, Debye-Ang**3):
 XXXX=         -13928.4978 YYYY=         -18695.0592 ZZZZ=          -8612.0447 XXXY=          -8017.8097
 XXXZ=          -5155.8249 YYYX=          -8058.2161 YYYZ=          -6466.7242 ZZZX=          -5246.2591
 ZZZY=          -6195.1848 XXYY=          -5960.1038 XXZZ=          -3637.5412 YYZZ=          -4949.2326
 XXYZ=          -1981.3913 YYXZ=          -1941.8970 ZZXY=          -2531.8606
 N-N= 4.856327706596D+02 E-N=-2.016164243713D+03  KE= 4.458590308629D+02
  Exact polarizability:       0.000       0.000       0.000       0.000       0.000       0.000
 Approx polarizability:     141.360       6.295     124.810      12.410     -21.537      96.621
 D2PCM: PCM CHGder 2nd derivatives, FixD1E=F FixD2E=F DoIter=F DoCFld=F I1PDM=0
 Calling FoFJK, ICntrl=    100127 FMM=F ISym2X=0 I1Cent= 0 IOpClX= 0 NMat=1 NMatS=1 NMatT=0.
 -------------------------------------------------------------------
 Center     Atomic                   Forces (Hartrees/Bohr)
 Number     Number              X              Y              Z
 -------------------------------------------------------------------
      1        8          -0.001024182    0.000548593   -0.001831376
      2        1           0.002278560   -0.000805122    0.001149935
      3        6          -0.000017673    0.000071027   -0.000235329
      4        5           0.000054675   -0.000416651    0.001319517
      5        8           0.002451840    0.001134211   -0.001204333
      6        1          -0.002786778   -0.001209023    0.001179970
      7        6           0.000501304   -0.001643367    0.000319854
      8        1          -0.000296373    0.000172224    0.000376317
      9        6          -0.000324037   -0.000241375    0.000009539
     10        1          -0.000223176   -0.000274698    0.000074151
     11        6          -0.000709517    0.000136326   -0.000258660
     12        6          -0.000131381    0.001108398   -0.000578939
     13        1          -0.000026911    0.000297864   -0.000133252
     14        6           0.001126655    0.000574643    0.000063620
     15        1          -0.000298571    0.000167403   -0.000154367
     16        6          -0.000569133   -0.000303337    0.000288535
     17        1          -0.000048190    0.000230874    0.000452857
     18        1           0.000086931    0.000279868   -0.000603705
     19        1          -0.000044042    0.000172140   -0.000234335
 -------------------------------------------------------------------
 Cartesian Forces:  Max     0.002786778 RMS     0.000859816
 FormGI is forming the generalized inverse of G from B-inverse, IUseBI=4.

 GradGradGradGradGradGradGradGradGradGradGradGradGradGradGradGradGradGrad
 Berny optimization.
 Internal  Forces:  Max     0.003228206 RMS     0.000667558
 Search for a local minimum.
 Step number   1 out of a maximum of   96
 All quantities printed in internal units (Hartrees-Bohrs-Radians)
 Mixed Optimization -- En-DIIS/RFO-DIIS
 Second derivative matrix not updated -- analytic derivatives used.
 ITU=  0
     Eigenvalues ---    0.00107   0.00269   0.01105   0.01193   0.01517
     Eigenvalues ---    0.01656   0.01774   0.02054   0.02207   0.02452
     Eigenvalues ---    0.02550   0.02770   0.02907   0.03904   0.05568
     Eigenvalues ---    0.05641   0.10619   0.10884   0.11499   0.11775
     Eigenvalues ---    0.12122   0.12257   0.12700   0.14411   0.14736
     Eigenvalues ---    0.15774   0.17690   0.18786   0.19066   0.19467
     Eigenvalues ---    0.19754   0.24474   0.28733   0.31945   0.32996
     Eigenvalues ---    0.34368   0.35034   0.35591   0.35604   0.36360
     Eigenvalues ---    0.36439   0.36595   0.37847   0.42473   0.45821
     Eigenvalues ---    0.47742   0.48463   0.49473   0.51712   0.54349
     Eigenvalues ---    0.55441
 RFO step:  Lambda=-2.11860951D-04 EMin= 1.07320293D-03
 Linear search not attempted -- first point.
 Iteration  1 RMS(Cart)=  0.05435686 RMS(Int)=  0.00147799
 Iteration  2 RMS(Cart)=  0.00210027 RMS(Int)=  0.00000806
 Iteration  3 RMS(Cart)=  0.00000271 RMS(Int)=  0.00000787
 Iteration  4 RMS(Cart)=  0.00000000 RMS(Int)=  0.00000787
 Variable       Old X    -DE/DX   Delta X   Delta X   Delta X     New X
                                 (Linear)    (Quad)   (Total)
    R1        1.81828   0.00265   0.00000   0.00473   0.00473   1.82301
    R2        2.57554   0.00124   0.00000   0.00186   0.00186   2.57740
    R3        2.96740   0.00131   0.00000   0.00400   0.00400   2.97140
    R4        2.64751   0.00116   0.00000   0.00181   0.00181   2.64931
    R5        2.66488   0.00183   0.00000   0.00095   0.00095   2.66582
    R6        2.59188   0.00001   0.00000  -0.00171  -0.00171   2.59017
    R7        1.81219   0.00323   0.00000   0.00620   0.00620   1.81839
    R8        2.05423  -0.00003   0.00000  -0.00003  -0.00003   2.05420
    R9        2.62601   0.00103   0.00000   0.00263   0.00263   2.62864
   R10        2.04717   0.00035   0.00000   0.00106   0.00106   2.04823
   R11        2.62418   0.00113   0.00000   0.00223   0.00224   2.62642
   R12        2.62793   0.00097   0.00000   0.00238   0.00238   2.63031
   R13        2.04836   0.00037   0.00000   0.00095   0.00095   2.04931
   R14        2.05014   0.00033   0.00000   0.00079   0.00079   2.05093
   R15        2.63701   0.00117   0.00000   0.00229   0.00228   2.63929
   R16        2.85141  -0.00017   0.00000  -0.00064  -0.00064   2.85078
   R17        2.06191   0.00042   0.00000   0.00088   0.00088   2.06279
   R18        2.06222   0.00033   0.00000   0.00189   0.00189   2.06411
   R19        2.06085   0.00025   0.00000   0.00105   0.00105   2.06190
    A1        1.94498   0.00064   0.00000   0.00667   0.00667   1.95165
    A2        2.06285  -0.00091   0.00000  -0.00249  -0.00248   2.06036
    A3        2.15270   0.00104   0.00000   0.00015   0.00015   2.15285
    A4        2.06761  -0.00013   0.00000   0.00233   0.00233   2.06993
    A5        2.11154   0.00024   0.00000  -0.00488  -0.00491   2.10663
    A6        2.03971   0.00008   0.00000   0.00669   0.00667   2.04638
    A7        2.13184  -0.00033   0.00000  -0.00197  -0.00200   2.12984
    A8        1.98688   0.00048   0.00000  -0.00146  -0.00146   1.98542
    A9        2.08887   0.00026   0.00000   0.00094   0.00093   2.08980
   A10        2.13154  -0.00015   0.00000  -0.00329  -0.00330   2.12824
   A11        2.06240  -0.00011   0.00000   0.00257   0.00256   2.06496
   A12        2.10170  -0.00024   0.00000  -0.00131  -0.00131   2.10039
   A13        2.07662   0.00030   0.00000   0.00185   0.00184   2.07847
   A14        2.10486  -0.00007   0.00000  -0.00054  -0.00054   2.10433
   A15        2.09169  -0.00001   0.00000   0.00025   0.00025   2.09194
   A16        2.09917   0.00008   0.00000   0.00024   0.00024   2.09941
   A17        2.09232  -0.00008   0.00000  -0.00049  -0.00049   2.09183
   A18        2.08400   0.00006   0.00000   0.00085   0.00085   2.08485
   A19        2.12224  -0.00008   0.00000  -0.00163  -0.00164   2.12060
   A20        2.07695   0.00002   0.00000   0.00079   0.00079   2.07774
   A21        2.07656   0.00007   0.00000   0.00054   0.00053   2.07709
   A22        2.12909   0.00116   0.00000  -0.00012  -0.00012   2.12897
   A23        2.07753  -0.00123   0.00000  -0.00043  -0.00043   2.07710
   A24        1.94530  -0.00007   0.00000   0.00073   0.00073   1.94603
   A25        1.93433   0.00036   0.00000   0.00190   0.00190   1.93622
   A26        1.92734  -0.00016   0.00000  -0.00036  -0.00036   1.92697
   A27        1.86042   0.00023   0.00000   0.00584   0.00582   1.86624
   A28        1.89595  -0.00001   0.00000  -0.00109  -0.00109   1.89486
   A29        1.89855  -0.00035   0.00000  -0.00709  -0.00710   1.89145
    D1       -3.13977   0.00014   0.00000   0.00311   0.00312  -3.13665
    D2       -0.01259  -0.00025   0.00000  -0.00930  -0.00931  -0.02190
    D3        2.67253  -0.00037   0.00000  -0.10058  -0.10056   2.57197
    D4       -0.45389   0.00004   0.00000  -0.08758  -0.08759  -0.54148
    D5       -0.46132  -0.00046   0.00000  -0.09931  -0.09929  -0.56061
    D6        2.69545  -0.00005   0.00000  -0.08631  -0.08633   2.60913
    D7       -0.02372   0.00020   0.00000   0.01757   0.01756  -0.00616
    D8       -3.13541   0.00002   0.00000   0.00885   0.00885  -3.12656
    D9        3.11051   0.00029   0.00000   0.01635   0.01635   3.12686
   D10       -0.00118   0.00011   0.00000   0.00764   0.00763   0.00645
   D11       -3.13665  -0.00003   0.00000  -0.00817  -0.00818   3.13835
   D12        0.00280  -0.00016   0.00000  -0.01424  -0.01425  -0.01144
   D13        0.01271  -0.00012   0.00000  -0.00688  -0.00689   0.00582
   D14       -3.13102  -0.00025   0.00000  -0.01295  -0.01296   3.13921
   D15        3.03762   0.00048   0.00000   0.02816   0.02818   3.06580
   D16       -0.11856   0.00009   0.00000   0.01557   0.01555  -0.10302
   D17        3.13058   0.00004   0.00000   0.00042   0.00042   3.13100
   D18       -0.00916  -0.00001   0.00000  -0.00232  -0.00232  -0.01148
   D19        0.01845  -0.00015   0.00000  -0.00814  -0.00815   0.01031
   D20       -3.12129  -0.00020   0.00000  -0.01089  -0.01089  -3.13218
   D21        0.00777  -0.00006   0.00000  -0.00369  -0.00369   0.00408
   D22       -3.13532   0.00002   0.00000   0.00078   0.00078  -3.13453
   D23       -3.13197  -0.00011   0.00000  -0.00644  -0.00644  -3.13841
   D24        0.00813  -0.00003   0.00000  -0.00197  -0.00197   0.00616
   D25       -3.13975   0.00010   0.00000   0.00707   0.00706  -3.13268
   D26        0.00396   0.00005   0.00000   0.00432   0.00432   0.00827
   D27        0.00333   0.00002   0.00000   0.00261   0.00261   0.00594
   D28       -3.13615  -0.00004   0.00000  -0.00014  -0.00014  -3.13629
   D29       -0.01431   0.00005   0.00000   0.00110   0.00110  -0.01322
   D30        3.12935   0.00017   0.00000   0.00699   0.00698   3.13634
   D31        3.12938  -0.00001   0.00000  -0.00164  -0.00164   3.12774
   D32       -0.01014   0.00011   0.00000   0.00425   0.00425  -0.00589
   D33       -0.89707  -0.00011   0.00000   0.06349   0.06348  -0.83359
   D34        1.17192   0.00036   0.00000   0.07252   0.07253   1.24445
   D35       -3.00617   0.00005   0.00000   0.06462   0.06462  -2.94154
   D36        2.24238  -0.00024   0.00000   0.05742   0.05741   2.29979
   D37       -1.97181   0.00023   0.00000   0.06645   0.06646  -1.90535
   D38        0.13329  -0.00007   0.00000   0.05855   0.05855   0.19184
         Item               Value     Threshold  Converged?
 Maximum Force            0.003228     0.000015     NO 
 RMS     Force            0.000668     0.000010     NO 
 Maximum Displacement     0.210801     0.000060     NO 
 RMS     Displacement     0.054473     0.000040     NO 
 Predicted change in Energy=-1.125847D-04
 GradGradGradGradGradGradGradGradGradGradGradGradGradGradGradGradGradGrad

                          Input orientation:                          
 ---------------------------------------------------------------------
 Center     Atomic      Atomic             Coordinates (Angstroms)
 Number     Number       Type             X           Y           Z
 ---------------------------------------------------------------------
      1          8           0        8.848987    6.932467    5.189435
      2          1           0        9.605085    6.567498    5.664568
      3          6           0        6.297059    7.013722    5.129205
      4          5           0        7.665470    6.542813    5.744132
      5          8           0        7.725764    5.706247    6.828211
      6          1           0        6.867425    5.516317    7.219500
      7          6           0        5.202429    6.141661    5.211521
      8          1           0        5.320997    5.170788    5.685861
      9          6           0        3.959548    6.468481    4.679199
     10          1           0        3.133324    5.770422    4.748886
     11          6           0        3.793098    7.701093    4.059021
     12          6           0        4.865224    8.584708    3.974455
     13          1           0        4.725678    9.548878    3.496134
     14          6           0        6.120950    8.260252    4.492651
     15          1           0        2.830777    7.978584    3.643132
     16          6           0        7.245424    9.257639    4.364000
     17          1           0        7.764200    9.400352    5.313766
     18          1           0        7.990740    8.914712    3.642900
     19          1           0        6.861621   10.222634    4.029326
 ---------------------------------------------------------------------
                    Distance matrix (angstroms):
                    1          2          3          4          5
     1  O    0.000000
     2  H    0.964696   0.000000
     3  C    2.553931   3.380646   0.000000
     4  B    1.363903   1.941403   1.572399   0.000000
     5  O    2.334702   2.372270   2.576298   1.370659   0.000000
     6  H    3.170683   3.319273   2.633794   1.966540   0.962251
     7  C    3.731387   4.446343   1.401957   2.551699   3.028282
     8  H    3.974501   4.506069   2.158464   2.717057   2.715618
     9  C    4.937837   5.731740   2.442079   3.856613   4.402685
    10  H    5.849208   6.584641   3.420477   4.703983   5.041649
    11  C    5.237426   6.135308   2.808485   4.379095   5.207080
    12  C    4.480674   5.421429   2.419006   3.891332   4.961063
    13  H    5.168612   6.115500   3.400467   4.767840   5.905004
    14  C    3.112990   4.046975   1.410692   2.627041   3.814868
    15  H    6.301131   7.208926   3.892876   5.463506   6.266510
    16  C    2.942649   3.807406   2.553448   3.074327   4.349190
    17  H    2.698643   3.396614   2.807591   2.891451   3.992673
    18  H    2.656624   3.493231   2.948122   3.185417   4.528870
    19  H    4.015055   4.853929   3.438834   4.138576   5.383145
                    6          7          8          9         10
     6  H    0.000000
     7  C    2.682395   0.000000
     8  H    2.205193   1.087037   0.000000
     9  C    3.976870   1.391018   2.133289   0.000000
    10  H    4.484642   2.152451   2.454262   1.083878   0.000000
    11  C    4.920706   2.397143   3.373948   1.389840   2.153766
    12  C    4.894297   2.759079   3.845970   2.407348   3.394028
    13  H    5.891696   3.844343   4.931225   3.387542   4.287390
    14  C    3.939811   2.418448   3.407120   2.813699   3.897541
    15  H    5.928549   3.385094   4.272898   2.151272   2.488013
    16  C    4.721679   3.821184   4.706707   4.321543   5.405386
    17  H    4.418343   4.146347   4.898663   4.844988   5.911049
    18  H    5.059940   4.233801   5.031718   4.827884   5.891033
    19  H    5.685654   4.561233   5.535230   4.789366   5.851510
                   11         12         13         14         15
    11  C    0.000000
    12  C    1.391898   0.000000
    13  H    2.144961   1.085306   0.000000
    14  C    2.433020   1.396655   2.144851   0.000000
    15  H    1.084448   2.148519   2.465376   3.409729   0.000000
    16  C    3.799263   2.503983   2.680882   1.508567   4.652390
    17  H    4.497945   3.295920   3.543792   2.162019   5.399176
    18  H    4.389331   3.160329   3.329315   2.155576   5.244192
    19  H    3.971761   2.582908   2.302281   2.148070   4.629537
                   16         17         18         19
    16  C    0.000000
    17  H    1.091582   0.000000
    18  H    1.092282   1.754696   0.000000
    19  H    1.091112   1.772168   1.770563   0.000000
 Symmetry turned off by external request.
 Stoichiometry    C7H9BO2
 Framework group  C1[X(C7H9BO2)]
 Deg. of freedom    51
 Full point group                 C1      NOp   1
 Rotational constants (GHZ):           2.1842620           1.0912204           0.7556250
 Standard basis: 6-311+G(d,p) (5D, 7F)
   274 basis functions,   432 primitive gaussians,   284 cartesian basis functions
    36 alpha electrons       36 beta electrons
       nuclear repulsion energy       485.1148942084 Hartrees.
 NAtoms=   19 NActive=   19 NUniq=   19 SFac= 1.00D+00 NAtFMM=   60 NAOKFM=F Big=F
 Integral buffers will be    131072 words long.
 Raffenetti 2 integral format.
 Two-electron integral symmetry is turned off.
 ------------------------------------------------------------------------------
 Polarizable Continuum Model (PCM)
 =================================
 Model                : PCM.
 Atomic radii         : SMD-Coulomb.
 Polarization charges : Total charges.
 Charge compensation  : None.
 Solution method      : Matrix inversion.
 Cavity type          : VdW (van der Waals Surface) (Alpha=1.000).
 Cavity algorithm     : GePol (No added spheres)
                        Default sphere list used, NSphG=   19.
                        Lebedev-Laikov grids with approx.  5.0 points / Ang**2.
                        Smoothing algorithm: York/Karplus (Gamma=1.0000).
                        Polarization charges: spherical gaussians, with
                                              point-specific exponents (IZeta= 3).
                        Self-potential: point-specific (ISelfS= 7).
                        Self-field    : sphere-specific E.n sum rule (ISelfD= 2).
 1st derivatives      : Analytical E(r).r(x)/FMM algorithm (CHGder, D1EAlg=3).
                        Cavity 1st derivative terms included.
 Solvent              : TetraHydroFuran, Eps=   7.425700 Eps(inf)=   1.974025
 ------------------------------------------------------------------------------
 Spheres list:
 ISph  on   Nord     Re0    Alpha      Xe            Ye            Ze
    1   O      1    2.2940  1.000      8.848987      6.932467      5.189435
    2   H      2    1.2000  1.000      9.605085      6.567498      5.664568
    3   C      3    1.8500  1.000      6.297059      7.013722      5.129205
    4   B      4    1.8000  1.000      7.665470      6.542813      5.744132
    5   O      5    2.2940  1.000      7.725764      5.706247      6.828211
    6   H      6    1.2000  1.000      6.867425      5.516317      7.219500
    7   C      7    1.8500  1.000      5.202429      6.141661      5.211521
    8   H      8    1.2000  1.000      5.320997      5.170788      5.685861
    9   C      9    1.8500  1.000      3.959548      6.468481      4.679199
   10   H     10    1.2000  1.000      3.133324      5.770422      4.748886
   11   C     11    1.8500  1.000      3.793098      7.701093      4.059021
   12   C     12    1.8500  1.000      4.865224      8.584708      3.974455
   13   H     13    1.2000  1.000      4.725678      9.548878      3.496134
   14   C     14    1.8500  1.000      6.120950      8.260252      4.492651
   15   H     15    1.2000  1.000      2.830777      7.978584      3.643132
   16   C     16    1.8500  1.000      7.245424      9.257639      4.364000
   17   H     17    1.2000  1.000      7.764200      9.400352      5.313766
   18   H     18    1.2000  1.000      7.990740      8.914712      3.642900
   19   H     19    1.2000  1.000      6.861621     10.222634      4.029326
 ------------------------------------------------------------------------------
 ------------------------------------------------------------------------------
 Atomic radii for non-electrostatic terms: SMD-CDS.
 ------------------------------------------------------------------------------
 Nuclear repulsion after PCM non-electrostatic terms =      485.1106814359 Hartrees.
 One-electron integrals computed using PRISM.
 NBasis=   274 RedAO= T EigKep=  1.48D-06  NBF=   274
 NBsUse=   274 1.00D-06 EigRej= -1.00D+00 NBFU=   274
 Initial guess from the checkpoint file:  "2-Me-phboh2-opt-freq-thf.chk"
 B after Tr=    -0.049330   -0.033234    0.093902
         Rot=    0.999994    0.003154   -0.000605    0.001420 Ang=   0.40 deg.
 ExpMin= 3.15D-02 ExpMax= 8.59D+03 ExpMxC= 1.30D+03 IAcc=3 IRadAn=         5 AccDes= 0.00D+00
 Harris functional with IExCor= 1009 and IRadAn=       5 diagonalized for initial guess.
 HarFok:  IExCor= 1009 AccDes= 0.00D+00 IRadAn=         5 IDoV= 1 UseB2=F ITyADJ=14
 ICtDFT=  3500011 ScaDFX=  1.000000  1.000000  1.000000  1.000000
 FoFCou: FMM=F IPFlag=           0 FMFlag=      100000 FMFlg1=           0
         NFxFlg=           0 DoJE=T BraDBF=F KetDBF=T FulRan=T
         wScrn=  0.000000 ICntrl=       500 IOpCl=  0 I1Cent=   200000004 NGrid=           0
         NMat0=    1 NMatS0=      1 NMatT0=    0 NMatD0=    1 NMtDS0=    0 NMtDT0=    0
 Symmetry not used in FoFCou.
 Requested convergence on RMS density matrix=1.00D-08 within 128 cycles.
 Requested convergence on MAX density matrix=1.00D-06.
 Requested convergence on             energy=1.00D-06.
 Level shift goal  0.100 maximum shift  0.100.
 No special actions if energy rises.
 Dynamic level shift is on during FON iterations.
 Inv3:  Mode=1 IEnd=     7338288.
 Iteration    1 A*A^-1 deviation from unit magnitude is 5.33D-15 for   1552.
 Iteration    1 A*A^-1 deviation from orthogonality  is 2.45D-15 for   1305   1081.
 Iteration    1 A^-1*A deviation from unit magnitude is 5.11D-15 for   1552.
 Iteration    1 A^-1*A deviation from orthogonality  is 7.83D-15 for    838    768.
 Error on total polarization charges =  0.03029
 SCF Done:  E(RM062X) =  -447.542448032     A.U. after   12 cycles
            NFock= 12  Conv=0.58D-08     -V/T= 2.0039
 SMD-CDS (non-electrostatic) energy       (kcal/mol) =      -2.64
 (included in total energy above)
 D1PCM: PCM CHGder 1st derivatives, ID1Alg=3 FixD1E=F DoIter=F DoCFld=F I1PDM=0.
 Calling FoFJK, ICntrl=      2127 FMM=F ISym2X=0 I1Cent= 0 IOpClX= 0 NMat=1 NMatS=1 NMatT=0.
 -------------------------------------------------------------------
 Center     Atomic                   Forces (Hartrees/Bohr)
 Number     Number              X              Y              Z
 -------------------------------------------------------------------
      1        8          -0.000048732    0.000036465   -0.000037388
      2        1           0.000023541    0.000005412    0.000035771
      3        6          -0.000022290    0.000062762   -0.000024570
      4        5          -0.000015523   -0.000024670   -0.000001224
      5        8           0.000076425    0.000093794   -0.000029618
      6        1          -0.000021897   -0.000074188   -0.000020369
      7        6          -0.000001512   -0.000025720    0.000012854
      8        1          -0.000026685    0.000016148    0.000023444
      9        6           0.000010736   -0.000008434    0.000010091
     10        1           0.000003808   -0.000006922   -0.000005882
     11        6           0.000006058    0.000020219   -0.000012368
     12        6          -0.000023445    0.000002829   -0.000017244
     13        1           0.000022598    0.000008459   -0.000016400
     14        6          -0.000002637   -0.000003804    0.000078162
     15        1           0.000001059   -0.000005350   -0.000008775
     16        6          -0.000030848    0.000022637   -0.000051720
     17        1           0.000017746   -0.000026439    0.000016255
     18        1           0.000053116   -0.000077279    0.000047201
     19        1          -0.000021519   -0.000015917    0.000001780
 -------------------------------------------------------------------
 Cartesian Forces:  Max     0.000093794 RMS     0.000033300

 GradGradGradGradGradGradGradGradGradGradGradGradGradGradGradGradGradGrad
 Berny optimization.
 Using GEDIIS/GDIIS optimizer.
 FormGI is forming the generalized inverse of G from B-inverse, IUseBI=4.
 Internal  Forces:  Max     0.000246828 RMS     0.000057183
 Search for a local minimum.
 Step number   2 out of a maximum of   96
 All quantities printed in internal units (Hartrees-Bohrs-Radians)
 Mixed Optimization -- En-DIIS/RFO-DIIS
 Swapping is turned off.
 Update second derivatives using D2CorX and points    1    2
 DE= -9.93D-05 DEPred=-1.13D-04 R= 8.82D-01
 TightC=F SS=  1.41D+00  RLast= 2.51D-01 DXNew= 5.0454D-01 7.5179D-01
 Trust test= 8.82D-01 RLast= 2.51D-01 DXMaxT set to 5.05D-01
 ITU=  1  0
     Eigenvalues ---    0.00135   0.00286   0.01095   0.01165   0.01493
     Eigenvalues ---    0.01654   0.01773   0.02062   0.02189   0.02452
     Eigenvalues ---    0.02545   0.02770   0.02907   0.03878   0.05568
     Eigenvalues ---    0.05658   0.10622   0.10885   0.11481   0.11753
     Eigenvalues ---    0.12121   0.12258   0.12699   0.14409   0.14714
     Eigenvalues ---    0.15766   0.17688   0.18786   0.19042   0.19396
     Eigenvalues ---    0.19752   0.24517   0.28695   0.31871   0.33079
     Eigenvalues ---    0.34368   0.35040   0.35574   0.35596   0.36362
     Eigenvalues ---    0.36442   0.36596   0.37809   0.42457   0.45960
     Eigenvalues ---    0.47723   0.48494   0.49544   0.50718   0.53492
     Eigenvalues ---    0.55109
 En-DIIS/RFO-DIIS/Sim-DIIS IScMMF=       -3 using points:     2    1
 RFO step:  Lambda=-8.86555989D-06.
 DidBck=T Rises=F RFO-DIIS coefs:    0.75189    0.24811
 Iteration  1 RMS(Cart)=  0.01462941 RMS(Int)=  0.00010980
 Iteration  2 RMS(Cart)=  0.00015083 RMS(Int)=  0.00000190
 Iteration  3 RMS(Cart)=  0.00000001 RMS(Int)=  0.00000190
 Variable       Old X    -DE/DX   Delta X   Delta X   Delta X     New X
                                 (Linear)    (Quad)   (Total)
    R1        1.82301   0.00003  -0.00117   0.00141   0.00024   1.82325
    R2        2.57740  -0.00001  -0.00046   0.00077   0.00031   2.57771
    R3        2.97140  -0.00002  -0.00099   0.00140   0.00041   2.97181
    R4        2.64931   0.00001  -0.00045   0.00060   0.00015   2.64947
    R5        2.66582  -0.00014  -0.00024   0.00062   0.00038   2.66620
    R6        2.59017  -0.00005   0.00042  -0.00057  -0.00014   2.59003
    R7        1.81839   0.00002  -0.00154   0.00168   0.00014   1.81853
    R8        2.05420  -0.00001   0.00001  -0.00009  -0.00009   2.05412
    R9        2.62864   0.00001  -0.00065   0.00063  -0.00003   2.62862
   R10        2.04823   0.00000  -0.00026   0.00029   0.00003   2.04826
   R11        2.62642   0.00005  -0.00055   0.00065   0.00009   2.62651
   R12        2.63031   0.00000  -0.00059   0.00055  -0.00004   2.63027
   R13        2.04931   0.00000  -0.00024   0.00028   0.00004   2.04935
   R14        2.05093   0.00001  -0.00020   0.00024   0.00004   2.05097
   R15        2.63929  -0.00001  -0.00057   0.00076   0.00019   2.63949
   R16        2.85078  -0.00005   0.00016  -0.00029  -0.00013   2.85065
   R17        2.06279   0.00002  -0.00022   0.00048   0.00026   2.06305
   R18        2.06411   0.00003  -0.00047   0.00027  -0.00019   2.06392
   R19        2.06190  -0.00001  -0.00026   0.00020  -0.00006   2.06184
    A1        1.95165  -0.00001  -0.00166   0.00111  -0.00055   1.95111
    A2        2.06036   0.00021   0.00062   0.00001   0.00062   2.06099
    A3        2.15285  -0.00025  -0.00004  -0.00008  -0.00012   2.15273
    A4        2.06993   0.00004  -0.00058   0.00006  -0.00051   2.06942
    A5        2.10663  -0.00012   0.00122  -0.00118   0.00004   2.10667
    A6        2.04638  -0.00003  -0.00166   0.00013  -0.00152   2.04487
    A7        2.12984   0.00015   0.00050   0.00100   0.00150   2.13134
    A8        1.98542   0.00004   0.00036   0.00162   0.00198   1.98740
    A9        2.08980   0.00005  -0.00023   0.00105   0.00082   2.09062
   A10        2.12824  -0.00006   0.00082  -0.00046   0.00036   2.12860
   A11        2.06496   0.00001  -0.00063  -0.00054  -0.00117   2.06379
   A12        2.10039  -0.00001   0.00032  -0.00046  -0.00014   2.10025
   A13        2.07847   0.00001  -0.00046   0.00050   0.00004   2.07851
   A14        2.10433   0.00000   0.00013  -0.00004   0.00009   2.10442
   A15        2.09194   0.00000  -0.00006  -0.00010  -0.00016   2.09178
   A16        2.09941   0.00000  -0.00006   0.00011   0.00005   2.09946
   A17        2.09183   0.00000   0.00012  -0.00001   0.00011   2.09194
   A18        2.08485   0.00005  -0.00021   0.00038   0.00017   2.08502
   A19        2.12060  -0.00005   0.00041  -0.00032   0.00009   2.12069
   A20        2.07774   0.00000  -0.00020  -0.00007  -0.00026   2.07747
   A21        2.07709   0.00006  -0.00013   0.00032   0.00019   2.07728
   A22        2.12897  -0.00018   0.00003   0.00057   0.00060   2.12957
   A23        2.07710   0.00012   0.00011  -0.00090  -0.00079   2.07631
   A24        1.94603  -0.00002  -0.00018  -0.00045  -0.00063   1.94539
   A25        1.93622  -0.00004  -0.00047   0.00090   0.00043   1.93665
   A26        1.92697  -0.00001   0.00009  -0.00045  -0.00036   1.92661
   A27        1.86624  -0.00002  -0.00145   0.00068  -0.00077   1.86548
   A28        1.89486   0.00003   0.00027  -0.00016   0.00011   1.89497
   A29        1.89145   0.00006   0.00176  -0.00050   0.00126   1.89271
    D1       -3.13665  -0.00003  -0.00077  -0.00006  -0.00084  -3.13749
    D2       -0.02190  -0.00001   0.00231  -0.00210   0.00022  -0.02168
    D3        2.57197   0.00005   0.02495  -0.00170   0.02325   2.59521
    D4       -0.54148   0.00004   0.02173   0.00045   0.02219  -0.51929
    D5       -0.56061   0.00007   0.02464  -0.00033   0.02431  -0.53631
    D6        2.60913   0.00006   0.02142   0.00183   0.02325   2.63237
    D7       -0.00616   0.00004  -0.00436   0.00581   0.00145  -0.00470
    D8       -3.12656   0.00003  -0.00220   0.00312   0.00093  -3.12563
    D9        3.12686   0.00001  -0.00406   0.00450   0.00045   3.12731
   D10        0.00645   0.00001  -0.00189   0.00182  -0.00008   0.00638
   D11        3.13835  -0.00004   0.00203  -0.00361  -0.00158   3.13678
   D12       -0.01144  -0.00001   0.00354  -0.00466  -0.00112  -0.01256
   D13        0.00582  -0.00002   0.00171  -0.00223  -0.00052   0.00530
   D14        3.13921   0.00001   0.00321  -0.00328  -0.00006   3.13915
   D15        3.06580   0.00006  -0.00699   0.01166   0.00466   3.07046
   D16       -0.10302   0.00007  -0.00386   0.00956   0.00571  -0.09731
   D17        3.13100  -0.00001  -0.00010   0.00007  -0.00004   3.13097
   D18       -0.01148   0.00000   0.00058   0.00000   0.00057  -0.01091
   D19        0.01031  -0.00001   0.00202  -0.00260  -0.00058   0.00973
   D20       -3.13218   0.00000   0.00270  -0.00267   0.00003  -3.13215
   D21        0.00408  -0.00001   0.00092  -0.00138  -0.00047   0.00361
   D22       -3.13453  -0.00001  -0.00019  -0.00067  -0.00087  -3.13540
   D23       -3.13841   0.00000   0.00160  -0.00145   0.00014  -3.13827
   D24        0.00616   0.00000   0.00049  -0.00074  -0.00025   0.00591
   D25       -3.13268  -0.00001  -0.00175   0.00109  -0.00066  -3.13335
   D26        0.00827   0.00000  -0.00107   0.00094  -0.00013   0.00814
   D27        0.00594   0.00000  -0.00065   0.00038  -0.00026   0.00568
   D28       -3.13629   0.00000   0.00003   0.00023   0.00027  -3.13602
   D29       -0.01322   0.00001  -0.00027   0.00090   0.00063  -0.01259
   D30        3.13634  -0.00002  -0.00173   0.00191   0.00018   3.13651
   D31        3.12774   0.00002   0.00041   0.00075   0.00116   3.12890
   D32       -0.00589  -0.00001  -0.00105   0.00176   0.00070  -0.00519
   D33       -0.83359  -0.00001  -0.01575  -0.00289  -0.01864  -0.85223
   D34        1.24445  -0.00008  -0.01799  -0.00174  -0.01973   1.22472
   D35       -2.94154  -0.00003  -0.01603  -0.00208  -0.01811  -2.95965
   D36        2.29979   0.00002  -0.01425  -0.00393  -0.01818   2.28162
   D37       -1.90535  -0.00004  -0.01649  -0.00278  -0.01927  -1.92462
   D38        0.19184   0.00001  -0.01453  -0.00312  -0.01765   0.17420
         Item               Value     Threshold  Converged?
 Maximum Force            0.000247     0.000015     NO 
 RMS     Force            0.000057     0.000010     NO 
 Maximum Displacement     0.069229     0.000060     NO 
 RMS     Displacement     0.014630     0.000040     NO 
 Predicted change in Energy=-4.451928D-06
 GradGradGradGradGradGradGradGradGradGradGradGradGradGradGradGradGradGrad

                          Input orientation:                          
 ---------------------------------------------------------------------
 Center     Atomic      Atomic             Coordinates (Angstroms)
 Number     Number       Type             X           Y           Z
 ---------------------------------------------------------------------
      1          8           0        8.849009    6.952626    5.204054
      2          1           0        9.605231    6.585150    5.677313
      3          6           0        6.296513    7.015051    5.131550
      4          5           0        7.665563    6.543526    5.745133
      5          8           0        7.728847    5.688665    6.814573
      6          1           0        6.871016    5.479683    7.197356
      7          6           0        5.200410    6.144995    5.216832
      8          1           0        5.316738    5.175100    5.693614
      9          6           0        3.957476    6.472233    4.684929
     10          1           0        3.130440    5.775372    4.757175
     11          6           0        3.792247    7.703299    4.061253
     12          6           0        4.865625    8.585047    3.973453
     13          1           0        4.727547    9.547857    3.491926
     14          6           0        6.121297    8.260352    4.491904
     15          1           0        2.830105    7.980786    3.644891
     16          6           0        7.246256    9.256561    4.359232
     17          1           0        7.753942    9.415108    5.312634
     18          1           0        8.000567    8.902397    3.653232
     19          1           0        6.864974   10.215463    4.004851
 ---------------------------------------------------------------------
                    Distance matrix (angstroms):
                    1          2          3          4          5
     1  O    0.000000
     2  H    0.964823   0.000000
     3  C    2.554288   3.380871   0.000000
     4  B    1.364065   1.941299   1.572615   0.000000
     5  O    2.333695   2.370203   2.577489   1.370582   0.000000
     6  H    3.171004   3.317909   2.637226   1.967745   0.962325
     7  C    3.736938   4.450644   1.402038   2.552432   3.025560
     8  H    3.984495   4.514385   2.159003   2.718864   2.708979
     9  C    4.942405   5.735391   2.442379   3.857334   4.401433
    10  H    5.855567   6.589789   3.420669   4.704621   5.038428
    11  C    5.238353   6.136179   2.809016   4.379852   5.209256
    12  C    4.477335   5.419095   2.419405   3.891826   4.965787
    13  H    5.162660   6.111084   3.400755   4.768112   5.911105
    14  C    3.107686   4.043425   1.410895   2.627324   3.820025
    15  H    6.302008   7.209776   3.893428   5.464283   6.268842
    16  C    2.930983   3.799808   2.553989   3.075240   4.357922
    17  H    2.697180   3.401312   2.813746   2.905314   4.017815
    18  H    2.631826   3.470084   2.941310   3.170576   4.516192
    19  H    4.002573   4.846164   3.440238   4.141575   5.397474
                    6          7          8          9         10
     6  H    0.000000
     7  C    2.675078   0.000000
     8  H    2.183985   1.086991   0.000000
     9  C    3.973181   1.391003   2.132509   0.000000
    10  H    4.475916   2.152366   2.452987   1.083893   0.000000
    11  C    4.925285   2.397206   3.373495   1.389890   2.153880
    12  C    4.904940   2.758972   3.845802   2.407263   3.394018
    13  H    5.905482   3.844265   4.931083   3.387585   4.287569
    14  C    3.951414   2.418324   3.407375   2.813672   3.897528
    15  H    5.933337   3.385184   4.272293   2.151366   2.488218
    16  C    4.739258   3.821362   4.707647   4.321416   5.405273
    17  H    4.451888   4.150101   4.905382   4.844345   5.910413
    18  H    5.054866   4.229538   5.025817   4.828735   5.891954
    19  H    5.711369   4.561620   5.536625   4.788301   5.850397
                   11         12         13         14         15
    11  C    0.000000
    12  C    1.391880   0.000000
    13  H    2.145067   1.085328   0.000000
    14  C    2.433155   1.396758   2.144800   0.000000
    15  H    1.084469   2.148587   2.465643   3.409917   0.000000
    16  C    3.798894   2.503430   2.679733   1.508498   4.651911
    17  H    4.493470   3.290103   3.534355   2.161617   5.392848
    18  H    4.394801   3.167194   3.339955   2.155747   5.251963
    19  H    3.969358   2.580047   2.297256   2.147728   4.626394
                   16         17         18         19
    16  C    0.000000
    17  H    1.091722   0.000000
    18  H    1.092179   1.754226   0.000000
    19  H    1.091079   1.772322   1.771257   0.000000
 Symmetry turned off by external request.
 Stoichiometry    C7H9BO2
 Framework group  C1[X(C7H9BO2)]
 Deg. of freedom    51
 Full point group                 C1      NOp   1
 Rotational constants (GHZ):           2.1846552           1.0925897           0.7543455
 Standard basis: 6-311+G(d,p) (5D, 7F)
   274 basis functions,   432 primitive gaussians,   284 cartesian basis functions
    36 alpha electrons       36 beta electrons
       nuclear repulsion energy       485.1319465594 Hartrees.
 NAtoms=   19 NActive=   19 NUniq=   19 SFac= 1.00D+00 NAtFMM=   60 NAOKFM=F Big=F
 Integral buffers will be    131072 words long.
 Raffenetti 2 integral format.
 Two-electron integral symmetry is turned off.
 ------------------------------------------------------------------------------
 Polarizable Continuum Model (PCM)
 =================================
 Model                : PCM.
 Atomic radii         : SMD-Coulomb.
 Polarization charges : Total charges.
 Charge compensation  : None.
 Solution method      : Matrix inversion.
 Cavity type          : VdW (van der Waals Surface) (Alpha=1.000).
 Cavity algorithm     : GePol (No added spheres)
                        Default sphere list used, NSphG=   19.
                        Lebedev-Laikov grids with approx.  5.0 points / Ang**2.
                        Smoothing algorithm: York/Karplus (Gamma=1.0000).
                        Polarization charges: spherical gaussians, with
                                              point-specific exponents (IZeta= 3).
                        Self-potential: point-specific (ISelfS= 7).
                        Self-field    : sphere-specific E.n sum rule (ISelfD= 2).
 1st derivatives      : Analytical E(r).r(x)/FMM algorithm (CHGder, D1EAlg=3).
                        Cavity 1st derivative terms included.
 Solvent              : TetraHydroFuran, Eps=   7.425700 Eps(inf)=   1.974025
 ------------------------------------------------------------------------------
 Spheres list:
 ISph  on   Nord     Re0    Alpha      Xe            Ye            Ze
    1   O      1    2.2940  1.000      8.849009      6.952626      5.204054
    2   H      2    1.2000  1.000      9.605231      6.585150      5.677313
    3   C      3    1.8500  1.000      6.296513      7.015051      5.131550
    4   B      4    1.8000  1.000      7.665563      6.543526      5.745133
    5   O      5    2.2940  1.000      7.728847      5.688665      6.814573
    6   H      6    1.2000  1.000      6.871016      5.479683      7.197356
    7   C      7    1.8500  1.000      5.200410      6.144995      5.216832
    8   H      8    1.2000  1.000      5.316738      5.175100      5.693614
    9   C      9    1.8500  1.000      3.957476      6.472233      4.684929
   10   H     10    1.2000  1.000      3.130440      5.775372      4.757175
   11   C     11    1.8500  1.000      3.792247      7.703299      4.061253
   12   C     12    1.8500  1.000      4.865625      8.585047      3.973453
   13   H     13    1.2000  1.000      4.727547      9.547857      3.491926
   14   C     14    1.8500  1.000      6.121297      8.260352      4.491904
   15   H     15    1.2000  1.000      2.830105      7.980786      3.644891
   16   C     16    1.8500  1.000      7.246256      9.256561      4.359232
   17   H     17    1.2000  1.000      7.753942      9.415108      5.312634
   18   H     18    1.2000  1.000      8.000567      8.902397      3.653232
   19   H     19    1.2000  1.000      6.864974     10.215463      4.004851
 ------------------------------------------------------------------------------
 ------------------------------------------------------------------------------
 Atomic radii for non-electrostatic terms: SMD-CDS.
 ------------------------------------------------------------------------------
 Nuclear repulsion after PCM non-electrostatic terms =      485.1277475852 Hartrees.
 One-electron integrals computed using PRISM.
 NBasis=   274 RedAO= T EigKep=  1.47D-06  NBF=   274
 NBsUse=   274 1.00D-06 EigRej= -1.00D+00 NBFU=   274
 Initial guess from the checkpoint file:  "2-Me-phboh2-opt-freq-thf.chk"
 B after Tr=     0.008404    0.008860   -0.019130
         Rot=    1.000000   -0.000734    0.000018   -0.000291 Ang=  -0.09 deg.
 ExpMin= 3.15D-02 ExpMax= 8.59D+03 ExpMxC= 1.30D+03 IAcc=3 IRadAn=         5 AccDes= 0.00D+00
 Harris functional with IExCor= 1009 and IRadAn=       5 diagonalized for initial guess.
 HarFok:  IExCor= 1009 AccDes= 0.00D+00 IRadAn=         5 IDoV= 1 UseB2=F ITyADJ=14
 ICtDFT=  3500011 ScaDFX=  1.000000  1.000000  1.000000  1.000000
 FoFCou: FMM=F IPFlag=           0 FMFlag=      100000 FMFlg1=           0
         NFxFlg=           0 DoJE=T BraDBF=F KetDBF=T FulRan=T
[...]
 79439,0.01132750,0.00593231,-0.00545893,0.03357509,-0.08288628,0.01972
 078,0.02241738,0.31209266,0.09738087,0.04112248,-0.10146472,-0.0142979
 9,-0.00456513,0.00907321,-0.04440950,0.01693168,-0.08182676,-0.0304473
 1,-0.20075176,0.39594246,-0.00854748,-0.02956063,0.03777318,0.00619155
 ,-0.00001939,-0.00003582,0.00316685,0.01582996,-0.01893711,-0.08166982
 ,0.00447335,-0.00335527,0.51577383,-0.02191691,-0.00857148,0.02821355,
 0.00284447,-0.00236082,-0.00046480,0.00413910,0.00029923,0.02002455,0.
 02657142,-0.14830985,0.13180927,0.08440805,0.19650729,0.02907907,0.028
 29807,-0.02602554,-0.00416009,-0.00073252,-0.00218405,-0.00412048,0.01
 984948,-0.00877815,-0.03231612,0.13505928,-0.21188801,-0.17447537,-0.2
 3104271,0.35258511,0.00367114,0.00174086,-0.00203947,0.00006354,0.0001
 4114,-0.00020107,-0.00079045,0.00128207,-0.00185657,-0.00023985,-0.001
 86926,0.00225559,-0.42926586,-0.09886966,0.18998486,0.42791778,0.00023
 249,0.00209116,0.00507802,0.00024036,-0.00073447,-0.00014898,-0.000106
 42,-0.00064888,-0.00223117,-0.02021753,-0.00812759,0.00988529,-0.07700
 881,-0.03734538,0.04705813,0.09739850,0.04423593,-0.00042585,0.0046852
 3,0.00036131,-0.00014200,-0.00007259,-0.00077452,-0.00056745,-0.002131
 66,0.00103853,0.02626848,0.00610990,-0.01348655,0.16154464,0.05157263,
 -0.10147560,-0.18640038,-0.05911049,0.11453108,-0.00140688,0.00172614,
 -0.00100940,-0.00053464,0.00046141,0.00061519,-0.23922216,-0.07620211,
 -0.01931284,-0.02180378,-0.01051572,-0.00330446,-0.00031548,-0.0018867
 8,0.00258938,0.00016023,0.00041406,0.00015661,0.63151585,0.00491760,-0
 .00115520,0.00114687,0.00059523,-0.00006320,-0.00027466,-0.12630243,-0
 .18607142,0.02299557,-0.00032473,0.01121571,-0.00511686,-0.00007053,-0
 .00411370,0.00236540,0.00213694,0.00117747,0.00145583,0.03934250,0.624
 18273,-0.00328233,0.00100204,0.00017736,-0.00011800,0.00013643,0.00044
 136,0.00453171,0.03600940,-0.08053550,-0.00498316,-0.00755888,0.003392
 37,0.00004868,0.00098474,-0.00093260,-0.00096312,-0.00047429,-0.000704
 53,0.12970199,-0.21094108,0.28136624,0.00023787,0.00012046,-0.00023321
 ,-0.00006365,-0.00009117,-0.00003385,0.00649649,-0.02030864,0.01084980
 ,-0.00074866,-0.00116175,0.00150700,-0.00001590,0.00006908,0.00058327,
 -0.00067915,-0.00047344,-0.00162841,-0.06074108,0.02420415,-0.01765462
 ,0.06209454,0.00013608,0.00032714,-0.00030555,-0.00011648,0.00004071,0
 .00004990,0.00353025,-0.01250020,0.00771636,0.00087229,-0.00206392,0.0
 0058577,0.00087248,0.00201901,-0.00041269,-0.00113059,-0.00002125,-0.0
 0145764,0.02520848,-0.27568656,0.11549990,-0.02524052,0.28895255,0.000
 72387,-0.00006191,0.00023062,0.00005451,0.00013277,0.00006339,0.000854
 00,0.00088716,0.00186335,0.00012388,-0.00058684,-0.00297322,-0.0007336
 5,-0.00051837,-0.00000167,-0.00083448,-0.00018774,-0.00054233,-0.01910
 368,0.11308568,-0.09674370,0.02322371,-0.12710558,0.09215460,-0.001808
 87,0.00041371,-0.00033745,-0.00008423,0.00003097,0.00012820,-0.0519022
 2,-0.04465612,0.00243838,0.00114923,-0.00658386,0.00159867,0.00060149,
 0.00115753,-0.00060299,-0.00030839,0.00023667,-0.00040852,-0.29570619,
 0.06965070,-0.10291805,0.00099019,-0.00154379,-0.00028021,0.68142340,-
 0.00037834,0.00083954,-0.00053205,-0.00033178,0.00012275,0.00013186,0.
 00365237,0.05095284,-0.01905805,-0.00468242,0.00011921,0.00189342,0.00
 059297,-0.00008939,0.00024977,-0.00029754,-0.00041534,-0.00054851,0.00
 311428,-0.12996828,0.03129686,0.02616900,-0.00311967,0.01209112,0.1002
 6990,0.62311911,-0.00119968,-0.00034309,-0.00062851,-0.00002784,-0.000
 43868,-0.00022059,-0.01965875,-0.03078081,0.02057062,-0.00002161,0.001
 24483,0.00587704,0.00032643,-0.00069670,-0.00007276,0.00026938,0.00027
 100,0.00038150,-0.07135981,0.05041523,-0.11222052,-0.01312728,0.002994
 81,-0.00088312,0.11922469,-0.19493451,0.26225302,-0.00079558,0.0001446
 6,-0.00006722,-0.00002134,0.00000083,0.00005642,-0.00322896,0.00166131
 ,-0.00419339,0.00052208,-0.00119800,0.00058900,-0.00015074,0.00035777,
 -0.00033822,-0.00003134,-0.00009509,0.00011907,-0.01536429,-0.01904706
 ,0.00319354,0.00072364,0.00063685,0.00118850,-0.22385022,-0.14295043,0
 .00972016,0.23299070,0.00004734,-0.00004530,-0.00002915,0.00002333,-0.
 00001341,-0.00001564,0.00127802,0.00185034,0.00294611,0.00027283,0.000
 28978,0.00008865,-0.00007147,-0.00000034,-0.00005712,-0.00000185,0.000
 01043,0.00004196,0.00801565,0.00853234,-0.00005287,0.00004048,-0.00010
 702,-0.00189373,-0.14300985,-0.17393272,0.01939079,0.15386038,0.178796
 32,-0.00026353,0.00007006,-0.00012494,-0.00004848,0.00001590,0.0000094
 3,-0.00366139,0.00303356,0.00457718,-0.00010387,-0.00040683,0.00041244
 ,-0.00002867,0.00012597,-0.00015815,-0.00005540,-0.00001613,0.00004789
 ,-0.00950836,-0.00852428,0.00426773,0.00144457,-0.00162160,-0.00297148
 ,0.00975153,0.01931268,-0.04347377,-0.00844062,-0.02367866,0.03450689,
 -0.00128602,-0.00008901,-0.00015478,0.00008745,-0.00016343,-0.00003872
 ,-0.01262650,-0.02255819,0.00896970,0.00266924,-0.00175930,0.00177086,
 -0.00042265,0.00054587,-0.00065559,0.00001641,0.00002191,0.00036945,0.
 02422830,0.03292884,-0.01065781,-0.00432883,0.00088343,-0.00428252,-0.
 13050997,0.04869399,-0.04225768,0.00718959,-0.02218182,0.01157071,0.69
 759897,-0.00035167,-0.00001015,-0.00024143,-0.00004626,-0.00007528,-0.
 00004462,-0.02625556,-0.05922105,0.01820330,-0.00051333,-0.00299163,0.
 00082772,0.00055447,-0.00007144,0.00018589,0.00004882,0.00039289,-0.00
 031161,0.08510252,0.00375406,0.02699053,0.00022174,0.00261756,0.002386
 93,-0.01746160,-0.29165423,0.09926876,0.00487117,-0.01202621,0.0087377
 3,0.03625553,0.59509205,-0.00019293,-0.00002114,0.00016108,0.00008194,
 0.00002302,0.00002459,0.01018715,0.01747771,-0.01208427,0.00133484,0.0
 0029394,-0.00076931,-0.00041608,0.00040027,-0.00019599,-0.00010506,-0.
 00022008,0.00015334,-0.03432908,0.01212196,-0.00807413,-0.00371445,0.0
 0245233,0.00514043,-0.01159698,0.11962909,-0.12406400,-0.00111316,0.00
 039928,0.00283319,0.14940054,-0.19923908,0.27905271,0.00020512,0.00020
 499,0.00048918,0.00013503,0.00009775,0.00006224,0.02169551,0.07392234,
 -0.03254601,0.00250167,0.00114894,-0.00174755,-0.00055580,0.00087719,-
 0.00016880,-0.00017481,-0.00050843,0.00023339,-0.07561886,-0.01429849,
 -0.01370105,-0.00111915,-0.00036473,0.00002138,0.05193529,-0.06200056,
 0.04247530,0.00170264,0.00124061,-0.00252059,-0.25359050,-0.07626161,-
 0.02080449,0.63701018,0.00013707,0.00026727,-0.00037996,-0.00001797,-0
 .00010201,-0.00005264,0.03175617,0.00473639,0.01114277,-0.00175380,-0.
 00245543,0.00395032,0.00160466,-0.00059041,0.00120546,0.00000228,0.000
 07358,-0.00041035,-0.01691534,-0.00645199,-0.00533898,-0.00018539,0.00
 017726,-0.00074128,-0.01213245,-0.04020391,0.01886922,0.00057392,-0.00
 240712,0.00492929,-0.14367745,-0.20627927,0.02232817,0.05983476,0.6483
 7914,-0.00062789,-0.00043882,-0.00024335,-0.00009558,-0.00016899,-0.00
 009542,-0.01126584,0.02686342,-0.00496391,0.00024956,0.00460319,0.0045
 4707,-0.00008885,-0.00083440,-0.00100087,0.00005250,0.00009407,0.00020
 931,-0.01262993,-0.00471538,-0.00843654,0.00002422,-0.00067483,-0.0006
 9369,0.01879309,0.00385635,0.01166400,-0.00211864,0.00507034,0.0047074
 9,0.01019049,0.04241666,-0.08164805,0.11969892,-0.21546152,0.27174443,
 -0.00030707,-0.00009420,0.00001471,0.00002016,-0.00001849,0.00000564,-
 0.00449013,0.00096109,-0.00353602,0.00096158,0.00073745,-0.00011727,-0
 .00046028,0.00030941,-0.00053368,-0.00007113,-0.00006063,0.00011533,-0
 .00113365,-0.00042984,0.00014549,0.00007961,0.00015782,0.00027593,-0.0
 0293661,-0.00369394,-0.00144333,0.00020983,-0.00112154,0.00054351,0.00
 674544,-0.02256508,0.01130297,-0.06083877,0.02968742,-0.02053432,0.062
 15600,0.00034973,0.00003442,-0.00002314,-0.00000441,0.00001419,0.00000
 737,0.00100219,0.00216185,0.00232316,-0.00082789,0.00008096,-0.0001230
 5,0.00025684,-0.00025008,0.00026005,0.00004126,0.00005164,-0.00008937,
 -0.00018077,0.00029861,-0.00062077,0.00016589,-0.00026616,-0.00032102,
 -0.00426940,0.00058732,0.00192885,0.00026587,-0.00070671,0.00046310,0.
 00468564,-0.01247599,0.00878890,0.03068900,-0.27734329,0.11784343,-0.0
 2990517,0.29131839,-0.00021694,-0.00006952,0.00002879,0.00001604,-0.00
 000656,0.00001033,-0.00374105,0.00243989,0.00457285,0.00061001,0.00033
 359,0.00010539,-0.00016055,0.00006432,-0.00028872,0.00003748,-0.000010
 08,0.00006586,-0.00020713,-0.00067351,-0.00070282,0.00027901,-0.000334
 73,-0.00088069,-0.00104503,0.00204380,0.00643171,-0.00010581,0.0000523
 5,0.00009306,-0.00107115,0.00087530,0.00280074,-0.02093849,0.11747238,
 -0.09829536,0.02469181,-0.12967019,0.09262044,-0.00055782,-0.00230862,
 0.00088167,-0.00004303,-0.00061130,-0.00014579,-0.12771585,-0.00528833
 ,-0.01230606,0.00695626,0.01852036,-0.00824115,-0.00480113,0.00176932,
 -0.00478471,-0.00031067,-0.00015431,0.00080606,0.05294811,-0.01454452,
 0.02109571,-0.00313565,-0.00409249,-0.00132090,-0.02916981,0.03500315,
 -0.02326446,-0.00006472,0.00081389,-0.00008772,-0.05251841,-0.04889308
 ,0.00557944,-0.27704524,0.07203945,-0.09363011,-0.00033103,-0.00170930
 ,-0.00090468,0.62022080,-0.00347326,-0.00115269,0.00013246,-0.00005933
 ,-0.00005010,0.00008026,0.04204561,-0.24577689,0.09618882,0.00907440,-
 0.00295091,0.00457148,-0.00209158,0.00274909,-0.00236410,-0.00047480,-
 0.00080194,0.00055646,-0.06106145,-0.04068269,0.00323068,-0.00372394,0
 .00072605,0.00210538,0.03412668,-0.03504472,0.02367316,0.00089964,-0.0
 0057801,0.00005389,0.00312377,0.05703922,-0.02246343,0.00237093,-0.130
 61355,0.02768858,0.02365426,-0.00454950,0.01059602,0.04297837,0.559499
 08,0.00164418,0.00016345,-0.00001128,-0.00009530,-0.00013523,-0.000450
 25,-0.03520699,0.08100304,-0.11449660,-0.00497144,0.00750857,-0.003865
 19,-0.00101978,-0.00013838,0.00045055,-0.00015772,0.00008839,0.0000434
 9,0.04293602,0.01713082,0.00947889,-0.00150765,0.00212224,0.00668283,-
 0.02294051,0.02323525,-0.02494256,-0.00017709,0.00014781,-0.00088815,-
 0.01860958,-0.03926760,0.01781895,-0.06103752,0.04963572,-0.10960269,-
 0.01219727,0.00343636,-0.00081932,0.10880847,-0.16330441,0.28807568,-0
 .00016727,0.00001094,-0.00002751,0.00001202,-0.00001133,-0.00000521,0.
 00005710,-0.00027642,0.00065052,0.00014474,0.00004346,0.00032506,-0.00
 005224,0.00004030,-0.00012483,0.00000651,-0.00001910,0.00005638,0.0023
 3123,-0.00030413,-0.00150503,-0.00011964,-0.00010303,0.00003403,0.0012
 7230,-0.00152471,-0.00028846,0.00018111,0.00078098,0.00094986,-0.28210
 893,0.06267465,-0.10148318,-0.01549762,0.00852435,-0.00989800,0.000634
 42,0.00047094,0.00123939,-0.00094564,-0.00434860,-0.00064502,0.2953327
 7,0.00014781,0.00003687,0.00000302,0.00000705,0.00001365,0.00000444,-0
 .00033017,-0.00110733,-0.00028132,0.00003109,-0.00019443,-0.00031423,0
 .00002927,0.00011824,-0.00001207,-0.00005910,-0.00000341,-0.00011108,-
 0.00078590,-0.00333081,0.00495906,0.00131472,-0.00030749,0.00056115,0.
 02536660,-0.00141197,0.01033238,0.00003745,0.00035785,-0.00209590,0.06
 269599,-0.07453695,0.03487706,-0.01855425,0.00931986,-0.00779788,0.001
 16011,0.00004579,-0.00161808,-0.00409202,-0.00090324,0.00288955,-0.066
 20736,0.07172900,0.00002870,0.00004960,0.00006809,0.00002046,0.0000386
 7,0.00002730,0.00051668,-0.00070698,-0.00113197,0.00031526,-0.00038505
 ,-0.00077523,-0.00013034,0.00013296,-0.00006541,0.00001466,0.00000364,
 0.00005490,-0.00132250,0.00519076,0.00502855,-0.00061287,0.00008210,-0
 .00033803,-0.01279559,0.00236038,-0.00035122,0.00131390,-0.00185818,-0
 .00295753,-0.10150383,0.03476813,-0.08624743,0.00267383,0.00026129,0.0
 0515624,0.00092255,-0.00177656,-0.00309605,-0.00076429,0.00278477,0.00
 632980,0.11107855,-0.04092795,0.07851831,-0.00017707,0.00137546,-0.000
 11039,0.00010841,-0.00016819,-0.00005734,0.00737700,-0.00254576,0.0026
 0359,-0.00081811,0.00129646,0.00031232,0.00010064,-0.00027477,-0.00012
 438,0.00003205,0.00006482,0.00002683,0.00193468,0.00294716,-0.00342009
 ,0.00060744,0.00059688,-0.00006935,-0.00151987,-0.00106185,0.00026355,
 0.00002077,0.00006941,0.00041522,-0.00032480,0.00228266,-0.00342393,-0
 .02812704,-0.02223637,0.00000375,0.00051179,-0.00081193,0.00163409,-0.
 15954228,-0.06261099,0.00336199,-0.00066771,-0.00055122,0.00020424,0.5
 3314064,0.00171397,-0.00354772,0.00143734,-0.00020096,-0.00057655,0.00
 000767,-0.02388761,-0.01861426,0.00314209,0.00161094,-0.00039404,-0.00
 119025,-0.00052325,0.00009952,0.00010906,-0.00004778,-0.00003221,-0.00
 000853,0.00276799,-0.00155638,0.00462344,-0.00092283,-0.00051031,0.000
 09799,-0.00038376,0.00027023,-0.00085349,0.00000865,-0.00006543,-0.000
 38773,0.00132643,0.00028661,0.00343300,0.00055559,0.00564642,0.0002434
 2,0.00218764,0.00003278,-0.00073769,-0.07290216,-0.14442563,0.01270859
 ,0.00056685,0.00035295,-0.00001634,-0.04504326,0.54791554,-0.00070114,
 0.00094020,-0.00132362,0.00029671,0.00040302,-0.00003225,0.01098065,0.
 00904573,0.00045273,0.00073283,-0.00017484,-0.00177441,-0.00013981,0.0
 0049395,0.00002266,0.00001730,-0.00004001,0.00007335,-0.00267609,0.004
 29556,0.00380165,0.00051888,0.00042399,0.00004224,0.00034206,-0.000345
 92,-0.00086572,0.00034821,-0.00052312,-0.00089011,-0.00404875,0.003876
 69,0.00608311,-0.01032306,-0.00611327,0.00750854,0.00055852,-0.0023681
 3,-0.00329187,0.00528156,0.01240462,-0.07631638,-0.00039202,-0.0005168
 3,-0.00024283,0.01983019,-0.00837678,0.55841544,-0.00020054,0.00013270
 ,0.00028463,-0.00006139,0.00009706,0.00006166,0.00100979,0.00182780,-0
 .00004865,0.00051550,-0.00025591,-0.00055898,-0.00002533,-0.00004341,0
 .00017620,-0.00000978,-0.00003003,-0.00003608,-0.00070854,0.00023344,0
 .00065788,0.00002184,-0.00003671,0.00000747,0.00014139,-0.00015015,-0.
 00001220,0.00005252,-0.00013172,-0.00013577,-0.00113465,0.00070963,0.0
 0072748,-0.00196843,-0.00324954,0.00064011,0.00020363,-0.00038091,-0.0
 0038868,-0.01381991,-0.00316131,-0.02120145,-0.00025666,-0.00019041,-0
 .00001126,-0.09980886,-0.01804527,-0.11177812,0.11105013,0.00044526,0.
 00027792,-0.00022782,0.00030452,-0.00002461,0.00001627,0.00019334,0.00
 070247,0.00063545,-0.00138149,-0.00191797,0.00032689,0.00028677,0.0002
 0647,-0.00026018,-0.00003925,0.00001954,-0.00002489,-0.00005777,0.0004
 6528,0.00029716,0.00004282,-0.00000434,0.00002344,-0.00028422,-0.00032
 551,-0.00009720,0.00003465,-0.00001454,0.00000462,-0.00043764,0.000614
 03,0.00035091,-0.00109154,-0.00201039,0.00068762,-0.00006852,0.0001774
 7,-0.00018257,-0.00898334,-0.00265926,-0.01984317,-0.00016976,-0.00011
 253,0.00000904,-0.01796454,-0.05232081,-0.03032987,0.02191203,0.053150
 21,-0.00012181,0.00146524,-0.00016406,0.00003338,0.00024058,0.00004699
 ,0.00047377,0.00085887,0.00052658,-0.00094238,-0.00056851,0.00036322,0
 .00017308,0.00009443,-0.00026092,-0.00001855,-0.00000841,-0.00001442,-
 0.00080329,-0.00041416,0.00012185,-0.00003243,-0.00003792,-0.00002979,
 0.00051386,-0.00033383,0.00036194,0.00001629,-0.00003816,-0.00003619,0
 .00047577,0.00041358,-0.00033001,0.00012257,-0.00016643,-0.00011197,0.
 00009922,-0.00003358,0.00008979,0.00314724,0.00087679,0.00579432,0.000
 03156,0.00000738,-0.00000450,-0.11182539,-0.03217783,-0.25597783,0.120
 80522,0.03329659,0.27533709,-0.00051418,0.00062312,-0.00091206,0.00004
 888,0.00018506,-0.00011088,0.00097782,0.00121545,-0.00077693,-0.000588
 42,0.00032841,0.00040361,0.00015470,-0.00022634,0.00015443,0.00003300,
 0.00005011,-0.00003866,-0.00086259,-0.00071631,-0.00092418,-0.00002616
 ,-0.00005957,0.00002993,0.00029590,-0.00038470,0.00042588,-0.00005669,
 0.00003794,0.00018404,0.00002143,-0.00021339,-0.00151106,-0.00117353,-
 0.00241341,0.00034270,-0.00020969,0.00021673,0.00062015,-0.01826216,0.
 00617730,0.01448255,-0.00020511,-0.00008336,0.00005332,-0.17004819,0.0
 6238670,0.12416976,0.01039024,-0.00491707,-0.00978055,0.18705807,0.001
 20177,-0.00097413,0.00062436,0.00015710,-0.00019884,-0.00010558,0.0002
 7870,-0.00080652,0.00024014,-0.00144970,-0.00025087,0.00072198,0.00028
 648,-0.00003081,-0.00013230,-0.00001703,0.00002966,-0.00004730,0.00062
 504,0.00000697,-0.00090472,0.00003026,-0.00002556,0.00003806,-0.000651
 20,-0.00005786,-0.00003477,-0.00000596,0.00003151,0.00006869,-0.000021
 67,-0.00051641,-0.00073071,-0.00036071,-0.00109558,0.00010008,-0.00010
 610,0.00019962,0.00002758,-0.01600427,0.00893786,0.01572115,-0.0001357
 6,-0.00005186,0.00002291,0.06078287,-0.07567073,-0.05830320,0.00284537
 ,-0.00202820,-0.00222735,-0.06494620,0.08064417,-0.00025698,-0.0009101
 2,0.00059952,-0.00027866,-0.00024773,0.00010979,0.00026504,0.00078217,
 0.00069597,0.00167166,0.00079915,-0.00095796,-0.00033763,-0.00030954,0
 .00041314,0.00002418,-0.00002196,0.00001237,-0.00035339,0.00010117,0.0
 0006752,0.00001570,0.00002367,0.00000044,0.00023220,-0.00031123,0.0001
 5763,-0.00000806,0.00000184,0.00000600,0.00030961,0.00036511,-0.000453
 66,-0.00107067,-0.00026321,-0.00059239,-0.00006365,0.00005041,0.000140
 60,0.00046877,0.00047378,-0.00039232,-0.00001853,0.00004339,0.00005713
 ,0.12198386,-0.05787312,-0.15946568,0.01945660,-0.00972754,-0.01871825
 ,-0.13324041,0.06402303,0.17018428,-0.00026128,0.00128851,-0.00059041,
 0.00021673,0.00026086,-0.00004718,-0.00358589,-0.00259982,-0.00019270,
 -0.00134572,-0.00064543,0.00033649,0.00029367,0.00012838,-0.00016195,-
 0.00001922,0.00001487,-0.00004889,0.00029974,-0.00091853,0.00075244,-0
 .00027373,-0.00020666,0.00008758,-0.00001283,-0.00003924,-0.00004429,-
 0.00002900,0.00003741,-0.00000506,0.00029443,-0.00015961,0.00007602,0.
 00052432,-0.00157837,0.00089382,-0.00074411,-0.00005431,-0.00034847,0.
 00813820,-0.02344571,0.00853410,0.00004863,0.00006369,-0.00000146,-0.0
 8279947,0.08883214,-0.03301766,-0.00539095,0.01217576,-0.00236758,-0.0
 0703331,0.01749103,-0.00879964,0.09167977,0.00035602,0.00004438,0.0002
 3546,-0.00012865,-0.00002595,0.00002159,-0.00385690,-0.00162781,-0.000
 20796,-0.00050530,0.00042944,-0.00065367,0.00015038,-0.00026514,0.0003
 7311,0.00001500,0.00004817,-0.00009801,0.00082777,-0.00055293,0.000861
 35,-0.00027090,-0.00024781,0.00000677,-0.00027650,0.00021261,-0.000209
 78,-0.00005661,0.00002824,-0.00008435,-0.00027289,0.00006218,0.0000988
 2,0.00249823,0.00095301,0.00062468,-0.00079169,0.00058869,-0.00060230,
 0.00845921,-0.01876218,0.00689788,-0.00001227,-0.00001419,-0.00003321,
 0.08385317,-0.25688998,0.07520820,-0.00208264,0.00580477,-0.00124726,0
 .00273952,-0.00814244,0.00300073,-0.09064497,0.27835695,-0.00005814,0.
 00042898,0.00032658,0.00001553,-0.00002663,0.00012642,0.00055726,0.000
 64078,0.00121294,0.00000108,-0.00057599,0.00006817,-0.00000709,0.00008
 827,-0.00014302,-0.00002412,-0.00000921,0.00002502,-0.00007922,0.00035
 507,0.00020682,0.00009859,-0.00000052,-0.00012016,-0.00009738,-0.00003
 647,0.00002531,0.00001713,0.00000752,0.00003902,0.00022329,-0.00021200
 ,-0.00020130,-0.00091859,-0.00086699,0.00014714,-0.00025015,-0.0000758
 5,0.00041525,-0.00061906,0.00271480,-0.00288979,0.00002244,-0.00000209
 ,-0.00003012,-0.03160874,0.07581918,-0.07621901,-0.00864605,0.02504525
 ,-0.00699381,0.00642837,-0.01910204,0.00813588,0.03494485,-0.08419207,
 0.07586866\\0.00000030,-0.00000084,-0.00000278,0.00000055,-0.00000111,
 -0.00000381,0.00000017,-0.00000011,-0.00000038,0.00000063,-0.00000077,
 -0.00000202,0.00000145,-0.00000143,-0.00000260,0.00000181,-0.00000160,
 -0.00000193,0.00000002,-0.00000002,0.00000008,0.00000037,-0.00000031,-
 0.00000059,-0.00000036,0.00000051,0.00000148,-0.00000044,0.00000064,0.
 00000181,-0.00000072,0.00000097,0.00000237,-0.00000073,0.00000076,0.00
 000189,-0.00000096,0.00000110,0.00000263,-0.00000023,0.00000025,0.0000
 0054,-0.00000108,0.00000137,0.00000346,-0.00000018,0.00000015,0.000000
 07,0.00000073,-0.00000052,-0.00000036,-0.00000099,0.00000052,-0.000000
 89,-0.00000032,0.00000043,0.00000104\\\@
 The archive entry for this job was punched.


 ANYONE WHO IS NOT SHOCKED BY QUANTUM THEORY HAS
 NOT UNDERSTOOD IT. -- NIELS BOHR(1885-1962)
 Job cpu time:       0 days  0 hours 56 minutes 28.2 seconds.
 Elapsed time:       0 days  0 hours  1 minutes 50.8 seconds.
 File lengths (MBytes):  RWF=    181 Int=      0 D2E=      0 Chk=     16 Scr=      1
 Normal termination of Gaussian 16 at Sat Apr 26 20:07:39 2025.
