/home/tahminaafroz
cn007.cluster.local
tahminaafroz
Thu Apr 24 10:54:42 CDT 2025
 Entering Gaussian System, Link 0=g16
 Initial command:
 /home/apps/g16/l1.exe "/tmp/2-OMe-phboh2-opt-freq/Gau-13074.inp" -scrdir="/tmp/2-OMe-phboh2-opt-freq/"
 Entering Link 1 = /home/apps/g16/l1.exe PID=     13075.
  
 Copyright (c) 1988-2019, Gaussian, Inc.  All Rights Reserved.
  
 This is part of the Gaussian(R) 16 program.  It is based on
 the Gaussian(R) 09 system (copyright 2009, Gaussian, Inc.),
 the Gaussian(R) 03 system (copyright 2003, Gaussian, Inc.),
 the Gaussian(R) 98 system (copyright 1998, Gaussian, Inc.),
 the Gaussian(R) 94 system (copyright 1995, Gaussian, Inc.),
 the Gaussian 92(TM) system (copyright 1992, Gaussian, Inc.),
 the Gaussian 90(TM) system (copyright 1990, Gaussian, Inc.),
 the Gaussian 88(TM) system (copyright 1988, Gaussian, Inc.),
 the Gaussian 86(TM) system (copyright 1986, Carnegie Mellon
 University), and the Gaussian 82(TM) system (copyright 1983,
 Carnegie Mellon University). Gaussian is a federally registered
 trademark of Gaussian, Inc.
  
 This software contains proprietary and confidential information,
 including trade secrets, belonging to Gaussian, Inc.
  
 This software is provided under written license and may be
 used, copied, transmitted, or stored only in accord with that
 written license.
  
 The following legend is applicable only to US Government
 contracts under FAR:
  
                    RESTRICTED RIGHTS LEGEND
  
 Use, reproduction and disclosure by the US Government is
 subject to restrictions as set forth in subparagraphs (a)
 and (c) of the Commercial Computer Software - Restricted
 Rights clause in FAR 52.227-19.
  
 Gaussian, Inc.
 340 Quinnipiac St., Bldg. 40, Wallingford CT 06492
  
  
 ---------------------------------------------------------------
 Warning -- This program may not be used in any manner that
 competes with the business of Gaussian, Inc. or will provide
 assistance to any competitor of Gaussian, Inc.  The licensee
 of this program is prohibited from giving any competitor of
 Gaussian, Inc. access to this program.  By using this program,
 the user acknowledges that Gaussian, Inc. is engaged in the
 business of creating and licensing software in the field of
 computational chemistry and represents and warrants to the
 licensee that it is not a competitor of Gaussian, Inc. and that
 it will not use this program in any manner prohibited above.
 ---------------------------------------------------------------
  

 Cite this work as:
 Gaussian 16, Revision C.01,
 M. J. Frisch, G. W. Trucks, H. B. Schlegel, G. E. Scuseria, 
 M. A. Robb, J. R. Cheeseman, G. Scalmani, V. Barone, 
 G. A. Petersson, H. Nakatsuji, X. Li, M. Caricato, A. V. Marenich, 
 J. Bloino, B. G. Janesko, R. Gomperts, B. Mennucci, H. P. Hratchian, 
 J. V. Ortiz, A. F. Izmaylov, J. L. Sonnenberg, D. Williams-Young, 
 F. Ding, F. Lipparini, F. Egidi, J. Goings, B. Peng, A. Petrone, 
 T. Henderson, D. Ranasinghe, V. G. Zakrzewski, J. Gao, N. Rega, 
 G. Zheng, W. Liang, M. Hada, M. Ehara, K. Toyota, R. Fukuda, 
 J. Hasegawa, M. Ishida, T. Nakajima, Y. Honda, O. Kitao, H. Nakai, 
 T. Vreven, K. Throssell, J. A. Montgomery, Jr., J. E. Peralta, 
 F. Ogliaro, M. J. Bearpark, J. J. Heyd, E. N. Brothers, K. N. Kudin, 
 V. N. Staroverov, T. A. Keith, R. Kobayashi, J. Normand, 
 K. Raghavachari, A. P. Rendell, J. C. Burant, S. S. Iyengar, 
 J. Tomasi, M. Cossi, J. M. Millam, M. Klene, C. Adamo, R. Cammi, 
 J. W. Ochterski, R. L. Martin, K. Morokuma, O. Farkas, 
 J. B. Foresman, and D. J. Fox, Gaussian, Inc., Wallingford CT, 2019.
 
 ******************************************
 Gaussian 16:  AS64L-G16RevC.01  3-Jul-2019
                24-Apr-2025 
 ******************************************
 %mem=20GB
 %nprocshared=32
 Will use up to   32 processors via shared memory.
 %chk=2-OMe-phboh2-opt-freq.chk
 ----------------------------------------------------------------------
 # opt=(calcfc,tight) freq 6-311+g(d,p) nosymm scf=(qc,fermi,xqc) geom=
 connectivity int=ultrafine m062x
 ----------------------------------------------------------------------
 1/7=10,10=4,18=20,19=15,26=4,38=1,57=2/1,3;
 2/9=110,12=2,15=1,17=6,18=5,40=1/2;
 3/5=4,6=6,7=111,11=2,25=1,30=1,71=2,74=-55,75=-5,140=1/1,2,3;
 4//1;
 5/5=2,22=13,38=5/2;
 8/6=4,10=90,11=11/1;
 11/6=1,8=1,9=11,15=111,16=1,31=1/1,2,10;
 10/6=1,13=1,31=1/2;
 6/7=2,8=2,9=2,10=2,28=1/1;
 7/10=1,25=1,30=1/1,2,3,16;
 1/7=10,10=4,18=20,19=15,26=4/3(2);
 2/9=110,15=1/2;
 99//99;
 2/9=110,15=1/2;
 3/5=4,6=6,7=111,11=2,25=1,30=1,71=1,74=-55,75=-5/1,2,3;
 4/5=5,16=3,69=1/1;
 5/5=2,22=13,38=5/2;
 7/30=1/1,2,3,16;
 1/7=10,18=20,19=15,26=4/3(-5);
 2/9=110,15=1/2;
 6/7=2,8=2,9=2,10=2,19=2,28=1/1;
 99/9=1/99;
 ---------------------
 2-OMe-phboh2-opt-freq
 ---------------------
 Symbolic Z-matrix:
 Charge =  0 Multiplicity = 1
 O                     8.62516   7.60942   5.61175 
 H                     9.46513   7.37996   6.01927 
 C                     6.23929   6.88687   5.23814 
 B                     7.66572   6.67352   5.85358 
 O                     8.00918   5.59297   6.62076 
 H                     7.30948   4.94624   6.7254 
 C                     5.15686   6.04545   5.53761 
 H                     5.2686    5.21495   6.22835 
 C                     3.91551   6.26708   4.96424 
 H                     3.08187   5.61601   5.20003 
 C                     3.71811   7.32838   4.08073 
 C                     4.78589   8.17218   3.779 
 C                     6.03566   7.94769   4.36098 
 H                     2.74052   7.48232   3.64414 
 H                     4.7057    9.23356   2.93562 
 O                     7.10899   8.83412   4.03372 
 C                     6.65453   9.80509   3.08738 
 H                     6.30135   9.30808   2.20809 
 H                     5.85919   10.37727   3.51744 
 H                     7.46298   10.45646   2.82849 
 

 GradGradGradGradGradGradGradGradGradGradGradGradGradGradGradGradGradGrad
 Berny optimization.
 Initialization pass.
                           ----------------------------
                           !    Initial Parameters    !
                           ! (Angstroms and Degrees)  !
 --------------------------                            --------------------------
 ! Name  Definition              Value          Derivative Info.                !
 --------------------------------------------------------------------------------
 ! R1    R(1,2)                  0.9614         calculate D2E/DX2 analytically  !
 ! R2    R(1,4)                  1.362          calculate D2E/DX2 analytically  !
 ! R3    R(3,4)                  1.5681         calculate D2E/DX2 analytically  !
 ! R4    R(3,7)                  1.4033         calculate D2E/DX2 analytically  !
 ! R5    R(3,13)                 1.3915         calculate D2E/DX2 analytically  !
 ! R6    R(4,5)                  1.369          calculate D2E/DX2 analytically  !
 ! R7    R(5,6)                  0.9585         calculate D2E/DX2 analytically  !
 ! R8    R(7,8)                  1.086          calculate D2E/DX2 analytically  !
 ! R9    R(7,9)                  1.3852         calculate D2E/DX2 analytically  !
 ! R10   R(9,10)                 1.0837         calculate D2E/DX2 analytically  !
 ! R11   R(9,11)                 1.395          calculate D2E/DX2 analytically  !
 ! R12   R(11,12)                1.394          calculate D2E/DX2 analytically  !
 ! R13   R(11,14)                1.0817         calculate D2E/DX2 analytically  !
 ! R14   R(12,13)                1.3968         calculate D2E/DX2 analytically  !
 ! R15   R(12,15)                1.358          calculate D2E/DX2 analytically  !
 ! R16   R(13,16)                1.43           calculate D2E/DX2 analytically  !
 ! R17   R(16,17)                1.43           calculate D2E/DX2 analytically  !
 ! R18   R(17,18)                1.07           calculate D2E/DX2 analytically  !
 ! R19   R(17,19)                1.07           calculate D2E/DX2 analytically  !
 ! R20   R(17,20)                1.07           calculate D2E/DX2 analytically  !
 ! A1    A(2,1,4)              112.0995         calculate D2E/DX2 analytically  !
 ! A2    A(4,3,7)              122.4328         calculate D2E/DX2 analytically  !
 ! A3    A(4,3,13)             118.9634         calculate D2E/DX2 analytically  !
 ! A4    A(7,3,13)             118.6038         calculate D2E/DX2 analytically  !
 ! A5    A(1,4,3)              118.5307         calculate D2E/DX2 analytically  !
 ! A6    A(1,4,5)              117.7204         calculate D2E/DX2 analytically  !
 ! A7    A(3,4,5)              123.7485         calculate D2E/DX2 analytically  !
 ! A8    A(4,5,6)              114.2424         calculate D2E/DX2 analytically  !
 ! A9    A(3,7,8)              120.9908         calculate D2E/DX2 analytically  !
 ! A10   A(3,7,9)              120.4618         calculate D2E/DX2 analytically  !
 ! A11   A(8,7,9)              118.5447         calculate D2E/DX2 analytically  !
 ! A12   A(7,9,10)             120.2101         calculate D2E/DX2 analytically  !
 ! A13   A(7,9,11)             120.7104         calculate D2E/DX2 analytically  !
 ! A14   A(10,9,11)            119.0793         calculate D2E/DX2 analytically  !
 ! A15   A(9,11,12)            119.2898         calculate D2E/DX2 analytically  !
 ! A16   A(9,11,14)            119.4601         calculate D2E/DX2 analytically  !
 ! A17   A(12,11,14)           121.25           calculate D2E/DX2 analytically  !
 ! A18   A(11,12,13)           119.8609         calculate D2E/DX2 analytically  !
 ! A19   A(11,12,15)           124.2135         calculate D2E/DX2 analytically  !
 ! A20   A(13,12,15)           115.9256         calculate D2E/DX2 analytically  !
 ! A21   A(3,13,12)            121.0721         calculate D2E/DX2 analytically  !
 ! A22   A(3,13,16)            120.464          calculate D2E/DX2 analytically  !
 ! A23   A(12,13,16)           118.4638         calculate D2E/DX2 analytically  !
 ! A24   A(13,16,17)           109.5            calculate D2E/DX2 analytically  !
 ! A25   A(16,17,18)           109.4712         calculate D2E/DX2 analytically  !
 ! A26   A(16,17,19)           109.4712         calculate D2E/DX2 analytically  !
 ! A27   A(16,17,20)           109.4712         calculate D2E/DX2 analytically  !
 ! A28   A(18,17,19)           109.4712         calculate D2E/DX2 analytically  !
 ! A29   A(18,17,20)           109.4712         calculate D2E/DX2 analytically  !
 ! A30   A(19,17,20)           109.4712         calculate D2E/DX2 analytically  !
 ! D1    D(2,1,4,3)           -179.0518         calculate D2E/DX2 analytically  !
 ! D2    D(2,1,4,5)              0.7045         calculate D2E/DX2 analytically  !
 ! D3    D(7,3,4,1)           -173.7585         calculate D2E/DX2 analytically  !
 ! D4    D(7,3,4,5)              6.5009         calculate D2E/DX2 analytically  !
 ! D5    D(13,3,4,1)             6.3197         calculate D2E/DX2 analytically  !
 ! D6    D(13,3,4,5)          -173.4209         calculate D2E/DX2 analytically  !
 ! D7    D(4,3,7,8)              0.9876         calculate D2E/DX2 analytically  !
 ! D8    D(4,3,7,9)           -179.619          calculate D2E/DX2 analytically  !
 ! D9    D(13,3,7,8)          -179.0903         calculate D2E/DX2 analytically  !
 ! D10   D(13,3,7,9)             0.3031         calculate D2E/DX2 analytically  !
 ! D11   D(4,3,13,12)          179.4844         calculate D2E/DX2 analytically  !
 ! D12   D(4,3,13,16)           -0.4178         calculate D2E/DX2 analytically  !
 ! D13   D(7,3,13,12)           -0.4404         calculate D2E/DX2 analytically  !
 ! D14   D(7,3,13,16)          179.6573         calculate D2E/DX2 analytically  !
 ! D15   D(1,4,5,6)           -177.2949         calculate D2E/DX2 analytically  !
 ! D16   D(3,4,5,6)              2.4476         calculate D2E/DX2 analytically  !
 ! D17   D(3,7,9,10)          -179.8692         calculate D2E/DX2 analytically  !
 ! D18   D(3,7,9,11)            -0.0159         calculate D2E/DX2 analytically  !
 ! D19   D(8,7,9,10)            -0.4612         calculate D2E/DX2 analytically  !
 ! D20   D(8,7,9,11)           179.3921         calculate D2E/DX2 analytically  !
 ! D21   D(7,9,11,12)           -0.1402         calculate D2E/DX2 analytically  !
 ! D22   D(7,9,11,14)          179.9549         calculate D2E/DX2 analytically  !
 ! D23   D(10,9,11,12)         179.7147         calculate D2E/DX2 analytically  !
 ! D24   D(10,9,11,14)          -0.1902         calculate D2E/DX2 analytically  !
 ! D25   D(9,11,12,13)           0.0054         calculate D2E/DX2 analytically  !
 ! D26   D(9,11,12,15)        -179.9277         calculate D2E/DX2 analytically  !
 ! D27   D(14,11,12,13)        179.9086         calculate D2E/DX2 analytically  !
 ! D28   D(14,11,12,15)         -0.0245         calculate D2E/DX2 analytically  !
 ! D29   D(11,12,13,3)           0.2899         calculate D2E/DX2 analytically  !
 ! D30   D(11,12,13,16)       -179.806          calculate D2E/DX2 analytically  !
 ! D31   D(15,12,13,3)        -179.7717         calculate D2E/DX2 analytically  !
 ! D32   D(15,12,13,16)          0.1324         calculate D2E/DX2 analytically  !
 ! D33   D(3,13,16,17)         178.1688         calculate D2E/DX2 analytically  !
 ! D34   D(12,13,16,17)         -1.736          calculate D2E/DX2 analytically  !
 ! D35   D(13,16,17,18)        -58.9128         calculate D2E/DX2 analytically  !
 ! D36   D(13,16,17,19)         61.0872         calculate D2E/DX2 analytically  !
 ! D37   D(13,16,17,20)       -178.9128         calculate D2E/DX2 analytically  !
 --------------------------------------------------------------------------------
 Trust Radius=3.00D-01 FncErr=1.00D-07 GrdErr=1.00D-06 EigMax=2.50D+02 EigMin=1.00D-04
 Number of steps in this run=     97 maximum allowed number of steps=    120.
 GradGradGradGradGradGradGradGradGradGradGradGradGradGradGradGradGradGrad

                          Input orientation:                          
 ---------------------------------------------------------------------
 Center     Atomic      Atomic             Coordinates (Angstroms)
 Number     Number       Type             X           Y           Z
 ---------------------------------------------------------------------
      1          8           0        8.625164    7.609418    5.611754
      2          1           0        9.465126    7.379964    6.019273
      3          6           0        6.239290    6.886871    5.238140
      4          5           0        7.665719    6.673520    5.853582
      5          8           0        8.009175    5.592974    6.620759
      6          1           0        7.309480    4.946242    6.725404
      7          6           0        5.156858    6.045453    5.537607
      8          1           0        5.268605    5.214945    6.228347
      9          6           0        3.915510    6.267083    4.964243
     10          1           0        3.081870    5.616011    5.200025
     11          6           0        3.718111    7.328378    4.080735
     12          6           0        4.785894    8.172178    3.779000
     13          6           0        6.035658    7.947690    4.360976
     14          1           0        2.740523    7.482319    3.644137
     15          1           0        4.705698    9.233560    2.935622
     16          8           0        7.108992    8.834120    4.033721
     17          6           0        6.654526    9.805093    3.087376
     18          1           0        6.301347    9.308083    2.208089
     19          1           0        5.859193   10.377272    3.517441
     20          1           0        7.462984   10.456458    2.828493
 ---------------------------------------------------------------------
                    Distance matrix (angstroms):
                    1          2          3          4          5
     1  O    0.000000
     2  H    0.961383   0.000000
     3  C    2.520725   3.355492   0.000000
     4  B    1.361955   1.940202   1.568116   0.000000
     5  O    2.337430   2.382207   2.591968   1.368979   0.000000
     6  H    3.172341   3.326926   2.668951   1.967351   0.958533
     7  C    3.805342   4.535868   1.403326   2.605512   3.084423
     8  H    4.168954   4.726712   2.172113   2.830909   2.794211
     9  C    4.939835   5.757589   2.420560   3.875588   4.467277
    10  H    5.905193   6.672979   3.403798   4.749435   5.128094
    11  C    5.148026   6.065375   2.809067   4.376692   5.279828
    12  C    4.291349   5.248013   2.427646   3.852695   5.011729
    13  C    2.895585   3.851430   1.391481   2.551172   3.813932
    14  H    6.206180   7.132463   3.890601   5.458329   6.339448
    15  H    5.016147   5.966312   3.627732   4.881600   6.143864
    16  O    2.507759   3.407103   2.449242   2.879241   4.243597
    17  C    3.882897   4.730407   3.648867   4.298972   5.662316
    18  H    4.457637   5.315286   3.879088   4.700218   6.015843
    19  H    4.438216   5.314676   3.910010   4.736969   6.094466
    20  H    4.147631   4.863586   4.477251   4.847977   6.191372
                    6          7          8          9         10
     6  H    0.000000
     7  C    2.693122   0.000000
     8  H    2.117649   1.085980   0.000000
     9  C    4.045410   1.385212   2.129746   0.000000
    10  H    4.544013   2.145683   2.449512   1.083717   0.000000
    11  C    5.056360   2.416271   3.388638   1.394955   2.142385
    12  C    5.045438   2.784470   3.870082   2.406607   3.384819
    13  C    4.027634   2.403176   3.397549   2.771894   3.855593
    14  H    6.066404   3.389467   4.267356   2.144778   2.453653
    15  H    6.286750   4.139794   5.225722   3.679631   4.566289
    16  O    4.732963   3.721446   4.615391   4.201652   5.285282
    17  C    6.105133   4.730913   5.732010   4.852047   5.897082
    18  H    6.359884   4.800031   5.829477   4.747239   5.740044
    19  H    6.472283   4.831046   5.860668   4.771247   5.763178
    20  H    6.750701   5.666964   6.621764   5.890404   6.946096
                   11         12         13         14         15
    11  C    0.000000
    12  C    1.393988   0.000000
    13  C    2.415182   1.396782   0.000000
    14  H    1.081663   2.162784   3.404166   0.000000
    15  H    2.432351   1.358032   2.335356   2.725940   0.000000
    16  O    3.710464   2.428958   1.430000   4.589408   2.672302
    17  C    3.967797   2.576149   2.335595   4.585268   2.036568
    18  H    3.754882   2.460617   2.560504   4.251484   1.755264
    19  H    3.767929   2.466338   2.577899   4.257101   1.725439
    20  H    5.037566   3.645300   3.267978   5.640250   3.018208
                   16         17         18         19         20
    16  O    0.000000
    17  C    1.430000   0.000000
    18  H    2.051796   1.070000   0.000000
    19  H    2.051796   1.070000   1.747303   0.000000
    20  H    2.051796   1.070000   1.747303   1.747303   0.000000
 Symmetry turned off by external request.
 Stoichiometry    C7H9BO3
 Framework group  C1[X(C7H9BO3)]
 Deg. of freedom    54
 Full point group                 C1      NOp   1
 Rotational constants (GHZ):           1.4184501           1.0749401           0.6146858
 Standard basis: 6-311+G(d,p) (5D, 7F)
   296 basis functions,   468 primitive gaussians,   307 cartesian basis functions
    40 alpha electrons       40 beta electrons
       nuclear repulsion energy       584.3029420774 Hartrees.
 NAtoms=   20 NActive=   20 NUniq=   20 SFac= 1.00D+00 NAtFMM=   60 NAOKFM=F Big=F
 Integral buffers will be    131072 words long.
 Raffenetti 2 integral format.
 Two-electron integral symmetry is turned off.
 One-electron integrals computed using PRISM.
 NBasis=   296 RedAO= T EigKep=  1.37D-06  NBF=   296
 NBsUse=   296 1.00D-06 EigRej= -1.00D+00 NBFU=   296
 ExpMin= 3.15D-02 ExpMax= 8.59D+03 ExpMxC= 1.30D+03 IAcc=3 IRadAn=         5 AccDes= 0.00D+00
 Harris functional with IExCor= 1009 and IRadAn=       5 diagonalized for initial guess.
 HarFok:  IExCor= 1009 AccDes= 0.00D+00 IRadAn=         5 IDoV= 1 UseB2=F ITyADJ=14
 ICtDFT=  3500011 ScaDFX=  1.000000  1.000000  1.000000  1.000000
 FoFCou: FMM=F IPFlag=           0 FMFlag=      100000 FMFlg1=           0
         NFxFlg=           0 DoJE=T BraDBF=F KetDBF=T FulRan=T
         wScrn=  0.000000 ICntrl=       500 IOpCl=  0 I1Cent=   200000004 NGrid=           0
         NMat0=    1 NMatS0=      1 NMatT0=    0 NMatD0=    1 NMtDS0=    0 NMtDT0=    0
 Symmetry not used in FoFCou.
 Requested convergence on RMS density matrix=1.00D-08 within 128 cycles.
 Requested convergence on MAX density matrix=1.00D-06.
 Requested convergence on             energy=1.00D-06.
 Level shift goal  0.100 maximum shift  0.100.
 No special actions if energy rises.
 Dynamic level shift is on during FON iterations.
 SCF Done:  E(RM062X) =  -522.678174202     A.U. after   15 cycles
            NFock= 15  Conv=0.50D-08     -V/T= 2.0039
 DoSCS=F DFT=T ScalE2(SS,OS)=  1.000000  1.000000
 Range of M.O.s used for correlation:     1   296
 NBasis=   296 NAE=    40 NBE=    40 NFC=     0 NFV=     0
 NROrb=    296 NOA=    40 NOB=    40 NVA=   256 NVB=   256

 **** Warning!!: The largest alpha MO coefficient is  0.16931326D+03

 Symmetrizing basis deriv contribution to polar:
 IMax=3 JMax=2 DiffMx= 0.00D+00
 G2DrvN: will do    21 centers at a time, making    1 passes.
 Calling FoFCou, ICntrl=  3107 FMM=F I1Cent=   0 AccDes= 0.00D+00.
 End of G2Drv F.D. properties file   721 does not exist.
 End of G2Drv F.D. properties file   722 does not exist.
 End of G2Drv F.D. properties file   788 does not exist.
          IDoAtm=11111111111111111111
          Differentiating once with respect to nuclear coordinates.
 Keep R1 ints in memory in canonical form, NReq=1002449809.
          There are    63 degrees of freedom in the 1st order CPHF.  IDoFFX=6 NUNeed=     0.
     57 vectors produced by pass  0 Test12= 1.63D-14 1.59D-09 XBig12= 2.59D-01 8.49D-02.
 AX will form    57 AO Fock derivatives at one time.
     57 vectors produced by pass  1 Test12= 1.63D-14 1.59D-09 XBig12= 1.41D-02 2.26D-02.
     57 vectors produced by pass  2 Test12= 1.63D-14 1.59D-09 XBig12= 5.08D-04 3.52D-03.
     57 vectors produced by pass  3 Test12= 1.63D-14 1.59D-09 XBig12= 3.75D-06 2.34D-04.
     57 vectors produced by pass  4 Test12= 1.63D-14 1.59D-09 XBig12= 2.11D-08 1.59D-05.
     57 vectors produced by pass  5 Test12= 1.63D-14 1.59D-09 XBig12= 1.04D-10 9.73D-07.
     50 vectors produced by pass  6 Test12= 1.63D-14 1.59D-09 XBig12= 3.99D-13 8.83D-08.
      9 vectors produced by pass  7 Test12= 1.63D-14 1.59D-09 XBig12= 1.31D-15 5.13D-09.
 InvSVY:  IOpt=1 It=  1 EMax= 5.55D-16
 Solved reduced A of dimension   401 with    63 vectors.
 End of Minotr F.D. properties file   721 does not exist.
 End of Minotr F.D. properties file   722 does not exist.
 End of Minotr F.D. properties file   788 does not exist.

 **********************************************************************

            Population analysis using the SCF Density.

 **********************************************************************

 Alpha  occ. eigenvalues --  -19.64795 -19.63453 -19.61775 -10.61022 -10.57765
 Alpha  occ. eigenvalues --  -10.56530 -10.55777 -10.55669 -10.54544 -10.53335
 Alpha  occ. eigenvalues --   -7.07972  -1.17003  -1.16101  -1.12256  -0.96402
 Alpha  occ. eigenvalues --   -0.85483  -0.84397  -0.79367  -0.70418  -0.67519
 Alpha  occ. eigenvalues --   -0.64780  -0.62525  -0.60156  -0.55616  -0.54682
 Alpha  occ. eigenvalues --   -0.54047  -0.51688  -0.50737  -0.47569  -0.47148
 Alpha  occ. eigenvalues --   -0.45660  -0.44504  -0.44369  -0.42053  -0.40871
 Alpha  occ. eigenvalues --   -0.39818  -0.38592  -0.36299  -0.31655  -0.28890
 Alpha virt. eigenvalues --   -0.00592  -0.00153   0.01021   0.01887   0.02350
 Alpha virt. eigenvalues --    0.03013   0.03420   0.03680   0.04328   0.05977
 Alpha virt. eigenvalues --    0.06062   0.06732   0.08293   0.08513   0.09578
 Alpha virt. eigenvalues --    0.10038   0.10816   0.11288   0.12015   0.13291
 Alpha virt. eigenvalues --    0.13422   0.13841   0.14409   0.15712   0.16175
 Alpha virt. eigenvalues --    0.16588   0.17116   0.17844   0.18348   0.19042
 Alpha virt. eigenvalues --    0.19618   0.20128   0.21124   0.21536   0.22065
 Alpha virt. eigenvalues --    0.22831   0.23030   0.23156   0.24188   0.24475
 Alpha virt. eigenvalues --    0.24786   0.25158   0.25914   0.26209   0.26574
 Alpha virt. eigenvalues --    0.27060   0.27552   0.27782   0.28615   0.30114
 Alpha virt. eigenvalues --    0.30833   0.31821   0.32314   0.33584   0.34822
 Alpha virt. eigenvalues --    0.36214   0.37688   0.38470   0.40234   0.40941
 Alpha virt. eigenvalues --    0.42965   0.44962   0.45498   0.46104   0.48067
 Alpha virt. eigenvalues --    0.48615   0.49319   0.50977   0.51944   0.53756
 Alpha virt. eigenvalues --    0.54975   0.56792   0.57347   0.58230   0.59297
 Alpha virt. eigenvalues --    0.60485   0.61533   0.62767   0.63414   0.64416
 Alpha virt. eigenvalues --    0.64511   0.65127   0.67568   0.68589   0.69480
 Alpha virt. eigenvalues --    0.70455   0.71250   0.71668   0.73960   0.74477
 Alpha virt. eigenvalues --    0.76143   0.78739   0.80336   0.81267   0.82779
 Alpha virt. eigenvalues --    0.85029   0.86556   0.87901   0.88836   0.91111
 Alpha virt. eigenvalues --    0.92794   0.93905   0.94902   0.96370   0.96954
 Alpha virt. eigenvalues --    0.99524   1.02507   1.04892   1.05443   1.05918
 Alpha virt. eigenvalues --    1.07113   1.09193   1.10203   1.11396   1.12797
 Alpha virt. eigenvalues --    1.13610   1.14310   1.15745   1.16318   1.17230
 Alpha virt. eigenvalues --    1.19652   1.21070   1.24144   1.31304   1.33377
 Alpha virt. eigenvalues --    1.34979   1.38556   1.39770   1.44070   1.44372
 Alpha virt. eigenvalues --    1.46845   1.48040   1.49195   1.52082   1.52660
 Alpha virt. eigenvalues --    1.55021   1.57461   1.59370   1.60413   1.61862
 Alpha virt. eigenvalues --    1.62241   1.65010   1.65912   1.67189   1.68961
 Alpha virt. eigenvalues --    1.71669   1.72851   1.73652   1.74580   1.76133
 Alpha virt. eigenvalues --    1.76493   1.77369   1.80942   1.83368   1.86667
 Alpha virt. eigenvalues --    1.90436   1.90794   1.92051   1.93917   1.95385
 Alpha virt. eigenvalues --    1.95720   1.96464   1.98753   1.99454   2.00742
 Alpha virt. eigenvalues --    2.06127   2.07005   2.08915   2.14297   2.16865
 Alpha virt. eigenvalues --    2.19162   2.20950   2.21990   2.24069   2.27116
 Alpha virt. eigenvalues --    2.31341   2.36731   2.36805   2.41326   2.45680
 Alpha virt. eigenvalues --    2.50001   2.52355   2.54568   2.56895   2.58988
 Alpha virt. eigenvalues --    2.61188   2.61956   2.64802   2.65830   2.68040
 Alpha virt. eigenvalues --    2.71616   2.71753   2.75091   2.77527   2.79047
 Alpha virt. eigenvalues --    2.79523   2.81369   2.82156   2.82459   2.85662
 Alpha virt. eigenvalues --    2.86252   2.93232   2.96583   2.97426   3.08253
 Alpha virt. eigenvalues --    3.10109   3.11941   3.13776   3.14202   3.14342
 Alpha virt. eigenvalues --    3.24503   3.25112   3.27974   3.29249   3.31777
 Alpha virt. eigenvalues --    3.36912   3.40621   3.46059   3.47693   3.51996
 Alpha virt. eigenvalues --    3.55108   3.57922   3.62551   3.67815   3.72674
 Alpha virt. eigenvalues --    3.88267   3.89208   3.91772   3.96060   4.01661
 Alpha virt. eigenvalues --    4.07146   4.14151   4.16849   4.23565   4.24645
 Alpha virt. eigenvalues --    4.86590   5.09092   5.10382   5.17234   5.40515
 Alpha virt. eigenvalues --    5.50398   5.60562   5.71343   5.77530   5.79211
 Alpha virt. eigenvalues --   14.81093  23.60740  23.99312  24.01504  24.08172
 Alpha virt. eigenvalues --   24.13752  24.15013  24.25005  50.01994  50.06910
 Alpha virt. eigenvalues --   50.08611
          Condensed to atoms (all electrons):
               1          2          3          4          5          6
     1  O    7.874070   0.220153   0.106951   0.462999  -0.132746   0.019013
     2  H    0.220153   0.473338   0.012917   0.001220  -0.047747   0.003863
     3  C    0.106951   0.012917  20.401383   0.444736  -0.353604   0.050731
     4  B    0.462999   0.001220   0.444736   3.410016   0.314911   0.026026
     5  O   -0.132746  -0.047747  -0.353604   0.314911   8.108123   0.217326
     6  H    0.019013   0.003863   0.050731   0.026026   0.217326   0.458696
     7  C    0.110349  -0.018422  -1.816068   0.024130   0.158720  -0.128088
     8  H    0.001991   0.000030  -0.005789   0.006024  -0.004774   0.011476
     9  C    0.045970   0.004128   0.101379   0.078428   0.025855   0.021332
    10  H   -0.000024   0.000000  -0.046437  -0.000203   0.000322  -0.000053
    11  C    0.000167   0.000028  -1.148235  -0.000035   0.013083  -0.005687
    12  C   -0.054977  -0.001610  -4.715842   0.026289   0.057802   0.004017
    13  C   -0.215828   0.015205  -5.827387  -0.225141  -0.014066   0.072872
    14  H    0.000003   0.000000   0.003165  -0.000206  -0.000007  -0.000002
    15  H    0.000067   0.000001  -0.169478  -0.001914  -0.000004   0.000004
    16  O   -0.034683   0.001789  -0.749360  -0.002666  -0.005239   0.000661
    17  C    0.002093   0.001803  -0.051518  -0.016071  -0.005009   0.000421
    18  H   -0.001587  -0.000036   0.045616  -0.000486   0.000037   0.000000
    19  H   -0.000182   0.000017  -0.003113  -0.000542  -0.000007   0.000000
    20  H    0.000436  -0.000055   0.012658  -0.000358  -0.000032   0.000000
               7          8          9         10         11         12
     1  O    0.110349   0.001991   0.045970  -0.000024   0.000167  -0.054977
     2  H   -0.018422   0.000030   0.004128   0.000000   0.000028  -0.001610
     3  C   -1.816068  -0.005789   0.101379  -0.046437  -1.148235  -4.715842
     4  B    0.024130   0.006024   0.078428  -0.000203  -0.000035   0.026289
     5  O    0.158720  -0.004774   0.025855   0.000322   0.013083   0.057802
     6  H   -0.128088   0.011476   0.021332  -0.000053  -0.005687   0.004017
     7  C   12.401154   0.274728  -1.535970   0.059909   0.790717  -1.946566
     8  H    0.274728   0.544355   0.060594  -0.007005  -0.046429   0.037564
     9  C   -1.535970   0.060594   8.024400   0.302645   0.018982   0.669655
    10  H    0.059909  -0.007005   0.302645   0.509057   0.034036  -0.021721
    11  C    0.790717  -0.046429   0.018982   0.034036   8.772113  -1.246551
    12  C   -1.946566   0.037564   0.669655  -0.021721  -1.246551  14.563439
    13  C   -2.008425  -0.001276  -1.938874   0.023441  -0.687331  -2.626834
    14  H   -0.042718  -0.000297   0.034659  -0.007129   0.237675   0.112795
    15  H    0.016020   0.000048  -0.021235  -0.000178   0.082564   0.400788
    16  O   -0.026787  -0.000592  -0.002242   0.000132   0.142482   0.320396
    17  C   -0.005138   0.000713   0.020938   0.000413  -0.294329  -0.260863
    18  H    0.002059  -0.000002   0.001238   0.000002  -0.009710   0.018003
    19  H    0.002401  -0.000003  -0.000520   0.000002   0.003785   0.013007
    20  H    0.000900   0.000000  -0.001373   0.000000   0.003106  -0.036793
              13         14         15         16         17         18
     1  O   -0.215828   0.000003   0.000067  -0.034683   0.002093  -0.001587
     2  H    0.015205   0.000000   0.000001   0.001789   0.001803  -0.000036
     3  C   -5.827387   0.003165  -0.169478  -0.749360  -0.051518   0.045616
     4  B   -0.225141  -0.000206  -0.001914  -0.002666  -0.016071  -0.000486
     5  O   -0.014066  -0.000007  -0.000004  -0.005239  -0.005009   0.000037
     6  H    0.072872  -0.000002   0.000004   0.000661   0.000421   0.000000
     7  C   -2.008425  -0.042718   0.016020  -0.026787  -0.005138   0.002059
     8  H   -0.001276  -0.000297   0.000048  -0.000592   0.000713  -0.000002
     9  C   -1.938874   0.034659  -0.021235  -0.002242   0.020938   0.001238
    10  H    0.023441  -0.007129  -0.000178   0.000132   0.000413   0.000002
    11  C   -0.687331   0.237675   0.082564   0.142482  -0.294329  -0.009710
    12  C   -2.626834   0.112795   0.400788   0.320396  -0.260863   0.018003
    13  C   19.487692   0.001109   0.026307   0.301117   0.262787  -0.064624
    14  H    0.001109   0.497109  -0.005195  -0.000498   0.003701   0.000090
    15  H    0.026307  -0.005195   0.549550  -0.018379  -0.012936  -0.010249
    16  O    0.301117  -0.000498  -0.018379   8.183959   0.077886  -0.039135
    17  C    0.262787   0.003701  -0.012936   0.077886   5.299593   0.419097
    18  H   -0.064624   0.000090  -0.010249  -0.039135   0.419097   0.565526
    19  H   -0.036107   0.000092  -0.008950  -0.033994   0.423290  -0.060046
    20  H    0.057719  -0.000006   0.003515  -0.066163   0.409484  -0.023674
              19         20
     1  O   -0.000182   0.000436
     2  H    0.000017  -0.000055
     3  C   -0.003113   0.012658
     4  B   -0.000542  -0.000358
     5  O   -0.000007  -0.000032
     6  H    0.000000   0.000000
     7  C    0.002401   0.000900
     8  H   -0.000003   0.000000
     9  C   -0.000520  -0.001373
    10  H    0.000002   0.000000
    11  C    0.003785   0.003106
    12  C    0.013007  -0.036793
    13  C   -0.036107   0.057719
    14  H    0.000092  -0.000006
    15  H   -0.008950   0.003515
    16  O   -0.033994  -0.066163
    17  C    0.423290   0.409484
    18  H   -0.060046  -0.023674
    19  H    0.565417  -0.024613
    20  H   -0.024613   0.480956
 Mulliken charges:
               1
     1  O   -0.404235
     2  H    0.333378
     3  C   -0.292706
     4  B    0.452845
     5  O   -0.332945
     6  H    0.247393
     7  C   -0.312905
     8  H    0.128643
     9  C    0.090011
    10  H    0.152793
    11  C   -0.660431
    12  C    0.688002
    13  C   -0.602357
    14  H    0.165660
    15  H    0.169653
    16  O   -0.048683
    17  C   -0.276357
    18  H    0.157882
    19  H    0.160065
    20  H    0.184294
 Sum of Mulliken charges =   0.00000
 Mulliken charges with hydrogens summed into heavy atoms:
               1
     1  O   -0.070857
     3  C   -0.292706
     4  B    0.452845
     5  O   -0.085552
     7  C   -0.184262
     9  C    0.242804
    11  C   -0.494771
    12  C    0.857655
    13  C   -0.602357
    16  O   -0.048683
    17  C    0.225884
 APT charges:
               1
     1  O   -0.341485
     2  H    2.237944
     3  C    2.663638
     4  B   -0.852139
     5  O    1.383765
     6  H   -1.075348
     7  C   -1.098482
     8  H    0.105853
     9  C   -0.045358
    10  H   -0.638717
    11  C   -1.582642
    12  C   -0.212087
    13  C   -0.991432
    14  H   -0.362174
    15  H    1.290798
    16  O   -0.092489
    17  C   -1.579499
    18  H   -1.017293
    19  H    0.238441
    20  H    1.968705
 Sum of APT charges =   0.00000
 APT charges with hydrogens summed into heavy atoms:
               1
     1  O    1.896459
     3  C    2.663638
     4  B   -0.852139
     5  O    0.308417
     7  C   -0.992629
     9  C   -0.684075
    11  C   -1.944816
    12  C    1.078711
    13  C   -0.991432
    16  O   -0.092489
    17  C   -0.389646
 Electronic spatial extent (au):  <R**2>=          35330.3648
 Charge=              0.0000 electrons
 Dipole moment (field-independent basis, Debye):
    X=             -1.6899    Y=             -0.2941    Z=             -0.6678  Tot=              1.8407
 Quadrupole moment (field-independent basis, Debye-Ang):
   XX=            -82.2741   YY=            -61.9968   ZZ=            -68.8469
   XY=            -13.2193   XZ=            -11.1078   YZ=            -13.9299
 Traceless Quadrupole moment (field-independent basis, Debye-Ang):
   XX=            -11.2348   YY=              9.0424   ZZ=              2.1924
   XY=            -13.2193   XZ=            -11.1078   YZ=            -13.9299
 Octapole moment (field-independent basis, Debye-Ang**2):
  XXX=          -1319.0154  YYY=          -1330.1681  ZZZ=           -949.0452  XYY=           -462.8526
  XXY=           -608.0540  XXZ=           -406.3984  XZZ=           -451.2321  YZZ=           -582.4260
  YYZ=           -448.1980  XYZ=           -124.7476
 Hexadecapole moment (field-independent basis, Debye-Ang**3):
 XXXX=         -16266.1663 YYYY=         -20142.7387 ZZZZ=          -9529.0415 XXXY=          -9735.1741
 XXXZ=          -6447.1586 YYYX=          -8821.2267 YYYZ=          -7766.2665 ZZZX=          -6089.6029
 ZZZY=          -7264.1484 XXYY=          -7055.4803 XXZZ=          -4631.5219 YYZZ=          -6373.0113
 XXYZ=          -3111.2756 YYXZ=          -3042.2426 ZZXY=          -3689.6897
 N-N= 5.843029420774D+02 E-N=-2.391051431023D+03  KE= 5.206447225012D+02
  Exact polarizability:       0.000       0.000       0.000       0.000       0.000       0.000
 Approx polarizability:     146.836      12.605     129.340      11.851     -31.680     109.161
 Calling FoFJK, ICntrl=    100127 FMM=F ISym2X=0 I1Cent= 0 IOpClX= 0 NMat=1 NMatS=1 NMatT=0.
 -------------------------------------------------------------------
 Center     Atomic                   Forces (Hartrees/Bohr)
 Number     Number              X              Y              Z
 -------------------------------------------------------------------
      1        8           0.002308742   -0.005607375    0.005717530
      2        1          -0.000233085   -0.001442422    0.000867133
      3        6           0.011196905   -0.005604209    0.007994779
      4        5           0.004973030    0.004879414   -0.001501091
      5        8          -0.001590852   -0.002199548    0.000871636
      6        1           0.000481685   -0.000256381    0.000224186
      7        6           0.003020208    0.008970297   -0.005741495
      8        1           0.001271681    0.000570963   -0.000134441
      9        6          -0.008150423   -0.001998589   -0.001099630
     10        1           0.000254679   -0.000302687    0.000274395
     11        6           0.008501819    0.002571656    0.000854726
     12        6          -0.014652177    0.058080413   -0.049453827
     13        6           0.016290091    0.032636388   -0.019097382
     14        1          -0.000032977    0.001675473   -0.001281584
     15        1          -0.014485759   -0.085293308    0.061230022
     16        8          -0.042412008   -0.016006116   -0.003686185
     17        6           0.024636439   -0.006453933    0.013572878
     18        1           0.000134807   -0.002752837   -0.015984775
     19        1          -0.006314829    0.014379883    0.004575995
     20        1           0.014802023    0.004152920    0.001797130
 -------------------------------------------------------------------
 Cartesian Forces:  Max     0.085293308 RMS     0.019692324
 FormGI is forming the generalized inverse of G from B-inverse, IUseBI=4.

 GradGradGradGradGradGradGradGradGradGradGradGradGradGradGradGradGradGrad
 Berny optimization.
 Internal  Forces:  Max     0.124324802 RMS     0.021346868
 Search for a local minimum.
 Step number   1 out of a maximum of   97
 All quantities printed in internal units (Hartrees-Bohrs-Radians)
 Mixed Optimization -- RFO/linear search
 Second derivative matrix not updated -- analytic derivatives used.
 ITU=  0
     Eigenvalues ---   -0.01963  -0.00649   0.00426   0.00961   0.01134
     Eigenvalues ---    0.01655   0.01729   0.02007   0.02229   0.02351
     Eigenvalues ---    0.02615   0.02806   0.03871   0.04076   0.05057
     Eigenvalues ---    0.06549   0.08942   0.10315   0.10721   0.10810
     Eigenvalues ---    0.10908   0.11497   0.12008   0.12386   0.13234
     Eigenvalues ---    0.15612   0.17145   0.17550   0.18522   0.18632
     Eigenvalues ---    0.18809   0.19161   0.23471   0.24109   0.25984
     Eigenvalues ---    0.29230   0.33891   0.35770   0.36338   0.36815
     Eigenvalues ---    0.37614   0.38414   0.38617   0.38760   0.39885
     Eigenvalues ---    0.40088   0.46245   0.47166   0.48850   0.50679
     Eigenvalues ---    0.55085   0.56190   0.66397   1.55531
 RFO step:  Lambda=-9.34926050D-02 EMin=-1.96331995D-02
 Linear search not attempted -- first point.
 Maximum step size (   0.300) exceeded in Quadratic search.
    -- Step size scaled by   0.437
 Iteration  1 RMS(Cart)=  0.08926558 RMS(Int)=  0.01079576
 Iteration  2 RMS(Cart)=  0.01370966 RMS(Int)=  0.00009119
 Iteration  3 RMS(Cart)=  0.00009684 RMS(Int)=  0.00006037
 Iteration  4 RMS(Cart)=  0.00000001 RMS(Int)=  0.00006037
 Variable       Old X    -DE/DX   Delta X   Delta X   Delta X     New X
                                 (Linear)    (Quad)   (Total)
    R1        1.81675   0.00051   0.00000   0.00041   0.00041   1.81716
    R2        2.57372  -0.00455   0.00000  -0.00243  -0.00243   2.57129
    R3        2.96331   0.00846   0.00000   0.00262   0.00262   2.96593
    R4        2.65190  -0.00440   0.00000  -0.00414  -0.00414   2.64776
    R5        2.62952   0.01872   0.00000   0.01030   0.01031   2.63982
    R6        2.58699   0.00227   0.00000   0.00286   0.00286   2.58985
    R7        1.81137  -0.00015   0.00000  -0.00016  -0.00016   1.81121
    R8        2.05220  -0.00039   0.00000   0.00032   0.00032   2.05252
    R9        2.61767  -0.00390   0.00000   0.00376   0.00375   2.62142
   R10        2.04793   0.00005   0.00000  -0.00056  -0.00056   2.04737
   R11        2.63608  -0.00973   0.00000  -0.00467  -0.00467   2.63141
   R12        2.63426  -0.00784   0.00000  -0.00368  -0.00368   2.63058
   R13        2.04405   0.00079   0.00000   0.00122   0.00122   2.04526
   R14        2.63954   0.02104   0.00000   0.00234   0.00235   2.64189
   R15        2.56631  -0.10383   0.00000  -0.27964  -0.27964   2.28667
   R16        2.70231  -0.01107   0.00000  -0.06223  -0.06223   2.64008
   R17        2.70231  -0.00686   0.00000  -0.00773  -0.00773   2.69458
   R18        2.02201   0.01437   0.00000   0.01495   0.01495   2.03696
   R19        2.02201   0.01422   0.00000   0.01543   0.01543   2.03744
   R20        2.02201   0.01328   0.00000   0.01025   0.01025   2.03225
    A1        1.95651  -0.00294   0.00000  -0.00510  -0.00510   1.95141
    A2        2.13685  -0.02187   0.00000  -0.01208  -0.01210   2.12476
    A3        2.07630   0.02127   0.00000   0.02170   0.02169   2.09799
    A4        2.07003   0.00060   0.00000  -0.00962  -0.00959   2.06043
    A5        2.06875   0.01804   0.00000   0.01632   0.01628   2.08503
    A6        2.05461  -0.00718   0.00000  -0.00406  -0.00410   2.05051
    A7        2.15982  -0.01086   0.00000  -0.01220  -0.01223   2.14759
    A8        1.99391   0.00102   0.00000   0.00025   0.00025   1.99416
    A9        2.11169  -0.00681   0.00000  -0.00903  -0.00904   2.10265
   A10        2.10245   0.01087   0.00000   0.01246   0.01245   2.11490
   A11        2.06900  -0.00406   0.00000  -0.00351  -0.00352   2.06548
   A12        2.09806   0.00266   0.00000   0.00212   0.00212   2.10018
   A13        2.10679  -0.00630   0.00000  -0.00881  -0.00882   2.09798
   A14        2.07833   0.00364   0.00000   0.00670   0.00670   2.08503
   A15        2.08200   0.00694   0.00000   0.00509   0.00510   2.08710
   A16        2.08497  -0.00147   0.00000   0.00273   0.00272   2.08769
   A17        2.11621  -0.00547   0.00000  -0.00781  -0.00782   2.10839
   A18        2.09197   0.00657   0.00000   0.00090   0.00087   2.09284
   A19        2.16794  -0.03059   0.00000  -0.01518  -0.01526   2.15268
   A20        2.02328   0.02402   0.00000   0.01430   0.01421   2.03749
   A21        2.11311  -0.01868   0.00000  -0.00008  -0.00013   2.11297
   A22        2.10249  -0.05017   0.00000  -0.01734  -0.01744   2.08505
   A23        2.06758   0.06885   0.00000   0.01738   0.01726   2.08484
   A24        1.91114   0.12432   0.00000   0.04366   0.04366   1.95479
   A25        1.91063   0.00924   0.00000   0.01305   0.01302   1.92366
   A26        1.91063   0.00928   0.00000   0.00789   0.00787   1.91850
   A27        1.91063  -0.01812   0.00000  -0.01984  -0.01982   1.89082
   A28        1.91063   0.00366   0.00000  -0.00311  -0.00318   1.90745
   A29        1.91063  -0.00181   0.00000  -0.01197  -0.01197   1.89867
   A30        1.91063  -0.00226   0.00000   0.01398   0.01401   1.92464
    D1       -3.12504  -0.00043   0.00000  -0.00603  -0.00608  -3.13113
    D2        0.01230   0.00030   0.00000   0.00903   0.00909   0.02138
    D3       -3.03266   0.00107   0.00000   0.11011   0.11013  -2.92252
    D4        0.11346   0.00028   0.00000   0.09405   0.09405   0.20751
    D5        0.11030   0.00122   0.00000   0.10689   0.10689   0.21719
    D6       -3.02677   0.00043   0.00000   0.09083   0.09081  -2.93596
    D7        0.01724  -0.00002   0.00000   0.00502   0.00501   0.02225
    D8       -3.13494  -0.00004   0.00000  -0.00365  -0.00369  -3.13863
    D9       -3.12572  -0.00016   0.00000   0.00826   0.00821  -3.11750
   D10        0.00529  -0.00018   0.00000  -0.00042  -0.00049   0.00480
   D11        3.13259   0.00014   0.00000  -0.00603  -0.00595   3.12665
   D12       -0.00729   0.00015   0.00000   0.01981   0.01967   0.01238
   D13       -0.00769   0.00031   0.00000  -0.00912  -0.00907  -0.01676
   D14        3.13561   0.00032   0.00000   0.01671   0.01655  -3.13103
   D15       -3.09438  -0.00035   0.00000   0.01663   0.01671  -3.07767
   D16        0.04272   0.00050   0.00000   0.03262   0.03254   0.07526
   D17       -3.13931   0.00005   0.00000   0.00393   0.00397  -3.13533
   D18       -0.00028   0.00003   0.00000   0.00810   0.00811   0.00783
   D19       -0.00805   0.00001   0.00000  -0.00457  -0.00458  -0.01263
   D20        3.13098  -0.00001   0.00000  -0.00040  -0.00045   3.13054
   D21       -0.00245   0.00010   0.00000  -0.00625  -0.00619  -0.00864
   D22        3.14081   0.00003   0.00000  -0.01137  -0.01133   3.12948
   D23        3.13661   0.00009   0.00000  -0.00213  -0.00210   3.13451
   D24       -0.00332   0.00001   0.00000  -0.00725  -0.00723  -0.01055
   D25        0.00009  -0.00010   0.00000  -0.00324  -0.00326  -0.00317
   D26       -3.14033  -0.00005   0.00000  -0.02559  -0.02548   3.11738
   D27        3.14000  -0.00002   0.00000   0.00198   0.00194  -3.14125
   D28       -0.00043   0.00003   0.00000  -0.02037  -0.02027  -0.02070
   D29        0.00506  -0.00013   0.00000   0.01106   0.01108   0.01614
   D30       -3.13821  -0.00026   0.00000  -0.01431  -0.01457   3.13041
   D31       -3.13761  -0.00021   0.00000   0.03159   0.03184  -3.10577
   D32        0.00231  -0.00033   0.00000   0.00623   0.00619   0.00851
   D33        3.10963  -0.00067   0.00000   0.17205   0.17204  -3.00151
   D34       -0.03030  -0.00058   0.00000   0.19724   0.19725   0.16696
   D35       -1.02822  -0.00755   0.00000  -0.12490  -0.12496  -1.15319
   D36        1.06617   0.00828   0.00000  -0.11589  -0.11581   0.95036
   D37       -3.12262   0.00010   0.00000  -0.10608  -0.10610   3.05447
         Item               Value     Threshold  Converged?
 Maximum Force            0.124325     0.000015     NO 
 RMS     Force            0.021347     0.000010     NO 
 Maximum Displacement     0.428981     0.000060     NO 
 RMS     Displacement     0.092745     0.000040     NO 
 Predicted change in Energy=-3.758655D-02
 GradGradGradGradGradGradGradGradGradGradGradGradGradGradGradGradGradGrad

                          Input orientation:                          
 ---------------------------------------------------------------------
 Center     Atomic      Atomic             Coordinates (Angstroms)
 Number     Number       Type             X           Y           Z
 ---------------------------------------------------------------------
      1          8           0        8.623053    7.639968    5.675264
      2          1           0        9.452859    7.390936    6.092490
      3          6           0        6.243466    6.902435    5.217843
      4          5           0        7.667501    6.685588    5.841097
      5          8           0        8.003892    5.573225    6.567553
      6          1           0        7.316025    4.907074    6.608896
      7          6           0        5.154904    6.092323    5.567025
      8          1           0        5.270886    5.300183    6.301039
      9          6           0        3.901967    6.292222    5.006220
     10          1           0        3.068329    5.661310    5.290465
     11          6           0        3.706507    7.305366    4.071160
     12          6           0        4.773896    8.122899    3.710464
     13          6           0        6.030587    7.924903    4.290121
     14          1           0        2.727626    7.445649    3.631273
     15          1           0        4.686614    9.006553    2.888413
     16          8           0        7.098356    8.742258    3.911178
     17          6           0        6.671950    9.838994    3.105840
     18          1           0        6.294276    9.482800    2.161179
     19          1           0        5.896742   10.388961    3.614791
     20          1           0        7.520286   10.473986    2.922413
 ---------------------------------------------------------------------
                    Distance matrix (angstroms):
                    1          2          3          4          5
     1  O    0.000000
     2  H    0.961599   0.000000
     3  C    2.532908   3.362119   0.000000
     4  B    1.360670   1.936032   1.569504   0.000000
     5  O    2.334730   2.372607   2.586042   1.370491   0.000000
     6  H    3.169969   3.316973   2.658360   1.968797   0.958451
     7  C    3.799339   4.520501   1.401134   2.596194   3.063862
     8  H    4.135603   4.680133   2.164819   2.806182   2.759512
     9  C    4.955068   5.761907   2.428943   3.876984   4.447528
    10  H    5.909156   6.663114   3.409863   4.743915   5.098872
    11  C    5.182425   6.092099   2.813076   4.382497   5.263061
    12  C    4.348525   5.301181   2.433385   3.870195   5.009658
    13  C    2.953081   3.904562   1.396935   2.573114   3.822436
    14  H    6.242733   7.161658   3.895307   5.464740   6.321922
    15  H    5.012947   5.966022   3.503904   4.794884   6.027283
    16  O    2.579097   3.482511   2.413122   2.877222   4.233095
    17  C    3.904415   4.758837   3.642463   4.291472   5.652815
    18  H    4.600873   5.459648   4.000508   4.822027   6.133816
    19  H    4.385805   5.270021   3.853033   4.669797   6.029112
    20  H    4.101944   4.825912   4.433423   4.784595   6.126857
                    6          7          8          9         10
     6  H    0.000000
     7  C    2.675960   0.000000
     8  H    2.105210   1.086147   0.000000
     9  C    4.017836   1.387196   2.129469   0.000000
    10  H    4.511104   2.148500   2.450088   1.083419   0.000000
    11  C    5.022006   2.409759   3.382367   1.392482   2.144038
    12  C    5.020445   2.777629   3.863394   2.406372   3.385969
    13  C    4.017009   2.399094   3.392653   2.776594   3.859989
    14  H    6.030259   3.386784   4.266011   2.144750   2.460257
    15  H    6.128746   3.985849   5.071939   3.531058   4.424856
    16  O    4.694007   3.679809   4.571539   4.173572   5.256976
    17  C    6.083591   4.732484   5.724779   4.885064   5.933947
    18  H    6.462464   4.938956   5.973279   4.898693   5.899403
    19  H    6.405476   4.777305   5.788203   4.764292   5.758341
    20  H    6.680000   5.638082   6.575953   5.909453   6.970613
                   11         12         13         14         15
    11  C    0.000000
    12  C    1.392042   0.000000
    13  C    2.415185   1.398026   0.000000
    14  H    1.082307   2.156887   3.401958   0.000000
    15  H    2.292059   1.210053   2.222839   2.612641   0.000000
    16  O    3.687125   2.413919   1.397068   4.567584   2.632945
    17  C    4.018080   2.629289   2.340430   4.643476   2.163745
    18  H    3.884043   2.561478   2.651220   4.362585   1.827637
    19  H    3.809719   2.530805   2.558431   4.325119   1.975623
    20  H    5.089664   3.700174   3.253867   5.713396   3.191271
                   16         17         18         19         20
    16  O    0.000000
    17  C    1.425911   0.000000
    18  H    2.063358   1.077913   0.000000
    19  H    2.059940   1.078166   1.758450   0.000000
    20  H    2.038274   1.075422   1.750722   1.767062   0.000000
 Symmetry turned off by external request.
 Stoichiometry    C7H9BO3
 Framework group  C1[X(C7H9BO3)]
 Deg. of freedom    54
 Full point group                 C1      NOp   1
 Rotational constants (GHZ):           1.4140599           1.0717913           0.6146618
 Standard basis: 6-311+G(d,p) (5D, 7F)
   296 basis functions,   468 primitive gaussians,   307 cartesian basis functions
    40 alpha electrons       40 beta electrons
       nuclear repulsion energy       584.4264830485 Hartrees.
 NAtoms=   20 NActive=   20 NUniq=   20 SFac= 1.00D+00 NAtFMM=   60 NAOKFM=F Big=F
 Integral buffers will be    131072 words long.
 Raffenetti 2 integral format.
 Two-electron integral symmetry is turned off.
 One-electron integrals computed using PRISM.
 NBasis=   296 RedAO= T EigKep=  1.42D-06  NBF=   296
 NBsUse=   296 1.00D-06 EigRej= -1.00D+00 NBFU=   296
 Initial guess from the checkpoint file:  "2-OMe-phboh2-opt-freq.chk"
 B after Tr=    -0.048739   -0.053385    0.096389
         Rot=    0.999991    0.003929   -0.000635    0.001131 Ang=   0.47 deg.
 ExpMin= 3.15D-02 ExpMax= 8.59D+03 ExpMxC= 1.30D+03 IAcc=3 IRadAn=         5 AccDes= 0.00D+00
 Harris functional with IExCor= 1009 and IRadAn=       5 diagonalized for initial guess.
 HarFok:  IExCor= 1009 AccDes= 0.00D+00 IRadAn=         5 IDoV= 1 UseB2=F ITyADJ=14
 ICtDFT=  3500011 ScaDFX=  1.000000  1.000000  1.000000  1.000000
 FoFCou: FMM=F IPFlag=           0 FMFlag=      100000 FMFlg1=           0
         NFxFlg=           0 DoJE=T BraDBF=F KetDBF=T FulRan=T
         wScrn=  0.000000 ICntrl=       500 IOpCl=  0 I1Cent=   200000004 NGrid=           0
         NMat0=    1 NMatS0=      1 NMatT0=    0 NMatD0=    1 NMtDS0=    0 NMtDT0=    0
 Symmetry not used in FoFCou.
 Requested convergence on RMS density matrix=1.00D-08 within 128 cycles.
 Requested convergence on MAX density matrix=1.00D-06.
 Requested convergence on             energy=1.00D-06.
 Level shift goal  0.100 maximum shift  0.100.
 No special actions if energy rises.
 Dynamic level shift is on during FON iterations.
 SCF Done:  E(RM062X) =  -522.713877545     A.U. after   14 cycles
            NFock= 14  Conv=0.40D-08     -V/T= 2.0038
 Calling FoFJK, ICntrl=      2127 FMM=F ISym2X=0 I1Cent= 0 IOpClX= 0 NMat=1 NMatS=1 NMatT=0.
 -------------------------------------------------------------------
 Center     Atomic                   Forces (Hartrees/Bohr)
 Number     Number              X              Y              Z
 -------------------------------------------------------------------
      1        8           0.001746653   -0.003563122    0.003952530
      2        1          -0.000274700   -0.001068988    0.000655316
      3        6           0.008243480   -0.003567561    0.005014050
      4        5           0.002821673    0.004095976   -0.000254322
      5        8          -0.001048985   -0.001649332    0.000299925
      6        1           0.000323674   -0.000267593    0.000028126
      7        6           0.001781517    0.006060181   -0.004135426
      8        1           0.000856755    0.000351460   -0.000020718
      9        6          -0.005940284   -0.001740787   -0.000414205
     10        1           0.000302353   -0.000214047    0.000364829
     11        6           0.005777356    0.001174615    0.000606441
     12        6          -0.007265798    0.039097685   -0.038311311
     13        6           0.011112840    0.017304006   -0.015349697
     14        1           0.000013731    0.001278692   -0.001087287
     15        1          -0.009056561   -0.053946202    0.045506918
     16        8          -0.029071620   -0.006222563    0.001488791
     17        6           0.014846541   -0.007825446    0.006427238
     18        1          -0.000273588   -0.000406650   -0.010836078
     19        1          -0.004482935    0.008615023    0.003858067
     20        1           0.009587899    0.002494653    0.002206813
 -------------------------------------------------------------------
 Cartesian Forces:  Max     0.053946202 RMS     0.013299151

 GradGradGradGradGradGradGradGradGradGradGradGradGradGradGradGradGradGrad
 Berny optimization.
 Using GEDIIS/GDIIS optimizer.
 FormGI is forming the generalized inverse of G from B-inverse, IUseBI=4.
 Internal  Forces:  Max     0.072741372 RMS     0.013122524
 Search for a local minimum.
 Step number   2 out of a maximum of   97
 All quantities printed in internal units (Hartrees-Bohrs-Radians)
 Mixed Optimization -- RFO/linear search
 Update second derivatives using D2CorX and points    1    2
 DE= -3.57D-02 DEPred=-3.76D-02 R= 9.50D-01
 TightC=F SS=  1.41D+00  RLast= 4.93D-01 DXNew= 5.0454D-01 1.4789D+00
 Trust test= 9.50D-01 RLast= 4.93D-01 DXMaxT set to 5.05D-01
 ITU=  1  0
 Use linear search instead of GDIIS.
     Eigenvalues ---   -0.02907  -0.00666   0.00426   0.00961   0.01134
     Eigenvalues ---    0.01655   0.01729   0.02007   0.02229   0.02351
     Eigenvalues ---    0.02615   0.02805   0.03871   0.04076   0.06537
     Eigenvalues ---    0.07944   0.09170   0.10321   0.10718   0.10869
     Eigenvalues ---    0.10974   0.11565   0.12010   0.12401   0.13226
     Eigenvalues ---    0.15625   0.17096   0.17542   0.18510   0.18549
     Eigenvalues ---    0.18808   0.19151   0.22036   0.23476   0.25974
     Eigenvalues ---    0.29095   0.32882   0.35770   0.36313   0.36803
     Eigenvalues ---    0.37613   0.38415   0.38616   0.38709   0.39558
     Eigenvalues ---    0.40089   0.46240   0.47035   0.48844   0.50490
     Eigenvalues ---    0.55082   0.56190   0.63536   1.36682
 RFO step:  Lambda=-3.99734077D-02 EMin=-2.90704635D-02
 Quartic linear search produced a step of  1.00598.
 Iteration  1 RMS(Cart)=  0.13339550 RMS(Int)=  0.03751632
 Iteration  2 RMS(Cart)=  0.06464457 RMS(Int)=  0.00896941
 Iteration  3 RMS(Cart)=  0.00940413 RMS(Int)=  0.00031792
 Iteration  4 RMS(Cart)=  0.00003111 RMS(Int)=  0.00031600
 Iteration  5 RMS(Cart)=  0.00000003 RMS(Int)=  0.00031600
 Variable       Old X    -DE/DX   Delta X   Delta X   Delta X     New X
                                 (Linear)    (Quad)   (Total)
    R1        1.81716   0.00032   0.00041   0.00086   0.00127   1.81843
    R2        2.57129  -0.00277  -0.00244  -0.00416  -0.00661   2.56469
    R3        2.96593   0.00544   0.00264   0.00800   0.01064   2.97657
    R4        2.64776  -0.00258  -0.00417  -0.00264  -0.00681   2.64095
    R5        2.63982   0.01188   0.01037   0.01755   0.02795   2.66777
    R6        2.58985   0.00155   0.00288   0.00640   0.00928   2.59913
    R7        1.81121  -0.00005  -0.00016  -0.00136  -0.00152   1.80969
    R8        2.05252  -0.00018   0.00032   0.00045   0.00077   2.05329
    R9        2.62142  -0.00199   0.00377   0.00342   0.00716   2.62858
   R10        2.04737  -0.00001  -0.00057  -0.00108  -0.00165   2.04572
   R11        2.63141  -0.00570  -0.00470  -0.00433  -0.00906   2.62235
   R12        2.63058  -0.00484  -0.00370  -0.01040  -0.01410   2.61648
   R13        2.04526   0.00059   0.00122   0.00212   0.00335   2.04861
   R14        2.64189   0.01176   0.00236  -0.00090   0.00150   2.64338
   R15        2.28667  -0.06966  -0.28131  -0.16394  -0.44525   1.84142
   R16        2.64008  -0.01000  -0.06260  -0.08609  -0.14869   2.49138
   R17        2.69458  -0.00460  -0.00777  -0.01381  -0.02159   2.67299
   R18        2.03696   0.00973   0.01504   0.02685   0.04190   2.07886
   R19        2.03744   0.00944   0.01552   0.02395   0.03948   2.07691
   R20        2.03225   0.00866   0.01031   0.01983   0.03014   2.06239
    A1        1.95141  -0.00223  -0.00513  -0.01628  -0.02141   1.93000
    A2        2.12476  -0.01425  -0.01217  -0.02629  -0.03852   2.08624
    A3        2.09799   0.01517   0.02182   0.04718   0.06895   2.16694
    A4        2.06043  -0.00091  -0.00965  -0.02088  -0.03043   2.03001
    A5        2.08503   0.01258   0.01638   0.04023   0.05651   2.14155
    A6        2.05051  -0.00492  -0.00412  -0.01829  -0.02251   2.02800
    A7        2.14759  -0.00766  -0.01231  -0.02158  -0.03398   2.11360
    A8        1.99416   0.00066   0.00026   0.01017   0.01042   2.00458
    A9        2.10265  -0.00462  -0.00909  -0.01032  -0.01946   2.08319
   A10        2.11490   0.00736   0.01252   0.02534   0.03787   2.15277
   A11        2.06548  -0.00275  -0.00354  -0.01467  -0.01827   2.04721
   A12        2.10018   0.00163   0.00213   0.00316   0.00526   2.10544
   A13        2.09798  -0.00433  -0.00887  -0.01643  -0.02531   2.07267
   A14        2.08503   0.00270   0.00674   0.01329   0.02001   2.10503
   A15        2.08710   0.00441   0.00513   0.00492   0.01008   2.09718
   A16        2.08769  -0.00060   0.00273   0.00729   0.00998   2.09767
   A17        2.10839  -0.00381  -0.00787  -0.01216  -0.02008   2.08832
   A18        2.09284   0.00369   0.00088   0.00809   0.00866   2.10150
   A19        2.15268  -0.01846  -0.01535  -0.03956  -0.05535   2.09732
   A20        2.03749   0.01477   0.01429   0.03272   0.04651   2.08400
   A21        2.11297  -0.01022  -0.00013  -0.00039  -0.00078   2.11220
   A22        2.08505  -0.02841  -0.01755  -0.01959  -0.03760   2.04744
   A23        2.08484   0.03862   0.01736   0.02166   0.03855   2.12339
   A24        1.95479   0.07274   0.04392   0.06589   0.10981   2.06460
   A25        1.92366   0.00609   0.01310   0.01189   0.02476   1.94842
   A26        1.91850   0.00576   0.00792   0.02384   0.03144   1.94994
   A27        1.89082  -0.01160  -0.01994  -0.03218  -0.05199   1.83883
   A28        1.90745   0.00177  -0.00320  -0.00465  -0.00844   1.89902
   A29        1.89867  -0.00064  -0.01204   0.04982   0.03800   1.93667
   A30        1.92464  -0.00150   0.01409  -0.04876  -0.03465   1.88999
    D1       -3.13113  -0.00045  -0.00612   0.00648   0.00049  -3.13063
    D2        0.02138   0.00018   0.00914  -0.02856  -0.01954   0.00184
    D3       -2.92252   0.00135   0.11079  -0.28299  -0.17225  -3.09477
    D4        0.20751   0.00070   0.09461  -0.24586  -0.15114   0.05637
    D5        0.21719   0.00135   0.10753  -0.27531  -0.16789   0.04930
    D6       -2.93596   0.00071   0.09135  -0.23817  -0.14678  -3.08273
    D7        0.02225  -0.00006   0.00504  -0.01661  -0.01163   0.01062
    D8       -3.13863  -0.00021  -0.00371   0.00479   0.00110  -3.13753
    D9       -3.11750  -0.00008   0.00826  -0.02420  -0.01577  -3.13327
   D10        0.00480  -0.00024  -0.00049  -0.00281  -0.00303   0.00177
   D11        3.12665   0.00030  -0.00598   0.02603   0.01972  -3.13682
   D12        0.01238  -0.00009   0.01979  -0.04623  -0.02621  -0.01383
   D13       -0.01676   0.00029  -0.00912   0.03342   0.02394   0.00718
   D14       -3.13103  -0.00010   0.01665  -0.03884  -0.02198   3.13017
   D15       -3.07767  -0.00009   0.01681  -0.04613  -0.02961  -3.10728
   D16        0.07526   0.00043   0.03274  -0.08294  -0.04991   0.02536
   D17       -3.13533   0.00016   0.00400  -0.00871  -0.00489  -3.14023
   D18        0.00783   0.00010   0.00816  -0.02473  -0.01645  -0.00862
   D19       -0.01263  -0.00002  -0.00461   0.01228   0.00757  -0.00506
   D20        3.13054  -0.00008  -0.00045  -0.00375  -0.00399   3.12655
   D21       -0.00864   0.00012  -0.00623   0.02168   0.01513   0.00649
   D22        3.12948   0.00001  -0.01139   0.03764   0.02585  -3.12785
   D23        3.13451   0.00006  -0.00211   0.00580   0.00359   3.13810
   D24       -0.01055  -0.00004  -0.00728   0.02176   0.01431   0.00375
   D25       -0.00317  -0.00019  -0.00328   0.00857   0.00536   0.00219
   D26        3.11738  -0.00005  -0.02563   0.08246   0.05572  -3.11009
   D27       -3.14125  -0.00009   0.00195  -0.00763  -0.00536   3.13658
   D28       -0.02070   0.00005  -0.02039   0.06626   0.04499   0.02429
   D29        0.01614  -0.00005   0.01114  -0.03649  -0.02542  -0.00928
   D30        3.13041  -0.00069  -0.01465   0.03513   0.02132  -3.13146
   D31       -3.10577   0.00021   0.03203  -0.10477  -0.07419   3.10322
   D32        0.00851  -0.00043   0.00623  -0.03316  -0.02746  -0.01895
   D33       -3.00151   0.00084   0.17307  -0.49631  -0.32313   2.95854
   D34        0.16696   0.00120   0.19843  -0.56705  -0.36873  -0.20178
   D35       -1.15319  -0.00563  -0.12571   0.33687   0.21052  -0.94266
   D36        0.95036   0.00415  -0.11651   0.35397   0.23795   1.18831
   D37        3.05447  -0.00139  -0.10673   0.28889   0.18232  -3.04640
         Item               Value     Threshold  Converged?
 Maximum Force            0.072741     0.000015     NO 
 RMS     Force            0.013123     0.000010     NO 
 Maximum Displacement     0.654247     0.000060     NO 
 RMS     Displacement     0.170747     0.000040     NO 
 Predicted change in Energy=-4.025129D-02
 GradGradGradGradGradGradGradGradGradGradGradGradGradGradGradGradGradGrad

                          Input orientation:                          
 ---------------------------------------------------------------------
 Center     Atomic      Atomic             Coordinates (Angstroms)
 Number     Number       Type             X           Y           Z
 ---------------------------------------------------------------------
      1          8           0        8.722476    7.568695    5.651798
      2          1           0        9.503727    7.247265    6.112554
      3          6           0        6.260425    6.967168    5.194288
      4          5           0        7.677858    6.722088    5.836058
      5          8           0        7.923503    5.615084    6.614474
      6          1           0        7.182230    5.015974    6.707588
      7          6           0        5.215520    6.082086    5.473375
      8          1           0        5.392894    5.241215    6.138259
      9          6           0        3.935486    6.219935    4.946740
     10          1           0        3.157881    5.508398    5.193626
     11          6           0        3.670593    7.293548    4.108370
     12          6           0        4.671079    8.200348    3.802087
     13          6           0        5.956239    8.042180    4.331277
     14          1           0        2.677742    7.430521    3.695201
     15          1           0        4.478584    8.968760    3.234626
     16          8           0        6.924214    8.896776    4.065154
     17          6           0        6.717051    9.845404    3.036579
     18          1           0        6.424937    9.362536    2.092284
     19          1           0        5.948253   10.581390    3.310796
     20          1           0        7.669031   10.368262    2.929591
 ---------------------------------------------------------------------
                    Distance matrix (angstroms):
                    1          2          3          4          5
     1  O    0.000000
     2  H    0.962272   0.000000
     3  C    2.575430   3.382406   0.000000
     4  B    1.357174   1.919911   1.575134   0.000000
     5  O    2.319849   2.326595   2.571164   1.375402   0.000000
     6  H    3.162821   3.274458   2.635709   1.978898   0.957648
     7  C    3.813211   4.489422   1.397529   2.569874   2.975462
     8  H    4.091445   4.574259   2.150025   2.739594   2.602027
     9  C    5.023100   5.780989   2.454584   3.879226   4.364798
    10  H    5.951424   6.643632   3.428380   4.723976   4.974067
    11  C    5.289555   6.168010   2.827185   4.401096   5.213928
    12  C    4.498247   5.440690   2.446421   3.919567   5.017108
    13  C    3.101617   4.048396   1.411725   2.640262   3.869614
    14  H    6.355011   7.243704   3.911212   5.485099   6.271840
    15  H    5.080700   6.041363   3.319880   4.695778   5.876902
    16  O    2.741347   3.683289   2.332155   2.904023   4.274004
    17  C    4.005558   4.896683   3.626080   4.302944   5.670314
    18  H    4.600727   5.487794   3.922662   4.749486   6.061295
    19  H    4.717302   5.622067   4.087493   4.925718   6.283319
    20  H    4.044469   4.820579   4.322090   4.662855   6.019620
                    6          7          8          9         10
     6  H    0.000000
     7  C    2.554961   0.000000
     8  H    1.891188   1.086553   0.000000
     9  C    3.884773   1.390983   2.121709   0.000000
    10  H    4.327810   2.154357   2.441106   1.082546   0.000000
    11  C    4.926954   2.391167   3.361375   1.387687   2.151143
    12  C    4.988793   2.752571   3.838643   2.402782   3.387144
    13  C    4.038296   2.386424   3.380525   2.789769   3.872273
    14  H    5.932532   3.379423   4.258362   2.147973   2.484023
    15  H    5.915715   3.726654   4.812654   3.283645   4.189993
    16  O    4.702091   3.581229   4.472788   4.107940   5.190358
    17  C    6.084085   4.728121   5.707220   4.952761   6.010837
    18  H    6.384914   4.863725   5.866883   4.921507   5.928437
    19  H    6.635869   5.045531   6.067985   5.074430   6.088224
    20  H    6.569416   5.555345   6.462427   5.934380   7.006754
                   11         12         13         14         15
    11  C    0.000000
    12  C    1.384582   0.000000
    13  C    2.415433   1.398819   0.000000
    14  H    1.084077   2.139498   3.395182   0.000000
    15  H    2.054900   0.974435   2.060256   2.412745   0.000000
    16  O    3.627432   2.372938   1.318383   4.507693   2.583808
    17  C    4.116019   2.734632   2.346635   4.751995   2.412149
    18  H    3.991457   2.711112   2.641232   4.510377   2.290916
    19  H    4.078452   2.746253   2.736610   4.557629   2.183187
    20  H    5.179855   3.801160   3.210769   5.842041   3.497228
                   16         17         18         19         20
    16  O    0.000000
    17  C    1.414488   0.000000
    18  H    2.087684   1.100084   0.000000
    19  H    2.087937   1.099055   1.788185   0.000000
    20  H    2.002380   1.091372   1.805640   1.775336   0.000000
 Symmetry turned off by external request.
 Stoichiometry    C7H9BO3
 Framework group  C1[X(C7H9BO3)]
 Deg. of freedom    54
 Full point group                 C1      NOp   1
 Rotational constants (GHZ):           1.4091041           1.0606580           0.6084642
 Standard basis: 6-311+G(d,p) (5D, 7F)
   296 basis functions,   468 primitive gaussians,   307 cartesian basis functions
    40 alpha electrons       40 beta electrons
       nuclear repulsion energy       584.7288328781 Hartrees.
 NAtoms=   20 NActive=   20 NUniq=   20 SFac= 1.00D+00 NAtFMM=   60 NAOKFM=F Big=F
 Integral buffers will be    131072 words long.
 Raffenetti 2 integral format.
 Two-electron integral symmetry is turned off.
 One-electron integrals computed using PRISM.
 NBasis=   296 RedAO= T EigKep=  1.33D-06  NBF=   296
 NBsUse=   296 1.00D-06 EigRej= -1.00D+00 NBFU=   296
 Initial guess from the checkpoint file:  "2-OMe-phboh2-opt-freq.chk"
 B after Tr=     0.074714    0.080109   -0.170733
         Rot=    0.999970   -0.006765    0.000044   -0.003757 Ang=  -0.89 deg.
 ExpMin= 3.15D-02 ExpMax= 8.59D+03 ExpMxC= 1.30D+03 IAcc=3 IRadAn=         5 AccDes= 0.00D+00
 Harris functional with IExCor= 1009 and IRadAn=       5 diagonalized for initial guess.
 HarFok:  IExCor= 1009 AccDes= 0.00D+00 IRadAn=         5 IDoV= 1 UseB2=F ITyADJ=14
 ICtDFT=  3500011 ScaDFX=  1.000000  1.000000  1.000000  1.000000
 FoFCou: FMM=F IPFlag=           0 FMFlag=      100000 FMFlg1=           0
         NFxFlg=           0 DoJE=T BraDBF=F KetDBF=T FulRan=T
         wScrn=  0.000000 ICntrl=       500 IOpCl=  0 I1Cent=   200000004 NGrid=           0
         NMat0=    1 NMatS0=      1 NMatT0=    0 NMatD0=    1 NMtDS0=    0 NMtDT0=    0
 Symmetry not used in FoFCou.
 Requested convergence on RMS density matrix=1.00D-08 within 128 cycles.
 Requested convergence on MAX density matrix=1.00D-06.
 Requested convergence on             energy=1.00D-06.
 Level shift goal  0.100 maximum shift  0.100.
 No special actions if energy rises.
 Dynamic level shift is on during FON iterations.
 SCF Done:  E(RM062X) =  -522.721625136     A.U. after   15 cycles
            NFock= 15  Conv=0.68D-08     -V/T= 2.0031
 Calling FoFJK, ICntrl=      2127 FMM=F ISym2X=0 I1Cent= 0 IOpClX= 0 NMat=1 NMatS=1 NMatT=0.
 -------------------------------------------------------------------
 Center     Atomic                   Forces (Hartrees/Bohr)
 Number     Number              X              Y              Z
 -------------------------------------------------------------------
      1        8           0.000514658    0.001666209   -0.000319509
      2        1          -0.000157141    0.000035529   -0.000012513
      3        6          -0.001470823   -0.000749282    0.000314416
      4        5          -0.002075925   -0.002010538   -0.000914361
      5        8           0.000331464    0.000443575    0.000107425
      6        1           0.000973868    0.000083564    0.000131043
      7        6          -0.000457199   -0.000657995    0.000617252
      8        1          -0.001278507   -0.000231694   -0.000212721
      9        6          -0.000541987   -0.000685396    0.000491312
     10        1           0.000353406   -0.000273298    0.000167453
     11        6          -0.001227273   -0.003874911    0.002231026
     12        6           0.021170736   -0.074371603    0.056363672
     13        6          -0.017374573   -0.016630667    0.008092487
     14        1           0.000127972    0.000284992   -0.000195608
     15        1          -0.021766075    0.078257736   -0.060107328
     16        8           0.019543743    0.017385306   -0.009807764
     17        6           0.001309627    0.005453638    0.000965976
     18        1           0.002810061    0.000612006    0.003576810
     19        1           0.001475126   -0.002555674    0.000499334
     20        1          -0.002261158   -0.002181497   -0.001988402
 -------------------------------------------------------------------
 Cartesian Forces:  Max     0.078257736 RMS     0.018668065

 GradGradGradGradGradGradGradGradGradGradGradGradGradGradGradGradGradGrad
 Berny optimization.
 Using GEDIIS/GDIIS optimizer.
 FormGI is forming the generalized inverse of G from B-inverse, IUseBI=4.
 Internal  Forces:  Max     0.101014207 RMS     0.011454800
 Search for a local minimum.
 Step number   3 out of a maximum of   97
 All quantities printed in internal units (Hartrees-Bohrs-Radians)
 Mixed Optimization -- RFO/linear search
 Update second derivatives using D2CorX and points    2    3
 DE= -7.75D-03 DEPred=-4.03D-02 R= 1.92D-01
 Trust test= 1.92D-01 RLast= 8.76D-01 DXMaxT set to 5.05D-01
 ITU=  0  1  0
 Use linear search instead of GDIIS.
     Eigenvalues ---   -0.10804  -0.00682   0.00426   0.00961   0.01133
     Eigenvalues ---    0.01655   0.01728   0.02005   0.02228   0.02349
     Eigenvalues ---    0.02612   0.02805   0.03868   0.04073   0.06558
     Eigenvalues ---    0.08478   0.09811   0.10319   0.10722   0.10865
     Eigenvalues ---    0.11383   0.12001   0.12330   0.13107   0.13977
     Eigenvalues ---    0.15627   0.17144   0.17919   0.18495   0.18790
     Eigenvalues ---    0.19013   0.19242   0.23456   0.25956   0.28810
     Eigenvalues ---    0.29510   0.32262   0.35770   0.36289   0.36790
     Eigenvalues ---    0.37612   0.38418   0.38567   0.38637   0.39302
     Eigenvalues ---    0.40100   0.46229   0.46828   0.48836   0.50170
     Eigenvalues ---    0.55075   0.56191   0.59586   1.14843
 RFO step:  Lambda=-1.08127391D-01 EMin=-1.08042080D-01
 I=     1 Eig=   -1.08D-01 Dot1=  1.77D-03
 I=     1 Stepn=  6.00D-01 RXN=   6.00D-01 EDone=F
 I=     2 Eig=   -6.82D-03 Dot1= -9.64D-04
 I=     2 Stepn= -3.00D-01 RXN=   6.71D-01 EDone=F
 Mixed    2 eigenvectors in step.  Raw Step.Grad=  2.73D-03.
 RFO eigenvector is Hessian eigenvector with negative curvature.
 Taking step of  6.00D-01 in eigenvector direction(s).  Step.Grad= -8.72D-03.
 Quartic linear search produced a step of -0.38323.
 Iteration  1 RMS(Cart)=  0.11562488 RMS(Int)=  0.00795317
 Iteration  2 RMS(Cart)=  0.01183623 RMS(Int)=  0.00026635
 Iteration  3 RMS(Cart)=  0.00009512 RMS(Int)=  0.00025486
 Iteration  4 RMS(Cart)=  0.00000003 RMS(Int)=  0.00025486
 Variable       Old X    -DE/DX   Delta X   Delta X   Delta X     New X
                                 (Linear)    (Quad)   (Total)
    R1        1.81843  -0.00015  -0.00049  -0.00051  -0.00100   1.81743
    R2        2.56469   0.00139   0.00253   0.00478   0.00731   2.57200
    R3        2.97657  -0.00081  -0.00408  -0.00936  -0.01343   2.96314
    R4        2.64095   0.00138   0.00261   0.00527   0.00790   2.64885
    R5        2.66777   0.00097  -0.01071  -0.01897  -0.02970   2.63808
    R6        2.59913  -0.00006  -0.00356  -0.00429  -0.00785   2.59128
    R7        1.80969  -0.00080   0.00058   0.00033   0.00091   1.81060
    R8        2.05329  -0.00016  -0.00029   0.00008  -0.00021   2.05307
    R9        2.62858  -0.00133  -0.00274  -0.00353  -0.00624   2.62233
   R10        2.04572  -0.00004   0.00063   0.00055   0.00118   2.04690
   R11        2.62235   0.00029   0.00347   0.00737   0.01085   2.63320
   R12        2.61648   0.00502   0.00540   0.00845   0.01383   2.63031
   R13        2.04861  -0.00001  -0.00128  -0.00158  -0.00286   2.04575
   R14        2.64338   0.00338  -0.00057  -0.00201  -0.00262   2.64077
   R15        1.84142   0.10101   0.17063   0.07444   0.24508   2.08649
   R16        2.49138   0.03028   0.05698   0.05918   0.11616   2.60755
   R17        2.67299  -0.00181   0.00827   0.01864   0.02691   2.69990
   R18        2.07886  -0.00408  -0.01606  -0.02319  -0.03924   2.03961
   R19        2.07691  -0.00262  -0.01513  -0.02391  -0.03904   2.03787
   R20        2.06239  -0.00282  -0.01155  -0.01758  -0.02913   2.03326
    A1        1.93000  -0.00008   0.00820   0.00614   0.01434   1.94434
    A2        2.08624   0.00286   0.01476   0.02682   0.04159   2.12782
    A3        2.16694  -0.00577  -0.02642  -0.03748  -0.06390   2.10304
    A4        2.03001   0.00292   0.01166   0.01064   0.02230   2.05231
    A5        2.14155  -0.00321  -0.02166  -0.02937  -0.05104   2.09051
    A6        2.02800  -0.00077   0.00863   0.00906   0.01766   2.04566
    A7        2.11360   0.00397   0.01302   0.02011   0.03311   2.14671
    A8        2.00458   0.00103  -0.00399  -0.00098  -0.00497   1.99961
    A9        2.08319   0.00165   0.00746   0.01240   0.01983   2.10302
   A10        2.15277  -0.00061  -0.01451  -0.01749  -0.03196   2.12081
   A11        2.04721  -0.00103   0.00700   0.00517   0.01214   2.05935
   A12        2.10544  -0.00028  -0.00202  -0.00447  -0.00649   2.09894
   A13        2.07267  -0.00040   0.00970   0.01314   0.02287   2.09554
   A14        2.10503   0.00067  -0.00767  -0.00873  -0.01640   2.08864
   A15        2.09718   0.00211  -0.00386  -0.00707  -0.01095   2.08623
   A16        2.09767  -0.00068  -0.00382  -0.00322  -0.00704   2.09064
   A17        2.08832  -0.00143   0.00769   0.01024   0.01795   2.10627
   A18        2.10150  -0.00221  -0.00332  -0.00660  -0.00987   2.09163
   A19        2.09732  -0.00098   0.02121   0.04081   0.06213   2.15945
   A20        2.08400   0.00320  -0.01782  -0.03506  -0.05271   2.03129
   A21        2.11220  -0.00180   0.00030   0.00719   0.00750   2.11970
   A22        2.04744  -0.00292   0.01441   0.03526   0.04973   2.09718
   A23        2.12339   0.00473  -0.01477  -0.04306  -0.05772   2.06567
   A24        2.06460   0.00673  -0.04208  -0.07999  -0.12207   1.94253
   A25        1.94842  -0.00225  -0.00949  -0.01694  -0.02654   1.92188
   A26        1.94994  -0.00132  -0.01205  -0.00858  -0.02070   1.92923
   A27        1.83883   0.00209   0.01992   0.02781   0.04778   1.88661
   A28        1.89902   0.00182   0.00323   0.00007   0.00309   1.90211
   A29        1.93667  -0.00177  -0.01456   0.01944   0.00490   1.94157
   A30        1.88999   0.00146   0.01328  -0.02112  -0.00776   1.88223
    D1       -3.13063  -0.00024  -0.00019   0.00833   0.00791  -3.12272
    D2        0.00184   0.00015   0.00749  -0.01625  -0.00853  -0.00669
    D3       -3.09477   0.00049   0.06601  -0.17263  -0.10651   3.08190
[...]
 0.00064763,-0.00033171,0.00011908,-0.00004005,-0.00049154,-0.00672981,
 0.03275045,-0.01979687,-0.00428066,0.00029427,0.00318779,0.00060180,0.
 00085421,-0.00076908,-0.00076450,0.00009337,0.00051108,-0.01472270,-0.
 10377726,0.03020656,0.02156415,0.00075138,0.00871296,0.11148334,0.4834
 7404,-0.00013114,-0.00092171,0.00010076,0.00023313,0.00015213,0.000158
 41,-0.01309346,-0.03359680,0.03461858,0.00358308,0.00329514,0.00503244
 ,-0.00102891,0.00081197,-0.00094699,0.00005430,-0.00002914,-0.00032046
 ,-0.05409824,0.04657231,-0.11953664,-0.02041691,0.00304726,-0.00340490
 ,0.05985377,-0.27812357,0.38757382,-0.00058949,-0.00008947,-0.00035631
 ,-0.00001621,-0.00003691,-0.00005560,-0.00395536,0.00096703,-0.0035269
 9,0.00051947,-0.00100837,0.00093552,-0.00025921,0.00044822,-0.00023501
 ,-0.00001352,-0.00016669,0.00002325,-0.01571584,-0.01817331,0.01094890
 ,0.00058664,0.00085158,0.00050899,-0.21663687,-0.13002133,0.06277629,0
 .22627784,0.00001351,-0.00009144,-0.00003017,0.00003767,0.00000747,0.0
 0003648,0.00037489,0.00351435,0.00273826,0.00021180,0.00035520,0.00018
 328,-0.00003691,-0.00003045,-0.00005239,0.00003451,-0.00000132,0.00001
 444,0.00489202,0.00547618,-0.00163453,0.00025911,-0.00130777,-0.002161
 84,-0.12980750,-0.14943625,0.06428884,0.13998237,0.15220805,-0.0001138
 5,-0.00010210,-0.00016563,0.00001235,-0.00001053,-0.00002036,-0.003568
 92,0.00294266,0.00305759,-0.00008960,-0.00011133,0.00060976,0.00005178
 ,0.00005898,-0.00012672,-0.00001247,0.00000786,0.00006187,-0.00921120,
 -0.00782224,0.00626096,0.00107588,-0.00210078,-0.00173727,0.06267062,0
 .06444509,-0.07325554,-0.06628413,-0.07203134,0.06948176,-0.00129487,-
 0.00063972,-0.00048663,-0.00000304,-0.00000420,0.00017527,-0.00985822,
 -0.01467743,0.01119673,0.00343853,-0.00051930,0.00229661,-0.00076744,0
 .00060413,-0.00062498,0.00006995,-0.00031065,-0.00011577,0.01548169,0.
 02804161,-0.02205491,-0.00517445,0.00039683,-0.00329712,-0.13389801,0.
 04607971,-0.05967652,0.00802267,-0.01802665,0.01710122,0.70985813,-0.0
 0112711,-0.00033469,-0.00035150,-0.00009298,-0.00002191,0.00010123,-0.
 01917354,-0.04424901,0.02774653,0.00207995,-0.00216159,0.00218507,-0.0
 0009236,0.00051055,-0.00020757,0.00005977,0.00017010,-0.00012875,0.072
 67423,0.01259534,0.01615224,-0.00034030,0.00410657,0.00253782,-0.00952
 188,-0.21903006,0.13295359,0.00527682,-0.00909323,0.01106799,0.0573544
 8,0.46220450,0.00053106,0.00018718,0.00020270,0.00002823,0.00000229,-0
 .00001643,0.01525473,0.03102699,-0.02514940,-0.00069699,0.00110507,-0.
 00223794,-0.00014132,-0.00037938,0.00028699,0.00015866,-0.00025769,-0.
 00000554,-0.06128900,0.00268998,-0.01288850,-0.00307939,0.00267566,0.0
 0362550,-0.01106776,0.14794009,-0.19491571,-0.00299175,0.00492827,-0.0
 0259163,0.11059295,-0.26426197,0.39938088,0.00123246,0.00065374,0.0000
 9009,0.00006390,-0.00001106,-0.00001556,0.01718429,0.05829975,-0.04655
 860,-0.00150018,0.00022984,-0.00292769,0.00047075,-0.00024563,0.000498
 17,-0.00003687,-0.00016809,0.00009198,-0.07206936,-0.01548995,-0.00601
 586,-0.00112074,-0.00044941,0.00017688,0.05330186,-0.04567887,0.052254
 43,0.00136273,0.00119151,-0.00234036,-0.24294244,-0.07714895,0.0142085
 5,0.65164184,0.00105830,0.00070925,-0.00007037,0.00015663,-0.00001678,
 -0.00002170,0.02473410,0.01586146,0.00357200,-0.00260252,-0.00084976,0
 .00357443,0.00136013,-0.00036768,-0.00079150,-0.00029088,0.00000683,0.
 00029852,-0.02152223,-0.00855101,-0.00253886,-0.00054623,-0.00017724,-
 0.00074138,-0.00290199,-0.03026773,0.03149205,0.00053427,0.00072052,0.
 00574538,-0.13166640,-0.17472574,0.06441219,0.07228094,0.48793211,0.00
 032881,-0.00045279,0.00001217,0.00016380,0.00005817,-0.00013250,-0.019
 36844,0.01030748,-0.00580807,-0.00027983,0.00499788,0.00083911,-0.0017
 2282,0.00050057,-0.00062521,0.00016567,-0.00033799,-0.00012330,-0.0010
 8792,-0.00083562,-0.00400079,0.00044619,-0.00079377,-0.00024281,0.0159
 9683,0.01933605,-0.00491791,-0.00203468,0.00592248,0.00150719,0.062550
 64,0.08078788,-0.11109334,0.08622536,-0.30146374,0.41185161,-0.0043803
 2,-0.00468785,0.00122248,-0.00063442,-0.00013883,0.00062465,-0.1367038
 1,0.00811299,-0.03096599,0.01315489,0.02216607,-0.01200490,-0.00845073
 ,0.00235673,-0.00243338,0.00060928,-0.00134736,-0.00036922,0.05942606,
 -0.00606707,0.02289686,-0.00270346,-0.00385255,0.00005095,-0.03291222,
 0.03111999,-0.03415584,-0.00036005,0.00075009,-0.00089430,-0.05545801,
 -0.05054977,0.02850256,-0.27029453,0.05034711,-0.10169613,0.66798358,-
 0.00523963,-0.00523120,0.00008662,0.00000543,-0.00023209,0.00009125,0.
 04794060,-0.17510340,0.10908452,0.01592776,0.00634373,0.00472572,-0.00
 427749,0.00233929,-0.00205059,0.00054848,-0.00121639,0.00026390,-0.047
 95688,-0.03251387,0.01570768,-0.00365420,0.00315740,0.00358333,0.03021
 113,-0.02142523,0.02195638,0.00096222,-0.00040644,0.00035295,-0.004902
 34,0.03700267,-0.03350724,-0.00584119,-0.11454177,0.03973633,0.0607004
 0,0.46334702,0.00352373,0.00189442,-0.00000568,0.00005201,-0.00002596,
 0.00022415,-0.06538888,0.09736682,-0.17485077,-0.00815644,0.00491077,-
 0.00350978,0.00201853,-0.00102305,0.00153484,-0.00024267,0.00111505,-0
 .00021667,0.05811886,0.02695348,-0.00659205,-0.00018330,0.00359460,0.0
 0530660,-0.03414386,0.02268120,-0.03470635,-0.00084369,0.00035856,-0.0
 0077636,-0.01148317,-0.04648018,0.03788176,-0.05332903,0.05553757,-0.1
 3115687,0.08428820,-0.24553554,0.40653272,-0.00003869,-0.00001275,-0.0
 0007135,0.00002266,0.00000935,-0.00000061,0.00029662,-0.00027769,0.000
 69573,0.00006914,0.00004920,0.00017665,-0.00011213,0.00009262,-0.00002
 712,0.00003405,-0.00003311,-0.00001558,0.00201291,0.00004154,-0.001574
 63,-0.00019816,-0.00006050,0.00003373,-0.00072485,-0.00134915,-0.00035
 428,0.00032433,0.00089850,0.00051760,-0.29768627,0.03213115,-0.1004611
 5,-0.01626066,0.00466676,-0.00984025,-0.00039978,-0.00387347,0.0012207
 2,0.31353737,-0.00003140,0.00006328,0.00000483,-0.00003549,-0.00000617
 ,0.00002343,-0.00029660,-0.00108433,-0.00045861,0.00007674,-0.00042094
 ,-0.00029758,0.00010930,0.00003600,0.00001354,-0.00006990,0.00002192,0
 .00004275,-0.00031690,-0.00026354,0.00654956,0.00113797,-0.00018951,0.
 00038653,0.02151064,0.00256077,0.00784724,0.00024096,-0.00126331,-0.00
 251854,0.03234005,-0.05627057,0.02379813,-0.01767116,0.00626663,-0.006
 94307,-0.00380709,0.00109307,0.00469519,-0.03304755,0.05062702,-0.0001
 3546,-0.00006638,-0.00002011,-0.00001938,0.00000529,0.00001103,0.00083
 698,-0.00010708,-0.00108529,0.00010565,-0.00018901,-0.00042304,-0.0000
 2525,-0.00014283,0.00013659,0.00009372,-0.00003029,-0.00004455,-0.0012
 6806,0.00651339,0.00136815,-0.00098638,0.00006742,-0.00036805,-0.02002
 438,0.00133732,-0.00216582,0.00105108,-0.00235195,-0.00190187,-0.10062
 860,0.02379250,-0.08821873,0.00976899,-0.00045048,0.00720768,0.0008325
 5,0.00460103,0.00388472,0.10937222,-0.03023759,0.08339015,-0.00031325,
 -0.00028705,-0.00002053,-0.00000575,0.00001058,0.00000666,-0.00526240,
 -0.00015799,-0.00317983,0.00103862,0.00097673,-0.00034538,-0.00064743,
 0.00034132,-0.00012963,0.00003024,-0.00012092,-0.00003157,-0.00163214,
 -0.00063954,0.00024866,0.00005469,0.00017102,0.00012398,-0.00264911,-0
 .00385393,0.00059935,0.00027449,-0.00090922,0.00070348,0.00864539,-0.0
 1708834,0.01693287,-0.06876401,0.03792157,-0.04347514,0.00280975,0.021
 28657,-0.01897153,0.00062092,0.00097659,0.00048134,0.06867679,0.000108
 00,0.00006435,0.00002638,-0.00001507,-0.00000258,0.00000257,-0.0000090
 1,0.00308671,0.00217803,-0.00039939,-0.00009977,-0.00011832,0.00010414
 ,-0.00009150,0.00002067,-0.00005057,0.00001353,0.00000525,-0.00004874,
 0.00009906,-0.00065626,0.00017315,-0.00043843,-0.00039893,-0.00431014,
 0.00219310,0.00313266,0.00022593,-0.00033512,0.00072978,0.00518693,-0.
 00962622,0.01188929,0.03910408,-0.19175429,0.15127240,-0.00036014,0.00
 080529,0.00227676,0.00054182,-0.00122947,-0.00244039,-0.03599448,0.201
 41787,-0.00026637,-0.00017264,-0.00012398,-0.00000802,0.00000958,0.000
 01836,-0.00307058,0.00219248,0.00265597,0.00074246,0.00028853,0.000098
 83,-0.00033100,0.00017388,-0.00014397,-0.00001974,-0.00009879,-0.00001
 946,0.00016075,-0.00079249,0.00006652,0.00013474,-0.00040374,-0.000534
 52,0.00072226,0.00336190,0.00441313,-0.00024644,0.00042469,0.00001231,
 -0.00294623,0.00521085,-0.00325273,-0.04375508,0.15105374,-0.17811046,
 -0.00054038,0.00833770,-0.00398203,0.00084386,-0.00230955,-0.00190543,
 0.04454893,-0.16698408,0.18322518,0.00379866,0.00439906,-0.00211259,0.
 00025950,0.00013530,0.00003095,0.01162362,-0.01285648,0.01174200,-0.01
 147890,-0.00311044,-0.00256077,0.00270044,-0.00029928,0.00148888,-0.00
 058790,0.00076535,-0.00003038,-0.00132973,0.00230570,-0.00468039,0.000
 38704,0.00000566,0.00000952,-0.00226116,-0.00485493,0.00386973,0.00019
 471,0.00012527,0.00029938,0.00106359,0.00665424,-0.00738724,-0.0485415
 8,-0.03064182,0.01203621,-0.23672611,-0.07480687,0.01960895,-0.0015448
 0,-0.00117583,0.00057181,0.00143606,0.00054639,0.00075452,0.36986122,0
 .00446813,0.00257399,0.00247471,-0.00043600,-0.00010543,0.00035070,-0.
 03193606,-0.03252164,0.02413000,-0.00795094,-0.00235031,-0.00518965,0.
 00226250,-0.00089202,0.00167761,-0.00055041,0.00090417,-0.00011024,0.0
 0637639,0.00213545,0.00437067,-0.00112532,-0.00111606,0.00061805,-0.00
 535042,-0.00172888,-0.00090519,-0.00001033,-0.00017526,-0.00049858,0.0
 0137714,0.00183392,0.00494100,-0.01260678,0.00547985,0.00147619,-0.105
 77497,-0.13750539,0.05346256,-0.00012577,-0.00013752,-0.00027048,-0.00
 089548,-0.00185574,-0.00094100,0.10024113,0.37491755,-0.00408921,0.000
 90000,-0.00299860,0.00031631,0.00042218,-0.00052303,0.03003879,0.03103
 851,-0.01285906,0.00441583,-0.00227506,-0.00064285,-0.00115593,0.00113
 252,-0.00009380,0.00046896,-0.00045410,-0.00007266,-0.00780382,0.00282
 061,0.00018624,0.00099302,0.00109635,-0.00036763,0.00482561,-0.0007367
 3,0.00093389,0.00026359,-0.00050408,-0.00026144,-0.00296074,0.00668282
 ,0.00029164,-0.00512709,-0.00457512,0.01237667,0.04364800,0.05896950,-
 0.08545616,-0.00024357,-0.00047943,0.00008658,0.00182988,-0.00064757,-
 0.00169731,-0.01407420,-0.23331444,0.26369232,-0.00019290,0.00010548,-
 0.00024978,0.00011918,0.00012421,-0.00017178,-0.00375864,-0.00173811,-
 0.00024046,-0.00060935,-0.00052983,0.00026017,0.00016211,-0.00006278,0
 .00011711,-0.00003448,0.00006066,0.00000268,-0.00019495,-0.00120068,0.
 00062818,-0.00031914,-0.00023273,0.00014919,0.00023971,-0.00058624,0.0
 0051373,-0.00001664,0.00003440,0.00006237,0.00074859,0.00019185,-0.000
 06393,-0.00376294,-0.00432573,0.00287336,0.00394731,-0.02699333,0.0244
 0139,-0.00003791,0.00002909,-0.00002099,-0.00253505,-0.00254725,0.0015
 4740,-0.09638500,0.03747155,-0.03832519,0.62432588,-0.00152794,-0.0002
 5815,-0.00134051,0.00031034,0.00027477,-0.00000586,-0.00205042,0.00347
 093,-0.00147677,0.00218753,-0.00180544,0.00182254,-0.00087646,0.001088
 87,-0.00057930,0.00015464,-0.00036995,0.00006903,0.00071204,0.00004986
 ,0.00166059,-0.00000207,0.00007556,-0.00023081,0.00046565,0.00161206,-
 0.00099586,0.00007199,-0.00018485,-0.00011691,0.00020757,-0.00199030,0
 .00213499,0.00418992,0.00321124,-0.00278027,-0.01184169,-0.03179203,0.
 01908686,0.00045538,0.00023479,-0.00009057,-0.00010271,-0.00130076,0.0
 0082901,0.01274381,-0.16194765,0.08863573,0.02955147,0.53323080,0.0008
 1177,0.00008605,0.00067276,-0.00018906,-0.00011980,-0.00008788,0.00033
 190,-0.00154168,0.00432640,-0.00194144,0.00104546,-0.00163606,0.000817
 61,-0.00110661,0.00045199,-0.00012936,0.00034392,-0.00000101,-0.000724
 63,0.00129849,0.00017914,0.00004038,-0.00029276,-0.00002838,-0.0006948
 7,-0.00112702,0.00098851,0.00002347,-0.00009423,-0.00020770,-0.0002599
 0,0.00176991,-0.00122988,-0.00365910,-0.00497579,0.00205820,0.01185783
 ,0.01687769,-0.01636974,-0.00036629,-0.00021731,0.00003549,-0.00045347
 ,0.00017232,-0.00064797,-0.01815894,0.09247546,-0.14125715,-0.01437865
 ,0.04288547,0.53756047,-0.00013551,0.00003511,-0.00013570,0.00002415,0
 .00000071,0.00000625,-0.00025382,-0.00024201,0.00000057,0.00033063,-0.
 00029609,0.00017825,-0.00015590,0.00020892,-0.00004395,0.00003364,-0.0
 0004986,-0.00001691,0.00059211,0.00012759,0.00008815,0.00001275,0.0000
 3711,-0.00000830,-0.00022086,0.00042691,-0.00050438,-0.00001487,0.0000
 4861,0.00002853,-0.00024247,-0.00075583,0.00013226,0.00038016,0.000724
 74,-0.00005556,-0.00003986,-0.00003534,0.00109194,0.00002592,0.0000352
 1,0.00004549,-0.00143580,-0.00018867,0.00156674,-0.00045439,0.00305559
 ,-0.00731630,-0.07957095,-0.03317259,-0.07183556,0.08077669,0.00023382
 ,0.00004923,0.00019575,-0.00004809,-0.00006364,0.00004009,-0.00022641,
 -0.00136319,0.00024827,-0.00017586,0.00029949,-0.00014392,0.00006145,-
 0.00007591,0.00001165,-0.00002065,0.00002276,0.00000916,0.00083963,0.0
 0004853,-0.00014859,-0.00001273,0.00001498,0.00005884,-0.00057863,0.00
 028561,-0.00044099,-0.00003356,0.00003973,0.00008335,-0.00004886,-0.00
 100107,0.00029771,-0.00108059,0.00088721,-0.00126387,0.00370096,0.0036
 8807,-0.00015657,-0.00001949,0.00002513,0.00002263,-0.00078798,-0.0001
 1937,0.00114588,0.01002531,0.00437819,0.03505151,-0.03431701,-0.091736
 72,-0.09169745,0.03334705,0.09488707,-0.00018732,0.00015116,-0.0002167
 8,0.00006822,0.00004379,-0.00001919,0.00060064,0.00121940,-0.00064151,
 0.00016004,-0.00072261,0.00024170,-0.00009277,0.00028955,-0.00003447,0
 .00001219,-0.00005100,-0.00001502,-0.00053060,-0.00016091,0.00025057,0
 .00003253,0.00002918,-0.00003962,0.00043204,-0.00006582,0.00008379,0.0
 0002895,-0.00006771,0.00001940,0.00031844,0.00003550,0.00028590,0.0001
 1930,0.00037931,-0.00014324,-0.00530187,-0.00412665,0.00164254,0.00005
 784,0.00004268,-0.00001851,0.00103498,-0.00035239,-0.00013839,-0.00708
 087,0.00948661,-0.02776819,-0.06962651,-0.08599678,-0.23961057,0.08285
 388,0.08546301,0.26917082,-0.00018994,-0.00015265,-0.00021614,0.000011
 67,0.00001776,0.00002428,-0.00016504,0.00002811,0.00011773,0.00040187,
 -0.00007284,0.00039341,-0.00012701,0.00011120,-0.00011321,0.00001647,-
 0.00005868,0.00001739,0.00060186,0.00007860,0.00011831,0.00002441,0.00
 003189,-0.00002593,-0.00023011,0.00054951,-0.00043514,0.00001146,-0.00
 004573,-0.00004677,-0.00033942,-0.00045941,0.00077716,0.00027518,0.000
 51266,-0.00075837,-0.00004808,-0.00172665,-0.00019583,0.00005742,-0.00
 001549,-0.00003149,-0.00052503,-0.00171951,-0.00035184,-0.00086057,0.0
 0753320,-0.00472803,-0.16207064,0.10900127,0.06761222,0.00741260,-0.00
 848359,-0.00419633,0.17177142,0.00009086,0.00002292,0.00021925,-0.0000
 3556,-0.00002975,-0.00000577,-0.00076480,-0.00120734,0.00128785,-0.000
 15404,0.00026129,-0.00048036,0.00007928,-0.00014686,0.00008811,0.00000
 329,0.00004920,-0.00001892,0.00082889,0.00058370,0.00008664,-0.0000036
 5,-0.00005866,-0.00001418,-0.00065399,0.00020998,-0.00044695,-0.000009
 58,-0.00000102,-0.00009170,-0.00053962,-0.00011172,0.00040548,-0.00019
 627,0.00016694,-0.00003207,0.00605816,0.00365847,-0.00289160,-0.000040
 21,-0.00005025,0.00000278,-0.00091129,-0.00100209,-0.00080597,0.016244
 37,-0.03003529,0.00442362,0.10467982,-0.15604106,-0.06563946,0.0076928
 2,-0.00613431,-0.00619699,-0.12378235,0.17821939,-0.00013100,-0.000079
 07,-0.00013594,0.00002424,0.00001797,-0.00002520,0.00025335,0.00038525
 ,-0.00103634,0.00024219,-0.00005217,0.00032580,-0.00012820,0.00008571,
 -0.00003518,0.00002493,-0.00003905,-0.00000898,-0.00051483,-0.00030350
 ,-0.00016726,-0.00001636,0.00004457,0.00001629,0.00046576,-0.00020233,
 0.00027251,-0.00000382,0.00007090,0.00002787,0.00008940,0.00042099,-0.
 00067712,0.00103694,-0.00084807,0.00075113,-0.00310168,-0.00145190,0.0
 0221416,0.00000745,0.00001123,0.00002625,-0.00004870,0.00051938,-0.000
 05343,-0.01845470,0.02648629,0.00615600,0.07023109,-0.07063608,-0.0935
 1864,0.01910347,-0.01738902,-0.00881141,-0.06979692,0.06498719,0.09551
 076,0.00011777,0.00005857,0.00012184,-0.00001923,-0.00001952,-0.000007
 27,0.00035928,0.00016764,-0.00012125,-0.00022404,0.00002845,-0.0001273
 3,0.00009824,-0.00007015,0.00003973,-0.00002869,0.00003580,-0.00000141
 ,-0.00020646,-0.00006150,-0.00003328,0.00001435,0.00001097,0.00001161,
 0.00002342,-0.00014194,0.00015699,0.00000374,-0.00002826,0.00003839,0.
 00033610,-0.00007203,0.00005951,-0.00061985,0.00020060,-0.00046774,0.0
 0118051,0.00172480,-0.00138594,0.00000190,0.00001087,-0.00001984,0.000
 18303,-0.00034746,0.00051402,0.00884530,0.00397686,-0.00097590,-0.2800
 5420,-0.11047774,0.03129610,-0.00706422,-0.00237477,0.00129723,-0.0160
 2854,-0.00858613,0.00071738,0.29308164,0.00032210,0.00014825,-0.000004
 06,-0.00001789,-0.00002514,0.00005778,-0.00099423,-0.00067380,0.000468
 97,-0.00059994,-0.00009271,-0.00015725,0.00020343,-0.00007056,0.000042
 49,-0.00004637,0.00004505,0.00001056,0.00031418,-0.00013654,0.00024617
 ,-0.00008439,-0.00009654,0.00001973,-0.00005950,-0.00002140,-0.0000893
 5,-0.00001185,0.00000497,-0.00003001,-0.00025329,0.00019245,-0.0000280
 6,0.00063816,0.00000999,0.00050776,0.00311481,-0.00146721,0.00217906,-
 0.00004662,-0.00001300,0.00003471,0.00006456,0.00017547,-0.00051998,-0
 .02644595,-0.02185193,0.01181317,-0.09971485,-0.09582194,0.00985734,-0
 .01099999,-0.00413178,0.00060065,0.01865270,0.01164646,-0.00202829,0.1
 1596494,0.11217992,-0.00031086,-0.00032339,-0.00003706,0.00000649,0.00
 004772,-0.00003002,0.00086012,0.00072968,-0.00020488,0.00051175,0.0002
 9843,0.00026148,-0.00011838,-0.00006098,-0.00007254,0.00002173,-0.0000
 3274,0.00000301,-0.00027607,0.00013596,-0.00019793,0.00008997,0.000045
 97,-0.00005852,0.00004911,-0.00007537,-0.00000553,0.00001839,-0.000037
 95,0.00000580,0.00021329,-0.00001495,0.00032159,-0.00074231,0.00041183
 ,-0.00024925,-0.00246042,0.00229733,-0.00159902,0.00002902,0.00004657,
 0.00000480,0.00014566,-0.00062755,0.00011940,0.02412813,0.01927971,-0.
 00972546,0.02229062,0.00712551,-0.05167797,-0.02517888,-0.01138744,0.0
 0576219,0.01183551,0.00512306,-0.00083126,-0.03111285,-0.02298141,0.05
 821115\\-0.00000040,-0.00000045,0.00000181,-0.00000127,0.00000033,0.00
 000200,-0.00000050,-0.00000108,0.00000121,-0.00000031,0.00000022,0.000
 00141,-0.00000052,0.00000067,0.00000071,0.00000042,0.00000038,0.000000
 98,-0.00000016,0.00000059,-0.00000180,-0.00000148,-0.00000022,-0.00000
 089,-0.00000069,-0.00000072,-0.00000142,-0.00000014,-0.00000074,-0.000
 00222,0.00000030,-0.00000081,-0.00000105,0.00000097,-0.00000106,0.0000
 0029,0.00000117,0.00000012,-0.00000072,0.00000059,-0.00000047,-0.00000
 219,0.00000011,0.00000149,-0.00000239,-0.00000134,0.00000083,0.0000000
 3,0.00000137,0.00000056,0.00000141,0.00000150,0.00000032,0.00000076,-0
 .00000004,-0.00000003,0.00000057,0.00000043,0.00000005,0.00000150\\\@
 The archive entry for this job was punched.


 EXPERIMENTALISTS THINK SILICON IS REALLY FUN TO USE
     ITS PLACE IN NOVEL COMPOUNDS IS CERTAIN TO AMUSE
 THEY SIT ALL DAY IN LABORATORIES MAKING ALL THIS SLUDGE
     "LOADED WITH THE SILICON THEY SAY", TO ME IT LOOKS LIKE FUDGE.
 FOR HAPPY THOUGH THEY BE WITH CRUD, I'D LIKE TO KNOW A LITTLE
      ABOUT THE PI BONDS ON THE EDGE AND SIGMAS IN THE MIDDLE.

 SO LETS DERIVE A WAVEFUNCTION.....6-31G*
     USE AN OPTIMAL GEOMETRY AND SEE WHERE ELECTRONS ARE.
 BUT WHAT OF CORRELATION?  ASKS THE WIRY LITTLE SKEPTIC.
     WE'LL THROW IN PERTURBATION AS AN ELECTRON ANTISEPTIC.
 AND WHEN THE PROGRAM GIVES US ANSWERS IN THEM WE CAN TRUST
     SINCE NOBODY CAN MAKE THE STUFF, WE HAVE NO CHOICE, WE MUST.

 SO THEORY GUYS HAVE GOT IT MADE, IN ROOMS FREE OF POLLUTION.
     INSTEAD OF PROBLEMS WITH THE REFLUX, THEY HAVE ONLY SOLUTIONS.
 AND WHEN THE FEDS ANNOUNCE THE LIST OF CARCINOGENIC TERRORS,
     THE THEORISTS SIT SAFELY AT THEIR TERMINALS FIXING ERRORS.
 IN OTHER WORDS, EXPERIMENTALISTS WILL LIKELY DIE OF CANCER
     FROM WORKING HARD YET FRUITLESSLY...TILL THEORY GIVES THE ANSWER.
          -- THOMAS A. HOLME, 1983
 Job cpu time:       0 days  1 hours  0 minutes 44.2 seconds.
 Elapsed time:       0 days  0 hours  1 minutes 56.4 seconds.
 File lengths (MBytes):  RWF=    169 Int=      0 D2E=      0 Chk=      9 Scr=      1
 Normal termination of Gaussian 16 at Thu Apr 24 11:04:14 2025.
