/home/tahminaafroz
cn008.cluster.local
tahminaafroz
Fri May  9 07:52:52 CDT 2025
 Entering Gaussian System, Link 0=g16
 Initial command:
 /home/apps/g16/l1.exe "/tmp/2-OMe-ph-opt-freq-thf/Gau-332965.inp" -scrdir="/tmp/2-OMe-ph-opt-freq-thf/"
 Entering Link 1 = /home/apps/g16/l1.exe PID=    332966.
  
 Copyright (c) 1988-2019, Gaussian, Inc.  All Rights Reserved.
  
 This is part of the Gaussian(R) 16 program.  It is based on
 the Gaussian(R) 09 system (copyright 2009, Gaussian, Inc.),
 the Gaussian(R) 03 system (copyright 2003, Gaussian, Inc.),
 the Gaussian(R) 98 system (copyright 1998, Gaussian, Inc.),
 the Gaussian(R) 94 system (copyright 1995, Gaussian, Inc.),
 the Gaussian 92(TM) system (copyright 1992, Gaussian, Inc.),
 the Gaussian 90(TM) system (copyright 1990, Gaussian, Inc.),
 the Gaussian 88(TM) system (copyright 1988, Gaussian, Inc.),
 the Gaussian 86(TM) system (copyright 1986, Carnegie Mellon
 University), and the Gaussian 82(TM) system (copyright 1983,
 Carnegie Mellon University). Gaussian is a federally registered
 trademark of Gaussian, Inc.
  
 This software contains proprietary and confidential information,
 including trade secrets, belonging to Gaussian, Inc.
  
 This software is provided under written license and may be
 used, copied, transmitted, or stored only in accord with that
 written license.
  
 The following legend is applicable only to US Government
 contracts under FAR:
  
                    RESTRICTED RIGHTS LEGEND
  
 Use, reproduction and disclosure by the US Government is
 subject to restrictions as set forth in subparagraphs (a)
 and (c) of the Commercial Computer Software - Restricted
 Rights clause in FAR 52.227-19.
  
 Gaussian, Inc.
 340 Quinnipiac St., Bldg. 40, Wallingford CT 06492
  
  
 ---------------------------------------------------------------
 Warning -- This program may not be used in any manner that
 competes with the business of Gaussian, Inc. or will provide
 assistance to any competitor of Gaussian, Inc.  The licensee
 of this program is prohibited from giving any competitor of
 Gaussian, Inc. access to this program.  By using this program,
 the user acknowledges that Gaussian, Inc. is engaged in the
 business of creating and licensing software in the field of
 computational chemistry and represents and warrants to the
 licensee that it is not a competitor of Gaussian, Inc. and that
 it will not use this program in any manner prohibited above.
 ---------------------------------------------------------------
  

 Cite this work as:
 Gaussian 16, Revision C.01,
 M. J. Frisch, G. W. Trucks, H. B. Schlegel, G. E. Scuseria, 
 M. A. Robb, J. R. Cheeseman, G. Scalmani, V. Barone, 
 G. A. Petersson, H. Nakatsuji, X. Li, M. Caricato, A. V. Marenich, 
 J. Bloino, B. G. Janesko, R. Gomperts, B. Mennucci, H. P. Hratchian, 
 J. V. Ortiz, A. F. Izmaylov, J. L. Sonnenberg, D. Williams-Young, 
 F. Ding, F. Lipparini, F. Egidi, J. Goings, B. Peng, A. Petrone, 
 T. Henderson, D. Ranasinghe, V. G. Zakrzewski, J. Gao, N. Rega, 
 G. Zheng, W. Liang, M. Hada, M. Ehara, K. Toyota, R. Fukuda, 
 J. Hasegawa, M. Ishida, T. Nakajima, Y. Honda, O. Kitao, H. Nakai, 
 T. Vreven, K. Throssell, J. A. Montgomery, Jr., J. E. Peralta, 
 F. Ogliaro, M. J. Bearpark, J. J. Heyd, E. N. Brothers, K. N. Kudin, 
 V. N. Staroverov, T. A. Keith, R. Kobayashi, J. Normand, 
 K. Raghavachari, A. P. Rendell, J. C. Burant, S. S. Iyengar, 
 J. Tomasi, M. Cossi, J. M. Millam, M. Klene, C. Adamo, R. Cammi, 
 J. W. Ochterski, R. L. Martin, K. Morokuma, O. Farkas, 
 J. B. Foresman, and D. J. Fox, Gaussian, Inc., Wallingford CT, 2019.
 
 ******************************************
 Gaussian 16:  AS64L-G16RevC.01  3-Jul-2019
                 9-May-2025 
 ******************************************
 %mem=20GB
 %nprocshared=32
 Will use up to   32 processors via shared memory.
 %chk=2-OMe-ph-opt-freq-thf.chk
 ----------------------------------------------------------------------
 # opt=(calcfc,tight) freq 6-311+g(d,p) scrf=(smd,solvent=thf) nosymm s
 cf=(qc,fermi,xqc) geom=connectivity int=ultrafine m062x
 ----------------------------------------------------------------------
 1/7=10,10=4,18=20,19=15,26=6,38=1,57=2/1,3;
 2/9=110,12=2,15=1,17=6,18=5,40=1/2;
 3/5=4,6=6,7=111,11=2,25=1,30=1,70=32201,71=2,72=20,74=-55,75=-5,140=1/1,2,3;
 4//1;
 5/5=2,22=13,38=5,53=20/2;
 8/6=4,10=90,11=11/1;
 11/6=1,8=1,9=11,15=111,16=1,31=1/1,2,10;
 10/6=1,13=1,31=1/2;
 6/7=2,8=2,9=2,10=2,28=1/1;
 7/10=1,25=1,30=1/1,2,3,16;
 1/7=10,10=4,18=20,19=15,26=6/3(2);
 2/9=110,15=1/2;
 99//99;
 2/9=110,15=1/2;
 3/5=4,6=6,7=111,11=2,25=1,30=1,70=32205,71=1,72=20,74=-55,75=-5/1,2,3;
 4/5=5,16=3,69=1/1;
 5/5=2,22=13,38=5,53=20/2;
 7/30=1/1,2,3,16;
 1/7=10,18=20,19=15,26=6/3(-5);
 2/9=110,15=1/2;
 6/7=2,8=2,9=2,10=2,19=2,28=1/1;
 99/9=1/99;
 ---------------------
 2-OMe-ph-opt-freq-thf
 ---------------------
 Symbolic Z-matrix:
 Charge =  0 Multiplicity = 2
 C                     6.22039   6.96841   5.23087 
 C                     5.1613    6.14725   5.62484 
 H                     5.34081   5.36597   6.35854 
 C                     3.871     6.31366   5.12468 
 H                     3.06552   5.67037   5.45762 
 C                     3.63627   7.31818   4.19606 
 C                     4.67051   8.14684   3.7642 
 C                     5.95691   7.97192   4.27912 
 H                     2.64084   7.46547   3.79192 
 H                     4.46311   8.91484   3.03112 
 O                     7.01876   8.7165    3.88893 
 C                     6.79995   9.75397   2.94718 
 H                     6.43618   9.35582   1.99527 
 H                     6.09173   10.49405   3.33111 
 H                     7.76771   10.22742   2.79352 
 

 GradGradGradGradGradGradGradGradGradGradGradGradGradGradGradGradGradGrad
 Berny optimization.
 Initialization pass.
                           ----------------------------
                           !    Initial Parameters    !
                           ! (Angstroms and Degrees)  !
 --------------------------                            --------------------------
 ! Name  Definition              Value          Derivative Info.                !
 --------------------------------------------------------------------------------
 ! R1    R(1,2)                  1.3969         calculate D2E/DX2 analytically  !
 ! R2    R(1,8)                  1.4079         calculate D2E/DX2 analytically  !
 ! R3    R(2,3)                  1.0867         calculate D2E/DX2 analytically  !
 ! R4    R(2,4)                  1.3938         calculate D2E/DX2 analytically  !
 ! R5    R(4,5)                  1.0833         calculate D2E/DX2 analytically  !
 ! R6    R(4,6)                  1.388          calculate D2E/DX2 analytically  !
 ! R7    R(6,7)                  1.3939         calculate D2E/DX2 analytically  !
 ! R8    R(6,9)                  1.0844         calculate D2E/DX2 analytically  !
 ! R9    R(7,8)                  1.3966         calculate D2E/DX2 analytically  !
 ! R10   R(7,10)                 1.0818         calculate D2E/DX2 analytically  !
 ! R11   R(8,11)                 1.3543         calculate D2E/DX2 analytically  !
 ! R12   R(11,12)                1.4181         calculate D2E/DX2 analytically  !
 ! R13   R(12,13)                1.0941         calculate D2E/DX2 analytically  !
 ! R14   R(12,14)                1.0939         calculate D2E/DX2 analytically  !
 ! R15   R(12,15)                1.0883         calculate D2E/DX2 analytically  !
 ! A1    A(2,1,8)              117.8899         calculate D2E/DX2 analytically  !
 ! A2    A(1,2,3)              119.1976         calculate D2E/DX2 analytically  !
 ! A3    A(1,2,4)              122.0386         calculate D2E/DX2 analytically  !
 ! A4    A(3,2,4)              118.7526         calculate D2E/DX2 analytically  !
 ! A5    A(2,4,5)              120.4742         calculate D2E/DX2 analytically  !
 ! A6    A(2,4,6)              118.8843         calculate D2E/DX2 analytically  !
 ! A7    A(5,4,6)              120.6414         calculate D2E/DX2 analytically  !
 ! A8    A(4,6,7)              120.802          calculate D2E/DX2 analytically  !
 ! A9    A(4,6,9)              120.1906         calculate D2E/DX2 analytically  !
 ! A10   A(7,6,9)              119.0067         calculate D2E/DX2 analytically  !
 ! A11   A(6,7,8)              119.6529         calculate D2E/DX2 analytically  !
 ! A12   A(6,7,10)             119.3252         calculate D2E/DX2 analytically  !
 ! A13   A(8,7,10)             121.0216         calculate D2E/DX2 analytically  !
 ! A14   A(1,8,7)              120.7218         calculate D2E/DX2 analytically  !
 ! A15   A(1,8,11)             116.0971         calculate D2E/DX2 analytically  !
 ! A16   A(7,8,11)             123.1672         calculate D2E/DX2 analytically  !
 ! A17   A(8,11,12)            118.2006         calculate D2E/DX2 analytically  !
 ! A18   A(11,12,13)           111.2761         calculate D2E/DX2 analytically  !
 ! A19   A(11,12,14)           111.2074         calculate D2E/DX2 analytically  !
 ! A20   A(11,12,15)           105.9516         calculate D2E/DX2 analytically  !
 ! A21   A(13,12,14)           109.652          calculate D2E/DX2 analytically  !
 ! A22   A(13,12,15)           109.3384         calculate D2E/DX2 analytically  !
 ! A23   A(14,12,15)           109.3264         calculate D2E/DX2 analytically  !
 ! D1    D(8,1,2,3)           -179.9802         calculate D2E/DX2 analytically  !
 ! D2    D(8,1,2,4)             -1.2143         calculate D2E/DX2 analytically  !
 ! D3    D(2,1,8,7)              0.8947         calculate D2E/DX2 analytically  !
 ! D4    D(2,1,8,11)          -177.7945         calculate D2E/DX2 analytically  !
 ! D5    D(1,2,4,5)           -179.1938         calculate D2E/DX2 analytically  !
 ! D6    D(1,2,4,6)              0.6805         calculate D2E/DX2 analytically  !
 ! D7    D(3,2,4,5)             -0.4226         calculate D2E/DX2 analytically  !
 ! D8    D(3,2,4,6)            179.4517         calculate D2E/DX2 analytically  !
 ! D9    D(2,4,6,7)              0.1995         calculate D2E/DX2 analytically  !
 ! D10   D(2,4,6,9)            179.9084         calculate D2E/DX2 analytically  !
 ! D11   D(5,4,6,7)           -179.9265         calculate D2E/DX2 analytically  !
 ! D12   D(5,4,6,9)             -0.2176         calculate D2E/DX2 analytically  !
 ! D13   D(4,6,7,8)             -0.4985         calculate D2E/DX2 analytically  !
 ! D14   D(4,6,7,10)           179.3015         calculate D2E/DX2 analytically  !
 ! D15   D(9,6,7,8)            179.7892         calculate D2E/DX2 analytically  !
 ! D16   D(9,6,7,10)            -0.4107         calculate D2E/DX2 analytically  !
 ! D17   D(6,7,8,1)             -0.0641         calculate D2E/DX2 analytically  !
 ! D18   D(6,7,8,11)           178.5297         calculate D2E/DX2 analytically  !
 ! D19   D(10,7,8,1)          -179.8606         calculate D2E/DX2 analytically  !
 ! D20   D(10,7,8,11)           -1.2669         calculate D2E/DX2 analytically  !
 ! D21   D(1,8,11,12)         -179.0294         calculate D2E/DX2 analytically  !
 ! D22   D(7,8,11,12)            2.3167         calculate D2E/DX2 analytically  !
 ! D23   D(8,11,12,13)         -62.3137         calculate D2E/DX2 analytically  !
 ! D24   D(8,11,12,14)          60.2488         calculate D2E/DX2 analytically  !
 ! D25   D(8,11,12,15)         178.9418         calculate D2E/DX2 analytically  !
 --------------------------------------------------------------------------------
 Trust Radius=3.00D-01 FncErr=5.00D-06 GrdErr=5.00D-06 EigMax=2.50D+02 EigMin=1.00D-04
 Number of steps in this run=     73 maximum allowed number of steps=    100.
 GradGradGradGradGradGradGradGradGradGradGradGradGradGradGradGradGradGrad

                          Input orientation:                          
 ---------------------------------------------------------------------
 Center     Atomic      Atomic             Coordinates (Angstroms)
 Number     Number       Type             X           Y           Z
 ---------------------------------------------------------------------
      1          6           0        6.220392    6.968411    5.230870
      2          6           0        5.161302    6.147250    5.624844
      3          1           0        5.340810    5.365965    6.358542
      4          6           0        3.870996    6.313664    5.124680
      5          1           0        3.065517    5.670375    5.457618
      6          6           0        3.636274    7.318179    4.196058
      7          6           0        4.670515    8.146838    3.764195
      8          6           0        5.956914    7.971917    4.279121
      9          1           0        2.640837    7.465465    3.791923
     10          1           0        4.463106    8.914843    3.031117
     11          8           0        7.018758    8.716500    3.888934
     12          6           0        6.799949    9.753967    2.947176
     13          1           0        6.436180    9.355817    1.995266
     14          1           0        6.091725   10.494047    3.331114
     15          1           0        7.767710   10.227417    2.793518
 ---------------------------------------------------------------------
                    Distance matrix (angstroms):
                    1          2          3          4          5
     1  C    0.000000
     2  C    1.396851   0.000000
     3  H    2.147823   1.086712   0.000000
     4  C    2.441236   1.393825   2.140304   0.000000
     5  H    3.418998   2.155850   2.466027   1.083266   0.000000
     6  C    2.805502   2.395457   3.375340   1.387978   2.152337
     7  C    2.437610   2.775111   3.861759   2.418817   3.402436
     8  C    1.407931   2.402786   3.390363   2.795680   3.878934
     9  H    3.889839   3.383790   4.276130   2.148529   2.485406
    10  H    3.422801   3.856743   4.943345   3.391126   4.285760
    11  O    2.343927   3.614495   4.487823   4.148385   5.231421
    12  C    3.648351   4.781577   5.746396   5.015573   6.076514
    13  H    4.026836   5.009396   6.013063   5.062420   6.077148
    14  H    4.006961   5.002152   6.002201   5.062027   6.078467
    15  H    4.353849   5.608701   6.498689   5.994678   7.069277
                    6          7          8          9         10
     6  C    0.000000
     7  C    1.393856   0.000000
     8  C    2.412394   1.396628   0.000000
     9  H    1.084395   2.141175   3.389723   0.000000
    10  H    2.142446   1.081783   2.162888   2.449528   0.000000
    11  O    3.672986   2.419570   1.354313   4.554195   2.703063
    12  C    4.183492   2.790138   2.379178   4.821727   2.484353
    13  H    4.103039   2.776385   2.713092   4.605001   2.271666
    14  H    4.106520   2.777911   2.697783   4.614464   2.288293
    15  H    5.244001   3.855339   3.251658   5.908470   3.563665
                   11         12         13         14         15
    11  O    0.000000
    12  C    1.418141   0.000000
    13  H    2.081851   1.094068   0.000000
    14  H    2.080920   1.093942   1.788493   0.000000
    15  H    2.010904   1.088268   1.780411   1.780176   0.000000
 Symmetry turned off by external request.
 Stoichiometry    C7H7O(2)
 Framework group  C1[X(C7H7O)]
 Deg. of freedom    39
 Full point group                 C1      NOp   1
 Rotational constants (GHZ):           5.3140449           1.5809465           1.2280498
 Standard basis: 6-311+G(d,p) (5D, 7F)
   218 basis functions,   344 primitive gaussians,   226 cartesian basis functions
    29 alpha electrons       28 beta electrons
       nuclear repulsion energy       334.3617684754 Hartrees.
 NAtoms=   15 NActive=   15 NUniq=   15 SFac= 1.00D+00 NAtFMM=   60 NAOKFM=F Big=F
 Integral buffers will be    131072 words long.
 Raffenetti 2 integral format.
 Two-electron integral symmetry is turned off.
 Force inversion solution in PCM.
 ------------------------------------------------------------------------------
 Polarizable Continuum Model (PCM)
 =================================
 Model                : PCM.
 Atomic radii         : SMD-Coulomb.
 Polarization charges : Total charges.
 Charge compensation  : None.
 Solution method      : Matrix inversion.
 Cavity type          : VdW (van der Waals Surface) (Alpha=1.000).
 Cavity algorithm     : GePol (No added spheres)
                        Default sphere list used, NSphG=   15.
                        Lebedev-Laikov grids with approx.  5.0 points / Ang**2.
                        Smoothing algorithm: York/Karplus (Gamma=1.0000).
                        Polarization charges: spherical gaussians, with
                                              point-specific exponents (IZeta= 3).
                        Self-potential: point-specific (ISelfS= 7).
                        Self-field    : sphere-specific E.n sum rule (ISelfD= 2).
 1st derivatives      : Analytical E(r).r(x)/FMM algorithm (CHGder, D1EAlg=3).
                        Cavity 1st derivative terms included.
 2nd derivatives      : Analytical E(r).r(xy)/FMM algorithm (CHGder, D2EAlg=3).
                        Cavity 2nd derivative terms included.
 Solvent              : TetraHydroFuran, Eps=   7.425700 Eps(inf)=   1.974025
 ------------------------------------------------------------------------------
 Spheres list:
 ISph  on   Nord     Re0    Alpha      Xe            Ye            Ze
    1   C      1    1.8500  1.000      6.220392      6.968411      5.230870
    2   C      2    1.8500  1.000      5.161302      6.147250      5.624844
    3   H      3    1.2000  1.000      5.340810      5.365965      6.358542
    4   C      4    1.8500  1.000      3.870996      6.313664      5.124680
    5   H      5    1.2000  1.000      3.065517      5.670375      5.457618
    6   C      6    1.8500  1.000      3.636274      7.318179      4.196058
    7   C      7    1.8500  1.000      4.670515      8.146838      3.764195
    8   C      8    1.8500  1.000      5.956914      7.971917      4.279121
    9   H      9    1.2000  1.000      2.640837      7.465465      3.791923
   10   H     10    1.2000  1.000      4.463106      8.914843      3.031117
   11   O     11    2.2940  1.000      7.018758      8.716500      3.888934
   12   C     12    1.8500  1.000      6.799949      9.753967      2.947176
   13   H     13    1.2000  1.000      6.436180      9.355817      1.995266
   14   H     14    1.2000  1.000      6.091725     10.494047      3.331114
   15   H     15    1.2000  1.000      7.767710     10.227417      2.793518
 ------------------------------------------------------------------------------
 ------------------------------------------------------------------------------
 Atomic radii for non-electrostatic terms: SMD-CDS.
 ------------------------------------------------------------------------------
 Nuclear repulsion after PCM non-electrostatic terms =      334.3595931578 Hartrees.
 One-electron integrals computed using PRISM.
 NBasis=   218 RedAO= T EigKep=  3.17D-06  NBF=   218
 NBsUse=   218 1.00D-06 EigRej= -1.00D+00 NBFU=   218
 ExpMin= 4.38D-02 ExpMax= 8.59D+03 ExpMxC= 1.30D+03 IAcc=3 IRadAn=         5 AccDes= 0.00D+00
 Harris functional with IExCor= 1009 and IRadAn=       5 diagonalized for initial guess.
 HarFok:  IExCor= 1009 AccDes= 0.00D+00 IRadAn=         5 IDoV= 1 UseB2=F ITyADJ=14
 ICtDFT=  3500011 ScaDFX=  1.000000  1.000000  1.000000  1.000000
 FoFCou: FMM=F IPFlag=           0 FMFlag=      100000 FMFlg1=           0
         NFxFlg=           0 DoJE=T BraDBF=F KetDBF=T FulRan=T
         wScrn=  0.000000 ICntrl=       500 IOpCl=  0 I1Cent=   200000004 NGrid=           0
         NMat0=    1 NMatS0=      1 NMatT0=    0 NMatD0=    1 NMtDS0=    0 NMtDT0=    0
 Symmetry not used in FoFCou.
 Initial guess <Sx>= 0.0000 <Sy>= 0.0000 <Sz>= 0.5000 <S**2>= 0.7500 S= 0.5000
 Requested convergence on RMS density matrix=1.00D-08 within 128 cycles.
 Requested convergence on MAX density matrix=1.00D-06.
 Requested convergence on             energy=1.00D-06.
 Level shift goal  0.100 maximum shift  0.100.
 No special actions if energy rises.
 Dynamic level shift is on during FON iterations.
 Inv3:  Mode=1 IEnd=     4892187.
 Iteration    1 A*A^-1 deviation from unit magnitude is 2.55D-15 for   1266.
 Iteration    1 A*A^-1 deviation from orthogonality  is 1.84D-15 for    399    253.
 Iteration    1 A^-1*A deviation from unit magnitude is 2.78D-15 for   1266.
 Iteration    1 A^-1*A deviation from orthogonality  is 2.48D-15 for    634    629.
 Error on total polarization charges =  0.03493
 SCF Done:  E(UM062X) =  -346.027501358     A.U. after   19 cycles
            NFock= 19  Conv=0.90D-08     -V/T= 2.0041
 <Sx>= 0.0000 <Sy>= 0.0000 <Sz>= 0.5000 <S**2>= 0.7641 S= 0.5070
 <L.S>=  0.00000000000    
 SMD-CDS (non-electrostatic) energy       (kcal/mol) =      -1.37
 (included in total energy above)
 Annihilation of the first spin contaminant:
 S**2 before annihilation     0.7641,   after     0.7501
 DoSCS=F DFT=T ScalE2(SS,OS)=  1.000000  1.000000
 Range of M.O.s used for correlation:     1   218
 NBasis=   218 NAE=    29 NBE=    28 NFC=     0 NFV=     0
 NROrb=    218 NOA=    29 NOB=    28 NVA=   189 NVB=   190

 **** Warning!!: The largest alpha MO coefficient is  0.13894390D+03


 **** Warning!!: The largest beta MO coefficient is  0.12922872D+03

 Symmetrizing basis deriv contribution to polar:
 IMax=3 JMax=2 DiffMx= 0.00D+00
 G2DrvN: will do    16 centers at a time, making    1 passes.
 Calling FoFCou, ICntrl=  3107 FMM=F I1Cent=   0 AccDes= 0.00D+00.
 NEqPCM:  Using equilibrium solvation (IEInf=0, Eps=   7.4257, EpsInf=   1.9740)
 G2PCM: DoFxE=T DoFxN=T DoGrad=T DoDP/DQ/DG/TGxP=FFFF NFrqRd=   0 IEInf=0 SqF1=F DoCFld=F IF1Alg=4.
 End of G2Drv F.D. properties file   721 does not exist.
 End of G2Drv F.D. properties file   722 does not exist.
 End of G2Drv F.D. properties file   788 does not exist.
          IDoAtm=111111111111111
 NEqPCM:  Using equilibrium solvation (IEInf=0, Eps=   7.4257, EpsInf=   1.9740)
          Differentiating once with respect to nuclear coordinates.
 Keep R1 and R2 ints in memory in canonical form, NReq=603546523.
          There are    48 degrees of freedom in the 1st order CPHF.  IDoFFX=6 NUNeed=     0.
     42 vectors produced by pass  0 Test12= 2.25D-14 2.08D-09 XBig12= 2.45D-01 8.64D-02.
 AX will form    42 AO Fock derivatives at one time.
     42 vectors produced by pass  1 Test12= 2.25D-14 2.08D-09 XBig12= 3.92D-02 4.77D-02.
     42 vectors produced by pass  2 Test12= 2.25D-14 2.08D-09 XBig12= 1.36D-03 9.53D-03.
     42 vectors produced by pass  3 Test12= 2.25D-14 2.08D-09 XBig12= 3.12D-05 1.55D-03.
     42 vectors produced by pass  4 Test12= 2.25D-14 2.08D-09 XBig12= 6.88D-07 1.42D-04.
     42 vectors produced by pass  5 Test12= 2.25D-14 2.08D-09 XBig12= 8.57D-09 1.21D-05.
     40 vectors produced by pass  6 Test12= 2.25D-14 2.08D-09 XBig12= 6.54D-11 6.51D-07.
     22 vectors produced by pass  7 Test12= 2.25D-14 2.08D-09 XBig12= 4.80D-13 5.85D-08.
      2 vectors produced by pass  8 Test12= 2.25D-14 2.08D-09 XBig12= 2.70D-15 4.72D-09.
 InvSVY:  IOpt=1 It=  1 EMax= 1.55D-15
 Solved reduced A of dimension   316 with    42 vectors.
 End of Minotr F.D. properties file   721 does not exist.
 End of Minotr F.D. properties file   722 does not exist.
 End of Minotr F.D. properties file   788 does not exist.

 **********************************************************************

            Population analysis using the SCF Density.

 **********************************************************************

 Alpha  occ. eigenvalues --  -19.65430 -10.61696 -10.58131 -10.57904 -10.55422
 Alpha  occ. eigenvalues --  -10.54785 -10.54675 -10.54311  -1.19653  -0.96674
 Alpha  occ. eigenvalues --   -0.85836  -0.84971  -0.78811  -0.69444  -0.67561
 Alpha  occ. eigenvalues --   -0.61141  -0.55967  -0.54899  -0.54819  -0.51462
 Alpha  occ. eigenvalues --   -0.48483  -0.45868  -0.45604  -0.42462  -0.40937
 Alpha  occ. eigenvalues --   -0.39455  -0.33343  -0.32091  -0.28587
 Alpha virt. eigenvalues --    0.00928   0.01882   0.02836   0.02982   0.03592
 Alpha virt. eigenvalues --    0.04967   0.05212   0.05331   0.06363   0.07913
 Alpha virt. eigenvalues --    0.08321   0.08712   0.09707   0.10587   0.12038
 Alpha virt. eigenvalues --    0.13091   0.13676   0.14199   0.15079   0.15678
 Alpha virt. eigenvalues --    0.15766   0.16834   0.17685   0.19280   0.19444
 Alpha virt. eigenvalues --    0.20680   0.21001   0.21358   0.22799   0.23478
 Alpha virt. eigenvalues --    0.24029   0.24369   0.24534   0.24645   0.25822
 Alpha virt. eigenvalues --    0.26583   0.27318   0.28229   0.28936   0.29304
 Alpha virt. eigenvalues --    0.32121   0.33928   0.35027   0.35595   0.37546
 Alpha virt. eigenvalues --    0.38848   0.41069   0.41597   0.46785   0.49622
 Alpha virt. eigenvalues --    0.51603   0.54265   0.55640   0.57490   0.58278
 Alpha virt. eigenvalues --    0.59967   0.60116   0.61758   0.61818   0.64025
 Alpha virt. eigenvalues --    0.64688   0.64891   0.66006   0.67173   0.67958
 Alpha virt. eigenvalues --    0.71752   0.71986   0.73782   0.75316   0.77779
 Alpha virt. eigenvalues --    0.78760   0.79967   0.81739   0.83847   0.86491
 Alpha virt. eigenvalues --    0.87184   0.88964   0.90373   0.91293   0.94531
 Alpha virt. eigenvalues --    0.96932   0.99860   1.03185   1.04026   1.05535
 Alpha virt. eigenvalues --    1.06515   1.07973   1.12764   1.14222   1.15930
 Alpha virt. eigenvalues --    1.20312   1.22121   1.22883   1.32324   1.33744
 Alpha virt. eigenvalues --    1.39104   1.43766   1.49927   1.50277   1.52803
 Alpha virt. eigenvalues --    1.56179   1.58637   1.59448   1.61055   1.61561
 Alpha virt. eigenvalues --    1.61973   1.68958   1.70268   1.72200   1.73639
 Alpha virt. eigenvalues --    1.74527   1.76106   1.78107   1.79132   1.80919
 Alpha virt. eigenvalues --    1.84565   1.87734   1.93430   1.94267   1.94652
 Alpha virt. eigenvalues --    1.95831   1.98418   1.99505   2.03405   2.05407
 Alpha virt. eigenvalues --    2.06785   2.07725   2.12637   2.15532   2.20884
 Alpha virt. eigenvalues --    2.27730   2.29911   2.34923   2.35284   2.43895
 Alpha virt. eigenvalues --    2.46355   2.49156   2.53226   2.54845   2.55362
 Alpha virt. eigenvalues --    2.58052   2.61756   2.67476   2.69410   2.71350
 Alpha virt. eigenvalues --    2.72756   2.74943   2.77535   2.80507   2.81211
 Alpha virt. eigenvalues --    2.83822   2.84055   2.88613   2.92834   2.93524
 Alpha virt. eigenvalues --    2.94438   3.06288   3.12338   3.12427   3.14497
 Alpha virt. eigenvalues --    3.17186   3.21528   3.31600   3.38817   3.42486
 Alpha virt. eigenvalues --    3.45638   3.55618   3.56850   3.67483   3.83378
 Alpha virt. eigenvalues --    3.83551   3.89310   4.07201   4.09734   4.15199
 Alpha virt. eigenvalues --    4.17456   4.26181   4.82799   5.14344   5.49886
 Alpha virt. eigenvalues --    5.87334  23.62638  23.98278  23.99647  24.00227
 Alpha virt. eigenvalues --   24.11471  24.15747  24.24532  50.06475
  Beta  occ. eigenvalues --  -19.65429 -10.61692 -10.58132 -10.56850 -10.55432
  Beta  occ. eigenvalues --  -10.54808 -10.54635 -10.54236  -1.19590  -0.95971
  Beta  occ. eigenvalues --   -0.85278  -0.84072  -0.78385  -0.68253  -0.67030
  Beta  occ. eigenvalues --   -0.60591  -0.55477  -0.54818  -0.54176  -0.50951
  Beta  occ. eigenvalues --   -0.47969  -0.45098  -0.44918  -0.42053  -0.40074
  Beta  occ. eigenvalues --   -0.39522  -0.31193  -0.27866
  Beta virt. eigenvalues --   -0.07537   0.01872   0.01929   0.02823   0.02992
  Beta virt. eigenvalues --    0.03925   0.04956   0.05215   0.05830   0.06485
  Beta virt. eigenvalues --    0.07983   0.08414   0.08968   0.09474   0.10671
  Beta virt. eigenvalues --    0.11885   0.12538   0.13641   0.14264   0.15317
  Beta virt. eigenvalues --    0.15409   0.15707   0.16738   0.17546   0.19060
  Beta virt. eigenvalues --    0.19789   0.20618   0.21150   0.21913   0.23053
  Beta virt. eigenvalues --    0.23256   0.23837   0.24431   0.24761   0.24781
  Beta virt. eigenvalues --    0.25653   0.26667   0.27206   0.27964   0.28843
  Beta virt. eigenvalues --    0.29021   0.32294   0.33673   0.35195   0.36070
  Beta virt. eigenvalues --    0.37856   0.38910   0.41326   0.41560   0.46754
  Beta virt. eigenvalues --    0.49119   0.49859   0.53472   0.55812   0.57441
  Beta virt. eigenvalues --    0.57880   0.59390   0.60231   0.60382   0.61898
  Beta virt. eigenvalues --    0.64404   0.64644   0.64872   0.65996   0.67727
  Beta virt. eigenvalues --    0.67965   0.71554   0.72126   0.74042   0.75177
  Beta virt. eigenvalues --    0.77165   0.79149   0.79923   0.81802   0.83625
  Beta virt. eigenvalues --    0.86651   0.87111   0.88880   0.90445   0.91139
  Beta virt. eigenvalues --    0.93760   0.97002   1.00236   1.03365   1.04380
  Beta virt. eigenvalues --    1.05521   1.06100   1.07991   1.12546   1.14255
  Beta virt. eigenvalues --    1.16228   1.20706   1.21999   1.24556   1.31857
  Beta virt. eigenvalues --    1.33842   1.39107   1.44093   1.49927   1.50657
  Beta virt. eigenvalues --    1.54099   1.56618   1.58681   1.60375   1.61334
  Beta virt. eigenvalues --    1.61792   1.62136   1.69034   1.70368   1.72675
  Beta virt. eigenvalues --    1.73819   1.74835   1.76193   1.78112   1.79823
  Beta virt. eigenvalues --    1.81086   1.84711   1.88216   1.93711   1.94282
  Beta virt. eigenvalues --    1.95394   1.96151   1.98716   1.99620   2.04132
  Beta virt. eigenvalues --    2.05654   2.06880   2.07812   2.12929   2.15536
  Beta virt. eigenvalues --    2.21032   2.27770   2.30667   2.35347   2.35571
  Beta virt. eigenvalues --    2.44017   2.46791   2.49190   2.53215   2.54854
  Beta virt. eigenvalues --    2.55366   2.58334   2.61819   2.67826   2.69740
  Beta virt. eigenvalues --    2.71663   2.72850   2.75103   2.77614   2.80549
  Beta virt. eigenvalues --    2.81190   2.83927   2.84139   2.88735   2.93106
  Beta virt. eigenvalues --    2.93631   2.94442   3.08386   3.12309   3.12459
  Beta virt. eigenvalues --    3.14595   3.17270   3.21980   3.31541   3.39151
  Beta virt. eigenvalues --    3.42803   3.45802   3.55794   3.56981   3.68255
  Beta virt. eigenvalues --    3.83397   3.83911   3.89397   4.07207   4.09722
  Beta virt. eigenvalues --    4.15360   4.17471   4.26468   4.83157   5.14279
  Beta virt. eigenvalues --    5.49868   5.87387  23.62875  23.98846  23.99672
  Beta virt. eigenvalues --   24.00225  24.11735  24.15760  24.24540  50.06468
          Condensed to atoms (all electrons):
               1          2          3          4          5          6
     1  C    9.004002  -0.389720  -0.051859   0.313256  -0.035126  -0.529612
     2  C   -0.389720   5.679275   0.370048   0.213471   0.017452   0.409374
     3  H   -0.051859   0.370048   0.461893   0.011369  -0.005915  -0.025394
     4  C    0.313256   0.213471   0.011369   5.338611   0.368433   0.271947
     5  H   -0.035126   0.017452  -0.005915   0.368433   0.456801   0.013310
     6  C   -0.529612   0.409374  -0.025394   0.271947   0.013310   6.670714
     7  C   -1.295394  -0.517339   0.021229   0.277154  -0.027400  -0.442899
     8  C   -0.827747   0.695461   0.016785  -0.738407   0.023067  -0.040293
     9  H   -0.000338  -0.016501  -0.000137   0.012334  -0.004891   0.329831
    10  H   -0.060622   0.009908   0.000044  -0.018270  -0.000187  -0.010230
    11  O   -0.474390  -0.041368  -0.000421   0.015859   0.000173   0.019247
    12  C    0.022686   0.001989   0.000484   0.000232   0.000283  -0.178670
    13  H   -0.001259   0.000073   0.000000   0.000079   0.000000  -0.006281
    14  H    0.004315   0.000168   0.000000   0.000830   0.000000  -0.006553
    15  H   -0.006948   0.000332   0.000000  -0.000727   0.000000   0.011241
               7          8          9         10         11         12
     1  C   -1.295394  -0.827747  -0.000338  -0.060622  -0.474390   0.022686
     2  C   -0.517339   0.695461  -0.016501   0.009908  -0.041368   0.001989
     3  H    0.021229   0.016785  -0.000137   0.000044  -0.000421   0.000484
     4  C    0.277154  -0.738407   0.012334  -0.018270   0.015859   0.000232
     5  H   -0.027400   0.023067  -0.004891  -0.000187   0.000173   0.000283
     6  C   -0.442899  -0.040293   0.329831  -0.010230   0.019247  -0.178670
     7  C    8.174485  -1.239728   0.031551   0.417816   0.190951  -0.119265
     8  C   -1.239728   8.591742  -0.002157   0.024840   0.173586   0.060442
     9  H    0.031551  -0.002157   0.457621  -0.004292  -0.000375   0.001931
    10  H    0.417816   0.024840  -0.004292   0.447955  -0.012818   0.004197
    11  O    0.190951   0.173586  -0.000375  -0.012818   8.268943   0.116506
    12  C   -0.119265   0.060442   0.001931   0.004197   0.116506   5.199978
    13  H    0.015262  -0.016966   0.000027  -0.001271  -0.034331   0.414978
    14  H    0.010025  -0.018384   0.000025  -0.001345  -0.033861   0.416366
    15  H    0.004142   0.017813  -0.000003   0.000597  -0.059567   0.408011
              13         14         15
     1  C   -0.001259   0.004315  -0.006948
     2  C    0.000073   0.000168   0.000332
     3  H    0.000000   0.000000   0.000000
     4  C    0.000079   0.000830  -0.000727
     5  H    0.000000   0.000000   0.000000
     6  C   -0.006281  -0.006553   0.011241
     7  C    0.015262   0.010025   0.004142
     8  C   -0.016966  -0.018384   0.017813
     9  H    0.000027   0.000025  -0.000003
    10  H   -0.001271  -0.001345   0.000597
    11  O   -0.034331  -0.033861  -0.059567
    12  C    0.414978   0.416366   0.408011
    13  H    0.514096  -0.044542  -0.021560
    14  H   -0.044542   0.512491  -0.021326
    15  H   -0.021560  -0.021326   0.471705
          Atomic-Atomic Spin Densities.
               1          2          3          4          5          6
     1  C    1.583837  -0.396032   0.023812   0.212336   0.005951  -0.161162
     2  C   -0.396032   0.294948  -0.011908  -0.179208  -0.007147   0.122246
     3  H    0.023812  -0.011908   0.024629   0.003854   0.001060  -0.007847
     4  C    0.212336  -0.179208   0.003854   0.221752   0.007700  -0.091880
     5  H    0.005951  -0.007147   0.001060   0.007700   0.002580  -0.005154
     6  C   -0.161162   0.122246  -0.007847  -0.091880  -0.005154  -0.011396
     7  C    0.128846  -0.171036   0.006093   0.100164   0.002766  -0.045338
     8  C   -0.626682   0.436777  -0.022790  -0.262277  -0.004785   0.163833
     9  H   -0.001308   0.000456  -0.000021  -0.005177  -0.000374   0.007632
    10  H    0.002692  -0.002631   0.000012   0.003562   0.000027  -0.003704
    11  O    0.045597  -0.033279   0.000297   0.016204   0.000031  -0.009015
    12  C   -0.003020   0.007718  -0.000137  -0.004569  -0.000001   0.002139
    13  H   -0.002692   0.000358  -0.000001  -0.000302   0.000000   0.000480
    14  H   -0.002538   0.000521  -0.000001  -0.000378   0.000000   0.000436
    15  H    0.002643  -0.000173   0.000000   0.000128   0.000000  -0.000193
               7          8          9         10         11         12
     1  C    0.128846  -0.626682  -0.001308   0.002692   0.045597  -0.003020
     2  C   -0.171036   0.436777   0.000456  -0.002631  -0.033279   0.007718
     3  H    0.006093  -0.022790  -0.000021   0.000012   0.000297  -0.000137
     4  C    0.100164  -0.262277  -0.005177   0.003562   0.016204  -0.004569
     5  H    0.002766  -0.004785  -0.000374   0.000027   0.000031  -0.000001
     6  C   -0.045338   0.163833   0.007632  -0.003704  -0.009015   0.002139
     7  C    0.332956  -0.375394  -0.003913   0.015988   0.032943  -0.027579
     8  C   -0.375394   0.868077   0.002614  -0.016879  -0.062792   0.028228
     9  H   -0.003913   0.002614   0.003985  -0.000568  -0.000040   0.000019
    10  H    0.015988  -0.016879  -0.000568   0.008413   0.001246  -0.000455
    11  O    0.032943  -0.062792  -0.000040   0.001246   0.006719  -0.008632
    12  C   -0.027579   0.028228   0.000019  -0.000455  -0.008632   0.004335
    13  H    0.000064   0.002696  -0.000001  -0.000059   0.000204  -0.000545
    14  H   -0.000691   0.003146  -0.000001  -0.000010   0.000445  -0.000649
    15  H   -0.000651  -0.002737   0.000000   0.000011  -0.000477   0.001049
              13         14         15
     1  C   -0.002692  -0.002538   0.002643
     2  C    0.000358   0.000521  -0.000173
     3  H   -0.000001  -0.000001   0.000000
     4  C   -0.000302  -0.000378   0.000128
     5  H    0.000000   0.000000   0.000000
     6  C    0.000480   0.000436  -0.000193
     7  C    0.000064  -0.000691  -0.000651
     8  C    0.002696   0.003146  -0.002737
     9  H   -0.000001  -0.000001   0.000000
    10  H   -0.000059  -0.000010   0.000011
    11  O    0.000204   0.000445  -0.000477
    12  C   -0.000545  -0.000649   0.001049
    13  H   -0.000783   0.000192  -0.000080
    14  H    0.000192  -0.000879  -0.000085
    15  H   -0.000080  -0.000085   0.000385
 Mulliken charges and spin densities:
               1          2
     1  C    0.328755   0.812280
     2  C   -0.432625   0.061610
     3  H    0.201875   0.017053
     4  C   -0.066172   0.021911
     5  H    0.194001   0.002654
     6  C   -0.485733  -0.038924
     7  C    0.499410  -0.004782
     8  C   -0.720055   0.131034
     9  H    0.195374   0.003303
    10  H    0.203679   0.007645
    11  O   -0.128135  -0.010548
    12  C   -0.350147  -0.002099
    13  H    0.181696  -0.000468
    14  H    0.181790  -0.000491
    15  H    0.196289  -0.000179
 Sum of Mulliken charges =   0.00000   1.00000
 Mulliken charges and spin densities with hydrogens summed into heavy atoms:
               1          2
     1  C    0.328755   0.812280
     2  C   -0.230750   0.078663
     4  C    0.127829   0.024565
     6  C   -0.290359  -0.035621
     7  C    0.703089   0.002864
     8  C   -0.720055   0.131034
    11  O   -0.128135  -0.010548
    12  C    0.209627  -0.003237
 APT charges:
               1
     1  C    3.509842
     2  C   -1.558991
     3  H    0.383106
     4  C    0.342480
     5  H   -0.541930
     6  C   -0.767302
     7  C   -0.673618
     8  C   -0.850094
     9  H   -0.331707
    10  H    0.699661
    11  O   -0.085938
    12  C   -1.940277
    13  H   -0.852329
    14  H    0.730874
    15  H    1.936223
 Sum of APT charges =   0.00000
 APT charges with hydrogens summed into heavy atoms:
               1
     1  C    3.509842
     2  C   -1.175885
     4  C   -0.199450
     6  C   -1.099009
     7  C    0.026043
     8  C   -0.850094
    11  O   -0.085938
    12  C   -0.125509
 Electronic spatial extent (au):  <R**2>=          23026.3260
 Charge=              0.0000 electrons
 Dipole moment (field-independent basis, Debye):
    X=             -1.8128    Y=              1.3055    Z=             -1.6195  Tot=              2.7593
 Quadrupole moment (field-independent basis, Debye-Ang):
   XX=            -66.3708   YY=            -21.7831   ZZ=            -59.3410
   XY=             -4.0901   XZ=            -17.7219   YZ=            -14.2408
 Traceless Quadrupole moment (field-independent basis, Debye-Ang):
   XX=            -17.2058   YY=             27.3818   ZZ=            -10.1760
   XY=             -4.0901   XZ=            -17.7219   YZ=            -14.2408
 Octapole moment (field-independent basis, Debye-Ang**2):
  XXX=           -931.9113  YYY=           -728.7510  ZZZ=           -685.7535  XYY=           -178.6125
  XXY=           -444.2606  XXZ=           -352.0686  XZZ=           -360.9030  YZZ=           -495.8934
  YYZ=           -305.3649  XYZ=           -134.8952
 Hexadecapole moment (field-independent basis, Debye-Ang**3):
 XXXX=         -10140.8400 YYYY=         -12780.6777 ZZZZ=          -6020.5428 XXXY=          -6866.7663
 XXXZ=          -4420.4355 YYYX=          -4305.1134 YYYZ=          -5113.4194 ZZZX=          -3817.1056
 ZZZY=          -5445.6705 XXYY=          -4244.4690 XXZZ=          -3221.1714 YYZZ=          -5018.0052
 XXYZ=          -2615.4842 YYXZ=          -1994.8707 ZZXY=          -2984.2328
 N-N= 3.343595931578D+02 E-N=-1.474359629505D+03  KE= 3.446234163450D+02
  Exact polarizability:       0.000       0.000       0.000       0.000       0.000       0.000
 Approx polarizability:     118.088      11.133      99.164       4.953     -25.187      89.695
                          Isotropic Fermi Contact Couplings
        Atom                 a.u.       MegaHertz       Gauss      10(-4) cm-1
     1  C(13)              0.54398     611.53844     218.21212     203.98727
     2  C(13)              0.01263      14.20402       5.06835       4.73795
     3  H(1)               0.01114      49.78533      17.76464      16.60660
     4  C(13)              0.03891      43.73976      15.60743      14.59001
     5  H(1)               0.00155       6.93346       2.47403       2.31275
     6  C(13)             -0.00740      -8.31936      -2.96855      -2.77504
     7  C(13)              0.02310      25.96936       9.26651       8.66245
     8  C(13)              0.00401       4.50718       1.60828       1.50343
     9  H(1)               0.00110       4.93691       1.76161       1.64678
    10  H(1)               0.00409      18.27045       6.51935       6.09437
    11  O(17)              0.01406      -8.52542      -3.04208      -2.84377
    12  C(13)             -0.00091      -1.02623      -0.36618      -0.34231
    13  H(1)              -0.00006      -0.28012      -0.09995      -0.09344
    14  H(1)              -0.00005      -0.24128      -0.08610      -0.08048
    15  H(1)               0.00007       0.30603       0.10920       0.10208
 --------------------------------------------------------
       Center         ----  Spin Dipole Couplings  ----
                      3XX-RR        3YY-RR        3ZZ-RR
 --------------------------------------------------------
     1   Atom        0.672985     -0.435144     -0.237840
     2   Atom        0.086254     -0.026642     -0.059612
     3   Atom       -0.000676      0.005688     -0.005012
     4   Atom        0.041597     -0.028009     -0.013587
     5   Atom        0.006190     -0.001747     -0.004444
     6   Atom        0.028314     -0.008997     -0.019317
     7   Atom        0.019926     -0.015851     -0.004075
     8   Atom       -0.027957      0.018288      0.009669
     9   Atom        0.000952     -0.000126     -0.000826
    10   Atom       -0.002225      0.000876      0.001348
    11   Atom        0.019717      0.001958     -0.021675
    12   Atom       -0.002090      0.001820      0.000270
    13   Atom       -0.001702     -0.000146      0.001848
    14   Atom       -0.001830      0.002661     -0.000831
    15   Atom       -0.001113      0.001113      0.000001
 --------------------------------------------------------
                        XY            XZ            YZ
 --------------------------------------------------------
     1   Atom       -0.205001      0.457157      0.016236
     2   Atom        0.057995      0.006786     -0.050558
     3   Atom        0.013732     -0.008370     -0.012017
     4   Atom       -0.008542      0.024380      0.012255
     5   Atom        0.005894     -0.001851     -0.001391
     6   Atom        0.008895      0.015934     -0.037385
     7   Atom       -0.018227      0.021900      0.003553
     8   Atom       -0.016756      0.036168     -0.116100
     9   Atom        0.000838      0.000303     -0.001785
    10   Atom       -0.002951      0.003166     -0.005510
    11   Atom        0.027528     -0.001637     -0.047471
    12   Atom        0.001095     -0.000867     -0.003303
    13   Atom        0.000118     -0.000246     -0.002907
    14   Atom       -0.000140      0.000316     -0.002487
    15   Atom        0.001044     -0.000749     -0.002215
 --------------------------------------------------------


 ---------------------------------------------------------------------------------
              Anisotropic Spin Dipole Couplings in Principal Axis System
 ---------------------------------------------------------------------------------

       Atom             a.u.   MegaHertz   Gauss  10(-4) cm-1        Axes

              Baa    -0.5383   -72.237   -25.776   -24.096  0.3382  0.7595 -0.5557
     1 C(13)  Bbb    -0.3500   -46.966   -16.759   -15.666 -0.2051  0.6358  0.7441
              Bcc     0.8883   119.203    42.535    39.762  0.9184 -0.1377  0.3708
 
              Baa    -0.1052   -14.120    -5.038    -4.710 -0.2192  0.6372  0.7389
     2 C(13)  Bbb    -0.0067    -0.894    -0.319    -0.298  0.3581 -0.6519  0.6684
              Bcc     0.1119    15.014     5.357     5.008  0.9076  0.4111 -0.0853
 
              Baa    -0.0129    -6.884    -2.456    -2.296 -0.1840  0.6258  0.7580
     3 H(1)   Bbb    -0.0111    -5.909    -2.108    -1.971  0.8171 -0.3312  0.4718
              Bcc     0.0240    12.793     4.565     4.267  0.5463  0.7062 -0.4505
 
              Baa    -0.0402    -5.396    -1.926    -1.800  0.2552  0.7682 -0.5872
     4 C(13)  Bbb    -0.0108    -1.447    -0.516    -0.483 -0.2367  0.6385  0.7323
              Bcc     0.0510     6.844     2.442     2.283  0.9375 -0.0479  0.3448
 
              Baa    -0.0052    -2.777    -0.991    -0.926 -0.2561  0.7033  0.6632
     5 H(1)   Bbb    -0.0045    -2.397    -0.855    -0.800  0.4222 -0.5358  0.7312
              Bcc     0.0097     5.174     1.846     1.726  0.8696  0.4672 -0.1598
 
              Baa    -0.0557    -7.474    -2.667    -2.493 -0.2083  0.6351  0.7438
     6 C(13)  Bbb     0.0222     2.982     1.064     0.995  0.3392  0.7602 -0.5541
              Bcc     0.0335     4.493     1.603     1.499  0.9174 -0.1369  0.3738
 
              Baa    -0.0304    -4.073    -1.453    -1.359  0.4788  0.7237 -0.4970
     7 C(13)  Bbb    -0.0064    -0.860    -0.307    -0.287 -0.1832  0.6360  0.7496
              Bcc     0.0368     4.933     1.760     1.646  0.8586 -0.2679  0.4371
 
              Baa    -0.1051   -14.106    -5.033    -4.705 -0.1981  0.6572  0.7272
     8 C(13)  Bbb    -0.0334    -4.479    -1.598    -1.494  0.9554  0.2952 -0.0065
              Bcc     0.1385    18.585     6.632     6.199 -0.2190  0.6935 -0.6864
 
              Baa    -0.0025    -1.318    -0.470    -0.439 -0.2219  0.6398  0.7358
     9 H(1)   Bbb     0.0008     0.415     0.148     0.138  0.7647 -0.3540  0.5384
              Bcc     0.0017     0.902     0.322     0.301  0.6050  0.6822 -0.4107
 
              Baa    -0.0044    -2.353    -0.840    -0.785 -0.1198  0.6836  0.7200
    10 H(1)   Bbb    -0.0040    -2.124    -0.758    -0.709  0.9182  0.3520 -0.1814
              Bcc     0.0084     4.477     1.598     1.494  0.3775 -0.6394  0.6699
 
              Baa    -0.0620     4.485     1.600     1.496 -0.2001  0.6381  0.7435
    11 O(17)  Bbb     0.0072    -0.524    -0.187    -0.175  0.7993 -0.3325  0.5005
              Bcc     0.0547    -3.961    -1.413    -1.321  0.5666  0.6944 -0.4436
 
              Baa    -0.0024    -0.319    -0.114    -0.106  0.9792 -0.1753  0.1019
    12 C(13)  Bbb    -0.0023    -0.315    -0.112    -0.105  0.0284  0.6163  0.7870
              Bcc     0.0047     0.634     0.226     0.211  0.2007  0.7678 -0.6085
 
              Baa    -0.0022    -1.188    -0.424    -0.396  0.0917  0.8080  0.5820
    13 H(1)   Bbb    -0.0017    -0.913    -0.326    -0.304  0.9946 -0.1023 -0.0148
              Bcc     0.0039     2.101     0.750     0.701 -0.0476 -0.5803  0.8130
 
              Baa    -0.0022    -1.195    -0.427    -0.399 -0.4758  0.3871  0.7898
    14 H(1)   Bbb    -0.0017    -0.921    -0.329    -0.307  0.8783  0.2566  0.4033
              Bcc     0.0040     2.116     0.755     0.706 -0.0466  0.8856 -0.4621
 
              Baa    -0.0017    -0.927    -0.331    -0.309 -0.1927  0.6452  0.7393
    15 H(1)   Bbb    -0.0015    -0.792    -0.282    -0.264  0.9392 -0.0969  0.3293
              Bcc     0.0032     1.718     0.613     0.573  0.2841  0.7578 -0.5873
 

 ---------------------------------------------------------------------------------

 D2PCM: PCM CHGder 2nd derivatives, FixD1E=F FixD2E=F DoIter=F DoCFld=F I1PDM=0
 Calling FoFJK, ICntrl=    100127 FMM=F ISym2X=0 I1Cent= 0 IOpClX= 1 NMat=1 NMatS=1 NMatT=0.
 -------------------------------------------------------------------
 Center     Atomic                   Forces (Hartrees/Bohr)
 Number     Number              X              Y              Z
 -------------------------------------------------------------------
      1        6          -0.049606205    0.000630160   -0.016120332
      2        6           0.027263600   -0.001898629    0.012320318
      3        1           0.000280104   -0.000373615   -0.000284283
      4        6          -0.000974390    0.005315848   -0.004832238
      5        1           0.001237545   -0.000630523    0.000686125
      6        6          -0.000826118    0.000005070   -0.000400626
      7        6          -0.003340839   -0.004917398    0.004219940
      8        6           0.021604849   -0.000961093    0.003847188
      9        1           0.000168171   -0.000115692    0.000123741
     10        1           0.001462280    0.000433917    0.000124005
     11        8           0.002848002    0.002092160    0.000632441
     12        6          -0.000091277    0.000561428   -0.000416417
     13        1           0.000063791   -0.000070845    0.000092785
     14        1          -0.000021461    0.000013441    0.000034852
     15        1          -0.000068052   -0.000084227   -0.000027500
 -------------------------------------------------------------------
 Cartesian Forces:  Max     0.049606205 RMS     0.009692261
 FormGI is forming the generalized inverse of G from B-inverse, IUseBI=4.

 GradGradGradGradGradGradGradGradGradGradGradGradGradGradGradGradGradGrad
 Berny optimization.
 Internal  Forces:  Max     0.028766822 RMS     0.005964511
 Search for a local minimum.
 Step number   1 out of a maximum of   73
 All quantities printed in internal units (Hartrees-Bohrs-Radians)
 Mixed Optimization -- RFO/linear search
 Second derivative matrix not updated -- analytic derivatives used.
 ITU=  0
     Eigenvalues ---    0.00400   0.01503   0.01679   0.01811   0.02257
     Eigenvalues ---    0.02395   0.02629   0.02875   0.03187   0.03826
     Eigenvalues ---    0.08672   0.08745   0.10583   0.11100   0.11793
     Eigenvalues ---    0.11968   0.13341   0.16645   0.18423   0.18838
     Eigenvalues ---    0.18873   0.20215   0.21255   0.26462   0.33167
     Eigenvalues ---    0.33693   0.33923   0.35190   0.35614   0.36040
     Eigenvalues ---    0.36376   0.36685   0.37878   0.39731   0.40774
     Eigenvalues ---    0.46179   0.47106   0.50386   0.59042
 RFO step:  Lambda=-9.13027522D-03 EMin= 3.99731736D-03
 Linear search not attempted -- first point.
 Iteration  1 RMS(Cart)=  0.02906881 RMS(Int)=  0.00120451
 Iteration  2 RMS(Cart)=  0.00210746 RMS(Int)=  0.00041600
 Iteration  3 RMS(Cart)=  0.00000132 RMS(Int)=  0.00041599
 Iteration  4 RMS(Cart)=  0.00000000 RMS(Int)=  0.00041599
 Variable       Old X    -DE/DX   Delta X   Delta X   Delta X     New X
                                 (Linear)    (Quad)   (Total)
    R1        2.63967  -0.02251   0.00000  -0.06311  -0.06254   2.57713
    R2        2.66060  -0.01436   0.00000  -0.04300  -0.04237   2.61823
    R3        2.05359   0.00012   0.00000  -0.00349  -0.00349   2.05010
    R4        2.63395   0.00205   0.00000   0.01662   0.01656   2.65051
    R5        2.04708  -0.00033   0.00000   0.00027   0.00027   2.04734
    R6        2.62290   0.00257   0.00000  -0.00041  -0.00103   2.62186
    R7        2.63401   0.00276   0.00000   0.00721   0.00664   2.64065
    R8        2.04921  -0.00022   0.00000  -0.00084  -0.00084   2.04837
    R9        2.63924  -0.00001   0.00000   0.00302   0.00307   2.64231
   R10        2.04427  -0.00006   0.00000   0.00213   0.00213   2.04640
   R11        2.55928   0.00344   0.00000  -0.00332  -0.00332   2.55596
   R12        2.67990   0.00053   0.00000   0.00430   0.00430   2.68420
   R13        2.06749  -0.00008   0.00000  -0.00050  -0.00050   2.06699
   R14        2.06725   0.00003   0.00000  -0.00028  -0.00028   2.06697
   R15        2.05653  -0.00009   0.00000  -0.00056  -0.00056   2.05596
    A1        2.05757   0.02877   0.00000   0.12615   0.12774   2.18530
    A2        2.08039   0.00702   0.00000   0.03869   0.03844   2.11883
    A3        2.12997  -0.01435   0.00000  -0.07610  -0.07572   2.05425
    A4        2.07262   0.00734   0.00000   0.03773   0.03747   2.11010
    A5        2.10267  -0.00152   0.00000  -0.00785  -0.00746   2.09521
    A6        2.07492  -0.00004   0.00000   0.00623   0.00545   2.08037
    A7        2.10559   0.00156   0.00000   0.00162   0.00201   2.10760
    A8        2.10839   0.00087   0.00000   0.01327   0.01200   2.12039
    A9        2.09772  -0.00053   0.00000  -0.00735  -0.00672   2.09100
   A10        2.07706  -0.00034   0.00000  -0.00590  -0.00526   2.07179
   A11        2.08834  -0.00006   0.00000   0.00280   0.00221   2.09055
   A12        2.08262   0.00160   0.00000   0.00327   0.00356   2.08618
   A13        2.11223  -0.00153   0.00000  -0.00606  -0.00576   2.10646
   A14        2.10699  -0.01517   0.00000  -0.07206  -0.07150   2.03550
   A15        2.02628   0.00698   0.00000   0.03544   0.03510   2.06138
   A16        2.14967   0.00821   0.00000   0.03696   0.03661   2.18629
   A17        2.06299  -0.00011   0.00000  -0.01701  -0.01701   2.04598
   A18        1.94213  -0.00017   0.00000  -0.00302  -0.00303   1.93911
   A19        1.94094   0.00002   0.00000  -0.00217  -0.00217   1.93876
   A20        1.84920   0.00001   0.00000   0.00044   0.00044   1.84965
   A21        1.91379   0.00008   0.00000   0.00137   0.00136   1.91515
   A22        1.90832   0.00000   0.00000   0.00148   0.00148   1.90980
   A23        1.90811   0.00006   0.00000   0.00201   0.00201   1.91011
    D1       -3.14125  -0.00037   0.00000  -0.00196  -0.00152   3.14041
    D2       -0.02119   0.00033   0.00000   0.01605   0.01623  -0.00496
    D3        0.01562  -0.00001   0.00000  -0.01066  -0.01104   0.00458
    D4       -3.10310  -0.00092   0.00000  -0.02735  -0.02753  -3.13063
    D5       -3.12752  -0.00048   0.00000  -0.01186  -0.01143  -3.13896
    D6        0.01188  -0.00050   0.00000  -0.01062  -0.01007   0.00181
    D7       -0.00737   0.00021   0.00000   0.00609   0.00625  -0.00113
    D8        3.13202   0.00019   0.00000   0.00733   0.00761   3.13963
    D9        0.00348  -0.00009   0.00000  -0.00243  -0.00212   0.00136
   D10        3.13999   0.00015   0.00000   0.00172   0.00171  -3.14148
   D11       -3.14031  -0.00012   0.00000  -0.00120  -0.00076  -3.14107
   D12       -0.00380   0.00012   0.00000   0.00295   0.00308  -0.00072
   D13       -0.00870   0.00035   0.00000   0.00714   0.00698  -0.00172
   D14        3.12940   0.00044   0.00000   0.00933   0.00899   3.13839
   D15        3.13791   0.00011   0.00000   0.00304   0.00320   3.14111
   D16       -0.00717   0.00020   0.00000   0.00523   0.00520  -0.00197
   D17       -0.00112  -0.00010   0.00000   0.00038   0.00004  -0.00108
   D18        3.11593   0.00083   0.00000   0.01812   0.01769   3.13362
   D19       -3.13916  -0.00020   0.00000  -0.00187  -0.00201  -3.14117
   D20       -0.02211   0.00073   0.00000   0.01587   0.01564  -0.00647
   D21       -3.12465   0.00028   0.00000   0.00016   0.00063  -3.12402
   D22        0.04043  -0.00032   0.00000  -0.01540  -0.01588   0.02456
   D23       -1.08758  -0.00002   0.00000   0.00477   0.00477  -1.08281
   D24        1.05154  -0.00001   0.00000   0.00285   0.00285   1.05439
   D25        3.12312   0.00007   0.00000   0.00436   0.00436   3.12748
         Item               Value     Threshold  Converged?
 Maximum Force            0.028767     0.000015     NO 
 RMS     Force            0.005965     0.000010     NO 
 Maximum Displacement     0.151752     0.000060     NO 
 RMS     Displacement     0.029046     0.000040     NO 
 Predicted change in Energy=-4.756321D-03
 GradGradGradGradGradGradGradGradGradGradGradGradGradGradGradGradGradGrad

                          Input orientation:                          
 ---------------------------------------------------------------------
 Center     Atomic      Atomic             Coordinates (Angstroms)
 Number     Number       Type             X           Y           Z
 ---------------------------------------------------------------------
      1          6           0        6.140089    6.972603    5.184377
      2          6           0        5.164071    6.136757    5.641089
      3          1           0        5.377594    5.365343    6.373386
      4          6           0        3.867637    6.310130    5.134677
      5          1           0        3.062767    5.668725    5.473136
      6          6           0        3.633764    7.309388    4.201001
      7          6           0        4.660518    8.144878    3.753361
      8          6           0        5.956491    7.980901    4.252033
      9          1           0        2.635612    7.452145    3.803180
     10          1           0        4.442950    8.912784    3.021461
     11          8           0        7.031245    8.718488    3.891091
     12          6           0        6.817564    9.761287    2.950618
     13          1           0        6.461159    9.363719    1.995984
     14          1           0        6.104225   10.496622    3.333786
     15          1           0        7.785299   10.236885    2.805797
 ---------------------------------------------------------------------
                    Distance matrix (angstroms):
                    1          2          3          4          5
     1  C    0.000000
     2  C    1.363757   0.000000
     3  H    2.139725   1.084865   0.000000
     4  C    2.367568   1.402588   2.169561   0.000000
     5  H    3.354607   2.159338   2.502183   1.083407   0.000000
     6  C    2.713322   2.406399   3.396986   1.387431   2.153170
     7  C    2.368790   2.801720   3.886457   2.429608   3.412003
     8  C    1.385510   2.440957   3.417075   2.816709   3.900114
     9  H    3.797238   3.391351   4.298740   2.143588   2.480282
    10  H    3.364935   3.884429   4.969235   3.401540   4.294127
    11  O    2.348374   3.635129   4.487753   4.165946   5.249070
    12  C    3.636676   4.807275   5.754405   5.038122   6.100054
    13  H    3.998296   5.038106   6.026838   5.089416   6.106770
    14  H    3.980538   5.021549   6.008093   5.076638   6.093921
    15  H    4.361181   5.632119   6.500512   6.015909   7.091198
                    6          7          8          9         10
     6  C    0.000000
     7  C    1.397372   0.000000
     8  C    2.418387   1.398252   0.000000
     9  H    1.083950   2.140702   3.392534   0.000000
    10  H    2.148714   1.082909   2.161832   2.451738   0.000000
    11  O    3.691136   2.443020   1.352557   4.575253   2.737386
    12  C    4.208544   2.812476   2.367468   4.852599   2.522651
    13  H    4.132377   2.795757   2.693814   4.642724   2.308271
    14  H    4.124766   2.791242   2.682137   4.639014   2.316447
    15  H    5.268023   3.877967   3.244318   5.938756   3.601535
                   11         12         13         14         15
    11  O    0.000000
    12  C    1.420415   0.000000
    13  H    2.081527   1.093806   0.000000
    14  H    2.081278   1.093796   1.789018   0.000000
    15  H    2.012956   1.087969   1.780888   1.781080   0.000000
 Symmetry turned off by external request.
 Stoichiometry    C7H7O(2)
 Framework group  C1[X(C7H7O)]
 Deg. of freedom    39
 Full point group                 C1      NOp   1
 Rotational constants (GHZ):           5.4358367           1.5640841           1.2241070
 Standard basis: 6-311+G(d,p) (5D, 7F)
   218 basis functions,   344 primitive gaussians,   226 cartesian basis functions
    29 alpha electrons       28 beta electrons
       nuclear repulsion energy       334.7773196320 Hartrees.
 NAtoms=   15 NActive=   15 NUniq=   15 SFac= 1.00D+00 NAtFMM=   60 NAOKFM=F Big=F
 Integral buffers will be    131072 words long.
 Raffenetti 2 integral format.
 Two-electron integral symmetry is turned off.
 ------------------------------------------------------------------------------
 Polarizable Continuum Model (PCM)
 =================================
 Model                : PCM.
 Atomic radii         : SMD-Coulomb.
 Polarization charges : Total charges.
 Charge compensation  : None.
 Solution method      : Matrix inversion.
 Cavity type          : VdW (van der Waals Surface) (Alpha=1.000).
 Cavity algorithm     : GePol (No added spheres)
                        Default sphere list used, NSphG=   15.
                        Lebedev-Laikov grids with approx.  5.0 points / Ang**2.
                        Smoothing algorithm: York/Karplus (Gamma=1.0000).
                        Polarization charges: spherical gaussians, with
                                              point-specific exponents (IZeta= 3).
                        Self-potential: point-specific (ISelfS= 7).
                        Self-field    : sphere-specific E.n sum rule (ISelfD= 2).
 1st derivatives      : Analytical E(r).r(x)/FMM algorithm (CHGder, D1EAlg=3).
                        Cavity 1st derivative terms included.
 Solvent              : TetraHydroFuran, Eps=   7.425700 Eps(inf)=   1.974025
 ------------------------------------------------------------------------------
 Spheres list:
 ISph  on   Nord     Re0    Alpha      Xe            Ye            Ze
    1   C      1    1.8500  1.000      6.140089      6.972603      5.184377
    2   C      2    1.8500  1.000      5.164071      6.136757      5.641089
    3   H      3    1.2000  1.000      5.377594      5.365343      6.373386
    4   C      4    1.8500  1.000      3.867637      6.310130      5.134677
    5   H      5    1.2000  1.000      3.062767      5.668725      5.473136
    6   C      6    1.8500  1.000      3.633764      7.309388      4.201001
    7   C      7    1.8500  1.000      4.660518      8.144878      3.753361
    8   C      8    1.8500  1.000      5.956491      7.980901      4.252033
    9   H      9    1.2000  1.000      2.635612      7.452145      3.803180
   10   H     10    1.2000  1.000      4.442950      8.912784      3.021461
   11   O     11    2.2940  1.000      7.031245      8.718488      3.891091
   12   C     12    1.8500  1.000      6.817564      9.761287      2.950618
   13   H     13    1.2000  1.000      6.461159      9.363719      1.995984
   14   H     14    1.2000  1.000      6.104225     10.496622      3.333786
   15   H     15    1.2000  1.000      7.785299     10.236885      2.805797
 ------------------------------------------------------------------------------
 ------------------------------------------------------------------------------
 Atomic radii for non-electrostatic terms: SMD-CDS.
 ------------------------------------------------------------------------------
 Nuclear repulsion after PCM non-electrostatic terms =      334.7750655590 Hartrees.
 One-electron integrals computed using PRISM.
 NBasis=   218 RedAO= T EigKep=  2.71D-06  NBF=   218
 NBsUse=   218 1.00D-06 EigRej= -1.00D+00 NBFU=   218
 Initial guess from the checkpoint file:  "2-OMe-ph-opt-freq-thf.chk"
 B after Tr=    -0.034242    0.024618   -0.021637
         Rot=    1.000000   -0.000407    0.000095    0.000888 Ang=  -0.11 deg.
 Initial guess <Sx>= 0.0000 <Sy>= 0.0000 <Sz>= 0.5000 <S**2>= 0.7638 S= 0.5069
 ExpMin= 4.38D-02 ExpMax= 8.59D+03 ExpMxC= 1.30D+03 IAcc=3 IRadAn=         5 AccDes= 0.00D+00
 Harris functional with IExCor= 1009 and IRadAn=       5 diagonalized for initial guess.
 HarFok:  IExCor= 1009 AccDes= 0.00D+00 IRadAn=         5 IDoV= 1 UseB2=F ITyADJ=14
 ICtDFT=  3500011 ScaDFX=  1.000000  1.000000  1.000000  1.000000
 FoFCou: FMM=F IPFlag=           0 FMFlag=      100000 FMFlg1=           0
         NFxFlg=           0 DoJE=T BraDBF=F KetDBF=T FulRan=T
         wScrn=  0.000000 ICntrl=       500 IOpCl=  0 I1Cent=   200000004 NGrid=           0
         NMat0=    1 NMatS0=      1 NMatT0=    0 NMatD0=    1 NMtDS0=    0 NMtDT0=    0
 Symmetry not used in FoFCou.
 Requested convergence on RMS density matrix=1.00D-08 within 128 cycles.
 Requested convergence on MAX density matrix=1.00D-06.
 Requested convergence on             energy=1.00D-06.
 Level shift goal  0.100 maximum shift  0.100.
 No special actions if energy rises.
 Dynamic level shift is on during FON iterations.
 Inv3:  Mode=1 IEnd=     4892187.
 Iteration    1 A*A^-1 deviation from unit magnitude is 4.22D-15 for   1275.
 Iteration    1 A*A^-1 deviation from orthogonality  is 1.78D-15 for   1269   1191.
 Iteration    1 A^-1*A deviation from unit magnitude is 4.00D-15 for   1271.
 Iteration    1 A^-1*A deviation from orthogonality  is 1.99D-15 for   1271    431.
 Error on total polarization charges =  0.03493
 SCF Done:  E(UM062X) =  -346.032255414     A.U. after   16 cycles
            NFock= 16  Conv=0.52D-08     -V/T= 2.0038
 <Sx>= 0.0000 <Sy>= 0.0000 <Sz>= 0.5000 <S**2>= 0.7622 S= 0.5061
 <L.S>=  0.00000000000    
 SMD-CDS (non-electrostatic) energy       (kcal/mol) =      -1.41
 (included in total energy above)
 Annihilation of the first spin contaminant:
 S**2 before annihilation     0.7622,   after     0.7501
 D1PCM: PCM CHGder 1st derivatives, ID1Alg=3 FixD1E=F DoIter=F DoCFld=F I1PDM=0.
 Calling FoFJK, ICntrl=      2127 FMM=F ISym2X=0 I1Cent= 0 IOpClX= 1 NMat=1 NMatS=1 NMatT=0.
 -------------------------------------------------------------------
 Center     Atomic                   Forces (Hartrees/Bohr)
 Number     Number              X              Y              Z
 -------------------------------------------------------------------
      1        6          -0.000754092    0.000992696   -0.001440338
      2        6           0.000323694   -0.001967092    0.002311598
      3        1          -0.000080493   -0.000184535    0.000027462
      4        6          -0.000816093    0.000049492   -0.000215856
      5        1          -0.000016020   -0.000053439    0.000016446
      6        6          -0.000376560    0.000019018   -0.000153529
      7        6          -0.000408913    0.000173647   -0.000073127
      8        6           0.001836758    0.000351206   -0.000548286
      9        1           0.000018761   -0.000009014    0.000003089
     10        1           0.000005786    0.000034338   -0.000009504
     11        8           0.000204112    0.000544416    0.000203206
     12        6           0.000045949    0.000049604   -0.000128837
     13        1          -0.000005040    0.000005913    0.000018344
     14        1           0.000014407    0.000003656    0.000013967
     15        1           0.000007746   -0.000009907   -0.000024635
 -------------------------------------------------------------------
 Cartesian Forces:  Max     0.002311598 RMS     0.000637286

 GradGradGradGradGradGradGradGradGradGradGradGradGradGradGradGradGradGrad
 Berny optimization.
 Using GEDIIS/GDIIS optimizer.
 FormGI is forming the generalized inverse of G from B-inverse, IUseBI=4.
 Internal  Forces:  Max     0.001802600 RMS     0.000466668
 Search for a local minimum.
 Step number   2 out of a maximum of   73
 All quantities printed in internal units (Hartrees-Bohrs-Radians)
 Mixed Optimization -- En-DIIS/RFO-DIIS
 Update second derivatives using D2CorX and points    1    2
 DE= -4.75D-03 DEPred=-4.76D-03 R= 1.00D+00
 TightC=F SS=  1.41D+00  RLast= 2.05D-01 DXNew= 5.0454D-01 6.1401D-01
 Trust test= 1.00D+00 RLast= 2.05D-01 DXMaxT set to 5.05D-01
 ITU=  1  0
 Use linear search instead of GDIIS.
     Eigenvalues ---    0.00400   0.01502   0.01677   0.01811   0.02257
     Eigenvalues ---    0.02395   0.02629   0.02875   0.03185   0.03822
     Eigenvalues ---    0.08672   0.08745   0.10582   0.11099   0.11790
     Eigenvalues ---    0.11968   0.13340   0.16614   0.18405   0.18732
     Eigenvalues ---    0.18842   0.19815   0.21230   0.26498   0.33194
     Eigenvalues ---    0.33693   0.34124   0.35188   0.35615   0.36053
     Eigenvalues ---    0.36379   0.36693   0.37880   0.39779   0.41283
     Eigenvalues ---    0.46272   0.47133   0.50735   0.58937
 RFO step:  Lambda=-4.17755873D-05 EMin= 3.99742746D-03
 Quartic linear search produced a step of  0.04378.
 Iteration  1 RMS(Cart)=  0.00522036 RMS(Int)=  0.00003518
 Iteration  2 RMS(Cart)=  0.00007823 RMS(Int)=  0.00002210
 Iteration  3 RMS(Cart)=  0.00000001 RMS(Int)=  0.00002210
 Variable       Old X    -DE/DX   Delta X   Delta X   Delta X     New X
                                 (Linear)    (Quad)   (Total)
    R1        2.57713   0.00180  -0.00274   0.00695   0.00424   2.58137
    R2        2.61823   0.00038  -0.00186   0.00142  -0.00041   2.61783
    R3        2.05010   0.00013  -0.00015  -0.00003  -0.00019   2.04991
    R4        2.65051   0.00094   0.00073   0.00147   0.00219   2.65270
    R5        2.04734   0.00005   0.00001   0.00021   0.00022   2.04756
    R6        2.62186   0.00074  -0.00005   0.00138   0.00130   2.62317
    R7        2.64065   0.00085   0.00029   0.00067   0.00093   2.64158
    R8        2.04837  -0.00002  -0.00004  -0.00002  -0.00006   2.04831
    R9        2.64231   0.00072   0.00013   0.00187   0.00201   2.64432
   R10        2.04640   0.00003   0.00009   0.00014   0.00023   2.04664
   R11        2.55596   0.00052  -0.00015   0.00008  -0.00007   2.55590
   R12        2.68420   0.00010   0.00019   0.00033   0.00052   2.68471
   R13        2.06699  -0.00002  -0.00002  -0.00009  -0.00011   2.06689
   R14        2.06697   0.00000  -0.00001  -0.00001  -0.00002   2.06695
   R15        2.05596   0.00001  -0.00002   0.00000  -0.00002   2.05594
    A1        2.18530   0.00162   0.00559   0.00255   0.00821   2.19351
    A2        2.11883   0.00074   0.00168   0.00181   0.00347   2.12230
    A3        2.05425  -0.00122  -0.00332  -0.00309  -0.00639   2.04786
    A4        2.11010   0.00048   0.00164   0.00130   0.00292   2.11302
    A5        2.09521  -0.00001  -0.00033   0.00027  -0.00004   2.09517
    A6        2.08037  -0.00002   0.00024   0.00046   0.00067   2.08104
    A7        2.10760   0.00004   0.00009  -0.00073  -0.00063   2.10698
    A8        2.12039   0.00049   0.00053   0.00159   0.00206   2.12245
    A9        2.09100  -0.00024  -0.00029  -0.00081  -0.00108   2.08992
   A10        2.07179  -0.00024  -0.00023  -0.00078  -0.00098   2.07081
   A11        2.09055   0.00023   0.00010   0.00045   0.00051   2.09106
   A12        2.08618  -0.00010   0.00016  -0.00075  -0.00058   2.08559
   A13        2.10646  -0.00013  -0.00025   0.00031   0.00007   2.10653
   A14        2.03550  -0.00109  -0.00313  -0.00194  -0.00505   2.03045
   A15        2.06138   0.00060   0.00154   0.00133   0.00285   2.06423
   A16        2.18629   0.00049   0.00160   0.00063   0.00222   2.18851
   A17        2.04598   0.00017  -0.00074   0.00008  -0.00066   2.04532
   A18        1.93911  -0.00001  -0.00013  -0.00018  -0.00032   1.93879
   A19        1.93876  -0.00001  -0.00010  -0.00001  -0.00010   1.93866
   A20        1.84965   0.00001   0.00002  -0.00010  -0.00009   1.84956
   A21        1.91515   0.00001   0.00006   0.00010   0.00016   1.91531
   A22        1.90980  -0.00001   0.00006   0.00022   0.00029   1.91008
   A23        1.91011   0.00000   0.00009  -0.00003   0.00006   1.91017
    D1        3.14041  -0.00002  -0.00007   0.00140   0.00137  -3.14140
    D2       -0.00496   0.00009   0.00071   0.00487   0.00560   0.00063
    D3        0.00458  -0.00005  -0.00048  -0.00469  -0.00520  -0.00062
    D4       -3.13063  -0.00024  -0.00121  -0.00985  -0.01107   3.14148
    D5       -3.13896  -0.00007  -0.00050  -0.00225  -0.00272   3.14151
    D6        0.00181  -0.00005  -0.00044  -0.00157  -0.00198  -0.00017
    D7       -0.00113   0.00005   0.00027   0.00120   0.00148   0.00035
    D8        3.13963   0.00006   0.00033   0.00188   0.00223  -3.14132
    D9        0.00136  -0.00002  -0.00009  -0.00154  -0.00162  -0.00025
   D10       -3.14148   0.00001   0.00008  -0.00046  -0.00039   3.14132
   D11       -3.14107  -0.00001  -0.00003  -0.00086  -0.00086   3.14126
   D12       -0.00072   0.00003   0.00013   0.00022   0.00036  -0.00036
   D13       -0.00172   0.00006   0.00031   0.00169   0.00198   0.00026
   D14        3.13839   0.00008   0.00039   0.00287   0.00324  -3.14155
   D15        3.14111   0.00002   0.00014   0.00062   0.00077  -3.14131
   D16       -0.00197   0.00005   0.00023   0.00180   0.00203   0.00006
   D17       -0.00108  -0.00002   0.00000   0.00126   0.00123   0.00015
   D18        3.13362   0.00018   0.00077   0.00683   0.00757   3.14119
   D19       -3.14117  -0.00004  -0.00009   0.00006  -0.00004  -3.14122
   D20       -0.00647   0.00016   0.00068   0.00563   0.00630  -0.00017
   D21       -3.12402   0.00003   0.00003  -0.01353  -0.01347  -3.13749
   D22        0.02456  -0.00017  -0.00070  -0.01917  -0.01989   0.00466
   D23       -1.08281   0.00003   0.00021   0.01228   0.01249  -1.07032
   D24        1.05439   0.00003   0.00012   0.01228   0.01240   1.06679
   D25        3.12748   0.00004   0.00019   0.01218   0.01237   3.13985
         Item               Value     Threshold  Converged?
 Maximum Force            0.001803     0.000015     NO 
 RMS     Force            0.000467     0.000010     NO 
 Maximum Displacement     0.017491     0.000060     NO 
 RMS     Displacement     0.005236     0.000040     NO 
 Predicted change in Energy=-2.930477D-05
 GradGradGradGradGradGradGradGradGradGradGradGradGradGradGradGradGradGrad

                          Input orientation:                          
 ---------------------------------------------------------------------
 Center     Atomic      Atomic             Coordinates (Angstroms)
 Number     Number       Type             X           Y           Z
 ---------------------------------------------------------------------
      1          6           0        6.137341    6.971334    5.180249
      2          6           0        5.163591    6.132533    5.643048
      3          1           0        5.378941    5.359806    6.373277
      4          6           0        3.866721    6.308243    5.135350
      5          1           0        3.060807    5.667076    5.472140
      6          6           0        3.633919    7.308907    4.201887
      7          6           0        4.659655    8.146773    3.754815
      8          6           0        5.957512    7.983643    4.251844
      9          1           0        2.635747    7.451694    3.804212
     10          1           0        4.439635    8.916618    3.025507
     11          8           0        7.030697    8.727335    3.898982
     12          6           0        6.819194    9.762434    2.949143
     13          1           0        6.465055    9.356598    1.997213
     14          1           0        6.104897   10.500830    3.324531
     15          1           0        7.787274   10.236831    2.802779
 ---------------------------------------------------------------------
                    Distance matrix (angstroms):
                    1          2          3          4          5
     1  C    0.000000
     2  C    1.366001   0.000000
     3  H    2.143714   1.084766   0.000000
     4  C    2.365888   1.403747   2.172282   0.000000
     5  H    3.354304   2.160455   2.506035   1.083522   0.000000
     6  C    2.708924   2.408464   3.399858   1.388120   2.153511
     7  C    2.365814   2.806518   3.891131   2.432039   3.413857
     8  C    1.385295   2.447931   3.423411   2.821162   3.904677
     9  H    3.792807   3.392861   4.301303   2.143527   2.479420
    10  H    3.362922   3.889314   4.974010   3.403423   4.294963
    11  O    2.350163   3.641544   4.493404   4.170294   5.253574
    12  C    3.637718   4.813972   5.760395   5.042621   6.104338
    13  H    3.991065   5.037908   6.025274   5.088390   6.105457
    14  H    3.987742   5.034243   6.020963   5.085891   6.102778
    15  H    4.363268   5.638803   6.506450   6.020417   7.095607
                    6          7          8          9         10
     6  C    0.000000
     7  C    1.397865   0.000000
     8  C    2.420092   1.399315   0.000000
     9  H    1.083920   2.140509   3.393740   0.000000
    10  H    2.148903   1.083033   2.162937   2.450795   0.000000
    11  O    3.693479   2.445338   1.352522   4.577317   2.740874
    12  C    4.211310   2.814796   2.367198   4.855089   2.526566
    13  H    4.131460   2.795052   2.688116   4.643006   2.313720
    14  H    4.130843   2.795613   2.686609   4.643526   2.317810
    15  H    5.270730   3.880298   3.244176   5.941219   3.605448
                   11         12         13         14         15
    11  O    0.000000
    12  C    1.420689   0.000000
    13  H    2.081502   1.093749   0.000000
    14  H    2.081438   1.093785   1.789065   0.000000
    15  H    2.013119   1.087959   1.781014   1.781098   0.000000
 Symmetry turned off by external request.
 Stoichiometry    C7H7O(2)
 Framework group  C1[X(C7H7O)]
 Deg. of freedom    39
 Full point group                 C1      NOp   1
 Rotational constants (GHZ):           5.4388616           1.5606771           1.2221566
 Standard basis: 6-311+G(d,p) (5D, 7F)
   218 basis functions,   344 primitive gaussians,   226 cartesian basis functions
    29 alpha electrons       28 beta electrons
       nuclear repulsion energy       334.5954881801 Hartrees.
 NAtoms=   15 NActive=   15 NUniq=   15 SFac= 1.00D+00 NAtFMM=   60 NAOKFM=F Big=F
 Integral buffers will be    131072 words long.
 Raffenetti 2 integral format.
 Two-electron integral symmetry is turned off.
 ------------------------------------------------------------------------------
 Polarizable Continuum Model (PCM)
 =================================
 Model                : PCM.
 Atomic radii         : SMD-Coulomb.
 Polarization charges : Total charges.
 Charge compensation  : None.
 Solution method      : Matrix inversion.
 Cavity type          : VdW (van der Waals Surface) (Alpha=1.000).
 Cavity algorithm     : GePol (No added spheres)
                        Default sphere list used, NSphG=   15.
                        Lebedev-Laikov grids with approx.  5.0 points / Ang**2.
                        Smoothing algorithm: York/Karplus (Gamma=1.0000).
                        Polarization charges: spherical gaussians, with
                                              point-specific exponents (IZeta= 3).
                        Self-potential: point-specific (ISelfS= 7).
                        Self-field    : sphere-specific E.n sum rule (ISelfD= 2).
 1st derivatives      : Analytical E(r).r(x)/FMM algorithm (CHGder, D1EAlg=3).
                        Cavity 1st derivative terms included.
 Solvent              : TetraHydroFuran, Eps=   7.425700 Eps(inf)=   1.974025
 ------------------------------------------------------------------------------
 Spheres list:
 ISph  on   Nord     Re0    Alpha      Xe            Ye            Ze
    1   C      1    1.8500  1.000      6.137341      6.971334      5.180249
    2   C      2    1.8500  1.000      5.163591      6.132533      5.643048
    3   H      3    1.2000  1.000      5.378941      5.359806      6.373277
    4   C      4    1.8500  1.000      3.866721      6.308243      5.135350
    5   H      5    1.2000  1.000      3.060807      5.667076      5.472140
    6   C      6    1.8500  1.000      3.633919      7.308907      4.201887
    7   C      7    1.8500  1.000      4.659655      8.146773      3.754815
    8   C      8    1.8500  1.000      5.957512      7.983643      4.251844
    9   H      9    1.2000  1.000      2.635747      7.451694      3.804212
   10   H     10    1.2000  1.000      4.439635      8.916618      3.025507
   11   O     11    2.2940  1.000      7.030697      8.727335      3.898982
   12   C     12    1.8500  1.000      6.819194      9.762434      2.949143
   13   H     13    1.2000  1.000      6.465055      9.356598      1.997213
   14   H     14    1.2000  1.000      6.104897     10.500830      3.324531
   15   H     15    1.2000  1.000      7.787274     10.236831      2.802779
 ------------------------------------------------------------------------------
[...]
 ! D21   D(1,8,11,12)         -179.7274         -DE/DX =    0.0                 !
 ! D22   D(7,8,11,12)            0.2967         -DE/DX =    0.0                 !
 ! D23   D(8,11,12,13)         -61.3583         -DE/DX =    0.0                 !
 ! D24   D(8,11,12,14)          61.0879         -DE/DX =    0.0                 !
 ! D25   D(8,11,12,15)         179.8667         -DE/DX =    0.0                 !
 --------------------------------------------------------------------------------
 GradGradGradGradGradGradGradGradGradGradGradGradGradGradGradGradGradGrad


 ----------------------------------------------------------------------

 Electric dipole moment (input orientation):
 (Debye = 10**-18 statcoulomb cm , SI units = C m)
                  (au)            (Debye)         (10**-30 SI)
   Tot        0.106302D+01      0.270193D+01      0.901266D+01
   x         -0.682223D+00     -0.173404D+01     -0.578413D+01
   y          0.516921D+00      0.131388D+01      0.438264D+01
   z         -0.630378D+00     -0.160226D+01     -0.534457D+01

 Dipole polarizability, Alpha (input orientation).
 (esu units = cm**3 , SI units = C**2 m**2 J**-1)
 Alpha(0;0):
               (au)            (10**-24 esu)      (10**-40 SI)
   iso        0.107414D+03      0.159171D+02      0.177101D+02
   aniso      0.631299D+02      0.935489D+01      0.104087D+02
   xx         0.119127D+03      0.176528D+02      0.196413D+02
   yx         0.153342D+02      0.227230D+01      0.252827D+01
   yy         0.108221D+03      0.160367D+02      0.178432D+02
   zx         0.725820D+00      0.107555D+00      0.119672D+00
   zy        -0.307489D+02     -0.455651D+01     -0.506981D+01
   zz         0.948933D+02      0.140617D+02      0.156458D+02

 ----------------------------------------------------------------------

 Dipole orientation:
     6          4.89710912        -18.25059411         -6.84209735
     6          2.66186929        -16.96585444         -6.95070149
     1          1.79165012        -16.47318037         -8.74025189
     6          1.52484145        -16.30205059         -4.64743439
     1         -0.25043986        -15.28187666         -4.63672798
     6          2.70130145        -16.96812676         -2.39948300
     6          4.99129487        -18.28502962         -2.37247921
     6          6.14653576        -18.95962854         -4.65352834
     1          1.83777924        -16.46313560         -0.61205311
     1          5.85271789        -18.77167210         -0.58087444
     8          8.35367169        -20.22922095         -4.87633234
     6          9.59200429        -20.94463652         -2.60419974
     1         10.10065711        -19.28607816         -1.48060470
     1          8.40858909        -22.21300178         -1.48035534
     1         11.30119654        -21.93258758         -3.17825332

 Electric dipole moment (dipole orientation):
 (Debye = 10**-18 statcoulomb cm , SI units = C m)
                  (au)            (Debye)         (10**-30 SI)
   Tot        0.106302D+01      0.270193D+01      0.901266D+01
   x          0.000000D+00      0.000000D+00      0.000000D+00
   y          0.000000D+00      0.000000D+00      0.000000D+00
   z          0.106302D+01      0.270193D+01      0.901266D+01

 Dipole polarizability, Alpha (dipole orientation).
 (esu units = cm**3 , SI units = C**2 m**2 J**-1)
 Alpha(0;0):
               (au)            (10**-24 esu)      (10**-40 SI)
   iso        0.107414D+03      0.159171D+02      0.177101D+02
   aniso      0.631299D+02      0.935489D+01      0.104087D+02
   xx         0.120223D+03      0.178152D+02      0.198221D+02
   yx        -0.300596D+02     -0.445437D+01     -0.495616D+01
   yy         0.852768D+02      0.126367D+02      0.140602D+02
   zx         0.648725D+01      0.961312D+00      0.106960D+01
   zy        -0.349833D+01     -0.518399D+00     -0.576797D+00
   zz         0.116741D+03      0.172993D+02      0.192480D+02

 ----------------------------------------------------------------------
 Unable to Open any file for archive entry.
 1\1\GINC-CN008\Freq\UM062X\6-311+G(d,p)\C7H7O1(2)\TAHMINAAFROZ\09-May-
 2025\0\\#N Geom=AllCheck Guess=TCheck SCRF=Check GenChk UM062X/6-311+G
 (d,p) Freq\\2-OMe-ph-opt-freq-thf\\0,2\C,6.1371134759,6.9712398209,5.1
 803105105\C,5.1637989214,6.13262892,5.6429138815\H,5.3790449311,5.3599
 040205,6.373246119\C,3.8666404569,6.3083162541,5.1354726229\H,3.060701
 2068,5.667311113,5.4725067592\C,3.6338468305,7.3088870419,4.20190861\C
 ,4.6596912778,8.1466699321,3.7545932133\C,5.9575693235,7.9834525469,4.
 2516547798\H,2.6356496875,7.4517555515,3.8043201852\H,4.4396710632,8.9
 162935894,3.0250515139\O,7.030837796,8.7270442799,3.8986958757\C,6.819
 2229618,9.7624854783,2.9492271428\H,6.4652651684,9.356956343,1.9971008
 63\H,6.1047198759,10.5005551906,3.3248463486\H,7.7872120232,10.2371549
 178,2.8031275745\\Version=AS64L-G16RevC.01\HF=-346.0322842\S2=0.762243
 \S2-1=0.\S2A=0.750064\RMSD=2.003e-09\RMSF=2.997e-06\ZeroPoint=0.121178
 3\Thermal=0.1279397\ETot=-345.9043444\HTot=-345.9034002\GTot=-345.9427
 267\Dipole=-0.6822233,0.5169207,-0.6303784\DipoleDeriv=-0.1949927,0.04
 64013,-0.0497335,-0.2554598,-0.2631779,0.0113443,0.2125478,0.0944365,-
 0.1920177,0.1139946,-0.0148263,0.0743013,0.1028216,-0.0363241,-0.03501
 28,-0.0258256,-0.071078,-0.0586562,0.1386252,0.0109217,-0.0287384,0.01
 77106,0.0881653,0.1101659,-0.0344581,0.109487,0.1050623,-0.1070419,0.0
 175915,0.023931,0.0467502,-0.2027444,-0.0270057,-0.001237,-0.0327036,-
 0.2182679,0.0005718,-0.0914794,0.0267264,-0.0764785,0.0795982,0.077533
 3,0.0139689,0.073531,0.132964,0.0516993,0.1045778,-0.0277195,-0.026131
 2,0.0316383,-0.1940753,0.0849466,-0.1587331,-0.022941,-0.2534755,-0.27
 37823,0.2380847,0.1014734,-0.2334862,0.0029587,-0.086718,-0.0986975,-0
 .2003099,1.1609863,1.0198095,-0.6163992,0.776623,0.8906277,-0.3998337,
 -0.4080077,-0.3329655,0.3669241,-0.0376947,0.0025353,-0.0650749,0.0139
 12,0.1365604,0.052742,-0.0753422,0.0493471,0.1295994,0.119831,0.012944
 6,-0.0358746,-0.0123683,0.081499,0.1073209,-0.0134442,0.114275,0.10764
 55,-1.2745508,-0.817664,0.4547607,-0.7484791,-1.3420121,0.6619335,0.39
 69917,0.6414376,-0.7910494,0.24918,-0.0852422,0.0450088,0.1651366,0.82
 16242,-0.3550654,-0.1718974,-0.4217669,0.6754714,0.0841817,0.0191696,-
 0.0974474,-0.0655328,-0.0378219,-0.0870083,-0.0033578,0.02276,-0.10436
 2,0.0166928,0.1543686,0.0179476,0.0223434,-0.0537486,0.0214414,0.11039
 64,-0.0297293,-0.0152015,-0.0680068,-0.1053257,0.0402271,-0.0623213,0.
 039602,0.0525613,0.0014365,0.0403998,0.0851389\Polar=119.1267415,15.33
 42157,108.2210128,0.7258198,-30.7488812,94.8932627\Quadrupole=-12.7183
 363,20.359862,-7.6415258,-2.4780335,-13.0349736,-10.6583694\PG=C01 [X(
 C7H7O1)]\NImag=0\\0.39377567,0.14486402,0.42798690,-0.03672740,-0.2732
 7221,0.29470412,-0.23504680,-0.11677162,0.05030756,0.59392936,-0.14302
 464,-0.18812322,0.08295421,0.07414387,0.49265062,0.07315485,0.09011358
 ,-0.10598713,0.06372498,-0.29844041,0.40293965,0.00711462,-0.01447433,
 0.01465154,-0.06359998,0.03645955,-0.03917820,0.06345682,0.00170846,-0
 .01157267,0.01013576,0.04081228,-0.19181315,0.14619022,-0.03873886,0.1
 9765776,0.00058400,0.00578403,-0.00532683,-0.04290446,0.14492465,-0.17
 412940,0.04475075,-0.16225865,0.17641418,-0.05943825,-0.05800686,0.030
 85757,-0.27802721,0.04678755,-0.10053275,0.00007077,-0.00159674,-0.000
 31985,0.66670562,-0.00858135,0.03234188,-0.02022726,-0.01586055,-0.097
 05488,0.02813988,0.02089076,0.00262206,0.00895036,0.11251176,0.4758840
 0,-0.01208498,-0.03386282,0.03793745,-0.04617395,0.04538151,-0.1118758
 6,-0.01985751,0.00278419,-0.00153952,0.05046586,-0.27454322,0.37736749
 ,-0.00440227,-0.00038462,-0.00261424,-0.01634964,-0.01653663,0.0090379
 9,0.00120050,0.00067059,0.00077784,-0.21595321,-0.13072993,0.06414913,
 0.22505133,0.00034336,0.00353928,0.00257983,0.00582651,0.00551895,-0.0
 0044114,-0.00001039,-0.00130778,-0.00215353,-0.13004016,-0.14937958,0.
 06390200,0.13969291,0.15126804,-0.00326370,0.00234200,0.00344920,-0.01
 041072,-0.00652326,0.00600587,0.00137495,-0.00196140,-0.00168742,0.063
 57171,0.06370175,-0.07289102,-0.06670599,-0.07163777,0.06886776,-0.011
 54461,-0.01600786,0.01129945,0.00996066,0.02643221,-0.02167410,-0.0045
 9971,-0.00002561,-0.00294512,-0.13111838,0.04325190,-0.05642553,0.0081
 2182,-0.01708244,0.01636703,0.70670599,-0.01924870,-0.04769171,0.03421
 904,0.06889308,0.01315286,0.01200432,-0.00034841,0.00375630,0.00206418
 ,-0.00841994,-0.21694263,0.13272928,0.00547257,-0.00823867,0.01084795,
 0.05268494,0.45618549,0.01409795,0.03512749,-0.02889183,-0.05856301,0.
 00035233,-0.01114720,-0.00266575,0.00214934,0.00363667,-0.01154175,0.1
 4688083,-0.19266860,-0.00323032,0.00467230,-0.00242758,0.11041491,-0.2
 6230376,0.39576861,0.01522417,0.06666641,-0.05642230,-0.06797752,-0.01
 751488,-0.00352194,-0.00120162,-0.00062393,0.00028902,0.04966156,-0.04
 357799,0.05032993,0.00125848,0.00086053,-0.00223933,-0.23243242,-0.073
 84076,0.01610048,0.63247328,0.02531131,0.01327317,0.00367868,-0.024243
 10,-0.00496713,-0.00189354,-0.00036056,-0.00005703,-0.00026061,-0.0033
 4359,-0.03227740,0.03071590,0.00029873,0.00069472,0.00529576,-0.125516
 47,-0.17286351,0.06510695,0.06456477,0.48247436,-0.02043299,0.01491798
 ,-0.00914499,0.00228931,0.00003523,0.00106693,0.00006793,-0.00035485,0
 .00004210,0.01537293,0.01973073,-0.00875974,-0.00175072,0.00545937,0.0
 0147472,0.06093263,0.07925075,-0.11012802,0.08476278,-0.29655934,0.401
 81329,-0.10255360,0.01263368,-0.02408360,0.05421777,-0.00947111,0.0234
 8449,-0.00258333,-0.00219283,-0.00060378,-0.02328769,0.03078048,-0.032
 73186,0.00036532,0.00059350,-0.00027201,-0.05328593,-0.04405771,0.0239
 6217,-0.26595198,0.05035828,-0.09945180,0.63047410,0.03489108,-0.19682
 655,0.13333587,-0.04143446,-0.03119749,0.01446722,-0.00374024,0.001918
 09,0.00282916,0.03170056,-0.01970940,0.02480020,0.00113566,-0.00045080
 ,0.00027549,-0.00190718,0.03786781,-0.03442035,-0.01230899,-0.11051123
 ,0.03779579,0.07979404,0.47703505,-0.04351340,0.12726445,-0.17620137,0
 .05132969,0.02313996,-0.00764614,0.00078765,0.00329270,0.00376519,-0.0
 3363589,0.02454461,-0.03173790,-0.00074868,0.00012143,-0.00080936,-0.0
 1260817,-0.04598699,0.03535115,-0.04491781,0.05494473,-0.12338597,0.06
 208907,-0.26178401,0.39425548,0.00033840,-0.00031344,0.00066301,0.0020
 5744,0.00002949,-0.00132846,-0.00014617,-0.00006639,0.00007168,-0.0004
 9345,-0.00123661,-0.00022954,0.00032237,0.00080242,0.00057339,-0.30105
 499,0.03231872,-0.10011912,-0.01586772,0.00425231,-0.00906287,-0.00027
 606,-0.00346524,0.00106960,0.31589212,-0.00045201,-0.00118859,-0.00001
 373,0.00020560,-0.00005969,0.00602026,0.00102085,-0.00015574,0.0002428
 0,0.02096889,0.00194640,0.00775625,0.00023275,-0.00115350,-0.00267691,
 0.03254165,-0.05495417,0.02336214,-0.01789431,0.00563008,-0.00657737,-
 0.00352760,0.00076410,0.00427332,-0.03310500,0.05019268,0.00078501,0.0
 0004848,-0.00088323,-0.00147441,0.00595034,0.00122033,-0.00087480,-0.0
 0005596,-0.00039054,-0.01951038,0.00166031,-0.00251303,0.00106383,-0.0
 0252162,-0.00181918,-0.10029407,0.02332281,-0.08596743,0.01016007,-0.0
 0049755,0.00691371,0.00111378,0.00426519,0.00338068,0.10804741,-0.0294
 5536,0.08182432,-0.00466128,0.00101906,-0.00360615,-0.00087605,-0.0008
 1956,0.00082439,0.00008537,0.00010631,0.00006303,-0.00240701,-0.003570
 02,0.00068022,0.00034761,-0.00091919,0.00073882,0.00865451,-0.01675450
 ,0.01621318,-0.06833984,0.04106198,-0.04535430,-0.00073700,0.02024255,
 -0.01904496,0.00076715,0.00109427,0.00038962,0.06901821,0.00014713,0.0
 0251879,0.00245546,-0.00008939,-0.00029300,-0.00090098,0.00012804,-0.0
 0023756,-0.00019169,-0.00372292,0.00181312,0.00301656,0.00023471,-0.00
 022135,0.00074821,0.00518697,-0.00861863,0.01122907,0.04063535,-0.1916
 8204,0.14946330,-0.00062120,0.00200445,0.00205452,0.00071151,-0.001102
 45,-0.00243379,-0.03887425,0.20039365,-0.00284791,0.00270158,0.0021719
 4,0.00018029,-0.00109400,-0.00029593,0.00004833,-0.00019743,-0.0003140
 0,0.00080941,0.00303952,0.00402551,-0.00026280,0.00042984,0.00012076,-
 0.00286839,0.00521808,-0.00265675,-0.04518599,0.14951006,-0.17522773,-
 0.00087451,0.00775258,-0.00245608,0.00072292,-0.00232904,-0.00190140,0
 .04669631,-0.16478054,0.17896372,0.00513866,-0.01738015,0.01567310,0.0
 0105999,0.00453865,-0.00475636,0.00043402,0.00003667,0.00013654,-0.005
 64362,-0.00409214,0.00214546,0.00005541,-0.00006056,0.00020746,0.00015
 204,0.00426925,-0.00549594,-0.04413308,-0.02970391,0.01114445,-0.24058
 818,-0.07725998,0.01343017,-0.00160116,-0.00116399,0.00063272,0.002084
 66,0.00050706,0.00080398,0.37031313,-0.03335513,-0.03435401,0.02333276
 ,0.00679675,0.00176793,0.00362686,-0.00081303,-0.00074243,0.00028431,-
 0.00680775,-0.00111011,-0.00123803,-0.00009946,-0.00020722,-0.00028922
 ,0.00088895,0.00046032,0.00570728,-0.01021171,0.00659269,-0.00015706,-
 0.11282256,-0.13416094,0.04819026,-0.00028231,-0.00007956,-0.00019550,
 -0.00042354,-0.00187811,-0.00075843,0.10973138,0.35539960,0.02957111,0
 .02781566,-0.01301646,-0.00672440,0.00294867,-0.00053299,0.00085759,0.
 00051141,-0.00036920,0.00453879,-0.00054388,0.00127668,0.00024182,-0.0
 0028289,-0.00019751,-0.00256849,0.00667285,0.00024252,-0.00597375,-0.0
 0554825,0.01293769,0.04416724,0.05774307,-0.08108365,-0.00013720,-0.00
 044060,0.00012550,0.00165594,-0.00048528,-0.00168135,-0.01371300,-0.21
 737548,0.25235333,-0.00414346,-0.00164292,-0.00027269,-0.00016676,-0.0
 0122113,0.00069756,-0.00028445,-0.00014361,0.00012750,0.00023463,-0.00
 050414,0.00040050,-0.00002558,0.00002223,0.00003707,0.00061022,0.00016
 202,-0.00010169,-0.00275335,-0.00396047,0.00269864,0.00275479,-0.02790
 279,0.02610093,-0.00001622,0.00005624,-0.00001999,-0.00227617,-0.00211
 208,0.00124711,-0.09491713,0.03468607,-0.03929852,0.62666174,-0.000659
 48,0.00288651,-0.00091491,0.00009599,0.00015341,0.00093514,0.00008212,
 0.00002872,-0.00025777,0.00115592,0.00150337,-0.00067578,0.00007196,-0
 .00007958,-0.00011358,0.00018861,-0.00130135,0.00161544,0.00392373,0.0
 0321290,-0.00192934,-0.01369791,-0.03250960,0.02016008,0.00046883,0.00
 019235,-0.00014501,-0.00064848,-0.00197366,0.00027117,0.01126758,-0.14
 709393,0.07838788,0.02988989,0.53003256,-0.00110143,-0.00116268,0.0027
 5703,-0.00042192,0.00057551,0.00055726,-0.00006510,-0.00031795,-0.0000
 3895,-0.00105017,-0.00109233,0.00105331,-0.00000429,-0.00012644,-0.000
 12646,-0.00014914,0.00159175,-0.00091863,-0.00405200,-0.00401749,0.002
 32102,0.01391061,0.01636776,-0.01526000,-0.00037292,-0.00025770,-0.000
 00460,-0.00013366,-0.00018072,-0.00105504,-0.01917469,0.08442659,-0.13
 806844,-0.01407679,0.05551461,0.53319699,-0.00002979,-0.00026850,0.000
 06359,0.00045571,0.00011320,0.00004129,0.00001524,0.00002652,-0.000007
 36,-0.00010681,0.00034151,-0.00043122,-0.00001043,0.00003950,0.0000329
 0,-0.00017389,-0.00064433,0.00014697,0.00052153,0.00088246,-0.00002308
 ,-0.00019664,-0.00011804,0.00135056,0.00003136,0.00003499,0.00002955,-
 0.00125213,-0.00014177,0.00133193,-0.00032698,0.00217580,-0.00686301,-
 0.07892862,-0.03482652,-0.07146133,0.07904693,-0.00021770,-0.00124186,
 0.00028539,0.00072155,0.00010611,-0.00006580,-0.00001609,0.00003363,0.
 00006238,-0.00053130,0.00020383,-0.00043184,-0.00002677,0.00001724,0.0
 0006221,-0.00003399,-0.00085240,0.00025747,-0.00089900,0.00075196,-0.0
 0123802,0.00374764,0.00400086,-0.00021671,-0.00003307,0.00002269,0.000
 03570,-0.00061074,-0.00010778,0.00116022,0.00953893,0.00454244,0.03491
 612,-0.03657724,-0.09732473,-0.09799945,0.03548694,0.10018569,0.000530
 98,0.00101722,-0.00054142,-0.00045276,-0.00014123,0.00013219,0.0000326
 4,0.00000253,-0.00004973,0.00043002,-0.00002253,0.00011655,0.00002026,
 -0.00002960,0.00001963,0.00024009,0.00006683,0.00013832,0.00018965,0.0
 0003797,-0.00023673,-0.00470232,-0.00384803,0.00150334,0.00004863,0.00
 002650,-0.00001572,0.00086829,-0.00010537,0.00006663,-0.00705632,0.007
 66087,-0.02775211,-0.06935347,-0.09103049,-0.24098807,0.08166961,0.091
 20688,0.26898413,-0.00000564,0.00001346,0.00026717,0.00046983,0.000081
 24,0.00005286,0.00002500,0.00001629,-0.00002606,-0.00014297,0.00048292
 ,-0.00032935,0.00001407,-0.00004586,-0.00003781,-0.00022997,-0.0003986
 6,0.00069281,0.00009793,0.00022431,-0.00082916,-0.00011207,-0.00177240
 ,-0.00012934,0.00005282,-0.00001470,-0.00003649,-0.00062685,-0.0016607
 6,-0.00022585,-0.00051140,0.00665411,-0.00459593,-0.16470280,0.1130286
 3,0.06563643,0.00754032,-0.00823402,-0.00383529,0.17370591,-0.00065165
 ,-0.00092683,0.00098353,0.00064086,0.00032893,0.00003986,-0.00000725,-
 0.00005913,-0.00002467,-0.00054233,0.00017906,-0.00027469,-0.00001299,
 -0.00000094,-0.00004768,-0.00036905,-0.00009580,0.00029226,-0.00031330
 ,-0.00019631,-0.00017485,0.00544883,0.00316450,-0.00253086,-0.00003374
 ,-0.00004081,-0.00000483,-0.00093532,-0.00083202,-0.00055143,0.0158244
 7,-0.02857320,0.00476297,0.10846252,-0.16151687,-0.06426101,0.00805689
 ,-0.00627750,-0.00580703,-0.12695397,0.18296473,0.00032958,0.00039211,
 -0.00087947,-0.00046021,-0.00019565,-0.00010561,-0.00000756,0.00005340
 ,0.00003304,0.00045134,-0.00016140,0.00018691,0.00000285,0.00005300,0.
 00001267,0.00006023,0.00029486,-0.00055992,0.00116310,-0.00073570,0.00
 057651,-0.00370456,-0.00191824,0.00232887,0.00002332,0.00002934,0.0000
 2491,-0.00008529,0.00059221,0.00000001,-0.01865217,0.02774846,0.005139
 39,0.06886316,-0.06974616,-0.09066755,0.01865458,-0.01708674,-0.007685
 24,-0.06755532,0.06285146,0.09218693,0.00023421,0.00005367,-0.00005662
 ,-0.00010682,0.00000221,-0.00002659,0.00001292,0.00001085,0.00000627,-
 0.00005397,-0.00010658,0.00009284,0.00000421,-0.00002237,0.00002623,0.
 00023466,-0.00008758,0.00008910,-0.00057943,0.00017395,-0.00036375,0.0
 0176050,0.00214544,-0.00155942,-0.00000588,0.00000238,-0.00001185,0.00
 021882,-0.00032841,0.00042518,0.00848365,0.00388243,-0.00115819,-0.282
 04682,-0.11034088,0.03251640,-0.00658580,-0.00231515,0.00136996,-0.015
 57417,-0.00861399,0.00091695,0.29400393,-0.00107469,-0.00062111,0.0004
 6758,0.00026265,-0.00017024,0.00020453,-0.00007217,-0.00007105,0.00000
 505,-0.00011308,-0.00001971,-0.00005951,-0.00001949,0.00000120,-0.0000
 2355,-0.00023262,0.00013609,-0.00002877,0.00053406,-0.00007524,0.00033
 767,0.00303447,-0.00138882,0.00253252,-0.00004748,-0.00001379,0.000026
 80,0.00003142,0.00021658,-0.00037218,-0.02605327,-0.02056348,0.0109177
 4,-0.09921458,-0.09621008,0.01093955,-0.01115864,-0.00406019,0.0009654
 9,0.01857941,0.01188219,-0.00217094,0.11554402,0.11095764,0.00091832,0
 .00077314,-0.00014700,-0.00024599,0.00013213,-0.00020197,0.00007752,0.
 00002668,-0.00004559,0.00009314,-0.00005738,0.00002176,0.00002332,-0.0
 0002478,0.00000793,0.00021867,0.00000804,0.00022869,-0.00068192,0.0002
 2244,-0.00026280,-0.00230291,0.00233831,-0.00200423,0.00003014,0.00004
 010,0.00000568,0.00009457,-0.00048095,0.00023971,0.02467459,0.01903633
 ,-0.00937340,0.02295068,0.00792872,-0.05275786,-0.02453498,-0.01094781
 ,0.00630825,0.01095132,0.00474698,-0.00059145,-0.03226648,-0.02374198,
 0.05857228\\-0.00000178,0.00000609,0.00000346,-0.00000126,0.00000306,0
 .00000338,-0.00000208,0.00000536,0.00000636,-0.00000010,-0.00000052,-0
 .00000043,0.00000004,-0.00000111,-0.00000170,0.00000080,-0.00000280,-0
 .00000392,0.00000065,-0.00000194,-0.00000239,-0.00000031,-0.00000036,0
 .00000369,0.00000189,-0.00000578,-0.00000717,0.00000149,-0.00000417,-0
 .00000496,-0.00000058,0.00000277,0.00000370,0.00000012,0.00000053,0.00
 000050,0.00000388,-0.00000263,0.00000040,-0.00000244,-0.00000032,-0.00
 000338,-0.00000032,0.00000183,0.00000246\\\@
 The archive entry for this job was punched.


 IT TAKES GREATER CHARACTER TO CARRY OFF GOOD FORTUNE THAN BAD.
                     FRENCH PROVERB.
 Job cpu time:       0 days  0 hours 48 minutes 29.1 seconds.
 Elapsed time:       0 days  0 hours  1 minutes 35.2 seconds.
 File lengths (MBytes):  RWF=    165 Int=      0 D2E=      0 Chk=     14 Scr=      1
 Normal termination of Gaussian 16 at Fri May  9 07:57:05 2025.
