/home/tahminaafroz
cn020.cluster.local
tahminaafroz
Mon May 12 13:57:48 CDT 2025
 Entering Gaussian System, Link 0=g16
 Initial command:
 /home/apps/g16/l1.exe "/tmp/3-5-diMe-ph-opt-freq-thf-2/Gau-1070290.inp" -scrdir="/tmp/3-5-diMe-ph-opt-freq-thf-2/"
 Entering Link 1 = /home/apps/g16/l1.exe PID=   1070291.
  
 Copyright (c) 1988-2019, Gaussian, Inc.  All Rights Reserved.
  
 This is part of the Gaussian(R) 16 program.  It is based on
 the Gaussian(R) 09 system (copyright 2009, Gaussian, Inc.),
 the Gaussian(R) 03 system (copyright 2003, Gaussian, Inc.),
 the Gaussian(R) 98 system (copyright 1998, Gaussian, Inc.),
 the Gaussian(R) 94 system (copyright 1995, Gaussian, Inc.),
 the Gaussian 92(TM) system (copyright 1992, Gaussian, Inc.),
 the Gaussian 90(TM) system (copyright 1990, Gaussian, Inc.),
 the Gaussian 88(TM) system (copyright 1988, Gaussian, Inc.),
 the Gaussian 86(TM) system (copyright 1986, Carnegie Mellon
 University), and the Gaussian 82(TM) system (copyright 1983,
 Carnegie Mellon University). Gaussian is a federally registered
 trademark of Gaussian, Inc.
  
 This software contains proprietary and confidential information,
 including trade secrets, belonging to Gaussian, Inc.
  
 This software is provided under written license and may be
 used, copied, transmitted, or stored only in accord with that
 written license.
  
 The following legend is applicable only to US Government
 contracts under FAR:
  
                    RESTRICTED RIGHTS LEGEND
  
 Use, reproduction and disclosure by the US Government is
 subject to restrictions as set forth in subparagraphs (a)
 and (c) of the Commercial Computer Software - Restricted
 Rights clause in FAR 52.227-19.
  
 Gaussian, Inc.
 340 Quinnipiac St., Bldg. 40, Wallingford CT 06492
  
  
 ---------------------------------------------------------------
 Warning -- This program may not be used in any manner that
 competes with the business of Gaussian, Inc. or will provide
 assistance to any competitor of Gaussian, Inc.  The licensee
 of this program is prohibited from giving any competitor of
 Gaussian, Inc. access to this program.  By using this program,
 the user acknowledges that Gaussian, Inc. is engaged in the
 business of creating and licensing software in the field of
 computational chemistry and represents and warrants to the
 licensee that it is not a competitor of Gaussian, Inc. and that
 it will not use this program in any manner prohibited above.
 ---------------------------------------------------------------
  

 Cite this work as:
 Gaussian 16, Revision C.01,
 M. J. Frisch, G. W. Trucks, H. B. Schlegel, G. E. Scuseria, 
 M. A. Robb, J. R. Cheeseman, G. Scalmani, V. Barone, 
 G. A. Petersson, H. Nakatsuji, X. Li, M. Caricato, A. V. Marenich, 
 J. Bloino, B. G. Janesko, R. Gomperts, B. Mennucci, H. P. Hratchian, 
 J. V. Ortiz, A. F. Izmaylov, J. L. Sonnenberg, D. Williams-Young, 
 F. Ding, F. Lipparini, F. Egidi, J. Goings, B. Peng, A. Petrone, 
 T. Henderson, D. Ranasinghe, V. G. Zakrzewski, J. Gao, N. Rega, 
 G. Zheng, W. Liang, M. Hada, M. Ehara, K. Toyota, R. Fukuda, 
 J. Hasegawa, M. Ishida, T. Nakajima, Y. Honda, O. Kitao, H. Nakai, 
 T. Vreven, K. Throssell, J. A. Montgomery, Jr., J. E. Peralta, 
 F. Ogliaro, M. J. Bearpark, J. J. Heyd, E. N. Brothers, K. N. Kudin, 
 V. N. Staroverov, T. A. Keith, R. Kobayashi, J. Normand, 
 K. Raghavachari, A. P. Rendell, J. C. Burant, S. S. Iyengar, 
 J. Tomasi, M. Cossi, J. M. Millam, M. Klene, C. Adamo, R. Cammi, 
 J. W. Ochterski, R. L. Martin, K. Morokuma, O. Farkas, 
 J. B. Foresman, and D. J. Fox, Gaussian, Inc., Wallingford CT, 2019.
 
 ******************************************
 Gaussian 16:  AS64L-G16RevC.01  3-Jul-2019
                12-May-2025 
 ******************************************
 %mem=20GB
 %nprocshared=32
 Will use up to   32 processors via shared memory.
 %chk=3-5-diMe-ph-opt-freq-thf-2.chk
 ----------------------------------------------------------------------
 # opt=(calcfc,tight) freq 6-311+g(d,p) scrf=(smd,solvent=thf) nosymm s
 cf=(qc,fermi,xqc) geom=connectivity int=ultrafine m062x
 ----------------------------------------------------------------------
 1/7=10,10=4,18=20,19=15,26=6,38=1,57=2/1,3;
 2/9=110,12=2,15=1,17=6,18=5,40=1/2;
 3/5=4,6=6,7=111,11=2,25=1,30=1,70=32201,71=2,72=20,74=-55,75=-5,140=1/1,2,3;
 4//1;
 5/5=2,22=13,38=5,53=20/2;
 8/6=4,10=90,11=11/1;
 11/6=1,8=1,9=11,15=111,16=1,31=1/1,2,10;
 10/6=1,13=1,31=1/2;
 6/7=2,8=2,9=2,10=2,28=1/1;
 7/10=1,25=1,30=1/1,2,3,16;
 1/7=10,10=4,18=20,19=15,26=6/3(2);
 2/9=110,15=1/2;
 99//99;
 2/9=110,15=1/2;
 3/5=4,6=6,7=111,11=2,25=1,30=1,70=32205,71=1,72=20,74=-55,75=-5/1,2,3;
 4/5=5,16=3,69=1/1;
 5/5=2,22=13,38=5,53=20/2;
 7/30=1/1,2,3,16;
 1/7=10,18=20,19=15,26=6/3(-5);
 2/9=110,15=1/2;
 6/7=2,8=2,9=2,10=2,19=2,28=1/1;
 99/9=1/99;
 --------------------------
 3-5-diMe-ph-opt-freq-thf-2
 --------------------------
 Symbolic Z-matrix:
 Charge =  0 Multiplicity = 2
 C                     6.13375   7.07267   5.2443 
 C                     5.10097   6.18223   5.36853 
 H                     5.19375   5.25543   5.92623 
 C                     3.88858   6.51821   4.7383 
 C                     3.81048   7.72026   4.03621 
 C                     4.89287   8.60304   3.93267 
 C                     6.09781   8.26652   4.56242 
 H                     6.95477   8.92998   4.50745 
 H                     2.87439   7.98394   3.5518 
 C                     4.76193   9.88018   3.14509 
 H                     5.60145   10.54955   3.33735 
 H                     4.73651   9.66856   2.07229 
 H                     3.8368    10.40232   3.39915 
 C                     2.71052   5.58418   4.82804 
 H                     2.9272    4.64012   4.32088 
 H                     2.47828   5.35054   5.8699 
 H                     1.82471   6.02349   4.36744 
 

 GradGradGradGradGradGradGradGradGradGradGradGradGradGradGradGradGradGrad
 Berny optimization.
 Initialization pass.
                           ----------------------------
                           !    Initial Parameters    !
                           ! (Angstroms and Degrees)  !
 --------------------------                            --------------------------
 ! Name  Definition              Value          Derivative Info.                !
 --------------------------------------------------------------------------------
 ! R1    R(1,2)                  1.3693         calculate D2E/DX2 analytically  !
 ! R2    R(1,7)                  1.3753         calculate D2E/DX2 analytically  !
 ! R3    R(2,3)                  1.0856         calculate D2E/DX2 analytically  !
 ! R4    R(2,4)                  1.4071         calculate D2E/DX2 analytically  !
 ! R5    R(4,5)                  1.3943         calculate D2E/DX2 analytically  !
 ! R6    R(4,14)                 1.5061         calculate D2E/DX2 analytically  !
 ! R7    R(5,6)                  1.4006         calculate D2E/DX2 analytically  !
 ! R8    R(5,9)                  1.0865         calculate D2E/DX2 analytically  !
 ! R9    R(6,7)                  1.4006         calculate D2E/DX2 analytically  !
 ! R10   R(6,10)                 1.5062         calculate D2E/DX2 analytically  !
 ! R11   R(7,8)                  1.0852         calculate D2E/DX2 analytically  !
 ! R12   R(10,11)                1.0908         calculate D2E/DX2 analytically  !
 ! R13   R(10,12)                1.0938         calculate D2E/DX2 analytically  !
 ! R14   R(10,13)                1.0923         calculate D2E/DX2 analytically  !
 ! R15   R(14,15)                1.0934         calculate D2E/DX2 analytically  !
 ! R16   R(14,16)                1.0927         calculate D2E/DX2 analytically  !
 ! R17   R(14,17)                1.0908         calculate D2E/DX2 analytically  !
 ! A1    A(2,1,7)              126.1395         calculate D2E/DX2 analytically  !
 ! A2    A(1,2,3)              122.5002         calculate D2E/DX2 analytically  !
 ! A3    A(1,2,4)              116.9984         calculate D2E/DX2 analytically  !
 ! A4    A(3,2,4)              120.5012         calculate D2E/DX2 analytically  !
 ! A5    A(2,4,5)              118.6631         calculate D2E/DX2 analytically  !
 ! A6    A(2,4,14)             119.9464         calculate D2E/DX2 analytically  !
 ! A7    A(5,4,14)             121.3904         calculate D2E/DX2 analytically  !
 ! A8    A(4,5,6)              122.5033         calculate D2E/DX2 analytically  !
 ! A9    A(4,5,9)              118.817          calculate D2E/DX2 analytically  !
 ! A10   A(6,5,9)              118.6797         calculate D2E/DX2 analytically  !
 ! A11   A(5,6,7)              118.6969         calculate D2E/DX2 analytically  !
 ! A12   A(5,6,10)             120.3933         calculate D2E/DX2 analytically  !
 ! A13   A(7,6,10)             120.9062         calculate D2E/DX2 analytically  !
 ! A14   A(1,7,6)              116.9984         calculate D2E/DX2 analytically  !
 ! A15   A(1,7,8)              122.3568         calculate D2E/DX2 analytically  !
 ! A16   A(6,7,8)              120.6446         calculate D2E/DX2 analytically  !
 ! A17   A(6,10,11)            111.1782         calculate D2E/DX2 analytically  !
 ! A18   A(6,10,12)            110.5387         calculate D2E/DX2 analytically  !
 ! A19   A(6,10,13)            110.9377         calculate D2E/DX2 analytically  !
 ! A20   A(11,10,12)           108.029          calculate D2E/DX2 analytically  !
 ! A21   A(11,10,13)           108.5136         calculate D2E/DX2 analytically  !
 ! A22   A(12,10,13)           107.5147         calculate D2E/DX2 analytically  !
 ! A23   A(4,14,15)            110.6609         calculate D2E/DX2 analytically  !
 ! A24   A(4,14,16)            110.8344         calculate D2E/DX2 analytically  !
 ! A25   A(4,14,17)            111.1174         calculate D2E/DX2 analytically  !
 ! A26   A(15,14,16)           107.4437         calculate D2E/DX2 analytically  !
 ! A27   A(15,14,17)           108.2294         calculate D2E/DX2 analytically  !
 ! A28   A(16,14,17)           108.4295         calculate D2E/DX2 analytically  !
 ! D1    D(7,1,2,3)           -179.7498         calculate D2E/DX2 analytically  !
 ! D2    D(7,1,2,4)              0.0831         calculate D2E/DX2 analytically  !
 ! D3    D(2,1,7,6)             -0.1568         calculate D2E/DX2 analytically  !
 ! D4    D(2,1,7,8)            179.6947         calculate D2E/DX2 analytically  !
 ! D5    D(1,2,4,5)             -0.0658         calculate D2E/DX2 analytically  !
 ! D6    D(1,2,4,14)           179.7785         calculate D2E/DX2 analytically  !
 ! D7    D(3,2,4,5)            179.7706         calculate D2E/DX2 analytically  !
 ! D8    D(3,2,4,14)            -0.385          calculate D2E/DX2 analytically  !
 ! D9    D(2,4,5,6)              0.1361         calculate D2E/DX2 analytically  !
 ! D10   D(2,4,5,9)           -179.771          calculate D2E/DX2 analytically  !
 ! D11   D(14,4,5,6)          -179.7059         calculate D2E/DX2 analytically  !
 ! D12   D(14,4,5,9)             0.387          calculate D2E/DX2 analytically  !
 ! D13   D(2,4,14,15)          -64.7923         calculate D2E/DX2 analytically  !
 ! D14   D(2,4,14,16)           54.3047         calculate D2E/DX2 analytically  !
 ! D15   D(2,4,14,17)          174.9406         calculate D2E/DX2 analytically  !
 ! D16   D(5,4,14,15)          115.0477         calculate D2E/DX2 analytically  !
 ! D17   D(5,4,14,16)         -125.8553         calculate D2E/DX2 analytically  !
 ! D18   D(5,4,14,17)           -5.2193         calculate D2E/DX2 analytically  !
 ! D19   D(4,5,6,7)             -0.2109         calculate D2E/DX2 analytically  !
 ! D20   D(4,5,6,10)           179.109          calculate D2E/DX2 analytically  !
 ! D21   D(9,5,6,7)            179.6964         calculate D2E/DX2 analytically  !
 ! D22   D(9,5,6,10)            -0.9838         calculate D2E/DX2 analytically  !
 ! D23   D(5,6,7,1)              0.2097         calculate D2E/DX2 analytically  !
 ! D24   D(5,6,7,8)           -179.6444         calculate D2E/DX2 analytically  !
 ! D25   D(10,6,7,1)          -179.1065         calculate D2E/DX2 analytically  !
 ! D26   D(10,6,7,8)             1.0393         calculate D2E/DX2 analytically  !
 ! D27   D(5,6,10,11)          167.676          calculate D2E/DX2 analytically  !
 ! D28   D(5,6,10,12)          -72.3504         calculate D2E/DX2 analytically  !
 ! D29   D(5,6,10,13)           46.8226         calculate D2E/DX2 analytically  !
 ! D30   D(7,6,10,11)          -13.0193         calculate D2E/DX2 analytically  !
 ! D31   D(7,6,10,12)          106.9543         calculate D2E/DX2 analytically  !
 ! D32   D(7,6,10,13)         -133.8727         calculate D2E/DX2 analytically  !
 --------------------------------------------------------------------------------
 Trust Radius=3.00D-01 FncErr=5.00D-06 GrdErr=5.00D-06 EigMax=2.50D+02 EigMin=1.00D-04
 Number of steps in this run=     87 maximum allowed number of steps=    102.
 GradGradGradGradGradGradGradGradGradGradGradGradGradGradGradGradGradGrad

                          Input orientation:                          
 ---------------------------------------------------------------------
 Center     Atomic      Atomic             Coordinates (Angstroms)
 Number     Number       Type             X           Y           Z
 ---------------------------------------------------------------------
      1          6           0        6.133755    7.072671    5.244304
      2          6           0        5.100973    6.182228    5.368526
      3          1           0        5.193749    5.255428    5.926227
      4          6           0        3.888578    6.518211    4.738302
      5          6           0        3.810479    7.720258    4.036208
      6          6           0        4.892865    8.603040    3.932671
      7          6           0        6.097815    8.266516    4.562416
      8          1           0        6.954773    8.929976    4.507453
      9          1           0        2.874394    7.983942    3.551797
     10          6           0        4.761925    9.880184    3.145088
     11          1           0        5.601446   10.549554    3.337352
     12          1           0        4.736510    9.668559    2.072287
     13          1           0        3.836796   10.402323    3.399148
     14          6           0        2.710518    5.584180    4.828044
     15          1           0        2.927198    4.640115    4.320884
     16          1           0        2.478279    5.350538    5.869896
     17          1           0        1.824709    6.023490    4.367441
 ---------------------------------------------------------------------
                    Distance matrix (angstroms):
                    1          2          3          4          5
     1  C    0.000000
     2  C    1.369291   0.000000
     3  H    2.156618   1.085632   0.000000
     4  C    2.367337   1.407114   2.170082   0.000000
     5  C    2.697494   2.409561   3.400146   1.394257   0.000000
     6  C    2.366901   2.822290   3.907851   2.450336   1.400565
     7  C    1.375329   2.446991   3.426947   2.822806   2.409813
     8  H    2.160232   3.424637   4.314676   3.907871   3.401775
     9  H    3.783970   3.391804   4.296756   2.141198   1.086480
    10  C    3.764406   4.328222   5.413832   3.821509   2.522821
    11  H    4.001067   4.842487   5.907306   4.598729   3.420655
    12  H    4.330430   4.811707   5.876874   4.213231   2.917258
    13  H    4.446032   4.825536   5.892196   4.108813   2.756812
    14  C    3.755986   2.522708   2.735054   1.506085   2.529772
    15  H    4.129412   2.863733   2.844818   2.150752   3.216909
    16  H    4.088962   2.796713   2.717719   2.152419   3.279137
    17  H    4.520791   3.429471   3.790800   2.154493   2.632873
                    6          7          8          9         10
     6  C    0.000000
     7  C    1.400618   0.000000
     8  H    2.165347   1.085162   0.000000
     9  H    2.145361   3.389932   4.296249   0.000000
    10  C    1.506164   2.529297   2.750912   2.706274   0.000000
    11  H    2.155321   2.638072   2.413227   3.750355   1.090787
    12  H    2.149606   3.165378   3.375830   2.914509   1.093770
    13  H    2.153450   3.320703   3.621868   2.607314   1.092263
    14  C    3.831168   4.328887   5.413948   2.722962   5.049382
    15  H    4.440645   4.823063   5.887196   3.431539   5.675125
    16  H    4.490193   4.828403   5.891318   3.530624   5.758238
    17  H    4.031958   4.829971   5.897866   2.368646   4.999547
                   11         12         13         14         15
    11  H    0.000000
    12  H    1.767670   0.000000
    13  H    1.771859   1.763081   0.000000
    14  C    5.935871   5.327381   5.150218   0.000000
    15  H    6.560519   5.797849   5.905930   1.093353   0.000000
    16  H    6.572497   6.177924   5.785386   1.092694   1.762290
    17  H    5.984152   5.199312   4.915309   1.090782   1.769569
                   16         17
    16  H    0.000000
    17  H    1.771268   0.000000
 Symmetry turned off by external request.
 Stoichiometry    C8H9(2)
 Framework group  C1[X(C8H9)]
 Deg. of freedom    45
 Full point group                 C1      NOp   1
 Rotational constants (GHZ):           3.8803954           1.7563692           1.2275025
 Standard basis: 6-311+G(d,p) (5D, 7F)
   230 basis functions,   360 primitive gaussians,   238 cartesian basis functions
    29 alpha electrons       28 beta electrons
       nuclear repulsion energy       330.7415102767 Hartrees.
 NAtoms=   17 NActive=   17 NUniq=   17 SFac= 1.00D+00 NAtFMM=   60 NAOKFM=F Big=F
 Integral buffers will be    131072 words long.
 Raffenetti 2 integral format.
 Two-electron integral symmetry is turned off.
 Force inversion solution in PCM.
 ------------------------------------------------------------------------------
 Polarizable Continuum Model (PCM)
 =================================
 Model                : PCM.
 Atomic radii         : SMD-Coulomb.
 Polarization charges : Total charges.
 Charge compensation  : None.
 Solution method      : Matrix inversion.
 Cavity type          : VdW (van der Waals Surface) (Alpha=1.000).
 Cavity algorithm     : GePol (No added spheres)
                        Default sphere list used, NSphG=   17.
                        Lebedev-Laikov grids with approx.  5.0 points / Ang**2.
                        Smoothing algorithm: York/Karplus (Gamma=1.0000).
                        Polarization charges: spherical gaussians, with
                                              point-specific exponents (IZeta= 3).
                        Self-potential: point-specific (ISelfS= 7).
                        Self-field    : sphere-specific E.n sum rule (ISelfD= 2).
 1st derivatives      : Analytical E(r).r(x)/FMM algorithm (CHGder, D1EAlg=3).
                        Cavity 1st derivative terms included.
 2nd derivatives      : Analytical E(r).r(xy)/FMM algorithm (CHGder, D2EAlg=3).
                        Cavity 2nd derivative terms included.
 Solvent              : TetraHydroFuran, Eps=   7.425700 Eps(inf)=   1.974025
 ------------------------------------------------------------------------------
 Spheres list:
 ISph  on   Nord     Re0    Alpha      Xe            Ye            Ze
    1   C      1    1.8500  1.000      6.133755      7.072671      5.244304
    2   C      2    1.8500  1.000      5.100973      6.182228      5.368526
    3   H      3    1.2000  1.000      5.193749      5.255428      5.926227
    4   C      4    1.8500  1.000      3.888578      6.518211      4.738302
    5   C      5    1.8500  1.000      3.810479      7.720258      4.036208
    6   C      6    1.8500  1.000      4.892865      8.603040      3.932671
    7   C      7    1.8500  1.000      6.097815      8.266516      4.562416
    8   H      8    1.2000  1.000      6.954773      8.929976      4.507453
    9   H      9    1.2000  1.000      2.874394      7.983942      3.551797
   10   C     10    1.8500  1.000      4.761925      9.880184      3.145088
   11   H     11    1.2000  1.000      5.601446     10.549554      3.337352
   12   H     12    1.2000  1.000      4.736510      9.668559      2.072287
   13   H     13    1.2000  1.000      3.836796     10.402323      3.399148
   14   C     14    1.8500  1.000      2.710518      5.584180      4.828044
   15   H     15    1.2000  1.000      2.927198      4.640115      4.320884
   16   H     16    1.2000  1.000      2.478279      5.350538      5.869896
   17   H     17    1.2000  1.000      1.824709      6.023490      4.367441
 ------------------------------------------------------------------------------
 ------------------------------------------------------------------------------
 Atomic radii for non-electrostatic terms: SMD-CDS.
 ------------------------------------------------------------------------------
 Nuclear repulsion after PCM non-electrostatic terms =      330.7382760057 Hartrees.
 One-electron integrals computed using PRISM.
 NBasis=   230 RedAO= T EigKep=  2.71D-06  NBF=   230
 NBsUse=   230 1.00D-06 EigRej= -1.00D+00 NBFU=   230
 ExpMin= 4.38D-02 ExpMax= 4.56D+03 ExpMxC= 6.82D+02 IAcc=3 IRadAn=         5 AccDes= 0.00D+00
 Harris functional with IExCor= 1009 and IRadAn=       5 diagonalized for initial guess.
 HarFok:  IExCor= 1009 AccDes= 0.00D+00 IRadAn=         5 IDoV= 1 UseB2=F ITyADJ=14
 ICtDFT=  3500011 ScaDFX=  1.000000  1.000000  1.000000  1.000000
 FoFCou: FMM=F IPFlag=           0 FMFlag=      100000 FMFlg1=           0
         NFxFlg=           0 DoJE=T BraDBF=F KetDBF=T FulRan=T
         wScrn=  0.000000 ICntrl=       500 IOpCl=  0 I1Cent=   200000004 NGrid=           0
         NMat0=    1 NMatS0=      1 NMatT0=    0 NMatD0=    1 NMtDS0=    0 NMtDT0=    0
 Symmetry not used in FoFCou.
 Initial guess <Sx>= 0.0000 <Sy>= 0.0000 <Sz>= 0.5000 <S**2>= 0.7500 S= 0.5000
 Requested convergence on RMS density matrix=1.00D-08 within 128 cycles.
 Requested convergence on MAX density matrix=1.00D-06.
 Requested convergence on             energy=1.00D-06.
 Level shift goal  0.100 maximum shift  0.100.
 No special actions if energy rises.
 Dynamic level shift is on during FON iterations.
 Inv3:  Mode=1 IEnd=     5459403.
 Iteration    1 A*A^-1 deviation from unit magnitude is 4.22D-15 for   1338.
 Iteration    1 A*A^-1 deviation from orthogonality  is 2.04D-15 for   1329    479.
 Iteration    1 A^-1*A deviation from unit magnitude is 4.22D-15 for   1338.
 Iteration    1 A^-1*A deviation from orthogonality  is 2.79D-15 for   1343    463.
 Error on total polarization charges =  0.04471
 SCF Done:  E(UM062X) =  -310.135974610     A.U. after   17 cycles
            NFock= 17  Conv=0.45D-08     -V/T= 2.0043
 <Sx>= 0.0000 <Sy>= 0.0000 <Sz>= 0.5000 <S**2>= 0.7617 S= 0.5058
 <L.S>=  0.00000000000    
 SMD-CDS (non-electrostatic) energy       (kcal/mol) =      -2.03
 (included in total energy above)
 Annihilation of the first spin contaminant:
 S**2 before annihilation     0.7617,   after     0.7501
 DoSCS=F DFT=T ScalE2(SS,OS)=  1.000000  1.000000
 Range of M.O.s used for correlation:     1   230
 NBasis=   230 NAE=    29 NBE=    28 NFC=     0 NFV=     0
 NROrb=    230 NOA=    29 NOB=    28 NVA=   201 NVB=   202

 **** Warning!!: The largest alpha MO coefficient is  0.25654188D+03


 **** Warning!!: The largest beta MO coefficient is  0.25598807D+03

 Symmetrizing basis deriv contribution to polar:
 IMax=3 JMax=2 DiffMx= 0.00D+00
 G2DrvN: will do    18 centers at a time, making    1 passes.
 Calling FoFCou, ICntrl=  3107 FMM=F I1Cent=   0 AccDes= 0.00D+00.
 NEqPCM:  Using equilibrium solvation (IEInf=0, Eps=   7.4257, EpsInf=   1.9740)
 G2PCM: DoFxE=T DoFxN=T DoGrad=T DoDP/DQ/DG/TGxP=FFFF NFrqRd=   0 IEInf=0 SqF1=F DoCFld=F IF1Alg=4.
 End of G2Drv F.D. properties file   721 does not exist.
 End of G2Drv F.D. properties file   722 does not exist.
 End of G2Drv F.D. properties file   788 does not exist.
          IDoAtm=11111111111111111
 NEqPCM:  Using equilibrium solvation (IEInf=0, Eps=   7.4257, EpsInf=   1.9740)
          Differentiating once with respect to nuclear coordinates.
 Keep R1 and R2 ints in memory in canonical form, NReq=739826850.
          There are    54 degrees of freedom in the 1st order CPHF.  IDoFFX=6 NUNeed=     0.
     48 vectors produced by pass  0 Test12= 2.13D-14 1.85D-09 XBig12= 2.38D-01 1.11D-01.
 AX will form    48 AO Fock derivatives at one time.
     48 vectors produced by pass  1 Test12= 2.13D-14 1.85D-09 XBig12= 3.43D-02 4.78D-02.
     48 vectors produced by pass  2 Test12= 2.13D-14 1.85D-09 XBig12= 7.86D-04 6.65D-03.
     48 vectors produced by pass  3 Test12= 2.13D-14 1.85D-09 XBig12= 1.52D-05 1.08D-03.
     48 vectors produced by pass  4 Test12= 2.13D-14 1.85D-09 XBig12= 2.49D-07 9.13D-05.
     48 vectors produced by pass  5 Test12= 2.13D-14 1.85D-09 XBig12= 2.77D-09 5.63D-06.
     43 vectors produced by pass  6 Test12= 2.13D-14 1.85D-09 XBig12= 1.62D-11 3.79D-07.
     21 vectors produced by pass  7 Test12= 2.13D-14 1.85D-09 XBig12= 1.00D-13 3.27D-08.
      1 vectors produced by pass  8 Test12= 2.13D-14 1.85D-09 XBig12= 6.05D-16 1.89D-09.
 InvSVY:  IOpt=1 It=  1 EMax= 3.89D-16
 Solved reduced A of dimension   353 with    54 vectors.
 End of Minotr F.D. properties file   721 does not exist.
 End of Minotr F.D. properties file   722 does not exist.
 End of Minotr F.D. properties file   788 does not exist.

 **********************************************************************

            Population analysis using the SCF Density.

 **********************************************************************

 Alpha  occ. eigenvalues --  -10.56484 -10.55738 -10.55717 -10.54225 -10.54191
 Alpha  occ. eigenvalues --  -10.53489 -10.52699 -10.52697  -0.97346  -0.88426
 Alpha  occ. eigenvalues --   -0.85758  -0.77987  -0.77539  -0.66400  -0.65289
 Alpha  occ. eigenvalues --   -0.57988  -0.54567  -0.49413  -0.48763  -0.47834
 Alpha  occ. eigenvalues --   -0.47615  -0.45721  -0.44471  -0.43547  -0.42042
 Alpha  occ. eigenvalues --   -0.40108  -0.30875  -0.29801  -0.29533
 Alpha virt. eigenvalues --    0.01515   0.01955   0.01969   0.03297   0.03744
 Alpha virt. eigenvalues --    0.04980   0.05119   0.05303   0.06748   0.07210
 Alpha virt. eigenvalues --    0.08231   0.08347   0.09235   0.09359   0.11465
 Alpha virt. eigenvalues --    0.12118   0.12385   0.12716   0.13676   0.14534
 Alpha virt. eigenvalues --    0.15658   0.16152   0.16784   0.18342   0.18648
 Alpha virt. eigenvalues --    0.18717   0.19711   0.20069   0.22213   0.22501
 Alpha virt. eigenvalues --    0.23112   0.23638   0.23842   0.24144   0.24745
 Alpha virt. eigenvalues --    0.25111   0.25446   0.25529   0.26655   0.28154
 Alpha virt. eigenvalues --    0.28390   0.28935   0.29930   0.30977   0.34064
 Alpha virt. eigenvalues --    0.35512   0.36316   0.37501   0.42442   0.43215
 Alpha virt. eigenvalues --    0.44513   0.46884   0.47689   0.50585   0.51850
 Alpha virt. eigenvalues --    0.54716   0.56923   0.56947   0.59861   0.60454
 Alpha virt. eigenvalues --    0.60633   0.61989   0.63104   0.63379   0.63767
 Alpha virt. eigenvalues --    0.65991   0.67070   0.68406   0.68858   0.69440
 Alpha virt. eigenvalues --    0.70142   0.70777   0.72876   0.73621   0.74409
 Alpha virt. eigenvalues --    0.75271   0.76896   0.78096   0.79042   0.82768
 Alpha virt. eigenvalues --    0.83871   0.89224   0.90449   0.91580   0.94096
 Alpha virt. eigenvalues --    0.96059   0.97088   0.98752   0.99399   1.00845
 Alpha virt. eigenvalues --    1.03547   1.05076   1.06583   1.07332   1.13871
 Alpha virt. eigenvalues --    1.15958   1.17509   1.24278   1.26242   1.37501
 Alpha virt. eigenvalues --    1.40524   1.43380   1.44301   1.45857   1.50737
 Alpha virt. eigenvalues --    1.51859   1.52710   1.56333   1.57202   1.58405
 Alpha virt. eigenvalues --    1.60208   1.60395   1.63188   1.64135   1.64276
 Alpha virt. eigenvalues --    1.66098   1.67319   1.68999   1.72541   1.74234
 Alpha virt. eigenvalues --    1.77399   1.78603   1.80207   1.84529   1.85614
 Alpha virt. eigenvalues --    1.88535   1.90062   1.93316   1.95416   1.98019
 Alpha virt. eigenvalues --    1.98518   2.01163   2.02742   2.03862   2.05586
 Alpha virt. eigenvalues --    2.10022   2.13396   2.15318   2.17852   2.20511
 Alpha virt. eigenvalues --    2.26157   2.27557   2.32780   2.34845   2.39236
 Alpha virt. eigenvalues --    2.42366   2.44300   2.49217   2.49763   2.54415
 Alpha virt. eigenvalues --    2.55391   2.56625   2.57996   2.59488   2.62186
 Alpha virt. eigenvalues --    2.62841   2.65040   2.68013   2.69367   2.72872
 Alpha virt. eigenvalues --    2.73858   2.75805   2.76156   2.77893   2.83002
 Alpha virt. eigenvalues --    2.84039   2.87681   2.91048   2.93597   2.96824
 Alpha virt. eigenvalues --    2.97514   2.99681   3.00826   3.06542   3.15488
 Alpha virt. eigenvalues --    3.23947   3.27563   3.28449   3.42807   3.46335
 Alpha virt. eigenvalues --    3.61069   3.70477   3.70950   3.77605   3.84778
 Alpha virt. eigenvalues --    3.85193   3.88341   3.89717   4.15917   4.16096
 Alpha virt. eigenvalues --    4.36671   4.38132   4.85242  23.62770  23.97647
 Alpha virt. eigenvalues --   24.00744  24.05489  24.08171  24.16188  24.18502
 Alpha virt. eigenvalues --   24.26648
  Beta  occ. eigenvalues --  -10.55654 -10.55634 -10.55540 -10.54232 -10.54202
  Beta  occ. eigenvalues --  -10.53520 -10.52692 -10.52689  -0.96599  -0.88156
  Beta  occ. eigenvalues --   -0.84324  -0.77883  -0.77177  -0.64915  -0.64405
  Beta  occ. eigenvalues --   -0.57369  -0.53825  -0.49253  -0.48248  -0.47603
  Beta  occ. eigenvalues --   -0.47317  -0.45648  -0.43209  -0.42506  -0.41231
  Beta  occ. eigenvalues --   -0.39794  -0.29784  -0.29613
  Beta virt. eigenvalues --   -0.04762   0.01601   0.02077   0.02841   0.03301
  Beta virt. eigenvalues --    0.03817   0.05123   0.05304   0.05476   0.06801
  Beta virt. eigenvalues --    0.07228   0.08277   0.09011   0.09216   0.09402
  Beta virt. eigenvalues --    0.11942   0.12187   0.12358   0.12638   0.13754
  Beta virt. eigenvalues --    0.14395   0.15619   0.16212   0.16866   0.18359
  Beta virt. eigenvalues --    0.18481   0.18606   0.20161   0.20502   0.22337
  Beta virt. eigenvalues --    0.22571   0.22986   0.23472   0.23936   0.24434
  Beta virt. eigenvalues --    0.24789   0.25232   0.25440   0.25586   0.26760
  Beta virt. eigenvalues --    0.28021   0.28485   0.29077   0.29917   0.31050
  Beta virt. eigenvalues --    0.34094   0.36085   0.36645   0.37728   0.42619
  Beta virt. eigenvalues --    0.43837   0.44716   0.46907   0.47708   0.49944
  Beta virt. eigenvalues --    0.51893   0.53317   0.56905   0.57236   0.59859
  Beta virt. eigenvalues --    0.60154   0.60627   0.62035   0.62653   0.63307
  Beta virt. eigenvalues --    0.63702   0.66187   0.67116   0.68168   0.68887
  Beta virt. eigenvalues --    0.69507   0.70146   0.70439   0.73121   0.74032
  Beta virt. eigenvalues --    0.74375   0.75094   0.77366   0.78340   0.78948
  Beta virt. eigenvalues --    0.82756   0.84082   0.88620   0.90097   0.91394
  Beta virt. eigenvalues --    0.94325   0.95992   0.97099   0.98817   0.99727
  Beta virt. eigenvalues --    1.01340   1.03404   1.05142   1.06992   1.07447
  Beta virt. eigenvalues --    1.13905   1.16379   1.17911   1.25747   1.26189
  Beta virt. eigenvalues --    1.37613   1.40773   1.43625   1.44805   1.46579
  Beta virt. eigenvalues --    1.51134   1.51889   1.52790   1.56652   1.57454
  Beta virt. eigenvalues --    1.59321   1.60357   1.60610   1.63444   1.64257
  Beta virt. eigenvalues --    1.64430   1.66777   1.67515   1.69264   1.72865
  Beta virt. eigenvalues --    1.74434   1.77520   1.78762   1.80403   1.84577
  Beta virt. eigenvalues --    1.85755   1.88760   1.91604   1.93518   1.95964
  Beta virt. eigenvalues --    1.97926   1.99058   2.01232   2.03111   2.04007
  Beta virt. eigenvalues --    2.05595   2.10143   2.13282   2.15630   2.18034
  Beta virt. eigenvalues --    2.20562   2.26267   2.27913   2.32932   2.35076
  Beta virt. eigenvalues --    2.39690   2.42764   2.44471   2.49296   2.49825
  Beta virt. eigenvalues --    2.54439   2.55445   2.56730   2.58815   2.59536
  Beta virt. eigenvalues --    2.62296   2.62839   2.65057   2.68188   2.69454
  Beta virt. eigenvalues --    2.72851   2.74146   2.75953   2.76180   2.78097
  Beta virt. eigenvalues --    2.83501   2.84381   2.87996   2.90783   2.93654
  Beta virt. eigenvalues --    2.96828   2.97686   2.99680   3.00936   3.08919
  Beta virt. eigenvalues --    3.15558   3.24326   3.27693   3.28829   3.43001
  Beta virt. eigenvalues --    3.46959   3.62152   3.70485   3.70971   3.77865
  Beta virt. eigenvalues --    3.84801   3.85228   3.88377   3.89755   4.15889
  Beta virt. eigenvalues --    4.16513   4.36762   4.38259   4.85434  23.62958
  Beta virt. eigenvalues --   23.97921  24.00774  24.05509  24.08189  24.16161
  Beta virt. eigenvalues --   24.18634  24.27080
          Condensed to atoms (all electrons):
               1          2          3          4          5          6
     1  C    6.686773  -0.780698   0.037269   1.207277  -1.238369   1.107479
     2  C   -0.780698   8.332717   0.278246  -0.719730  -0.114288  -0.957321
     3  H    0.037269   0.278246   0.460345   0.028012   0.003766   0.003995
     4  C    1.207277  -0.719730   0.028012   8.941561  -2.970021   1.664912
     5  C   -1.238369  -0.114288   0.003766  -2.970021  11.906791  -2.247337
     6  C    1.107479  -0.957321   0.003995   1.664912  -2.247337   8.705218
     7  C   -0.729232   0.299297  -0.028271  -0.892138  -0.234073  -1.116896
     8  H    0.048653  -0.026393   0.000002   0.007165   0.003665   0.040405
     9  H    0.004494  -0.004980  -0.000149   0.080558   0.160299   0.083942
    10  C   -0.357515   0.401855  -0.001473  -0.592869   0.487539  -1.411399
    11  H    0.029088   0.008529   0.000000   0.002051  -0.106415  -0.169332
    12  H    0.007420  -0.008402   0.000001   0.008986  -0.096640   0.135110
    13  H    0.000613  -0.003163  -0.000002   0.019125   0.157108  -0.102865
    14  C   -0.468903  -0.054036   0.018027  -1.471091   1.014771  -0.485691
    15  H    0.005720  -0.002024  -0.000073   0.078818  -0.082862   0.014234
    16  H    0.016461   0.069921  -0.000265  -0.005873  -0.114887   0.009081
    17  H    0.000112  -0.104498   0.000151  -0.225396   0.218880   0.024357
               7          8          9         10         11         12
     1  C   -0.729232   0.048653   0.004494  -0.357515   0.029088   0.007420
     2  C    0.299297  -0.026393  -0.004980   0.401855   0.008529  -0.008402
     3  H   -0.028271   0.000002  -0.000149  -0.001473   0.000000   0.000001
     4  C   -0.892138   0.007165   0.080558  -0.592869   0.002051   0.008986
     5  C   -0.234073   0.003665   0.160299   0.487539  -0.106415  -0.096640
     6  C   -1.116896   0.040405   0.083942  -1.411399  -0.169332   0.135110
     7  C    8.735156   0.260444  -0.005369   0.331307   0.138343  -0.012748
     8  H    0.260444   0.463975  -0.000153   0.005568   0.000524   0.000164
     9  H   -0.005369  -0.000153   0.464752   0.024564   0.000324   0.000021
    10  C    0.331307   0.005568   0.024564   6.613697   0.466863   0.326329
    11  H    0.138343   0.000524   0.000324   0.466863   0.494005  -0.020576
    12  H   -0.012748   0.000164   0.000021   0.326329  -0.020576   0.476900
    13  H   -0.110039   0.000186  -0.000831   0.400211  -0.026116  -0.028457
    14  C    0.363190  -0.001446   0.004492  -0.004736  -0.000591   0.000215
    15  H   -0.003665   0.000000   0.000277  -0.000293   0.000000  -0.000001
    16  H    0.003532   0.000000   0.000315  -0.000625   0.000000   0.000000
    17  H   -0.002234  -0.000003   0.000194   0.001838   0.000002  -0.000003
              13         14         15         16         17
     1  C    0.000613  -0.468903   0.005720   0.016461   0.000112
     2  C   -0.003163  -0.054036  -0.002024   0.069921  -0.104498
     3  H   -0.000002   0.018027  -0.000073  -0.000265   0.000151
     4  C    0.019125  -1.471091   0.078818  -0.005873  -0.225396
     5  C    0.157108   1.014771  -0.082862  -0.114887   0.218880
     6  C   -0.102865  -0.485691   0.014234   0.009081   0.024357
     7  C   -0.110039   0.363190  -0.003665   0.003532  -0.002234
     8  H    0.000186  -0.001446   0.000000   0.000000  -0.000003
     9  H   -0.000831   0.004492   0.000277   0.000315   0.000194
    10  C    0.400211  -0.004736  -0.000293  -0.000625   0.001838
    11  H   -0.026116  -0.000591   0.000000   0.000000   0.000002
    12  H   -0.028457   0.000215  -0.000001   0.000000  -0.000003
    13  H    0.505305   0.000301   0.000000   0.000000  -0.000002
    14  C    0.000301   6.566947   0.348604   0.380400   0.457802
    15  H    0.000000   0.348604   0.486653  -0.029776  -0.021894
    16  H    0.000000   0.380400  -0.029776   0.500367  -0.024329
    17  H   -0.000002   0.457802  -0.021894  -0.024329   0.490943
          Atomic-Atomic Spin Densities.
               1          2          3          4          5          6
     1  C    1.480204  -0.545119   0.009526   0.127274   0.401213   0.130950
     2  C   -0.545119   0.643474  -0.014522  -0.327753  -0.390516  -0.099406
     3  H    0.009526  -0.014522   0.026310   0.019473   0.010255   0.000510
     4  C    0.127274  -0.327753   0.019473   0.354884   0.137504  -0.015283
     5  C    0.401213  -0.390516   0.010255   0.137504   0.253924   0.122000
     6  C    0.130950  -0.099406   0.000510  -0.015283   0.122000   0.230847
     7  C   -0.589611   0.536438  -0.020341  -0.124065  -0.373382  -0.240536
     8  H    0.016032  -0.016132   0.000128   0.000126   0.011256   0.011811
     9  H   -0.001073  -0.000434  -0.000031  -0.005214   0.008059  -0.004388
    10  C   -0.132404   0.081751  -0.001063  -0.005014  -0.098553  -0.107669
    11  H   -0.000155  -0.000313   0.000001   0.000026   0.002064   0.001523
    12  H   -0.001080   0.000603  -0.000001   0.000209  -0.002262  -0.002077
    13  H   -0.001290   0.000802  -0.000001   0.000139  -0.003203  -0.002697
    14  C   -0.135668   0.206208  -0.012122  -0.145391  -0.126563  -0.009927
    15  H   -0.001106   0.002510  -0.000073  -0.002458  -0.001162   0.000347
    16  H   -0.001103   0.001395  -0.000026  -0.001566  -0.000227   0.000074
    17  H   -0.000928   0.004446  -0.000084  -0.002862  -0.003828  -0.000257
               7          8          9         10         11         12
     1  C   -0.589611   0.016032  -0.001073  -0.132404  -0.000155  -0.001080
     2  C    0.536438  -0.016132  -0.000434   0.081751  -0.000313   0.000603
     3  H   -0.020341   0.000128  -0.000031  -0.001063   0.000001  -0.000001
     4  C   -0.124065   0.000126  -0.005214  -0.005014   0.000026   0.000209
     5  C   -0.373382   0.011256   0.008059  -0.098553   0.002064  -0.002262
     6  C   -0.240536   0.011811  -0.004388  -0.107669   0.001523  -0.002077
     7  C    0.685560  -0.019760  -0.000463   0.171822  -0.002525   0.003217
     8  H   -0.019760   0.025236  -0.000030  -0.010749   0.000303  -0.000070
     9  H   -0.000463  -0.000030   0.004602   0.001198  -0.000021   0.000044
    10  C    0.171822  -0.010749   0.001198   0.084310  -0.000596   0.000982
    11  H   -0.002525   0.000303  -0.000021  -0.000596   0.000118  -0.000141
    12  H    0.003217  -0.000070   0.000044   0.000982  -0.000141   0.001603
    13  H    0.003638  -0.000086   0.000143   0.002069  -0.000127  -0.000195
    14  C    0.102284  -0.001180   0.001072   0.019594  -0.000067   0.000167
    15  H    0.000517   0.000000  -0.000005   0.000066   0.000000   0.000000
    16  H    0.000265   0.000000  -0.000011   0.000026   0.000000   0.000000
    17  H    0.000838  -0.000001   0.000309   0.000368   0.000000   0.000001
              13         14         15         16         17
     1  C   -0.001290  -0.135668  -0.001106  -0.001103  -0.000928
     2  C    0.000802   0.206208   0.002510   0.001395   0.004446
     3  H   -0.000001  -0.012122  -0.000073  -0.000026  -0.000084
     4  C    0.000139  -0.145391  -0.002458  -0.001566  -0.002862
     5  C   -0.003203  -0.126563  -0.001162  -0.000227  -0.003828
     6  C   -0.002697  -0.009927   0.000347   0.000074  -0.000257
     7  C    0.003638   0.102284   0.000517   0.000265   0.000838
     8  H   -0.000086  -0.001180   0.000000   0.000000  -0.000001
     9  H    0.000143   0.001072  -0.000005  -0.000011   0.000309
    10  C    0.002069   0.019594   0.000066   0.000026   0.000368
    11  H   -0.000127  -0.000067   0.000000   0.000000   0.000000
    12  H   -0.000195   0.000167   0.000000   0.000000   0.000001
    13  H    0.001750   0.000287   0.000000   0.000000   0.000003
    14  C    0.000287   0.102372   0.001183   0.001158   0.001851
    15  H    0.000000   0.001183   0.000767  -0.000127  -0.000014
    16  H    0.000000   0.001158  -0.000127   0.000437   0.000014
    17  H    0.000003   0.001851  -0.000014   0.000014   0.001683
 Mulliken charges and spin densities:
               1          2
     1  C    0.423357   0.755660
     2  C   -0.615032   0.083432
     3  H    0.200419   0.017939
     4  C    0.838653   0.010028
     5  C   -0.747928  -0.053421
     6  C    0.702107   0.015824
     7  C   -0.996604   0.133895
     8  H    0.197243   0.016883
     9  H    0.187249   0.003756
    10  C   -0.690860   0.006139
    11  H    0.183303   0.000090
    12  H    0.211681   0.000999
    13  H    0.188625   0.001230
    14  C   -0.668255   0.005258
    15  H    0.206281   0.000444
    16  H    0.195680   0.000308
    17  H    0.184081   0.001536
 Sum of Mulliken charges =   0.00000   1.00000
 Mulliken charges and spin densities with hydrogens summed into heavy atoms:
               1          2
     1  C    0.423357   0.755660
     2  C   -0.414612   0.101371
     4  C    0.838653   0.010028
     5  C   -0.560679  -0.049665
     6  C    0.702107   0.015824
     7  C   -0.799362   0.150778
    10  C   -0.107251   0.008458
    14  C   -0.082213   0.007547
 APT charges:
               1
     1  C    0.682024
     2  C   -0.543488
     3  H    0.003146
     4  C   -2.458239
     5  C    0.036753
     6  C    2.398238
     7  C   -1.871052
     8  H    1.947179
     9  H   -0.207102
    10  C   -2.517821
    11  H    1.820973
    12  H   -0.428876
    13  H    0.532363
    14  C    0.422446
    15  H   -0.574471
    16  H    0.732676
    17  H    0.025251
 Sum of APT charges =   0.00000
 APT charges with hydrogens summed into heavy atoms:
               1
     1  C    0.682024
     2  C   -0.540343
     4  C   -2.458239
     5  C   -0.170349
     6  C    2.398238
     7  C    0.076127
    10  C   -0.593361
    14  C    0.605902
 Electronic spatial extent (au):  <R**2>=          20724.1014
 Charge=              0.0000 electrons
 Dipole moment (field-independent basis, Debye):
    X=             -1.5405    Y=              0.3558    Z=             -0.8200  Tot=              1.7810
 Quadrupole moment (field-independent basis, Debye-Ang):
   XX=            -61.4533   YY=            -37.9601   ZZ=            -57.3172
   XY=             -6.6665   XZ=            -10.5913   YZ=             -8.5030
 Traceless Quadrupole moment (field-independent basis, Debye-Ang):
   XX=             -9.2098   YY=             14.2834   ZZ=             -5.0737
   XY=             -6.6665   XZ=            -10.5913   YZ=             -8.5030
 Octapole moment (field-independent basis, Debye-Ang**2):
  XXX=           -757.3072  YYY=           -915.5073  ZZZ=           -718.9189  XYY=           -212.8629
  XXY=           -418.3682  XXZ=           -292.8290  XZZ=           -297.1758  YZZ=           -458.8465
  YYZ=           -273.0545  XYZ=            -75.4454
 Hexadecapole moment (field-independent basis, Debye-Ang**3):
 XXXX=          -7201.5420 YYYY=         -14711.9967 ZZZZ=          -6511.3640 XXXY=          -5457.9507
 XXXZ=          -3493.9291 YYYX=          -4417.5840 YYYZ=          -4938.5295 ZZZX=          -3505.0454
 ZZZY=          -5479.1309 XXYY=          -3922.2819 XXZZ=          -2602.1023 YYZZ=          -4653.7471
 XXYZ=          -2043.6859 YYXZ=          -1424.1148 ZZXY=          -2330.5289
 N-N= 3.307382760057D+02 E-N=-1.380327172979D+03  KE= 3.087971203567D+02
  Exact polarizability:       0.000       0.000       0.000       0.000       0.000       0.000
 Approx polarizability:     121.233       9.468     121.062      11.262     -22.005      92.897
                          Isotropic Fermi Contact Couplings
        Atom                 a.u.       MegaHertz       Gauss      10(-4) cm-1
     1  C(13)              0.41890     470.92691     168.03843     157.08431
     2  C(13)              0.01248      14.03380       5.00761       4.68117
     3  H(1)               0.01159      51.78752      18.47908      17.27446
     4  C(13)              0.04605      51.77128      18.47328      17.26904
     5  C(13)             -0.00888      -9.98242      -3.56198      -3.32978
     6  C(13)              0.04555      51.20511      18.27126      17.08019
     7  C(13)              0.01367      15.36485       5.48256       5.12516
     8  H(1)               0.01104      49.35030      17.60941      16.46149
     9  H(1)               0.00105       4.70494       1.67884       1.56940
    10  C(13)              0.00420       4.72342       1.68543       1.57556
    11  H(1)               0.00007       0.32786       0.11699       0.10936
    12  H(1)               0.00053       2.36122       0.84254       0.78762
    13  H(1)               0.00062       2.78660       0.99433       0.92951
    14  C(13)              0.00427       4.79847       1.71221       1.60060
    15  H(1)               0.00030       1.35541       0.48364       0.45212
    16  H(1)               0.00024       1.06910       0.38148       0.35661
    17  H(1)               0.00071       3.17033       1.13125       1.05751
 --------------------------------------------------------
       Center         ----  Spin Dipole Couplings  ----
                      3XX-RR        3YY-RR        3ZZ-RR
 --------------------------------------------------------
     1   Atom        0.575231     -0.437577     -0.137654
     2   Atom        0.076456     -0.002900     -0.073556
     3   Atom        0.000096      0.009898     -0.009993
     4   Atom        0.039498     -0.033618     -0.005880
     5   Atom        0.022121      0.004168     -0.026288
     6   Atom        0.026803     -0.026307     -0.000496
     7   Atom       -0.011065      0.045780     -0.034715
     8   Atom       -0.008887      0.015290     -0.006403
     9   Atom        0.001107      0.000357     -0.001464
    10   Atom       -0.006734      0.007737     -0.001003
    11   Atom       -0.001772      0.003103     -0.001330
    12   Atom       -0.001835     -0.000263      0.002098
    13   Atom        0.000198      0.000929     -0.001127
    14   Atom        0.008755     -0.001377     -0.007379
    15   Atom        0.001204      0.000893     -0.002097
    16   Atom        0.002712     -0.001413     -0.001299
    17   Atom        0.003124     -0.001431     -0.001693
 --------------------------------------------------------
                        XY            XZ            YZ
 --------------------------------------------------------
     1   Atom       -0.331934      0.544413     -0.097731
     2   Atom        0.063448      0.029004     -0.033403
     3   Atom        0.015430     -0.004095     -0.007064
     4   Atom       -0.019573      0.029936      0.003815
     5   Atom        0.006753      0.022119     -0.028017
     6   Atom       -0.028864      0.030644     -0.002838
     7   Atom       -0.014026      0.039714     -0.085203
     8   Atom        0.007469     -0.002830     -0.012808
     9   Atom        0.000484      0.001084     -0.001533
    10   Atom       -0.003645      0.002512     -0.010013
    11   Atom       -0.000149      0.000581     -0.002819
    12   Atom       -0.001175      0.001284     -0.002184
    13   Atom       -0.002593      0.000723     -0.001495
    14   Atom        0.010032      0.000189      0.000277
    15   Atom        0.002672      0.001145      0.001360
    16   Atom        0.002456     -0.001241     -0.000980
    17   Atom        0.000573      0.001403     -0.000156
 --------------------------------------------------------


 ---------------------------------------------------------------------------------
              Anisotropic Spin Dipole Couplings in Principal Axis System
 ---------------------------------------------------------------------------------

       Atom             a.u.   MegaHertz   Gauss  10(-4) cm-1        Axes

              Baa    -0.5586   -74.956   -26.746   -25.003  0.4075  0.8518 -0.3292
     1 C(13)  Bbb    -0.3936   -52.816   -18.846   -17.617 -0.3061  0.4670  0.8296
              Bcc     0.9522   127.772    45.592    42.620  0.8604 -0.2372  0.4511
 
              Baa    -0.1029   -13.802    -4.925    -4.604 -0.3001  0.4683  0.8311
     2 C(13)  Bbb    -0.0092    -1.241    -0.443    -0.414 -0.3663  0.7479 -0.5537
              Bcc     0.1121    15.042     5.368     5.018  0.8808  0.4706  0.0529
 
              Baa    -0.0125    -6.678    -2.383    -2.228 -0.3165  0.4764  0.8203
     3 H(1)   Bbb    -0.0107    -5.687    -2.029    -1.897  0.7592 -0.3911  0.5202
              Bcc     0.0232    12.365     4.412     4.125  0.5686  0.7874 -0.2379
 
              Baa    -0.0428    -5.750    -2.052    -1.918  0.3385  0.8679 -0.3636
     4 C(13)  Bbb    -0.0143    -1.924    -0.687    -0.642 -0.2951  0.4649  0.8347
              Bcc     0.0572     7.674     2.738     2.560  0.8935 -0.1752  0.4135
 
              Baa    -0.0500    -6.708    -2.394    -2.238 -0.2990  0.4676  0.8318
     5 C(13)  Bbb     0.0183     2.458     0.877     0.820  0.4108  0.8499 -0.3301
              Bcc     0.0317     4.250     1.517     1.418  0.8613 -0.2430  0.4462
 
              Baa    -0.0420    -5.638    -2.012    -1.881  0.4788  0.8262 -0.2969
     6 C(13)  Bbb    -0.0131    -1.755    -0.626    -0.585 -0.2975  0.4708  0.8306
              Bcc     0.0551     7.393     2.638     2.466  0.8260 -0.3093  0.4712
 
              Baa    -0.0971   -13.033    -4.650    -4.347 -0.3074  0.4649  0.8303
     7 C(13)  Bbb    -0.0120    -1.613    -0.576    -0.538  0.9117  0.3938  0.1171
              Bcc     0.1091    14.646     5.226     4.886 -0.2725  0.7930 -0.5449
 
              Baa    -0.0125    -6.684    -2.385    -2.229 -0.3092  0.4650  0.8296
     8 H(1)   Bbb    -0.0107    -5.697    -2.033    -1.900  0.9200 -0.0748  0.3848
              Bcc     0.0232    12.381     4.418     4.130  0.2410  0.8822 -0.4046
 
              Baa    -0.0027    -1.442    -0.515    -0.481 -0.2964  0.4648  0.8343
     9 H(1)   Bbb     0.0012     0.634     0.226     0.211  0.3406  0.8676 -0.3623
              Bcc     0.0015     0.809     0.289     0.270  0.8923 -0.1768  0.4155
 
              Baa    -0.0077    -1.034    -0.369    -0.345  0.7952 -0.1865 -0.5770
    10 C(13)  Bbb    -0.0075    -1.004    -0.358    -0.335  0.5732  0.5417  0.6148
              Bcc     0.0152     2.038     0.727     0.680 -0.1979  0.8196 -0.5377
 
              Baa    -0.0029    -1.542    -0.550    -0.514 -0.3846  0.3851  0.8389
    11 H(1)   Bbb    -0.0016    -0.857    -0.306    -0.286  0.9210  0.2211  0.3207
              Bcc     0.0045     2.399     0.856     0.800 -0.0620  0.8960 -0.4397
 
              Baa    -0.0025    -1.317    -0.470    -0.439  0.8993  0.4351 -0.0449
    12 H(1)   Bbb    -0.0014    -0.769    -0.274    -0.256 -0.3312  0.7445  0.5797
              Bcc     0.0039     2.085     0.744     0.696  0.2856 -0.5065  0.8136
 
              Baa    -0.0023    -1.236    -0.441    -0.412  0.5422  0.6680  0.5096
    13 H(1)   Bbb    -0.0014    -0.747    -0.266    -0.249 -0.5839 -0.1366  0.8002
              Bcc     0.0037     1.982     0.707     0.661 -0.6042  0.7315 -0.3160
 
              Baa    -0.0076    -1.023    -0.365    -0.341 -0.4509  0.7455 -0.4908
    14 C(13)  Bbb    -0.0073    -0.980    -0.350    -0.327 -0.2675  0.4118  0.8711
              Bcc     0.0149     2.004     0.715     0.668  0.8516  0.5241  0.0137
 
              Baa    -0.0026    -1.403    -0.501    -0.468 -0.0593 -0.3201  0.9455
    15 H(1)   Bbb    -0.0016    -0.848    -0.303    -0.283  0.7175 -0.6722 -0.1826
              Bcc     0.0042     2.251     0.803     0.751  0.6940  0.6676  0.2696
 
              Baa    -0.0027    -1.433    -0.512    -0.478 -0.3260  0.8848  0.3331
    16 H(1)   Bbb    -0.0016    -0.851    -0.304    -0.284  0.3757 -0.2020  0.9044
              Bcc     0.0043     2.285     0.815     0.762  0.8675  0.4200 -0.2666
 
              Baa    -0.0022    -1.172    -0.418    -0.391 -0.2739  0.3845  0.8815
    17 H(1)   Bbb    -0.0014    -0.725    -0.259    -0.242  0.0073  0.9174 -0.3979
              Bcc     0.0036     1.897     0.677     0.633  0.9617  0.1025  0.2541
 

 ---------------------------------------------------------------------------------

 D2PCM: PCM CHGder 2nd derivatives, FixD1E=F FixD2E=F DoIter=F DoCFld=F I1PDM=0
 Calling FoFJK, ICntrl=    100127 FMM=F ISym2X=0 I1Cent= 0 IOpClX= 1 NMat=1 NMatS=1 NMatT=0.
 -------------------------------------------------------------------
 Center     Atomic                   Forces (Hartrees/Bohr)
 Number     Number              X              Y              Z
 -------------------------------------------------------------------
      1        6          -0.000002660   -0.000001322    0.000002572
      2        6          -0.000003564   -0.000001919   -0.000000889
      3        1          -0.000004338   -0.000003409   -0.000001935
      4        6           0.000000122   -0.000001042   -0.000002467
      5        6           0.000000203    0.000000685   -0.000001033
      6        6           0.000000804   -0.000000094    0.000003154
      7        6           0.000000286   -0.000001442    0.000005688
      8        1          -0.000000038   -0.000001219    0.000008168
      9        1           0.000001827    0.000001700   -0.000002559
     10        6           0.000003785    0.000002406    0.000004976
     11        1           0.000002698    0.000000996    0.000007952
     12        1           0.000005568    0.000003722    0.000004619
     13        1           0.000002967    0.000001693    0.000003687
     14        6          -0.000001544   -0.000000193   -0.000007386
     15        1          -0.000000810    0.000000598   -0.000008022
     16        1          -0.000004040   -0.000002120   -0.000008043
     17        1          -0.000001266    0.000000961   -0.000008481
 -------------------------------------------------------------------
 Cartesian Forces:  Max     0.000008481 RMS     0.000003683
 FormGI is forming the generalized inverse of G from B-inverse, IUseBI=4.

 GradGradGradGradGradGradGradGradGradGradGradGradGradGradGradGradGradGrad
 Berny optimization.
 Internal  Forces:  Max     0.000000811 RMS     0.000000231
 Search for a local minimum.
 Step number   1 out of a maximum of   87
 All quantities printed in internal units (Hartrees-Bohrs-Radians)
 Mixed Optimization -- En-DIIS/RFO-DIIS
 Second derivative matrix not updated -- analytic derivatives used.
 ITU=  0
     Eigenvalues ---    0.00020   0.00027   0.01656   0.01708   0.01998
     Eigenvalues ---    0.02100   0.02149   0.02481   0.03007   0.03038
     Eigenvalues ---    0.05575   0.05585   0.05741   0.05760   0.10542
     Eigenvalues ---    0.11032   0.11825   0.12151   0.12183   0.14123
     Eigenvalues ---    0.14296   0.14464   0.14501   0.17725   0.18223
     Eigenvalues ---    0.18675   0.18838   0.20295   0.27766   0.32086
     Eigenvalues ---    0.32509   0.33921   0.33963   0.34430   0.34457
     Eigenvalues ---    0.35037   0.35087   0.35751   0.35983   0.36103
     Eigenvalues ---    0.41804   0.42447   0.46531   0.48713   0.51853
 RFO step:  Lambda= 0.00000000D+00 EMin= 2.00624827D-04
 Linear search not attempted -- first point.
 Iteration  1 RMS(Cart)=  0.00002264 RMS(Int)=  0.00000000
 Iteration  2 RMS(Cart)=  0.00000000 RMS(Int)=  0.00000000
 Variable       Old X    -DE/DX   Delta X   Delta X   Delta X     New X
                                 (Linear)    (Quad)   (Total)
    R1        2.58759   0.00000   0.00000   0.00000   0.00000   2.58759
    R2        2.59899   0.00000   0.00000   0.00000   0.00000   2.59899
    R3        2.05155   0.00000   0.00000   0.00000   0.00000   2.05155
    R4        2.65906   0.00000   0.00000   0.00000   0.00000   2.65906
    R5        2.63476   0.00000   0.00000   0.00000   0.00000   2.63476
    R6        2.84609   0.00000   0.00000   0.00000   0.00000   2.84609
    R7        2.64669   0.00000   0.00000   0.00000   0.00000   2.64668
    R8        2.05315   0.00000   0.00000   0.00000   0.00000   2.05315
    R9        2.64679   0.00000   0.00000   0.00000   0.00000   2.64679
   R10        2.84624   0.00000   0.00000   0.00000   0.00000   2.84624
   R11        2.05066   0.00000   0.00000   0.00000   0.00000   2.05066
   R12        2.06129   0.00000   0.00000   0.00000   0.00000   2.06129
   R13        2.06693   0.00000   0.00000   0.00000   0.00000   2.06693
   R14        2.06408   0.00000   0.00000   0.00000   0.00000   2.06408
   R15        2.06614   0.00000   0.00000   0.00000   0.00000   2.06614
   R16        2.06489   0.00000   0.00000   0.00000   0.00000   2.06489
   R17        2.06128   0.00000   0.00000   0.00000   0.00000   2.06128
    A1        2.20155   0.00000   0.00000   0.00000   0.00000   2.20155
    A2        2.13803   0.00000   0.00000   0.00000   0.00000   2.13803
    A3        2.04201   0.00000   0.00000   0.00000   0.00000   2.04201
    A4        2.10314   0.00000   0.00000   0.00000   0.00000   2.10314
    A5        2.07106   0.00000   0.00000   0.00000   0.00000   2.07106
    A6        2.09346   0.00000   0.00000   0.00000   0.00000   2.09346
    A7        2.11866   0.00000   0.00000   0.00000   0.00000   2.11866
    A8        2.13809   0.00000   0.00000   0.00000   0.00000   2.13808
    A9        2.07375   0.00000   0.00000   0.00000   0.00000   2.07375
   A10        2.07135   0.00000   0.00000   0.00000   0.00000   2.07135
   A11        2.07165   0.00000   0.00000   0.00000   0.00000   2.07165
   A12        2.10126   0.00000   0.00000   0.00000   0.00000   2.10126
   A13        2.11021   0.00000   0.00000   0.00000   0.00000   2.11021
   A14        2.04201   0.00000   0.00000   0.00000   0.00000   2.04201
   A15        2.13553   0.00000   0.00000   0.00000   0.00000   2.13553
   A16        2.10565   0.00000   0.00000   0.00000   0.00000   2.10565
   A17        1.94043   0.00000   0.00000   0.00000   0.00000   1.94043
   A18        1.92926   0.00000   0.00000   0.00000   0.00000   1.92926
   A19        1.93623   0.00000   0.00000   0.00000   0.00000   1.93623
   A20        1.88546   0.00000   0.00000   0.00000   0.00000   1.88546
   A21        1.89392   0.00000   0.00000   0.00000   0.00000   1.89392
   A22        1.87649   0.00000   0.00000   0.00000   0.00000   1.87648
   A23        1.93140   0.00000   0.00000   0.00000   0.00000   1.93140
   A24        1.93442   0.00000   0.00000   0.00000   0.00000   1.93442
   A25        1.93936   0.00000   0.00000   0.00000   0.00000   1.93937
   A26        1.87525   0.00000   0.00000   0.00000   0.00000   1.87525
   A27        1.88896   0.00000   0.00000   0.00000   0.00000   1.88896
   A28        1.89245   0.00000   0.00000   0.00000   0.00000   1.89245
    D1       -3.13723   0.00000   0.00000   0.00000   0.00000  -3.13722
    D2        0.00145   0.00000   0.00000   0.00000   0.00000   0.00145
    D3       -0.00274   0.00000   0.00000   0.00000   0.00000  -0.00274
    D4        3.13626   0.00000   0.00000   0.00000   0.00000   3.13626
    D5       -0.00115   0.00000   0.00000   0.00000   0.00000  -0.00115
    D6        3.13773   0.00000   0.00000   0.00000   0.00000   3.13773
    D7        3.13759   0.00000   0.00000   0.00000   0.00000   3.13759
    D8       -0.00672   0.00000   0.00000   0.00000   0.00000  -0.00672
    D9        0.00238   0.00000   0.00000   0.00000   0.00000   0.00238
   D10       -3.13760   0.00000   0.00000   0.00000   0.00000  -3.13759
   D11       -3.13646   0.00000   0.00000   0.00000   0.00000  -3.13646
   D12        0.00675   0.00000   0.00000   0.00000   0.00000   0.00676
   D13       -1.13084   0.00000   0.00000  -0.00006  -0.00006  -1.13089
   D14        0.94780   0.00000   0.00000  -0.00006  -0.00006   0.94774
   D15        3.05329   0.00000   0.00000  -0.00006  -0.00006   3.05323
   D16        2.00796   0.00000   0.00000  -0.00005  -0.00005   2.00791
   D17       -2.19659   0.00000   0.00000  -0.00006  -0.00006  -2.19665
   D18       -0.09109   0.00000   0.00000  -0.00006  -0.00006  -0.09115
   D19       -0.00368   0.00000   0.00000   0.00000   0.00000  -0.00368
   D20        3.12604   0.00000   0.00000   0.00000   0.00000   3.12604
   D21        3.13629   0.00000   0.00000   0.00000   0.00000   3.13629
   D22       -0.01717   0.00000   0.00000   0.00000   0.00000  -0.01717
   D23        0.00366   0.00000   0.00000   0.00000   0.00000   0.00366
   D24       -3.13539   0.00000   0.00000   0.00000   0.00000  -3.13539
   D25       -3.12600   0.00000   0.00000   0.00000   0.00000  -3.12600
   D26        0.01814   0.00000   0.00000   0.00000   0.00000   0.01814
   D27        2.92650   0.00000   0.00000  -0.00002  -0.00002   2.92648
   D28       -1.26275   0.00000   0.00000  -0.00002  -0.00002  -1.26278
   D29        0.81721   0.00000   0.00000  -0.00002  -0.00002   0.81718
   D30       -0.22723   0.00000   0.00000  -0.00002  -0.00002  -0.22725
   D31        1.86670   0.00000   0.00000  -0.00002  -0.00002   1.86668
   D32       -2.33652   0.00000   0.00000  -0.00002  -0.00002  -2.33654
         Item               Value     Threshold  Converged?
 Maximum Force            0.000001     0.000015     YES
 RMS     Force            0.000000     0.000010     YES
 Maximum Displacement     0.000087     0.000060     NO 
 RMS     Displacement     0.000023     0.000040     YES
 Predicted change in Energy=-1.221317D-11
 GradGradGradGradGradGradGradGradGradGradGradGradGradGradGradGradGradGrad

                          Input orientation:                          
 ---------------------------------------------------------------------
 Center     Atomic      Atomic             Coordinates (Angstroms)
 Number     Number       Type             X           Y           Z
 ---------------------------------------------------------------------
      1          6           0        6.133753    7.072674    5.244308
      2          6           0        5.100971    6.182231    5.368533
      3          1           0        5.193747    5.255432    5.926238
      4          6           0        3.888580    6.518211    4.738305
      5          6           0        3.810480    7.720257    4.036208
      6          6           0        4.892865    8.603038    3.932670
      7          6           0        6.097815    8.266516    4.562418
      8          1           0        6.954773    8.929976    4.507453
      9          1           0        2.874394    7.983938    3.551796
     10          6           0        4.761926    9.880181    3.145084
     11          1           0        5.601434   10.549561    3.337365
     12          1           0        4.736536    9.668554    2.072282
     13          1           0        3.836785   10.402308    3.399123
     14          6           0        2.710518    5.584183    4.828044
     15          1           0        2.927179    4.640138    4.320838
     16          1           0        2.478311    5.350497    5.869893
     17          1           0        1.824695    6.023516    4.367487
 ---------------------------------------------------------------------
                    Distance matrix (angstroms):
                    1          2          3          4          5
     1  C    0.000000
     2  C    1.369292   0.000000
     3  H    2.156620   1.085632   0.000000
     4  C    2.367335   1.407112   2.170082   0.000000
     5  C    2.697493   2.409561   3.400147   1.394257   0.000000
     6  C    2.366899   2.822290   3.907852   2.450335   1.400565
     7  C    1.375327   2.446991   3.426948   2.822805   2.409813
     8  H    2.160231   3.424638   4.314677   3.907870   3.401775
     9  H    3.783969   3.391803   4.296756   2.141199   1.086480
    10  C    3.764405   4.328223   5.413833   3.821509   2.522821
    11  H    4.001067   4.842487   5.907306   4.598726   3.420652
    12  H    4.330422   4.811708   5.876875   4.213237   2.917267
    13  H    4.446036   4.825536   5.892197   4.108808   2.756804
    14  C    3.755985   2.522709   2.735057   1.506085   2.529769
    15  H    4.129425   2.863754   2.844860   2.150750   3.216887
    16  H    4.088949   2.796692   2.717683   2.152418   3.279151
    17  H    4.520789   3.429471   3.790801   2.154495   2.632872
                    6          7          8          9         10
     6  C    0.000000
     7  C    1.400619   0.000000
     8  H    2.165348   1.085162   0.000000
     9  H    2.145361   3.389933   4.296249   0.000000
    10  C    1.506164   2.529298   2.750912   2.706275   0.000000
    11  H    2.155321   2.638075   2.413232   3.750353   1.090787
    12  H    2.149606   3.165370   3.375815   2.914526   1.093770
    13  H    2.153451   3.320710   3.621879   2.607301   1.092263
    14  C    3.831164   4.328886   5.413946   2.722956   5.049379
    15  H    4.440627   4.823061   5.887194   3.431503   5.675098
    16  H    4.490203   4.828402   5.891318   3.530647   5.758256
    17  H    4.031956   4.829969   5.897864   2.368644   4.999546
                   11         12         13         14         15
    11  H    0.000000
    12  H    1.767669   0.000000
    13  H    1.771859   1.763080   0.000000
    14  C    5.935865   5.327388   5.150206   0.000000
    15  H    6.560498   5.797822   5.905890   1.093353   0.000000
    16  H    6.572507   6.177948   5.785408   1.092693   1.762289
    17  H    5.984145   5.199335   4.915288   1.090783   1.769571
                   16         17
    16  H    0.000000
    17  H    1.771269   0.000000
 Symmetry turned off by external request.
 Stoichiometry    C8H9(2)
 Framework group  C1[X(C8H9)]
 Deg. of freedom    45
 Full point group                 C1      NOp   1
 Rotational constants (GHZ):           3.8803939           1.7563709           1.2275032
 Standard basis: 6-311+G(d,p) (5D, 7F)
   230 basis functions,   360 primitive gaussians,   238 cartesian basis functions
    29 alpha electrons       28 beta electrons
       nuclear repulsion energy       330.7415713894 Hartrees.
 NAtoms=   17 NActive=   17 NUniq=   17 SFac= 1.00D+00 NAtFMM=   60 NAOKFM=F Big=F
 Integral buffers will be    131072 words long.
 Raffenetti 2 integral format.
 Two-electron integral symmetry is turned off.
 ------------------------------------------------------------------------------
 Polarizable Continuum Model (PCM)
 =================================
 Model                : PCM.
 Atomic radii         : SMD-Coulomb.
 Polarization charges : Total charges.
 Charge compensation  : None.
 Solution method      : Matrix inversion.
 Cavity type          : VdW (van der Waals Surface) (Alpha=1.000).
 Cavity algorithm     : GePol (No added spheres)
                        Default sphere list used, NSphG=   17.
                        Lebedev-Laikov grids with approx.  5.0 points / Ang**2.
                        Smoothing algorithm: York/Karplus (Gamma=1.0000).
                        Polarization charges: spherical gaussians, with
                                              point-specific exponents (IZeta= 3).
                        Self-potential: point-specific (ISelfS= 7).
                        Self-field    : sphere-specific E.n sum rule (ISelfD= 2).
 1st derivatives      : Analytical E(r).r(x)/FMM algorithm (CHGder, D1EAlg=3).
                        Cavity 1st derivative terms included.
 Solvent              : TetraHydroFuran, Eps=   7.425700 Eps(inf)=   1.974025
 ------------------------------------------------------------------------------
 Spheres list:
 ISph  on   Nord     Re0    Alpha      Xe            Ye            Ze
    1   C      1    1.8500  1.000      6.133753      7.072674      5.244308
    2   C      2    1.8500  1.000      5.100971      6.182231      5.368533
    3   H      3    1.2000  1.000      5.193747      5.255432      5.926238
    4   C      4    1.8500  1.000      3.888580      6.518211      4.738305
    5   C      5    1.8500  1.000      3.810480      7.720257      4.036208
    6   C      6    1.8500  1.000      4.892865      8.603038      3.932670
    7   C      7    1.8500  1.000      6.097815      8.266516      4.562418
    8   H      8    1.2000  1.000      6.954773      8.929976      4.507453
    9   H      9    1.2000  1.000      2.874394      7.983938      3.551796
   10   C     10    1.8500  1.000      4.761926      9.880181      3.145084
   11   H     11    1.2000  1.000      5.601434     10.549561      3.337365
   12   H     12    1.2000  1.000      4.736536      9.668554      2.072282
   13   H     13    1.2000  1.000      3.836785     10.402308      3.399123
   14   C     14    1.8500  1.000      2.710518      5.584183      4.828044
   15   H     15    1.2000  1.000      2.927179      4.640138      4.320838
   16   H     16    1.2000  1.000      2.478311      5.350497      5.869893
   17   H     17    1.2000  1.000      1.824695      6.023516      4.367487
 ------------------------------------------------------------------------------
 ------------------------------------------------------------------------------
 Atomic radii for non-electrostatic terms: SMD-CDS.
 ------------------------------------------------------------------------------
 Nuclear repulsion after PCM non-electrostatic terms =      330.7383371217 Hartrees.
 One-electron integrals computed using PRISM.
 NBasis=   230 RedAO= T EigKep=  2.71D-06  NBF=   230
 NBsUse=   230 1.00D-06 EigRej= -1.00D+00 NBFU=   230
 Initial guess from the checkpoint file:  "3-5-diMe-ph-opt-freq-thf-2.chk"
 B after Tr=     0.000013   -0.000013    0.000011
         Rot=    1.000000    0.000001    0.000001    0.000000 Ang=   0.00 deg.
 Initial guess <Sx>= 0.0000 <Sy>= 0.0000 <Sz>= 0.5000 <S**2>= 0.7617 S= 0.5058
 Requested convergence on RMS density matrix=1.00D-08 within 128 cycles.
 Requested convergence on MAX density matrix=1.00D-06.
 Requested convergence on             energy=1.00D-06.
 Level shift goal  0.100 maximum shift  0.100.
 No special actions if energy rises.
 Dynamic level shift is on during FON iterations.
 Inv3:  Mode=1 IEnd=     5459403.
 Iteration    1 A*A^-1 deviation from unit magnitude is 4.33D-15 for   1345.
 Iteration    1 A*A^-1 deviation from orthogonality  is 1.83D-15 for   1334   1266.
 Iteration    1 A^-1*A deviation from unit magnitude is 4.33D-15 for   1345.
 Iteration    1 A^-1*A deviation from orthogonality  is 1.78D-15 for   1334   1266.
 Error on total polarization charges =  0.04471
 SCF Done:  E(UM062X) =  -310.135974610     A.U. after    4 cycles
            NFock=  4  Conv=0.90D-08     -V/T= 2.0043
 <Sx>= 0.0000 <Sy>= 0.0000 <Sz>= 0.5000 <S**2>= 0.7617 S= 0.5058
 <L.S>=  0.00000000000    
 SMD-CDS (non-electrostatic) energy       (kcal/mol) =      -2.03
 (included in total energy above)
 Annihilation of the first spin contaminant:
 S**2 before annihilation     0.7617,   after     0.7501
 D1PCM: PCM CHGder 1st derivatives, ID1Alg=3 FixD1E=F DoIter=F DoCFld=F I1PDM=0.
 Calling FoFJK, ICntrl=      2127 FMM=F ISym2X=0 I1Cent= 0 IOpClX= 1 NMat=1 NMatS=1 NMatT=0.
 -------------------------------------------------------------------
 Center     Atomic                   Forces (Hartrees/Bohr)
 Number     Number              X              Y              Z
 -------------------------------------------------------------------
      1        6          -0.000002276   -0.000002229    0.000003176
      2        6          -0.000002800   -0.000002071   -0.000000698
      3        1          -0.000004360   -0.000003075   -0.000002102
      4        6          -0.000001307   -0.000000581   -0.000002843
      5        6           0.000000632    0.000000591   -0.000000913
      6        6           0.000001185    0.000000510    0.000003026
      7        6          -0.000000352   -0.000000983    0.000005144
      8        1          -0.000000019   -0.000001172    0.000008220
      9        1           0.000001823    0.000001772   -0.000002573
     10        6           0.000003337    0.000001875    0.000004951
     11        1           0.000003116    0.000001282    0.000007996
     12        1           0.000005675    0.000003746    0.000004525
     13        1           0.000002927    0.000001733    0.000003780
     14        6          -0.000001797   -0.000000389   -0.000007103
     15        1          -0.000000956    0.000000424   -0.000008242
     16        1          -0.000004208   -0.000002121   -0.000008020
     17        1          -0.000000621    0.000000687   -0.000008324
 -------------------------------------------------------------------
 Cartesian Forces:  Max     0.000008324 RMS     0.000003663

 GradGradGradGradGradGradGradGradGradGradGradGradGradGradGradGradGradGrad
 Berny optimization.
 Using GEDIIS/GDIIS optimizer.
 FormGI is forming the generalized inverse of G from B-inverse, IUseBI=4.
 Internal  Forces:  Max     0.000000033 RMS     0.000000006
 Search for a local minimum.
 Step number   2 out of a maximum of   87
 All quantities printed in internal units (Hartrees-Bohrs-Radians)
 Mixed Optimization -- En-DIIS/RFO-DIIS
 Swapping is turned off.
 Update second derivatives using D2CorX and points    2
 DE= -9.09D-12 DEPred=-1.22D-11 R= 7.45D-01
 Trust test= 7.45D-01 RLast= 1.49D-04 DXMaxT set to 3.00D-01
 ITU=  0  0
     Eigenvalues ---    0.00020   0.00027   0.01656   0.01708   0.01998
     Eigenvalues ---    0.02100   0.02149   0.02481   0.03007   0.03038
     Eigenvalues ---    0.05575   0.05585   0.05741   0.05760   0.10542
     Eigenvalues ---    0.11032   0.11825   0.12151   0.12183   0.14123
     Eigenvalues ---    0.14296   0.14464   0.14501   0.17725   0.18223
     Eigenvalues ---    0.18675   0.18838   0.20295   0.27766   0.32086
     Eigenvalues ---    0.32509   0.33921   0.33963   0.34430   0.34457
     Eigenvalues ---    0.35037   0.35087   0.35751   0.35983   0.36103
     Eigenvalues ---    0.41804   0.42447   0.46531   0.48713   0.51853
 En-DIIS/RFO-DIIS/Sim-DIIS IScMMF=       -3 using points:     2    1
 RFO step:  Lambda=-1.05363613D-14.
 DIIS inversion failure, remove point   2.
 Use linear search instead of GDIIS.
 RFO step:  Lambda= 0.00000000D+00 EMin= 2.00624827D-04
 Skip linear search -- no minimum in search direction.
 Iteration  1 RMS(Cart)=  0.00000421 RMS(Int)=  0.00000000
 Iteration  2 RMS(Cart)=  0.00000000 RMS(Int)=  0.00000000
 Variable       Old X    -DE/DX   Delta X   Delta X   Delta X     New X
                                 (Linear)    (Quad)   (Total)
    R1        2.58759   0.00000   0.00000   0.00000   0.00000   2.58759
    R2        2.59899   0.00000   0.00000   0.00000   0.00000   2.59899
    R3        2.05155   0.00000   0.00000   0.00000   0.00000   2.05155
    R4        2.65906   0.00000   0.00000   0.00000   0.00000   2.65906
    R5        2.63476   0.00000   0.00000   0.00000   0.00000   2.63476
    R6        2.84609   0.00000   0.00000   0.00000   0.00000   2.84609
    R7        2.64668   0.00000   0.00000   0.00000   0.00000   2.64668
    R8        2.05315   0.00000   0.00000   0.00000   0.00000   2.05315
    R9        2.64679   0.00000   0.00000   0.00000   0.00000   2.64679
   R10        2.84624   0.00000   0.00000   0.00000   0.00000   2.84624
   R11        2.05066   0.00000   0.00000   0.00000   0.00000   2.05066
   R12        2.06129   0.00000   0.00000   0.00000   0.00000   2.06129
   R13        2.06693   0.00000   0.00000   0.00000   0.00000   2.06693
   R14        2.06408   0.00000   0.00000   0.00000   0.00000   2.06408
   R15        2.06614   0.00000   0.00000   0.00000   0.00000   2.06614
   R16        2.06489   0.00000   0.00000   0.00000   0.00000   2.06489
   R17        2.06128   0.00000   0.00000   0.00000   0.00000   2.06128
    A1        2.20155   0.00000   0.00000   0.00000   0.00000   2.20155
    A2        2.13803   0.00000   0.00000   0.00000   0.00000   2.13803
    A3        2.04201   0.00000   0.00000   0.00000   0.00000   2.04201
    A4        2.10314   0.00000   0.00000   0.00000   0.00000   2.10314
    A5        2.07106   0.00000   0.00000   0.00000   0.00000   2.07106
    A6        2.09346   0.00000   0.00000   0.00000   0.00000   2.09346
    A7        2.11866   0.00000   0.00000   0.00000   0.00000   2.11866
    A8        2.13808   0.00000   0.00000   0.00000   0.00000   2.13808
    A9        2.07375   0.00000   0.00000   0.00000   0.00000   2.07375
   A10        2.07135   0.00000   0.00000   0.00000   0.00000   2.07135
   A11        2.07165   0.00000   0.00000   0.00000   0.00000   2.07165
   A12        2.10126   0.00000   0.00000   0.00000   0.00000   2.10126
   A13        2.11021   0.00000   0.00000   0.00000   0.00000   2.11021
   A14        2.04201   0.00000   0.00000   0.00000   0.00000   2.04201
   A15        2.13553   0.00000   0.00000   0.00000   0.00000   2.13553
   A16        2.10565   0.00000   0.00000   0.00000   0.00000   2.10565
   A17        1.94043   0.00000   0.00000   0.00000   0.00000   1.94043
   A18        1.92926   0.00000   0.00000   0.00000   0.00000   1.92926
   A19        1.93623   0.00000   0.00000   0.00000   0.00000   1.93623
   A20        1.88546   0.00000   0.00000   0.00000   0.00000   1.88546
   A21        1.89392   0.00000   0.00000   0.00000   0.00000   1.89392
   A22        1.87648   0.00000   0.00000   0.00000   0.00000   1.87648
   A23        1.93140   0.00000   0.00000   0.00000   0.00000   1.93140
   A24        1.93442   0.00000   0.00000   0.00000   0.00000   1.93442
   A25        1.93937   0.00000   0.00000   0.00000   0.00000   1.93937
   A26        1.87525   0.00000   0.00000   0.00000   0.00000   1.87525
   A27        1.88896   0.00000   0.00000   0.00000   0.00000   1.88896
   A28        1.89245   0.00000   0.00000   0.00000   0.00000   1.89245
    D1       -3.13722   0.00000   0.00000   0.00000   0.00000  -3.13722
    D2        0.00145   0.00000   0.00000   0.00000   0.00000   0.00145
    D3       -0.00274   0.00000   0.00000   0.00000   0.00000  -0.00274
    D4        3.13626   0.00000   0.00000   0.00000   0.00000   3.13626
    D5       -0.00115   0.00000   0.00000   0.00000   0.00000  -0.00115
    D6        3.13773   0.00000   0.00000   0.00000   0.00000   3.13773
    D7        3.13759   0.00000   0.00000   0.00000   0.00000   3.13759
    D8       -0.00672   0.00000   0.00000   0.00000   0.00000  -0.00672
    D9        0.00238   0.00000   0.00000   0.00000   0.00000   0.00238
   D10       -3.13759   0.00000   0.00000   0.00000   0.00000  -3.13759
   D11       -3.13646   0.00000   0.00000   0.00000   0.00000  -3.13646
   D12        0.00676   0.00000   0.00000   0.00000   0.00000   0.00675
   D13       -1.13089   0.00000   0.00000   0.00001   0.00001  -1.13088
   D14        0.94774   0.00000   0.00000   0.00001   0.00001   0.94775
   D15        3.05323   0.00000   0.00000   0.00001   0.00001   3.05324
   D16        2.00791   0.00000   0.00000   0.00001   0.00001   2.00792
   D17       -2.19665   0.00000   0.00000   0.00001   0.00001  -2.19664
   D18       -0.09115   0.00000   0.00000   0.00001   0.00001  -0.09114
   D19       -0.00368   0.00000   0.00000   0.00000   0.00000  -0.00368
   D20        3.12604   0.00000   0.00000   0.00000   0.00000   3.12604
   D21        3.13629   0.00000   0.00000   0.00000   0.00000   3.13629
   D22       -0.01717   0.00000   0.00000   0.00000   0.00000  -0.01717
   D23        0.00366   0.00000   0.00000   0.00000   0.00000   0.00366
   D24       -3.13539   0.00000   0.00000   0.00000   0.00000  -3.13539
   D25       -3.12600   0.00000   0.00000   0.00000   0.00000  -3.12600
[...]
   zx        -0.646446D+00     -0.957934D-01     -0.106585D+00
   zy        -0.115600D+01     -0.171302D+00     -0.190599D+00
   zz         0.132939D+03      0.196995D+02      0.219186D+02

 ----------------------------------------------------------------------
 Unable to Open any file for archive entry.
 1\1\GINC-CN020\Freq\UM062X\6-311+G(d,p)\C8H9(2)\TAHMINAAFROZ\12-May-20
 25\0\\#N Geom=AllCheck Guess=TCheck SCRF=Check GenChk UM062X/6-311+G(d
 ,p) Freq\\3-5-diMe-ph-opt-freq-thf-2\\0,2\C,6.1337532145,7.0726744114,
 5.2443082258\C,5.1009714223,6.1822305468,5.3685326037\H,5.1937470525,5
 .2554324504,5.9262377596\C,3.8885795424,6.5182112117,4.7383049976\C,3.
 8104795345,7.7202566329,4.0362076436\C,4.8928648325,8.6030381434,3.932
 6699109\C,6.0978151986,8.2665163722,4.5624175181\H,6.9547730766,8.9299
 762919,4.5074532233\H,2.874394402,7.9839382598,3.5517958742\C,4.761926
 0739,9.8801807158,3.1450836893\H,5.6014340089,10.5495608255,3.33736507
 65\H,4.7365360692,9.668554366,2.072282416\H,3.836784943,10.4023079874,
 3.399122904\C,2.710517565,5.5841829203,4.8280439006\H,2.9271788585,4.6
 401383673,4.3208381368\H,2.4783112715,5.3504974387,5.8698932235\H,1.82
 46949341,6.0235160584,4.3674868963\\Version=AS64L-G16RevC.01\HF=-310.1
 359746\S2=0.761709\S2-1=0.\S2A=0.750066\RMSD=3.433e-09\RMSF=3.663e-06\
 ZeroPoint=0.1428269\Thermal=0.1507454\ETot=-309.9852292\HTot=-309.9842
 851\GTot=-310.0266864\Dipole=-0.6060799,0.1399981,-0.3226001\DipoleDer
 iv=-0.0614926,0.1282996,-0.0435599,0.1189842,0.1466924,-0.1134361,-0.0
 391963,-0.1092503,-0.0800205,-0.3790486,-0.1753588,0.0158302,-0.000518
 1,-0.146523,-0.0063557,-0.0846059,-0.0678523,-0.1555666,0.1424831,-0.0
 109167,-0.0159124,-0.0011554,0.0174588,0.1041175,-0.021872,0.1024951,0
 .1381389,0.3641482,0.2167584,0.0557774,0.1932073,0.2928713,-0.1457704,
 0.0817047,-0.1256445,-0.0023787,-0.1007266,-0.1617715,0.1313564,-0.148
 7272,-0.429237,0.0776198,0.1285524,0.0818836,-0.1994108,0.2088402,0.00
 00594,0.1143448,0.0133919,0.3362685,-0.2622185,0.1023262,-0.3137242,0.
 1336275,-0.1968974,0.1751041,-0.1185336,0.0302487,-0.2502027,0.0656827
 ,-0.0398931,0.1181503,-0.2430253,0.0436314,-0.0891618,-0.0074844,-0.09
 92529,0.070415,0.0377988,-0.0019204,0.0392704,0.1803149,-0.0415896,0.0
 299241,-0.0987637,0.0299662,0.1055831,0.0554105,-0.0948598,0.0529562,0
 .1225495,0.0510119,0.0835869,-0.0562574,0.0135369,-0.0055794,0.0560679
 ,-0.022648,0.1799723,-0.0461488,-0.0440951,-0.1292605,-0.0251405,-0.06
 38697,-0.0321652,0.0358944,-0.0568718,-0.0212093,0.0813394,0.1218023,-
 0.0037121,-0.0038027,0.006375,-0.0161132,-0.0028757,-0.0111997,0.03199
 72,-0.1163077,-0.0527301,0.0930261,0.0387705,0.0585741,-0.02803,0.0531
 669,0.061784,0.0002637,0.0774994,0.0130492,-0.0645979,0.0105279,-0.143
 0963,-0.0813359,0.0296949,0.0208463,0.0252513,0.0620931,0.0042146,-0.0
 083855,0.044868,-0.0320369,-0.0808295,-0.0702242,0.0116183,-0.0967527,
 0.0749827,0.0143443,-0.079989,0.0130181,-0.0525445,0.073079,0.0262841,
 0.056172,0.0613902,-0.0884437,-0.0869451,-0.0036049,-0.0550388,0.07691
 66,0.0276477,0.0591431,-0.0899369,0.0408031,0.0607568\Polar=130.043998
 2,13.4182202,134.1076245,11.6490156,-26.9781118,97.6294157\Quadrupole=
 -6.8471751,10.6193659,-3.7721908,-4.9563409,-7.8743961,-6.3218225\PG=C
 01 [X(C8H9)]\NImag=0\\0.38356412,0.15901211,0.53077564,0.02257019,-0.1
 9703069,0.19570234,-0.24171680,-0.12328783,-0.00014027,0.56603671,-0.1
 5371048,-0.20909845,0.03279346,0.09990746,0.61618756,0.01691462,0.0436
 5764,-0.06980211,0.10563051,-0.24184051,0.29717789,0.00456364,-0.01864
 240,0.01277745,-0.05302404,0.01645241,-0.01637021,0.05289344,0.0000171
 9,-0.01429559,0.00706311,0.02085653,-0.25504114,0.13264343,-0.01719219
 ,0.26907479,0.00218380,0.00022928,-0.00098539,-0.01897164,0.13110156,-
 0.11494934,0.02106835,-0.14582318,0.11235545,-0.06214079,-0.05619700,0
 .00428094,-0.23802439,0.06993039,-0.10181451,0.00179449,-0.00171136,-0
 .00026019,0.58953730,0.00194126,0.05042605,-0.02085561,-0.00148258,-0.
 11833187,0.02911276,0.02266626,-0.00231039,0.01298542,0.06628228,0.555
 96304,-0.02817122,-0.04170226,0.02562402,-0.06139107,0.05469804,-0.119
 63131,-0.01428625,0.00403133,-0.00161625,0.11540355,-0.19192437,0.3199
 6698,-0.01825787,-0.02750805,0.01060410,0.02366402,0.02840059,-0.01028
 875,-0.00365787,0.00034496,-0.00373900,-0.12243106,0.03436325,-0.04017
 010,0.66567087,-0.02683323,-0.06083750,0.02153769,0.07396958,0.0045808
 9,0.02799657,-0.00004840,0.00255722,0.00200965,-0.02970541,-0.26158305
 ,0.09980516,0.05697125,0.56026662,0.01018461,0.02102281,-0.01316376,-0
 .03535165,0.01193403,-0.01198658,-0.00353990,0.00217998,0.00366305,-0.
 00427340,0.12294405,-0.13586568,0.15869681,-0.21827048,0.31497753,0.03
 025065,0.08611390,-0.04137371,-0.07286736,-0.01755222,-0.01567622,-0.0
 0140422,-0.00028579,-0.00017392,0.04707712,-0.06137456,0.05080813,-0.2
 3518108,-0.06696446,-0.02192584,0.60977067,0.02882366,-0.00190264,0.01
 831212,-0.01958923,-0.00036282,-0.00788558,-0.00005413,0.00009216,-0.0
 0037514,-0.01147125,-0.04129822,0.02036393,-0.12880629,-0.18369795,0.0
 1839947,0.06737572,0.53742567,-0.00985362,0.03860476,-0.01375595,-0.01
 459737,-0.00764080,-0.00306634,-0.00036222,-0.00036571,-0.00023347,0.0
 2316144,0.00222798,0.00922853,0.01195039,0.04070430,-0.08664466,0.1215
 8649,-0.18375762,0.32100856,-0.09650696,-0.02258899,-0.00357977,0.0410
 4427,-0.01854648,0.02332512,-0.00268818,-0.00279851,-0.00161720,-0.019
 35642,0.03097896,-0.02347103,-0.05149772,-0.03824796,-0.00021533,-0.25
 853301,0.06457278,-0.10691328,0.61953273,0.00786879,-0.28204492,0.1317
 8757,-0.05305603,-0.03743058,0.00502027,-0.00436296,0.00063486,0.00140
 844,0.03150764,-0.03159951,0.02807131,0.00768104,0.04937884,-0.0204393
 4,-0.00941644,-0.11514595,0.02481883,0.13654551,0.58297667,-0.02047026
 ,0.12118506,-0.12807388,0.04226647,0.01725012,0.01135793,-0.00070326,0
 .00196872,0.00451182,-0.02363405,0.02736074,-0.02612427,-0.02545971,-0
 .03673288,0.01852799,-0.06640539,0.05141471,-0.11811880,0.10631804,-0.
 20802484,0.27852201,0.00498844,0.00047420,0.00224231,0.00171730,0.0012
 7280,-0.00214252,0.00023120,0.00016850,-0.00003441,-0.00045058,0.00060
 600,-0.00037477,-0.00233332,0.00142086,-0.00405502,-0.01614571,-0.0175
 8874,0.00168879,-0.22967794,-0.13807325,0.00505061,0.24132365,-0.01816
 204,-0.01435583,0.00050584,-0.00038891,-0.00208943,0.00409498,-0.00074
 421,-0.00037310,-0.00004577,0.00091227,-0.00042092,0.00037507,0.001128
 07,0.00190233,0.00292949,0.00647235,0.00696740,0.00165387,-0.14328044,
 -0.15461559,0.01469224,0.15236061,0.16232763,0.01264012,0.00731872,-0.
 00120912,-0.00121834,0.00471059,0.00241119,0.00048308,0.00031132,0.000
 07169,-0.00048303,0.00027263,-0.00069810,-0.00374629,0.00309851,0.0033
 2237,-0.01152092,-0.00750030,0.00583134,0.00766091,0.01658057,-0.04004
 367,-0.00470238,-0.02186995,0.03313080,0.00021898,-0.00057532,0.000793
 35,0.00215421,-0.00061528,-0.00110162,0.00003346,0.00002417,0.00002710
 ,-0.00019168,-0.00165376,-0.00060734,-0.26273851,0.05618182,-0.1124928
 0,-0.01640385,0.00744305,-0.01135248,-0.00177055,-0.00411231,-0.000530
 01,-0.00085342,0.00033227,-0.00048811,0.27794222,-0.00059202,-0.001448
 74,-0.00002265,-0.00052700,-0.00275571,0.00485805,0.00120017,-0.000200
 47,0.00047781,0.02220516,-0.00289993,0.01197389,0.05570484,-0.06890820
 ,0.03770134,-0.01671414,0.00711271,-0.00804157,-0.00428659,-0.00051693
 ,0.00217084,-0.00082580,0.00035849,-0.00049914,-0.05758219,0.06909906,
 0.00080684,-0.00004779,-0.00079101,-0.00119631,0.00482969,0.00312992,-
 0.00062053,0.00005795,-0.00033817,-0.01382210,0.00349691,-0.00295456,-
 0.11199370,0.03795533,-0.09814572,0.00215407,0.00025116,0.00430874,-0.
 00056044,0.00229230,0.00467249,0.00018540,-0.00008302,0.00006304,0.122
 79676,-0.04491122,0.09456675,-0.00268157,0.00007836,-0.00452585,-0.000
 11613,0.00035110,0.00023819,0.00015002,0.00006113,0.00009307,-0.003759
 64,-0.00308310,-0.00040003,0.00654676,-0.02140782,0.01377471,-0.086347
 01,0.00514649,-0.00891644,-0.00152294,0.02317809,-0.01707221,0.0005560
 7,0.00177267,0.00144279,0.00059573,-0.00025052,0.00076611,0.58588034,-
 0.00075330,0.00182373,0.00250297,0.00128975,-0.00067672,0.00008254,0.0
 0008499,-0.00005657,-0.00005255,-0.00328220,0.00263577,0.00002597,-0.0
 0085892,-0.02167378,0.01470667,0.00859906,-0.18456510,0.06929658,0.001
 55314,-0.00716440,0.00844286,-0.00068819,-0.00004523,-0.00233795,0.001
 57607,0.00041688,-0.00106480,0.01712643,0.52078522,-0.00284665,0.00260
 765,0.00492970,-0.00064082,0.00061965,-0.00177757,0.00017986,-0.000203
 97,-0.00031988,-0.00157996,-0.00079341,0.00534634,0.00206373,0.0068465
 2,0.00095995,-0.01092035,0.06496559,-0.11182006,-0.00417921,0.01597301
 ,-0.00399382,0.00201658,-0.00179604,-0.00270749,0.00058388,-0.00177799
 ,-0.00174265,0.00322869,0.02803714,0.52748372,0.00020021,0.00011711,0.
 00041824,-0.00002595,0.00007564,-0.00002934,0.00003616,-0.00003247,-0.
 00002890,0.00017825,0.00003159,-0.00025598,0.00058648,0.00011089,-0.00
 063889,0.00220601,0.00341508,0.00136529,0.00065805,0.00165655,-0.00050
 755,0.00023718,-0.00031709,-0.00009177,0.00021126,0.00016167,0.0000778
 6,-0.21221483,-0.12998176,-0.03850593,0.22578131,-0.00019136,-0.000093
 14,0.00009954,0.00048658,-0.00008005,0.00014770,0.00006556,-0.00001040
 ,0.00000508,-0.00162966,0.00023929,-0.00010620,0.00184069,-0.00410988,
 0.00337144,-0.02159453,-0.01640522,-0.00594718,-0.00136309,0.00143499,
 -0.00097367,0.00083125,0.00018313,0.00009525,0.00005554,-0.00001350,-0
 .00017486,-0.12629895,-0.14833394,-0.02951088,0.14003124,0.16090845,0.
 00015077,-0.00022088,0.00001883,0.00010579,0.00002615,0.00005257,-0.00
 001696,-0.00001025,-0.00003337,0.00064357,0.00068862,0.00007655,-0.001
 31740,0.00296416,-0.00100672,0.01530737,0.01170234,0.00182740,0.001012
 98,0.00000868,0.00043026,-0.00031310,-0.00023872,0.00012235,-0.0000010
 3,0.00000006,-0.00010444,-0.04080598,-0.03239399,-0.05516474,0.0438058
 1,0.02978154,0.05738976,-0.00067490,-0.00048756,0.00075171,0.00102347,
 0.00009497,0.00030627,0.00003361,-0.00001902,-0.00006413,-0.00060848,0
 .00098183,-0.00079472,-0.00010436,-0.00192645,0.00062171,-0.00059232,0
 .00026572,-0.00367780,-0.00066060,0.00162111,-0.00070272,0.00019909,-0
 .00012639,-0.00038753,-0.00009162,-0.00007483,-0.00007743,-0.04444742,
 -0.00262949,-0.00559208,0.00050246,-0.00415639,-0.02490348,0.04383069,
 0.00028769,-0.00124286,-0.00057442,0.00045064,-0.00028018,0.00050978,-
 0.00000769,-0.00000724,-0.00002523,0.00015935,0.00020361,-0.00096404,0
 .00054679,-0.00044127,0.00007242,0.00103693,0.00498257,0.02997533,-0.0
 0026624,-0.00132755,0.00007675,-0.00008412,0.00028992,0.00042373,-0.00
 038271,0.00021950,0.00003563,-0.00252516,-0.05565011,-0.05353451,0.001
 20943,-0.00412545,-0.01844290,0.00094486,0.06095584,-0.00041685,0.0006
 9444,0.00032650,0.00033775,-0.00007120,0.00002044,0.00005969,-0.000038
 68,-0.00011174,-0.00047234,0.00096284,0.00015706,-0.00114428,-0.000497
 57,0.00110998,-0.00092210,-0.00031105,-0.01518495,0.00072548,0.0011148
 3,-0.00018728,0.00018941,-0.00015460,-0.00032795,0.00035792,-0.0001642
 7,-0.00049984,-0.00551890,-0.05564790,-0.30250784,0.00002614,-0.000995
 09,-0.00404765,0.00686630,0.05672062,0.32799903,-0.00028758,-0.0003467
 0,-0.00019344,0.00066719,-0.00014836,0.00033031,-0.00003265,0.00013057
 ,0.00015902,-0.00000672,0.00055583,-0.00114712,0.00013062,-0.00212506,
 0.00056422,-0.00129038,0.00077490,-0.00152569,0.00024119,0.00126102,-0
 .00017173,0.00018368,0.00010575,0.00022567,-0.00002684,0.00034296,0.00
 050672,-0.24281387,0.10772698,0.05629090,-0.01833489,0.01186954,0.0062
 9586,0.00155913,-0.00131842,-0.00014673,0.25996528,0.00034370,0.000097
 18,0.00108776,-0.00001155,-0.00030756,-0.00000493,-0.00004951,0.000003
 32,0.00000950,0.00003252,0.00034485,0.00023384,0.00055909,0.00125448,0
 .00072183,0.02316783,-0.01315649,-0.00633624,-0.00069992,-0.00283486,0
 .00144475,0.00010301,-0.00006622,-0.00026636,-0.00047221,-0.00024120,-
 0.00037931,0.10702553,-0.10724410,-0.03101321,-0.01648860,0.01081550,0
 .00596641,0.00548873,-0.00358492,-0.00167591,-0.11891553,0.11492875,-0
 .00014974,0.00038306,-0.00125450,-0.00017973,-0.00010127,0.00007667,0.
 00000713,0.00002542,0.00001032,0.00007048,-0.00025271,-0.00015785,-0.0
 0051765,-0.00061597,0.00051943,-0.01724682,0.01024159,0.00281191,0.000
 00721,0.00207701,-0.00116111,0.00003033,0.00025761,0.00036525,0.000126
 32,-0.00012263,0.00026412,0.05706122,-0.03188962,-0.05880932,-0.005692
 13,0.00403982,0.00068547,0.02762402,-0.01430333,-0.00672864,-0.0611843
 6,0.03025787,0.06336375,-0.00196163,0.00214126,-0.00378750,-0.02733993
 ,-0.02062959,-0.00030387,0.00111474,-0.00027880,0.00156986,-0.17111355
 ,-0.07209930,0.00346015,0.00226321,-0.00298800,0.00046660,0.00021692,0
 .00068058,-0.00292799,0.00078945,-0.00062890,0.00108483,-0.00001067,-0
 .00002617,0.00014139,0.00036827,0.00206946,0.00031834,0.00048784,0.000
 27196,0.00000400,-0.00000477,0.00018357,-0.00004608,0.00000737,-0.0000
 0409,-0.00002324,-0.00000994,-0.00001562,0.00002805,0.53695602,0.00389
 855,0.00339364,0.00260529,0.00128100,0.00594813,-0.00012128,0.00070742
 ,-0.00021840,-0.00140857,-0.06584366,-0.13454658,0.01156952,-0.0239985
 7,-0.01744811,0.00416131,0.00070716,0.00068560,0.00438588,-0.00137668,
 -0.00225830,0.00011548,0.00006703,-0.00004462,-0.00027778,-0.00028365,
 -0.00018541,-0.00239360,-0.00091235,-0.00014775,-0.00036054,0.00002606
 ,-0.00027645,0.00009431,0.00001776,0.00005792,0.00001880,0.00006082,0.
 00003497,-0.00002475,-0.04203521,0.53678064,-0.00426461,0.00186783,0.0
 0212404,-0.01236058,-0.00821628,0.00439250,0.00092320,-0.00145587,-0.0
 0143120,0.00131925,0.01037687,-0.07590603,0.01246337,0.01198471,0.0040
 4961,-0.00319034,0.00477453,0.00468909,0.00116074,0.00008181,-0.000794
 41,0.00017471,-0.00028339,-0.00032796,0.00192311,-0.00168375,-0.002926
 84,0.00062064,0.00024974,0.00010235,0.00005805,0.00013713,-0.00025037,
 0.00001300,0.00002232,-0.00001913,-0.00000875,-0.00004263,0.00001594,0
 .01690887,-0.01147930,0.56064138,0.00062976,0.00090520,0.00030189,-0.0
 0047787,-0.00042725,0.00066738,0.00003649,0.00025868,-0.00036475,0.005
 26162,-0.02440857,-0.01268467,-0.00157948,-0.00000587,-0.00040463,-0.0
 0081663,-0.00001198,0.00082654,-0.00010195,-0.00092656,0.00030210,-0.0
 0000398,0.00003199,0.00004468,0.00020216,-0.00020390,-0.00012869,-0.00
 018356,0.00001226,-0.00004197,0.00000163,-0.00006502,0.00000940,0.0000
 2140,-0.00000352,0.00002712,0.00003208,-0.00001307,0.00000253,-0.05766
 471,0.04910460,0.02493414,0.06122362,-0.00092891,-0.00065330,0.0009743
 9,0.00160166,0.00116193,0.00106198,0.00004894,-0.00021022,-0.00064537,
 0.00190987,-0.01788711,-0.00737649,-0.00248082,-0.00073407,-0.00044481
 ,0.00009564,0.00022728,0.00123127,-0.00026210,0.00038676,-0.00045975,0
 .00000961,-0.00006594,-0.00014150,0.00008796,-0.00025328,-0.00052666,-
 0.00016575,-0.00005873,-0.00006078,0.00000079,-0.00008139,0.00002353,0
 .00000128,-0.00001550,0.00002320,0.00001180,-0.00001397,0.00000719,0.0
 5007121,-0.24375878,-0.10961495,-0.05037125,0.26508872,0.00016329,0.00
 035009,-0.00014577,-0.00096136,-0.00020638,0.00066620,-0.00012555,-0.0
 0005947,-0.00011232,-0.00081754,0.00425774,0.00159102,0.00079666,0.000
 82108,-0.00050573,-0.00014191,-0.00025625,-0.00064665,0.00014284,-0.00
 023736,0.00016984,-0.00000746,0.00002425,0.00004626,-0.00002781,0.0001
 5824,0.00028750,0.00001249,0.00005597,0.00003554,-0.00000630,0.0000203
 1,0.00000061,0.00000593,-0.00000204,0.00000624,0.00000326,0.00000473,-
 0.00000238,0.02534414,-0.10935504,-0.10301799,-0.02931487,0.11860711,0
 .10820305,0.00065882,0.00020595,-0.00026560,0.00054423,-0.00092015,-0.
 00039369,-0.00028126,0.00043102,-0.00004007,-0.00568055,-0.00559830,0.
 02483040,-0.00236086,-0.00040431,-0.00057406,0.00017779,-0.00079970,-0
 .00043085,-0.00031431,-0.00049214,0.00033559,0.00001914,-0.00001248,-0
 .00005364,0.00008256,0.00000511,0.00023734,-0.00018651,-0.00006738,-0.
 00009987,-0.00001701,-0.00006449,0.00007055,0.00000576,-0.00000805,0.0
 0002501,0.00001891,-0.00000971,0.00000287,-0.05868537,-0.01059121,0.05
 214134,-0.00203646,-0.00149908,0.00685546,0.06099537,-0.00004770,-0.00
 077391,-0.00034798,0.00174065,0.00068305,0.00003044,-0.00011844,0.0004
 3958,0.00021436,-0.00524827,-0.00717422,0.02064227,-0.00287208,-0.0012
 0289,-0.00033415,0.00051693,-0.00109414,-0.00063434,-0.00014929,0.0001
 9158,-0.00004843,-0.00007376,0.00006415,0.00008860,-0.00029913,0.00031
 432,0.00041954,-0.00019526,-0.00007117,-0.00001570,-0.00001649,-0.0000
 7231,0.00006569,0.00000204,-0.00002719,0.00002040,0.00001149,-0.000004
 94,0.00000906,-0.01041708,-0.05419905,0.05385320,0.00519716,0.00684822
 ,-0.02720504,0.01574006,0.05926852,0.00062486,0.00103810,0.00017103,-0
 .00149008,-0.00037457,0.00075986,0.00033670,-0.00017229,-0.00033807,-0
 .00004235,0.00059080,0.00145194,0.00087603,0.00001764,0.00001263,-0.00
 058418,-0.00009680,-0.00011479,0.00017976,-0.00060540,0.00037570,0.000
 06519,-0.00005617,-0.00008243,0.00009190,-0.00013128,-0.00000374,0.000
 04570,0.00000796,-0.00000962,0.00000432,0.00002579,-0.00000552,0.00000
 427,0.00001108,-0.00000072,-0.00000009,0.00000103,-0.00000372,0.052423
 81,0.05430455,-0.29464109,0.00230555,0.00303395,-0.01377366,-0.0575918
 8,-0.05896575,0.31698956,-0.00084652,0.00058576,-0.00087405,-0.0032589
 1,-0.00393553,0.00070833,0.00020096,0.00002538,0.00019300,-0.02008494,
 0.01129291,-0.01074792,0.00128015,0.00200256,-0.00083712,-0.00011759,-
 0.00017666,-0.00002119,0.00036489,-0.00025117,0.00029924,0.00001987,-0
 .00005825,0.00005336,0.00026762,-0.00063236,0.00054977,0.00005672,0.00
 002058,0.00003920,-0.00000156,-0.00000050,0.00000192,-0.00000327,-0.00
 003569,0.00002963,0.00000477,-0.00004469,0.00001026,-0.22541326,0.0891
 7093,-0.09281614,-0.00454412,0.00186916,-0.00192128,0.00705975,-0.0037
 7083,0.00275048,0.24501544,-0.00097391,0.00023066,-0.00043839,-0.00324
 073,-0.00210704,0.00063616,-0.00000585,-0.00007842,-0.00006529,-0.0178
 5065,0.00823921,-0.00971699,-0.00101584,0.00069631,-0.00065606,-0.0001
 8339,0.00013514,-0.00017535,0.00021591,-0.00006515,0.00011730,0.000019
 99,-0.00001614,-0.00000695,0.00027569,-0.00009757,0.00024274,0.0000991
 1,0.00002598,0.00001747,0.00000036,0.00002037,-0.00001472,0.00000184,-
 0.00000707,0.00000114,0.00000241,-0.00002477,0.00001164,0.09370472,-0.
 09381745,0.04942801,0.02092709,-0.00998062,0.01302208,0.00408485,-0.00
 318960,0.00137138,-0.09606162,0.10003617,-0.00006616,0.00004216,0.0002
 8504,0.00015870,0.00048772,0.00116809,0.00018942,-0.00015185,-0.000143
 12,0.00232024,-0.00145124,-0.00048838,0.00092577,0.00037559,0.00017633
 ,0.00022565,-0.00024269,-0.00011990,0.00000319,0.00007230,-0.00007080,
 -0.00001368,-0.00000569,0.00003244,-0.00009913,0.00001425,0.00021443,-
 0.00004420,-0.00002160,-0.00000462,0.00000108,-0.00001571,0.00000902,0
 .00000669,-0.00000121,-0.00000349,0.00000194,-0.00000915,0.00000464,-0
 .09466138,0.04816574,-0.09669987,0.01351827,-0.00569232,0.00719824,-0.
 02504891,0.01220784,-0.01078736,0.10258250,-0.05377416,0.09922931\\0.0
 0000226,0.00000219,-0.00000316,0.00000280,0.00000208,0.00000069,0.0000
 0436,0.00000308,0.00000210,0.00000132,0.00000060,0.00000284,-0.0000006
 7,-0.00000066,0.00000093,-0.00000118,-0.00000045,-0.00000305,0.0000003
 8,0.00000099,-0.00000513,0.00000002,0.00000118,-0.00000822,-0.00000182
 ,-0.00000177,0.00000257,-0.00000333,-0.00000188,-0.00000495,-0.0000031
 1,-0.00000128,-0.00000799,-0.00000568,-0.00000375,-0.00000453,-0.00000
 293,-0.00000173,-0.00000378,0.00000180,0.00000039,0.00000710,0.0000009
 6,-0.00000042,0.00000824,0.00000421,0.00000212,0.00000802,0.00000062,-
 0.00000069,0.00000832\\\@
 The archive entry for this job was punched.


 IN THE WOODS WE RETURN TO REASON AND FAITH.

                                 -- EMERSON
 Job cpu time:       0 days  1 hours  4 minutes 47.5 seconds.
 Elapsed time:       0 days  0 hours  2 minutes  6.9 seconds.
 File lengths (MBytes):  RWF=    195 Int=      0 D2E=      0 Chk=     15 Scr=      1
 Normal termination of Gaussian 16 at Mon May 12 14:02:14 2025.
