/home/tahminaafroz
cn013.cluster.local
tahminaafroz
Fri May 30 05:03:03 CDT 2025
 Entering Gaussian System, Link 0=g16
 Initial command:
 /home/apps/g16/l1.exe "/tmp/3-5-diF-ph-anion-opt-freq-thf/Gau-1696695.inp" -scrdir="/tmp/3-5-diF-ph-anion-opt-freq-thf/"
 Entering Link 1 = /home/apps/g16/l1.exe PID=   1696696.
  
 Copyright (c) 1988-2019, Gaussian, Inc.  All Rights Reserved.
  
 This is part of the Gaussian(R) 16 program.  It is based on
 the Gaussian(R) 09 system (copyright 2009, Gaussian, Inc.),
 the Gaussian(R) 03 system (copyright 2003, Gaussian, Inc.),
 the Gaussian(R) 98 system (copyright 1998, Gaussian, Inc.),
 the Gaussian(R) 94 system (copyright 1995, Gaussian, Inc.),
 the Gaussian 92(TM) system (copyright 1992, Gaussian, Inc.),
 the Gaussian 90(TM) system (copyright 1990, Gaussian, Inc.),
 the Gaussian 88(TM) system (copyright 1988, Gaussian, Inc.),
 the Gaussian 86(TM) system (copyright 1986, Carnegie Mellon
 University), and the Gaussian 82(TM) system (copyright 1983,
 Carnegie Mellon University). Gaussian is a federally registered
 trademark of Gaussian, Inc.
  
 This software contains proprietary and confidential information,
 including trade secrets, belonging to Gaussian, Inc.
  
 This software is provided under written license and may be
 used, copied, transmitted, or stored only in accord with that
 written license.
  
 The following legend is applicable only to US Government
 contracts under FAR:
  
                    RESTRICTED RIGHTS LEGEND
  
 Use, reproduction and disclosure by the US Government is
 subject to restrictions as set forth in subparagraphs (a)
 and (c) of the Commercial Computer Software - Restricted
 Rights clause in FAR 52.227-19.
  
 Gaussian, Inc.
 340 Quinnipiac St., Bldg. 40, Wallingford CT 06492
  
  
 ---------------------------------------------------------------
 Warning -- This program may not be used in any manner that
 competes with the business of Gaussian, Inc. or will provide
 assistance to any competitor of Gaussian, Inc.  The licensee
 of this program is prohibited from giving any competitor of
 Gaussian, Inc. access to this program.  By using this program,
 the user acknowledges that Gaussian, Inc. is engaged in the
 business of creating and licensing software in the field of
 computational chemistry and represents and warrants to the
 licensee that it is not a competitor of Gaussian, Inc. and that
 it will not use this program in any manner prohibited above.
 ---------------------------------------------------------------
  

 Cite this work as:
 Gaussian 16, Revision C.01,
 M. J. Frisch, G. W. Trucks, H. B. Schlegel, G. E. Scuseria, 
 M. A. Robb, J. R. Cheeseman, G. Scalmani, V. Barone, 
 G. A. Petersson, H. Nakatsuji, X. Li, M. Caricato, A. V. Marenich, 
 J. Bloino, B. G. Janesko, R. Gomperts, B. Mennucci, H. P. Hratchian, 
 J. V. Ortiz, A. F. Izmaylov, J. L. Sonnenberg, D. Williams-Young, 
 F. Ding, F. Lipparini, F. Egidi, J. Goings, B. Peng, A. Petrone, 
 T. Henderson, D. Ranasinghe, V. G. Zakrzewski, J. Gao, N. Rega, 
 G. Zheng, W. Liang, M. Hada, M. Ehara, K. Toyota, R. Fukuda, 
 J. Hasegawa, M. Ishida, T. Nakajima, Y. Honda, O. Kitao, H. Nakai, 
 T. Vreven, K. Throssell, J. A. Montgomery, Jr., J. E. Peralta, 
 F. Ogliaro, M. J. Bearpark, J. J. Heyd, E. N. Brothers, K. N. Kudin, 
 V. N. Staroverov, T. A. Keith, R. Kobayashi, J. Normand, 
 K. Raghavachari, A. P. Rendell, J. C. Burant, S. S. Iyengar, 
 J. Tomasi, M. Cossi, J. M. Millam, M. Klene, C. Adamo, R. Cammi, 
 J. W. Ochterski, R. L. Martin, K. Morokuma, O. Farkas, 
 J. B. Foresman, and D. J. Fox, Gaussian, Inc., Wallingford CT, 2019.
 
 ******************************************
 Gaussian 16:  AS64L-G16RevC.01  3-Jul-2019
                30-May-2025 
 ******************************************
 %mem=20GB
 %nprocshared=32
 Will use up to   32 processors via shared memory.
 %chk=3-5-diF-ph-anion-opt-freq-thf.chk
 ----------------------------------------------------------------------
 # opt=(calcfc,tight) freq 6-311+g(d,p) scrf=(smd,solvent=thf) nosymm s
 cf=(qc,fermi,xqc) geom=connectivity int=ultrafine m062x
 ----------------------------------------------------------------------
 1/7=10,10=4,18=20,19=15,26=6,38=1,57=2/1,3;
 2/9=110,12=2,15=1,17=6,18=5,40=1/2;
 3/5=4,6=6,7=111,11=2,25=1,30=1,70=32201,71=2,72=20,74=-55,75=-5,140=1/1,2,3;
 4//1;
 5/5=2,22=13,38=5,53=20/2;
 8/6=4,10=90,11=11/1;
 11/6=1,8=1,9=11,15=111,16=1,31=1/1,2,10;
 10/6=1,13=1,31=1/2;
 6/7=2,8=2,9=2,10=2,28=1/1;
 7/10=1,25=1,30=1/1,2,3,16;
 1/7=10,10=4,18=20,19=15,26=6/3(2);
 2/9=110,15=1/2;
 99//99;
 2/9=110,15=1/2;
 3/5=4,6=6,7=111,11=2,25=1,30=1,70=32205,71=1,72=20,74=-55,75=-5/1,2,3;
 4/5=5,16=3,69=1/1;
 5/5=2,22=13,38=5,53=20/2;
 7/30=1/1,2,3,16;
 1/7=10,18=20,19=15,26=6/3(-5);
 2/9=110,15=1/2;
 6/7=2,8=2,9=2,10=2,19=2,28=1/1;
 99/9=1/99;
 -----------------------------
 3-5-diF-ph-anion-opt-freq-thf
 -----------------------------
 Symbolic Z-matrix:
 Charge = -1 Multiplicity = 1
 C                     6.15621   7.02193   5.16061 
 C                     5.11329   6.14613   5.32913 
 H                     5.18323   5.21158   5.87248 
 C                     3.92044   6.54673   4.73966 
 C                     3.78027   7.73096   4.0353 
 C                     4.89941   8.5395    3.92779 
 C                     6.13027   8.21679   4.48615 
 H                     6.98293   8.87672   4.38081 
 H                     2.83587   8.01211   3.58768 
 F                     2.84384   5.74913   4.85569 
 F                     4.78223   9.69388   3.24768 
 

 GradGradGradGradGradGradGradGradGradGradGradGradGradGradGradGradGradGrad
 Berny optimization.
 Initialization pass.
                           ----------------------------
                           !    Initial Parameters    !
                           ! (Angstroms and Degrees)  !
 --------------------------                            --------------------------
 ! Name  Definition              Value          Derivative Info.                !
 --------------------------------------------------------------------------------
 ! R1    R(1,2)                  1.3723         calculate D2E/DX2 analytically  !
 ! R2    R(1,7)                  1.3723         calculate D2E/DX2 analytically  !
 ! R3    R(2,3)                  1.0833         calculate D2E/DX2 analytically  !
 ! R4    R(2,4)                  1.3895         calculate D2E/DX2 analytically  !
 ! R5    R(4,5)                  1.385          calculate D2E/DX2 analytically  !
 ! R6    R(4,10)                 1.3449         calculate D2E/DX2 analytically  !
 ! R7    R(5,6)                  1.3848         calculate D2E/DX2 analytically  !
 ! R8    R(5,9)                  1.0823         calculate D2E/DX2 analytically  !
 ! R9    R(6,7)                  1.3896         calculate D2E/DX2 analytically  !
 ! R10   R(6,11)                 1.3449         calculate D2E/DX2 analytically  !
 ! R11   R(7,8)                  1.0833         calculate D2E/DX2 analytically  !
 ! A1    A(2,1,7)              126.9901         calculate D2E/DX2 analytically  !
 ! A2    A(1,2,3)              124.2718         calculate D2E/DX2 analytically  !
 ! A3    A(1,2,4)              114.6025         calculate D2E/DX2 analytically  !
 ! A4    A(3,2,4)              121.1256         calculate D2E/DX2 analytically  !
 ! A5    A(2,4,5)              123.3077         calculate D2E/DX2 analytically  !
 ! A6    A(2,4,10)             118.6604         calculate D2E/DX2 analytically  !
 ! A7    A(5,4,10)             118.032          calculate D2E/DX2 analytically  !
 ! A8    A(4,5,6)              117.1885         calculate D2E/DX2 analytically  !
 ! A9    A(4,5,9)              121.3843         calculate D2E/DX2 analytically  !
 ! A10   A(6,5,9)              121.4273         calculate D2E/DX2 analytically  !
 ! A11   A(5,6,7)              123.3017         calculate D2E/DX2 analytically  !
 ! A12   A(5,6,11)             118.0325         calculate D2E/DX2 analytically  !
 ! A13   A(7,6,11)             118.6658         calculate D2E/DX2 analytically  !
 ! A14   A(1,7,6)              114.6096         calculate D2E/DX2 analytically  !
 ! A15   A(1,7,8)              124.2842         calculate D2E/DX2 analytically  !
 ! A16   A(6,7,8)              121.1062         calculate D2E/DX2 analytically  !
 ! D1    D(7,1,2,3)           -179.9685         calculate D2E/DX2 analytically  !
 ! D2    D(7,1,2,4)              0.0003         calculate D2E/DX2 analytically  !
 ! D3    D(2,1,7,6)             -0.0257         calculate D2E/DX2 analytically  !
 ! D4    D(2,1,7,8)            179.9378         calculate D2E/DX2 analytically  !
 ! D5    D(1,2,4,5)              0.0317         calculate D2E/DX2 analytically  !
 ! D6    D(1,2,4,10)          -179.94           calculate D2E/DX2 analytically  !
 ! D7    D(3,2,4,5)           -179.9984         calculate D2E/DX2 analytically  !
 ! D8    D(3,2,4,10)             0.0299         calculate D2E/DX2 analytically  !
 ! D9    D(2,4,5,6)             -0.035          calculate D2E/DX2 analytically  !
 ! D10   D(2,4,5,9)            179.9456         calculate D2E/DX2 analytically  !
 ! D11   D(10,4,5,6)           179.9368         calculate D2E/DX2 analytically  !
 ! D12   D(10,4,5,9)            -0.0825         calculate D2E/DX2 analytically  !
 ! D13   D(4,5,6,7)              0.0063         calculate D2E/DX2 analytically  !
 ! D14   D(4,5,6,11)          -179.9789         calculate D2E/DX2 analytically  !
 ! D15   D(9,5,6,7)           -179.9743         calculate D2E/DX2 analytically  !
 ! D16   D(9,5,6,11)             0.0405         calculate D2E/DX2 analytically  !
 ! D17   D(5,6,7,1)              0.0217         calculate D2E/DX2 analytically  !
 ! D18   D(5,6,7,8)           -179.943          calculate D2E/DX2 analytically  !
 ! D19   D(11,6,7,1)          -179.9931         calculate D2E/DX2 analytically  !
 ! D20   D(11,6,7,8)             0.0421         calculate D2E/DX2 analytically  !
 --------------------------------------------------------------------------------
 Trust Radius=3.00D-01 FncErr=5.00D-06 GrdErr=5.00D-06 EigMax=2.50D+02 EigMin=1.00D-04
 Number of steps in this run=     57 maximum allowed number of steps=    100.
 GradGradGradGradGradGradGradGradGradGradGradGradGradGradGradGradGradGrad

                          Input orientation:                          
 ---------------------------------------------------------------------
 Center     Atomic      Atomic             Coordinates (Angstroms)
 Number     Number       Type             X           Y           Z
 ---------------------------------------------------------------------
      1          6           0        6.156212    7.021933    5.160611
      2          6           0        5.113286    6.146127    5.329135
      3          1           0        5.183225    5.211577    5.872481
      4          6           0        3.920443    6.546729    4.739656
      5          6           0        3.780274    7.730963    4.035301
      6          6           0        4.899412    8.539499    3.927788
      7          6           0        6.130273    8.216789    4.486147
      8          1           0        6.982931    8.876719    4.380811
      9          1           0        2.835870    8.012106    3.587675
     10          9           0        2.843840    5.749125    4.855690
     11          9           0        4.782226    9.693884    3.247683
 ---------------------------------------------------------------------
                    Distance matrix (angstroms):
                    1          2          3          4          5
     1  C    0.000000
     2  C    1.372272   0.000000
     3  H    2.175052   1.083282   0.000000
     4  C    2.324153   1.389547   2.158829   0.000000
     5  C    2.722890   2.441850   3.419182   1.384981   0.000000
     6  C    2.324307   2.781680   3.864899   2.364031   1.384832
     7  C    1.372318   2.456121   3.442400   2.781495   2.441677
     8  H    2.175266   3.442532   4.347101   3.864771   3.418939
     9  H    3.805160   3.420699   4.309684   2.156546   1.082270
    10  F    3.561576   2.352051   2.606826   1.344883   2.340433
    11  F    3.561805   4.126575   5.209745   3.587929   2.340365
                    6          7          8          9         10
     6  C    0.000000
     7  C    1.389577   0.000000
     8  H    2.158703   1.083342   0.000000
     9  H    2.156856   3.420853   4.309842   0.000000
    10  F    3.587836   4.126326   5.209552   2.594033   0.000000
    11  F    1.344946   2.352198   2.606691   2.594662   4.680187
                   11
    11  F    0.000000
 Symmetry turned off by external request.
 Stoichiometry    C6H3F2(1-)
 Framework group  C1[X(C6H3F2)]
 Deg. of freedom    27
 Full point group                 C1      NOp   1
 Rotational constants (GHZ):           4.0875087           1.7589316           1.2297481
 Standard basis: 6-311+G(d,p) (5D, 7F)
   194 basis functions,   312 primitive gaussians,   202 cartesian basis functions
    29 alpha electrons       29 beta electrons
       nuclear repulsion energy       332.5526488833 Hartrees.
 NAtoms=   11 NActive=   11 NUniq=   11 SFac= 1.00D+00 NAtFMM=   60 NAOKFM=F Big=F
 Integral buffers will be    131072 words long.
 Raffenetti 2 integral format.
 Two-electron integral symmetry is turned off.
 Force inversion solution in PCM.
 ------------------------------------------------------------------------------
 Polarizable Continuum Model (PCM)
 =================================
 Model                : PCM.
 Atomic radii         : SMD-Coulomb.
 Polarization charges : Total charges.
 Charge compensation  : None.
 Solution method      : Matrix inversion.
 Cavity type          : VdW (van der Waals Surface) (Alpha=1.000).
 Cavity algorithm     : GePol (No added spheres)
                        Default sphere list used, NSphG=   11.
                        Lebedev-Laikov grids with approx.  5.0 points / Ang**2.
                        Smoothing algorithm: York/Karplus (Gamma=1.0000).
                        Polarization charges: spherical gaussians, with
                                              point-specific exponents (IZeta= 3).
                        Self-potential: point-specific (ISelfS= 7).
                        Self-field    : sphere-specific E.n sum rule (ISelfD= 2).
 1st derivatives      : Analytical E(r).r(x)/FMM algorithm (CHGder, D1EAlg=3).
                        Cavity 1st derivative terms included.
 2nd derivatives      : Analytical E(r).r(xy)/FMM algorithm (CHGder, D2EAlg=3).
                        Cavity 2nd derivative terms included.
 Solvent              : TetraHydroFuran, Eps=   7.425700 Eps(inf)=   1.974025
 ------------------------------------------------------------------------------
 Spheres list:
 ISph  on   Nord     Re0    Alpha      Xe            Ye            Ze
    1   C      1    1.8500  1.000      6.156212      7.021933      5.160611
    2   C      2    1.8500  1.000      5.113286      6.146127      5.329135
    3   H      3    1.2000  1.000      5.183225      5.211577      5.872481
    4   C      4    1.8500  1.000      3.920443      6.546729      4.739656
    5   C      5    1.8500  1.000      3.780274      7.730963      4.035301
    6   C      6    1.8500  1.000      4.899412      8.539499      3.927788
    7   C      7    1.8500  1.000      6.130273      8.216789      4.486147
    8   H      8    1.2000  1.000      6.982931      8.876719      4.380811
    9   H      9    1.2000  1.000      2.835870      8.012106      3.587675
   10   F     10    1.7300  1.000      2.843840      5.749125      4.855690
   11   F     11    1.7300  1.000      4.782226      9.693884      3.247683
 ------------------------------------------------------------------------------
 ------------------------------------------------------------------------------
 Atomic radii for non-electrostatic terms: SMD-CDS.
 ------------------------------------------------------------------------------
 Nuclear repulsion after PCM non-electrostatic terms =      332.5518091401 Hartrees.
 One-electron integrals computed using PRISM.
 NBasis=   194 RedAO= T EigKep=  4.73D-06  NBF=   194
 NBsUse=   194 1.00D-06 EigRej= -1.00D+00 NBFU=   194
 ExpMin= 4.38D-02 ExpMax= 1.14D+04 ExpMxC= 1.72D+03 IAcc=3 IRadAn=         5 AccDes= 0.00D+00
 Harris functional with IExCor= 1009 and IRadAn=       5 diagonalized for initial guess.
 HarFok:  IExCor= 1009 AccDes= 0.00D+00 IRadAn=         5 IDoV= 1 UseB2=F ITyADJ=14
 ICtDFT=  3500011 ScaDFX=  1.000000  1.000000  1.000000  1.000000
 FoFCou: FMM=F IPFlag=           0 FMFlag=      100000 FMFlg1=           0
         NFxFlg=           0 DoJE=T BraDBF=F KetDBF=T FulRan=T
         wScrn=  0.000000 ICntrl=       500 IOpCl=  0 I1Cent=   200000004 NGrid=           0
         NMat0=    1 NMatS0=      1 NMatT0=    0 NMatD0=    1 NMtDS0=    0 NMtDT0=    0
 Symmetry not used in FoFCou.
 Keep R1 ints in memory in canonical form, NReq=211891338.
 Requested convergence on RMS density matrix=1.00D-08 within 128 cycles.
 Requested convergence on MAX density matrix=1.00D-06.
 Requested convergence on             energy=1.00D-06.
 Level shift goal  0.100 maximum shift  0.100.
 No special actions if energy rises.
 Dynamic level shift is on during FON iterations.
 Inv3:  Mode=1 IEnd=     3232332.
 Iteration    1 A*A^-1 deviation from unit magnitude is 4.44D-15 for   1027.
 Iteration    1 A*A^-1 deviation from orthogonality  is 2.36D-15 for   1028    810.
 Iteration    1 A^-1*A deviation from unit magnitude is 4.00D-15 for   1027.
 Iteration    1 A^-1*A deviation from orthogonality  is 4.46D-15 for    549    527.
 Error on total polarization charges =  0.04835
 SCF Done:  E(RM062X) =  -430.124277567     A.U. after   15 cycles
            NFock= 15  Conv=0.61D-08     -V/T= 2.0026
 SMD-CDS (non-electrostatic) energy       (kcal/mol) =      -0.53
 (included in total energy above)
 DoSCS=F DFT=T ScalE2(SS,OS)=  1.000000  1.000000
 Range of M.O.s used for correlation:     1   194
 NBasis=   194 NAE=    29 NBE=    29 NFC=     0 NFV=     0
 NROrb=    194 NOA=    29 NOB=    29 NVA=   165 NVB=   165

 **** Warning!!: The largest alpha MO coefficient is  0.14901963D+03

 Symmetrizing basis deriv contribution to polar:
 IMax=3 JMax=2 DiffMx= 0.00D+00
 G2DrvN: will do    12 centers at a time, making    1 passes.
 Calling FoFCou, ICntrl=  3107 FMM=F I1Cent=   0 AccDes= 0.00D+00.
 NEqPCM:  Using equilibrium solvation (IEInf=0, Eps=   7.4257, EpsInf=   1.9740)
 G2PCM: DoFxE=T DoFxN=T DoGrad=T DoDP/DQ/DG/TGxP=FFFF NFrqRd=   0 IEInf=0 SqF1=F DoCFld=F IF1Alg=4.
 End of G2Drv F.D. properties file   721 does not exist.
 End of G2Drv F.D. properties file   722 does not exist.
 End of G2Drv F.D. properties file   788 does not exist.
          IDoAtm=11111111111
 NEqPCM:  Using equilibrium solvation (IEInf=0, Eps=   7.4257, EpsInf=   1.9740)
          Differentiating once with respect to nuclear coordinates.
 Keep R1 ints in memory in canonical form, NReq=211790226.
          There are    36 degrees of freedom in the 1st order CPHF.  IDoFFX=6 NUNeed=     0.
     30 vectors produced by pass  0 Test12= 1.33D-14 2.78D-09 XBig12= 1.18D-01 8.99D-02.
 AX will form    30 AO Fock derivatives at one time.
     30 vectors produced by pass  1 Test12= 1.33D-14 2.78D-09 XBig12= 1.19D-02 3.50D-02.
     30 vectors produced by pass  2 Test12= 1.33D-14 2.78D-09 XBig12= 4.42D-04 6.76D-03.
     30 vectors produced by pass  3 Test12= 1.33D-14 2.78D-09 XBig12= 4.75D-06 4.93D-04.
     30 vectors produced by pass  4 Test12= 1.33D-14 2.78D-09 XBig12= 4.74D-08 3.66D-05.
     30 vectors produced by pass  5 Test12= 1.33D-14 2.78D-09 XBig12= 4.04D-10 2.68D-06.
     30 vectors produced by pass  6 Test12= 1.33D-14 2.78D-09 XBig12= 2.00D-12 2.42D-07.
     15 vectors produced by pass  7 Test12= 1.33D-14 2.78D-09 XBig12= 8.09D-15 1.32D-08.
 InvSVY:  IOpt=1 It=  1 EMax= 1.89D-15
 Solved reduced A of dimension   225 with    30 vectors.
 End of Minotr F.D. properties file   721 does not exist.
 End of Minotr F.D. properties file   722 does not exist.
 End of Minotr F.D. properties file   788 does not exist.

 **********************************************************************

            Population analysis using the SCF Density.

 **********************************************************************

 Alpha  occ. eigenvalues --  -25.22880 -25.22879 -10.59655 -10.59655 -10.51436
 Alpha  occ. eigenvalues --  -10.49501 -10.49501 -10.44894  -1.35168  -1.35128
 Alpha  occ. eigenvalues --   -0.93139  -0.81277  -0.80290  -0.68228  -0.67067
 Alpha  occ. eigenvalues --   -0.59191  -0.57695  -0.55088  -0.54379  -0.54174
 Alpha  occ. eigenvalues --   -0.52320  -0.49791  -0.42981  -0.42685  -0.40952
 Alpha  occ. eigenvalues --   -0.39200  -0.26664  -0.26659  -0.18001
 Alpha virt. eigenvalues --    0.04020   0.05163   0.05869   0.05900   0.06497
 Alpha virt. eigenvalues --    0.07122   0.07441   0.08670   0.10572   0.11435
 Alpha virt. eigenvalues --    0.11875   0.12677   0.13087   0.15843   0.16406
 Alpha virt. eigenvalues --    0.16686   0.16742   0.17097   0.17411   0.18085
 Alpha virt. eigenvalues --    0.20422   0.21089   0.21556   0.22828   0.24710
 Alpha virt. eigenvalues --    0.26336   0.26642   0.26864   0.27148   0.27575
 Alpha virt. eigenvalues --    0.28237   0.30293   0.32315   0.35678   0.36823
 Alpha virt. eigenvalues --    0.37415   0.38279   0.40315   0.40545   0.44192
 Alpha virt. eigenvalues --    0.45178   0.47519   0.50618   0.51902   0.52986
 Alpha virt. eigenvalues --    0.57437   0.57945   0.62121   0.62154   0.63472
 Alpha virt. eigenvalues --    0.63482   0.65182   0.68293   0.68399   0.68988
 Alpha virt. eigenvalues --    0.73675   0.74501   0.74838   0.75587   0.80881
 Alpha virt. eigenvalues --    0.82095   0.83399   0.87014   0.88273   0.91741
 Alpha virt. eigenvalues --    0.93997   0.96674   0.97378   0.98759   1.01475
 Alpha virt. eigenvalues --    1.04552   1.07808   1.09215   1.14391   1.17823
 Alpha virt. eigenvalues --    1.18875   1.25115   1.30416   1.35266   1.40458
 Alpha virt. eigenvalues --    1.49389   1.49444   1.51579   1.53074   1.54454
 Alpha virt. eigenvalues --    1.59788   1.60737   1.61258   1.63062   1.63280
 Alpha virt. eigenvalues --    1.66983   1.68691   1.70209   1.73230   1.75142
 Alpha virt. eigenvalues --    1.89250   1.94273   1.95720   1.97628   1.97762
 Alpha virt. eigenvalues --    1.99552   2.03528   2.04744   2.05215   2.07874
 Alpha virt. eigenvalues --    2.09683   2.11432   2.13425   2.14324   2.24410
 Alpha virt. eigenvalues --    2.36322   2.38518   2.41170   2.51316   2.53803
 Alpha virt. eigenvalues --    2.63974   2.69118   2.73325   2.76097   2.77148
 Alpha virt. eigenvalues --    2.78262   2.79250   2.83887   2.86460   2.88091
 Alpha virt. eigenvalues --    2.98524   2.98526   3.11694   3.18101   3.25269
 Alpha virt. eigenvalues --    3.25654   3.29820   3.44118   3.50330   3.69016
 Alpha virt. eigenvalues --    3.72705   3.75864   3.87401   3.90657   3.90708
 Alpha virt. eigenvalues --    3.95831   3.97411   4.10608   4.10851   4.18163
 Alpha virt. eigenvalues --    4.22307   4.25535   4.25860   4.85114   4.95593
 Alpha virt. eigenvalues --    4.97435   6.47522   6.49287   6.60725   6.60843
 Alpha virt. eigenvalues --    6.87022   6.94241  23.61632  24.01624  24.04898
 Alpha virt. eigenvalues --   24.21920  24.22859  24.34758  66.95102  66.97047
          Condensed to atoms (all electrons):
               1          2          3          4          5          6
     1  C    7.911261  -0.811541  -0.057291   0.875309  -0.997967   0.876743
     2  C   -0.811541   7.776368   0.490939  -0.964223  -0.421487  -1.087642
     3  H   -0.057291   0.490939   0.517851  -0.125859  -0.009557  -0.009414
     4  C    0.875309  -0.964223  -0.125859   7.397079  -0.917003   0.789543
     5  C   -0.997967  -0.421487  -0.009557  -0.917003   9.502115  -0.916852
     6  C    0.876743  -1.087642  -0.009414   0.789543  -0.916852   7.400890
     7  C   -0.806750   1.124825   0.021498  -1.085945  -0.421945  -0.966241
     8  H   -0.056579   0.021627   0.000389  -0.009315  -0.009707  -0.126256
     9  H    0.019127  -0.045510  -0.000064   0.022226   0.395407   0.022307
    10  F   -0.059205  -0.146492   0.005371   0.316954  -0.195257  -0.037399
    11  F   -0.058965   0.021497   0.000267  -0.037462  -0.195578   0.316641
               7          8          9         10         11
     1  C   -0.806750  -0.056579   0.019127  -0.059205  -0.058965
     2  C    1.124825   0.021627  -0.045510  -0.146492   0.021497
     3  H    0.021498   0.000389  -0.000064   0.005371   0.000267
     4  C   -1.085945  -0.009315   0.022226   0.316954  -0.037462
     5  C   -0.421945  -0.009707   0.395407  -0.195257  -0.195578
     6  C   -0.966241  -0.126256   0.022307  -0.037399   0.316641
     7  C    7.773584   0.490556  -0.045500   0.021469  -0.146000
     8  H    0.490556   0.517969  -0.000064   0.000267   0.005357
     9  H   -0.045500  -0.000064   0.447536  -0.004454  -0.004460
    10  F    0.021469   0.000267  -0.004454   9.317374  -0.000062
    11  F   -0.146000   0.005357  -0.004460  -0.000062   9.317426
 Mulliken charges:
               1
     1  C   -0.834142
     2  C    0.041638
     3  H    0.165870
     4  C   -0.261304
     5  C    0.187831
     6  C   -0.262319
     7  C    0.040449
     8  H    0.165755
     9  H    0.193450
    10  F   -0.218566
    11  F   -0.218661
 Sum of Mulliken charges =  -1.00000
 Mulliken charges with hydrogens summed into heavy atoms:
               1
     1  C   -0.834142
     2  C    0.207508
     4  C   -0.261304
     5  C    0.381281
     6  C   -0.262319
     7  C    0.206204
    10  F   -0.218566
    11  F   -0.218661
 APT charges:
               1
     1  C   -1.893586
     2  C   -0.045454
     3  H    0.121969
     4  C   -0.443618
     5  C   -0.281454
     6  C   -0.596841
     7  C    0.810936
     8  H    1.813766
     9  H   -0.194144
    10  F   -0.133366
    11  F   -0.158208
 Sum of APT charges =  -1.00000
 APT charges with hydrogens summed into heavy atoms:
               1
     1  C   -1.893586
     2  C    0.076515
     4  C   -0.443618
     5  C   -0.475598
     6  C   -0.596841
     7  C    2.624702
    10  F   -0.133366
    11  F   -0.158208
 Electronic spatial extent (au):  <R**2>=          21008.0291
 Charge=             -1.0000 electrons
 Dipole moment (field-independent basis, Debye):
    X=            -28.2521    Y=            -34.1210    Z=            -24.1648  Tot=             50.4615
 Quadrupole moment (field-independent basis, Debye-Ang):
   XX=           -224.1359   YY=           -297.6522   ZZ=           -174.1956
   XY=           -200.8309   XZ=           -144.3500   YZ=           -169.0313
 Traceless Quadrupole moment (field-independent basis, Debye-Ang):
   XX=              7.8587   YY=            -65.6576   ZZ=             57.7989
   XY=           -200.8309   XZ=           -144.3500   YZ=           -169.0313
 Octapole moment (field-independent basis, Debye-Ang**2):
  XXX=          -1833.5215  YYY=          -2962.3465  ZZZ=          -1328.7605  XYY=          -1688.1906
  XXY=          -1591.7201  XXZ=          -1135.1028  XZZ=           -996.2867  YZZ=          -1234.4432
  YYZ=          -1422.3602  XYZ=          -1012.7299
 Hexadecapole moment (field-independent basis, Debye-Ang**3):
 XXXX=         -14681.0492 YYYY=         -31311.5248 ZZZZ=          -9794.8266 XXXY=         -13060.3960
 XXXZ=          -9215.5966 YYYX=         -16061.0697 YYYZ=         -13546.0000 ZZZX=          -7329.3475
 ZZZY=          -9453.6802 XXYY=         -12694.9311 XXZZ=          -7141.1791 YYZZ=          -9918.8567
 XXYZ=          -7957.9179 YYXZ=          -8243.2082 ZZXY=          -7079.8495
 N-N= 3.325518091401D+02 E-N=-1.687740226427D+03  KE= 4.289959729626D+02
  Exact polarizability:       0.000       0.000       0.000       0.000       0.000       0.000
 Approx polarizability:     110.150       6.279     102.155      11.284     -20.494      76.870
 D2PCM: PCM CHGder 2nd derivatives, FixD1E=F FixD2E=F DoIter=F DoCFld=F I1PDM=0
 Calling FoFJK, ICntrl=    100127 FMM=F ISym2X=0 I1Cent= 0 IOpClX= 0 NMat=1 NMatS=1 NMatT=0.
 -------------------------------------------------------------------
 Center     Atomic                   Forces (Hartrees/Bohr)
 Number     Number              X              Y              Z
 -------------------------------------------------------------------
      1        6           0.068755225   -0.020374059    0.032794380
      2        6          -0.025529432    0.016397150   -0.017197684
      3        1          -0.001829636   -0.002253962    0.000674082
      4        6           0.010812014   -0.003917592    0.005525238
      5        6          -0.005414623    0.001530539   -0.002575690
      6        6           0.011437867   -0.002671031    0.005093263
      7        6          -0.033083488    0.001058145   -0.010788238
      8        1           0.000599636    0.002575763   -0.001331340
      9        1          -0.000300807    0.000122825   -0.000133107
     10        9          -0.018130257   -0.007218221   -0.001554046
     11        9          -0.007316498    0.014750442   -0.010506858
 -------------------------------------------------------------------
 Cartesian Forces:  Max     0.068755225 RMS     0.017227290
 FormGI is forming the generalized inverse of G from B-inverse, IUseBI=4.

 GradGradGradGradGradGradGradGradGradGradGradGradGradGradGradGradGradGrad
 Berny optimization.
 Internal  Forces:  Max     0.046293161 RMS     0.011525757
 Search for a local minimum.
 Step number   1 out of a maximum of   57
 All quantities printed in internal units (Hartrees-Bohrs-Radians)
 Mixed Optimization -- RFO/linear search
 Second derivative matrix not updated -- analytic derivatives used.
 ITU=  0
     Eigenvalues ---    0.01032   0.01518   0.02353   0.02638   0.03235
     Eigenvalues ---    0.03467   0.03527   0.04196   0.09755   0.10768
     Eigenvalues ---    0.11078   0.16282   0.17704   0.17964   0.21308
     Eigenvalues ---    0.24347   0.30618   0.35517   0.35671   0.36885
     Eigenvalues ---    0.39263   0.39436   0.45609   0.46667   0.47361
     Eigenvalues ---    0.51524   0.54865
 RFO step:  Lambda=-2.41018049D-02 EMin= 1.03246691D-02
 Linear search not attempted -- first point.
 Maximum step size (   0.300) exceeded in Quadratic search.
    -- Step size scaled by   0.917
 Iteration  1 RMS(Cart)=  0.04475217 RMS(Int)=  0.00285129
 Iteration  2 RMS(Cart)=  0.00412935 RMS(Int)=  0.00093174
 Iteration  3 RMS(Cart)=  0.00000370 RMS(Int)=  0.00093173
 Iteration  4 RMS(Cart)=  0.00000000 RMS(Int)=  0.00093173
 Variable       Old X    -DE/DX   Delta X   Delta X   Delta X     New X
                                 (Linear)    (Quad)   (Total)
    R1        2.59322   0.02690   0.00000   0.06186   0.06309   2.65631
    R2        2.59330   0.02684   0.00000   0.06177   0.06299   2.65629
    R3        2.04711   0.00216   0.00000   0.00689   0.00689   2.05400
    R4        2.62586   0.00452   0.00000  -0.00938  -0.00940   2.61646
    R5        2.61724  -0.00077   0.00000  -0.00361  -0.00483   2.61240
    R6        2.54146   0.01866   0.00000   0.03207   0.03207   2.57353
    R7        2.61695  -0.00069   0.00000  -0.00347  -0.00469   2.61227
    R8        2.04519   0.00035   0.00000   0.00007   0.00007   2.04527
    R9        2.62592   0.00454   0.00000  -0.00940  -0.00942   2.61650
   R10        2.54158   0.01861   0.00000   0.03216   0.03216   2.57374
   R11        2.04722   0.00217   0.00000   0.00685   0.00685   2.05407
    A1        2.21639  -0.04629   0.00000  -0.19897  -0.19534   2.02105
    A2        2.16895  -0.00969   0.00000  -0.04567  -0.04620   2.12275
    A3        2.00019   0.02356   0.00000   0.11199   0.11305   2.11324
    A4        2.11404  -0.01387   0.00000  -0.06632  -0.06685   2.04719
    A5        2.15213   0.00053   0.00000   0.00502   0.00356   2.15569
    A6        2.07101   0.00725   0.00000   0.00878   0.00951   2.08052
    A7        2.06005  -0.00778   0.00000  -0.01380  -0.01307   2.04698
    A8        2.04532  -0.00188   0.00000  -0.03507  -0.03788   2.00744
    A9        2.11856   0.00096   0.00000   0.01768   0.01909   2.13764
   A10        2.11931   0.00092   0.00000   0.01739   0.01880   2.13810
   A11        2.15202   0.00060   0.00000   0.00523   0.00377   2.15579
   A12        2.06006  -0.00783   0.00000  -0.01405  -0.01332   2.04673
   A13        2.07111   0.00724   0.00000   0.00883   0.00956   2.08067
   A14        2.00031   0.02348   0.00000   0.11179   0.11285   2.11316
   A15        2.16917  -0.00968   0.00000  -0.04593  -0.04646   2.12271
   A16        2.11370  -0.01381   0.00000  -0.06586  -0.06639   2.04731
    D1       -3.14104  -0.00005   0.00000  -0.00176  -0.00167   3.14047
    D2        0.00000  -0.00008   0.00000  -0.00190  -0.00185  -0.00184
    D3       -0.00045   0.00008   0.00000   0.00218   0.00213   0.00168
    D4        3.14051   0.00010   0.00000   0.00208   0.00198  -3.14070
    D5        0.00055   0.00003   0.00000   0.00032   0.00042   0.00098
    D6       -3.14054   0.00003   0.00000   0.00032   0.00039  -3.14015
    D7       -3.14156   0.00000   0.00000   0.00019   0.00025  -3.14131
    D8        0.00052  -0.00001   0.00000   0.00019   0.00022   0.00074
    D9       -0.00061   0.00002   0.00000   0.00072   0.00077   0.00016
   D10        3.14064   0.00001   0.00000   0.00053   0.00051   3.14115
   D11        3.14049   0.00002   0.00000   0.00073   0.00081   3.14130
   D12       -0.00144   0.00002   0.00000   0.00053   0.00055  -0.00089
   D13        0.00011  -0.00002   0.00000  -0.00038  -0.00044  -0.00033
   D14       -3.14122  -0.00004   0.00000  -0.00071  -0.00080   3.14116
   D15       -3.14114  -0.00001   0.00000  -0.00019  -0.00018  -3.14132
   D16        0.00071  -0.00003   0.00000  -0.00052  -0.00054   0.00017
   D17        0.00038  -0.00002   0.00000  -0.00090  -0.00101  -0.00063
   D18       -3.14060  -0.00004   0.00000  -0.00080  -0.00087  -3.14147
   D19       -3.14147   0.00001   0.00000  -0.00057  -0.00065   3.14107
   D20        0.00073  -0.00002   0.00000  -0.00047  -0.00051   0.00023
         Item               Value     Threshold  Converged?
 Maximum Force            0.046293     0.000015     NO 
 RMS     Force            0.011526     0.000010     NO 
 Maximum Displacement     0.218231     0.000060     NO 
 RMS     Displacement     0.044996     0.000040     NO 
 Predicted change in Energy=-1.304984D-02
 GradGradGradGradGradGradGradGradGradGradGradGradGradGradGradGradGradGrad

                          Input orientation:                          
 ---------------------------------------------------------------------
 Center     Atomic      Atomic             Coordinates (Angstroms)
 Number     Number       Type             X           Y           Z
 ---------------------------------------------------------------------
      1          6           0        6.271695    6.988114    5.216601
      2          6           0        5.127086    6.178222    5.315670
      3          1           0        5.143418    5.231169    5.848808
      4          6           0        3.929302    6.559481    4.735158
      5          6           0        3.764172    7.735848    4.028058
      6          6           0        4.895022    8.525355    3.934503
      7          6           0        6.113255    8.185886    4.498206
      8          1           0        6.936777    8.882214    4.362437
      9          1           0        2.819741    8.017267    3.580568
     10          9           0        2.843647    5.746255    4.856234
     11          9           0        4.783876    9.695640    3.246734
 ---------------------------------------------------------------------
                    Distance matrix (angstroms):
                    1          2          3          4          5
     1  C    0.000000
     2  C    1.405656   0.000000
     3  H    2.181641   1.086929   0.000000
     4  C    2.429469   1.384572   2.116296   0.000000
     5  C    2.873919   2.437556   3.389818   1.382424   0.000000
     6  C    2.429426   2.733223   3.818105   2.332021   1.382351
     7  C    1.405650   2.381489   3.390438   2.733311   2.437573
     8  H    2.181637   3.390458   4.330770   3.818235   3.389895
     9  H    3.956228   3.422938   4.278636   2.165489   1.082309
    10  F    3.663822   2.368918   2.557237   1.361853   2.343443
    11  F    3.663970   4.095182   5.179920   3.575080   2.343299
                    6          7          8          9         10
     6  C    0.000000
     7  C    1.384591   0.000000
     8  H    2.116422   1.086966   0.000000
     9  H    2.165690   3.423116   4.278953   0.000000
    10  F    3.575070   4.095158   5.179941   2.604878   0.000000
    11  F    1.361965   2.369132   2.557624   2.605035   4.685363
                   11
    11  F    0.000000
 Symmetry turned off by external request.
 Stoichiometry    C6H3F2(1-)
 Framework group  C1[X(C6H3F2)]
 Deg. of freedom    27
 Full point group                 C1      NOp   1
 Rotational constants (GHZ):           3.9027438           1.7754870           1.2203222
 Standard basis: 6-311+G(d,p) (5D, 7F)
   194 basis functions,   312 primitive gaussians,   202 cartesian basis functions
    29 alpha electrons       29 beta electrons
       nuclear repulsion energy       330.6762169514 Hartrees.
 NAtoms=   11 NActive=   11 NUniq=   11 SFac= 1.00D+00 NAtFMM=   60 NAOKFM=F Big=F
 Integral buffers will be    131072 words long.
 Raffenetti 2 integral format.
 Two-electron integral symmetry is turned off.
 ------------------------------------------------------------------------------
 Polarizable Continuum Model (PCM)
 =================================
 Model                : PCM.
 Atomic radii         : SMD-Coulomb.
 Polarization charges : Total charges.
 Charge compensation  : None.
 Solution method      : Matrix inversion.
 Cavity type          : VdW (van der Waals Surface) (Alpha=1.000).
 Cavity algorithm     : GePol (No added spheres)
                        Default sphere list used, NSphG=   11.
                        Lebedev-Laikov grids with approx.  5.0 points / Ang**2.
                        Smoothing algorithm: York/Karplus (Gamma=1.0000).
                        Polarization charges: spherical gaussians, with
                                              point-specific exponents (IZeta= 3).
                        Self-potential: point-specific (ISelfS= 7).
                        Self-field    : sphere-specific E.n sum rule (ISelfD= 2).
 1st derivatives      : Analytical E(r).r(x)/FMM algorithm (CHGder, D1EAlg=3).
                        Cavity 1st derivative terms included.
 Solvent              : TetraHydroFuran, Eps=   7.425700 Eps(inf)=   1.974025
 ------------------------------------------------------------------------------
 Spheres list:
 ISph  on   Nord     Re0    Alpha      Xe            Ye            Ze
    1   C      1    1.8500  1.000      6.271695      6.988114      5.216601
    2   C      2    1.8500  1.000      5.127086      6.178222      5.315670
    3   H      3    1.2000  1.000      5.143418      5.231169      5.848808
    4   C      4    1.8500  1.000      3.929302      6.559481      4.735158
    5   C      5    1.8500  1.000      3.764172      7.735848      4.028058
    6   C      6    1.8500  1.000      4.895022      8.525355      3.934503
    7   C      7    1.8500  1.000      6.113255      8.185886      4.498206
    8   H      8    1.2000  1.000      6.936777      8.882214      4.362437
    9   H      9    1.2000  1.000      2.819741      8.017267      3.580568
   10   F     10    1.7300  1.000      2.843647      5.746255      4.856234
   11   F     11    1.7300  1.000      4.783876      9.695640      3.246734
 ------------------------------------------------------------------------------
 ------------------------------------------------------------------------------
 Atomic radii for non-electrostatic terms: SMD-CDS.
 ------------------------------------------------------------------------------
 Nuclear repulsion after PCM non-electrostatic terms =      330.6754743804 Hartrees.
 One-electron integrals computed using PRISM.
 NBasis=   194 RedAO= T EigKep=  4.15D-06  NBF=   194
 NBsUse=   194 1.00D-06 EigRej= -1.00D+00 NBFU=   194
 Initial guess from the checkpoint file:  "3-5-diF-ph-anion-opt-freq-thf.chk"
 B after Tr=     0.021553   -0.007232    0.006986
         Rot=    1.000000    0.000042    0.000132   -0.000080 Ang=   0.02 deg.
 ExpMin= 4.38D-02 ExpMax= 1.14D+04 ExpMxC= 1.72D+03 IAcc=3 IRadAn=         5 AccDes= 0.00D+00
 Harris functional with IExCor= 1009 and IRadAn=       5 diagonalized for initial guess.
 HarFok:  IExCor= 1009 AccDes= 0.00D+00 IRadAn=         5 IDoV= 1 UseB2=F ITyADJ=14
 ICtDFT=  3500011 ScaDFX=  1.000000  1.000000  1.000000  1.000000
 FoFCou: FMM=F IPFlag=           0 FMFlag=      100000 FMFlg1=           0
         NFxFlg=           0 DoJE=T BraDBF=F KetDBF=T FulRan=T
         wScrn=  0.000000 ICntrl=       500 IOpCl=  0 I1Cent=   200000004 NGrid=           0
         NMat0=    1 NMatS0=      1 NMatT0=    0 NMatD0=    1 NMtDS0=    0 NMtDT0=    0
 Symmetry not used in FoFCou.
 Keep R1 ints in memory in canonical form, NReq=211891338.
 Requested convergence on RMS density matrix=1.00D-08 within 128 cycles.
 Requested convergence on MAX density matrix=1.00D-06.
 Requested convergence on             energy=1.00D-06.
 Level shift goal  0.100 maximum shift  0.100.
 No special actions if energy rises.
 Dynamic level shift is on during FON iterations.
 Inv3:  Mode=1 IEnd=     3263547.
 Iteration    1 A*A^-1 deviation from unit magnitude is 5.11D-15 for   1041.
 Iteration    1 A*A^-1 deviation from orthogonality  is 2.46D-15 for   1041    914.
 Iteration    1 A^-1*A deviation from unit magnitude is 5.11D-15 for   1041.
 Iteration    1 A^-1*A deviation from orthogonality  is 4.98D-15 for    592    591.
 Error on total polarization charges =  0.04545
 SCF Done:  E(RM062X) =  -430.137236862     A.U. after   13 cycles
            NFock= 13  Conv=0.90D-08     -V/T= 2.0031
 SMD-CDS (non-electrostatic) energy       (kcal/mol) =      -0.47
 (included in total energy above)
 D1PCM: PCM CHGder 1st derivatives, ID1Alg=3 FixD1E=F DoIter=F DoCFld=F I1PDM=0.
 Calling FoFJK, ICntrl=      2127 FMM=F ISym2X=0 I1Cent= 0 IOpClX= 0 NMat=1 NMatS=1 NMatT=0.
 -------------------------------------------------------------------
 Center     Atomic                   Forces (Hartrees/Bohr)
 Number     Number              X              Y              Z
 -------------------------------------------------------------------
      1        6           0.012130168   -0.003666549    0.005699705
      2        6          -0.004036787    0.002501563   -0.002677735
      3        1          -0.000715598   -0.001097925    0.000377313
      4        6           0.001815370   -0.001837858    0.001596589
      5        6          -0.002425644    0.000692209   -0.001176813
      6        6           0.002893129    0.000458232    0.000651913
      7        6          -0.005243692    0.000378877   -0.001637194
      8        1           0.000367369    0.001144201   -0.000545314
      9        1          -0.000015074    0.000022435   -0.000003578
     10        9          -0.003536217   -0.001629597   -0.000203690
     11        9          -0.001233024    0.003034412   -0.002081197
 -------------------------------------------------------------------
 Cartesian Forces:  Max     0.012130168 RMS     0.003079522

 GradGradGradGradGradGradGradGradGradGradGradGradGradGradGradGradGradGrad
 Berny optimization.
 Using GEDIIS/GDIIS optimizer.
 FormGI is forming the generalized inverse of G from B-inverse, IUseBI=4.
 Internal  Forces:  Max     0.006736675 RMS     0.002124768
 Search for a local minimum.
 Step number   2 out of a maximum of   57
 All quantities printed in internal units (Hartrees-Bohrs-Radians)
 Mixed Optimization -- RFO/linear search
 Update second derivatives using D2CorX and points    1    2
 DE= -1.30D-02 DEPred=-1.30D-02 R= 9.93D-01
 TightC=F SS=  1.41D+00  RLast= 3.00D-01 DXNew= 5.0454D-01 8.9950D-01
 Trust test= 9.93D-01 RLast= 3.00D-01 DXMaxT set to 5.05D-01
 ITU=  1  0
 Use linear search instead of GDIIS.
     Eigenvalues ---    0.01032   0.01518   0.02352   0.02638   0.03218
     Eigenvalues ---    0.03464   0.03521   0.04195   0.09755   0.10759
     Eigenvalues ---    0.11078   0.17134   0.17703   0.18095   0.21308
     Eigenvalues ---    0.24207   0.30613   0.35516   0.35711   0.36854
     Eigenvalues ---    0.38872   0.39424   0.45557   0.46658   0.47390
     Eigenvalues ---    0.51502   0.53514
 RFO step:  Lambda=-5.68447109D-05 EMin= 1.03175490D-02
 Quartic linear search produced a step of  0.19216.
 Iteration  1 RMS(Cart)=  0.00877903 RMS(Int)=  0.00022289
 Iteration  2 RMS(Cart)=  0.00014181 RMS(Int)=  0.00020365
 Iteration  3 RMS(Cart)=  0.00000001 RMS(Int)=  0.00020365
 Variable       Old X    -DE/DX   Delta X   Delta X   Delta X     New X
                                 (Linear)    (Quad)   (Total)
    R1        2.65631   0.00617   0.01212   0.00310   0.01548   2.67179
    R2        2.65629   0.00622   0.01210   0.00323   0.01560   2.67189
    R3        2.05400   0.00113   0.00132   0.00251   0.00383   2.05783
    R4        2.61646   0.00140  -0.00181   0.00173  -0.00008   2.61638
    R5        2.61240   0.00175  -0.00093   0.00448   0.00329   2.61570
    R6        2.57353   0.00377   0.00616   0.00183   0.00799   2.58152
    R7        2.61227   0.00173  -0.00090   0.00439   0.00323   2.61550
    R8        2.04527   0.00002   0.00001  -0.00016  -0.00014   2.04512
    R9        2.61650   0.00137  -0.00181   0.00163  -0.00019   2.61631
   R10        2.57374   0.00376   0.00618   0.00176   0.00794   2.58168
   R11        2.05407   0.00108   0.00132   0.00233   0.00364   2.05771
    A1        2.02105  -0.00674  -0.03754   0.00284  -0.03390   1.98715
    A2        2.12275  -0.00104  -0.00888   0.00485  -0.00414   2.11861
    A3        2.11324   0.00366   0.02172  -0.00170   0.02025   2.13349
    A4        2.04719  -0.00262  -0.01285  -0.00314  -0.01610   2.03109
    A5        2.15569  -0.00015   0.00068  -0.00005   0.00031   2.15600
    A6        2.08052   0.00134   0.00183   0.00074   0.00272   2.08324
    A7        2.04698  -0.00119  -0.00251  -0.00068  -0.00303   2.04395
    A8        2.00744  -0.00029  -0.00728   0.00065  -0.00725   2.00020
    A9        2.13764   0.00016   0.00367  -0.00021   0.00377   2.14141
   A10        2.13810   0.00013   0.00361  -0.00044   0.00348   2.14158
   A11        2.15579  -0.00017   0.00072  -0.00025   0.00015   2.15594
   A12        2.04673  -0.00115  -0.00256  -0.00038  -0.00278   2.04395
   A13        2.08067   0.00132   0.00184   0.00063   0.00262   2.08329
   A14        2.11316   0.00369   0.02168  -0.00148   0.02043   2.13360
   A15        2.12271  -0.00107  -0.00893   0.00460  -0.00444   2.11826
   A16        2.04731  -0.00262  -0.01276  -0.00312  -0.01599   2.03132
    D1        3.14047   0.00002  -0.00032   0.00080   0.00049   3.14096
    D2       -0.00184   0.00002  -0.00036   0.00101   0.00066  -0.00119
    D3        0.00168  -0.00004   0.00041  -0.00226  -0.00186  -0.00018
    D4       -3.14070   0.00002   0.00038  -0.00026   0.00012  -3.14057
    D5        0.00098   0.00002   0.00008   0.00071   0.00080   0.00177
    D6       -3.14015   0.00000   0.00007   0.00029   0.00037  -3.13978
    D7       -3.14131   0.00001   0.00005   0.00091   0.00096  -3.14035
    D8        0.00074   0.00000   0.00004   0.00049   0.00053   0.00128
    D9        0.00016  -0.00002   0.00015  -0.00113  -0.00097  -0.00081
   D10        3.14115  -0.00001   0.00010  -0.00073  -0.00062   3.14053
   D11        3.14130   0.00000   0.00016  -0.00071  -0.00055   3.14075
   D12       -0.00089   0.00000   0.00010  -0.00032  -0.00021  -0.00110
   D13       -0.00033   0.00000  -0.00009  -0.00019  -0.00027  -0.00060
   D14        3.14116  -0.00002  -0.00015  -0.00046  -0.00061   3.14055
   D15       -3.14132  -0.00001  -0.00003  -0.00059  -0.00061   3.14125
   D16        0.00017  -0.00002  -0.00010  -0.00085  -0.00096  -0.00079
   D17       -0.00063   0.00003  -0.00019   0.00194   0.00174   0.00111
   D18       -3.14147  -0.00003  -0.00017   0.00002  -0.00015   3.14156
   D19        3.14107   0.00004  -0.00012   0.00221   0.00209  -3.14003
   D20        0.00023  -0.00002  -0.00010   0.00029   0.00020   0.00042
         Item               Value     Threshold  Converged?
 Maximum Force            0.006737     0.000015     NO 
 RMS     Force            0.002125     0.000010     NO 
 Maximum Displacement     0.042435     0.000060     NO 
 RMS     Displacement     0.008780     0.000040     NO 
 Predicted change in Energy=-3.914399D-04
 GradGradGradGradGradGradGradGradGradGradGradGradGradGradGradGradGradGrad

                          Input orientation:                          
 ---------------------------------------------------------------------
 Center     Atomic      Atomic             Coordinates (Angstroms)
 Number     Number       Type             X           Y           Z
 ---------------------------------------------------------------------
      1          6           0        6.294151    6.981248    5.226776
      2          6           0        5.130604    6.182782    5.313845
      3          1           0        5.133713    5.231850    5.844454
      4          6           0        3.930699    6.560411    4.735449
      5          6           0        3.760581    7.736879    4.026295
      6          6           0        4.895321    8.524102    3.935373
      7          6           0        6.111369    8.181034    4.501363
      8          1           0        6.928114    8.886790    4.358100
      9          1           0        2.816273    8.018324    3.578746
     10          9           0        2.842011    5.744345    4.857838
     11          9           0        4.785158    9.697685    3.244739
 ---------------------------------------------------------------------
                    Distance matrix (angstroms):
                    1          2          3          4          5
     1  C    0.000000
     2  C    1.413849   0.000000
     3  H    2.188272   1.088957   0.000000
     4  C    2.450390   1.384528   2.107654   0.000000
     5  C    2.903637   2.439255   3.386201   1.384166   0.000000
     6  C    2.450479   2.727146   3.813181   2.329529   1.384061
     7  C    1.413903   2.369607   3.384877   2.727002   2.439092
     8  H    2.188058   3.384693   4.334479   3.812995   3.386097
     9  H    3.985870   3.425772   4.274154   2.169198   1.082233
    10  F    3.685554   2.374411   2.547147   1.366083   2.346364
    11  F    3.685723   4.093296   5.179158   3.576983   2.346348
                    6          7          8          9         10
     6  C    0.000000
     7  C    1.384490   0.000000
     8  H    2.107721   1.088893   0.000000
     9  H    2.169202   3.425690   4.274209   0.000000
    10  F    3.576881   4.093071   5.178893   2.609161   0.000000
    11  F    1.366165   2.374483   2.547426   2.609276   4.691141
                   11
    11  F    0.000000
 Symmetry turned off by external request.
 Stoichiometry    C6H3F2(1-)
 Framework group  C1[X(C6H3F2)]
 Deg. of freedom    27
 Full point group                 C1      NOp   1
 Rotational constants (GHZ):           3.8644362           1.7747239           1.2161934
 Standard basis: 6-311+G(d,p) (5D, 7F)
   194 basis functions,   312 primitive gaussians,   202 cartesian basis functions
    29 alpha electrons       29 beta electrons
       nuclear repulsion energy       330.0309782925 Hartrees.
 NAtoms=   11 NActive=   11 NUniq=   11 SFac= 1.00D+00 NAtFMM=   60 NAOKFM=F Big=F
 Integral buffers will be    131072 words long.
 Raffenetti 2 integral format.
 Two-electron integral symmetry is turned off.
 ------------------------------------------------------------------------------
 Polarizable Continuum Model (PCM)
 =================================
 Model                : PCM.
 Atomic radii         : SMD-Coulomb.
 Polarization charges : Total charges.
 Charge compensation  : None.
 Solution method      : Matrix inversion.
 Cavity type          : VdW (van der Waals Surface) (Alpha=1.000).
 Cavity algorithm     : GePol (No added spheres)
                        Default sphere list used, NSphG=   11.
                        Lebedev-Laikov grids with approx.  5.0 points / Ang**2.
                        Smoothing algorithm: York/Karplus (Gamma=1.0000).
                        Polarization charges: spherical gaussians, with
                                              point-specific exponents (IZeta= 3).
                        Self-potential: point-specific (ISelfS= 7).
                        Self-field    : sphere-specific E.n sum rule (ISelfD= 2).
 1st derivatives      : Analytical E(r).r(x)/FMM algorithm (CHGder, D1EAlg=3).
                        Cavity 1st derivative terms included.
 Solvent              : TetraHydroFuran, Eps=   7.425700 Eps(inf)=   1.974025
 ------------------------------------------------------------------------------
 Spheres list:
 ISph  on   Nord     Re0    Alpha      Xe            Ye            Ze
    1   C      1    1.8500  1.000      6.294151      6.981248      5.226776
    2   C      2    1.8500  1.000      5.130604      6.182782      5.313845
    3   H      3    1.2000  1.000      5.133713      5.231850      5.844454
    4   C      4    1.8500  1.000      3.930699      6.560411      4.735449
    5   C      5    1.8500  1.000      3.760581      7.736879      4.026295
    6   C      6    1.8500  1.000      4.895321      8.524102      3.935373
    7   C      7    1.8500  1.000      6.111369      8.181034      4.501363
    8   H      8    1.2000  1.000      6.928114      8.886790      4.358100
    9   H      9    1.2000  1.000      2.816273      8.018324      3.578746
   10   F     10    1.7300  1.000      2.842011      5.744345      4.857838
   11   F     11    1.7300  1.000      4.785158      9.697685      3.244739
 ------------------------------------------------------------------------------
 ------------------------------------------------------------------------------
 Atomic radii for non-electrostatic terms: SMD-CDS.
 ------------------------------------------------------------------------------
 Nuclear repulsion after PCM non-electrostatic terms =      330.0302677419 Hartrees.
 One-electron integrals computed using PRISM.
 NBasis=   194 RedAO= T EigKep=  4.18D-06  NBF=   194
 NBsUse=   194 1.00D-06 EigRej= -1.00D+00 NBFU=   194
 Initial guess from the checkpoint file:  "3-5-diF-ph-anion-opt-freq-thf.chk"
 B after Tr=     0.001855   -0.001859    0.004900
         Rot=    1.000000    0.000095   -0.000030    0.000043 Ang=   0.01 deg.
 ExpMin= 4.38D-02 ExpMax= 1.14D+04 ExpMxC= 1.72D+03 IAcc=3 IRadAn=         5 AccDes= 0.00D+00
 Harris functional with IExCor= 1009 and IRadAn=       5 diagonalized for initial guess.
 HarFok:  IExCor= 1009 AccDes= 0.00D+00 IRadAn=         5 IDoV= 1 UseB2=F ITyADJ=14
 ICtDFT=  3500011 ScaDFX=  1.000000  1.000000  1.000000  1.000000
 FoFCou: FMM=F IPFlag=           0 FMFlag=      100000 FMFlg1=           0
         NFxFlg=           0 DoJE=T BraDBF=F KetDBF=T FulRan=T
         wScrn=  0.000000 ICntrl=       500 IOpCl=  0 I1Cent=   200000004 NGrid=           0
         NMat0=    1 NMatS0=      1 NMatT0=    0 NMatD0=    1 NMtDS0=    0 NMtDT0=    0
 Symmetry not used in FoFCou.
 Keep R1 ints in memory in canonical form, NReq=211891338.
 Requested convergence on RMS density matrix=1.00D-08 within 128 cycles.
 Requested convergence on MAX density matrix=1.00D-06.
 Requested convergence on             energy=1.00D-06.
 Level shift goal  0.100 maximum shift  0.100.
 No special actions if energy rises.
 Dynamic level shift is on during FON iterations.
 Inv3:  Mode=1 IEnd=     3282348.
 Iteration    1 A*A^-1 deviation from unit magnitude is 5.11D-15 for   1026.
 Iteration    1 A*A^-1 deviation from orthogonality  is 1.58D-15 for   1034    812.
 Iteration    1 A^-1*A deviation from unit magnitude is 4.44D-15 for   1026.
 Iteration    1 A^-1*A deviation from orthogonality  is 2.46D-15 for    592    591.
 Error on total polarization charges =  0.04489
 SCF Done:  E(RM062X) =  -430.137631703     A.U. after   12 cycles
            NFock= 12  Conv=0.32D-08     -V/T= 2.0032
 SMD-CDS (non-electrostatic) energy       (kcal/mol) =      -0.45
 (included in total energy above)
 D1PCM: PCM CHGder 1st derivatives, ID1Alg=3 FixD1E=F DoIter=F DoCFld=F I1PDM=0.
 Calling FoFJK, ICntrl=      2127 FMM=F ISym2X=0 I1Cent= 0 IOpClX= 0 NMat=1 NMatS=1 NMatT=0.
 -------------------------------------------------------------------
 Center     Atomic                   Forces (Hartrees/Bohr)
 Number     Number              X              Y              Z
 -------------------------------------------------------------------
      1        6           0.000705362   -0.000253380    0.000333944
      2        6          -0.000451597   -0.000367630    0.000076088
      3        1          -0.000032110   -0.000165470    0.000062016
      4        6           0.000116290   -0.000108215    0.000083458
      5        6          -0.000238355    0.000065688   -0.000105507
      6        6           0.000169315    0.000026517    0.000052222
      7        6           0.000071028    0.000534591   -0.000261620
      8        1           0.000094594    0.000148092   -0.000047117
      9        1           0.000001602   -0.000003657    0.000006291
     10        9          -0.000323085   -0.000192769   -0.000026559
     11        9          -0.000113043    0.000316234   -0.000173216
 -------------------------------------------------------------------
 Cartesian Forces:  Max     0.000705362 RMS     0.000237692

 GradGradGradGradGradGradGradGradGradGradGradGradGradGradGradGradGradGrad
 Berny optimization.
 Using GEDIIS/GDIIS optimizer.
 FormGI is forming the generalized inverse of G from B-inverse, IUseBI=4.
 Internal  Forces:  Max     0.000846320 RMS     0.000217088
 Search for a local minimum.
 Step number   3 out of a maximum of   57
 All quantities printed in internal units (Hartrees-Bohrs-Radians)
 Mixed Optimization -- En-DIIS/RFO-DIIS
 Update second derivatives using D2CorX and points    1    2    3
 DE= -3.95D-04 DEPred=-3.91D-04 R= 1.01D+00
 TightC=F SS=  1.41D+00  RLast= 5.76D-02 DXNew= 8.4853D-01 1.7272D-01
 Trust test= 1.01D+00 RLast= 5.76D-02 DXMaxT set to 5.05D-01
 ITU=  1  1  0
 Use linear search instead of GDIIS.
     Eigenvalues ---    0.01032   0.01518   0.02351   0.02638   0.03211
     Eigenvalues ---    0.03463   0.03518   0.04194   0.09755   0.10793
     Eigenvalues ---    0.11078   0.17577   0.17701   0.18640   0.21308
     Eigenvalues ---    0.24092   0.30611   0.35515   0.35724   0.36762
     Eigenvalues ---    0.38213   0.39421   0.45398   0.46655   0.47451
     Eigenvalues ---    0.51437   0.51525
 RFO step:  Lambda=-3.64875171D-06 EMin= 1.03163607D-02
 Quartic linear search produced a step of  0.04322.
 Iteration  1 RMS(Cart)=  0.00088159 RMS(Int)=  0.00000134
 Iteration  2 RMS(Cart)=  0.00000033 RMS(Int)=  0.00000131
 Variable       Old X    -DE/DX   Delta X   Delta X   Delta X     New X
                                 (Linear)    (Quad)   (Total)
    R1        2.67179   0.00083   0.00067   0.00116   0.00183   2.67362
    R2        2.67189   0.00085   0.00067   0.00120   0.00188   2.67377
    R3        2.05783   0.00017   0.00017   0.00029   0.00045   2.05828
    R4        2.61638   0.00019   0.00000   0.00025   0.00025   2.61663
    R5        2.61570   0.00035   0.00014   0.00045   0.00059   2.61628
    R6        2.58152   0.00037   0.00035   0.00061   0.00096   2.58248
    R7        2.61550   0.00038   0.00014   0.00051   0.00064   2.61614
    R8        2.04512   0.00000  -0.00001  -0.00001  -0.00002   2.04511
    R9        2.61631   0.00024  -0.00001   0.00037   0.00036   2.61667
   R10        2.58168   0.00037   0.00034   0.00064   0.00098   2.58266
   R11        2.05771   0.00017   0.00016   0.00029   0.00044   2.05815
    A1        1.98715  -0.00002  -0.00147   0.00128  -0.00018   1.98697
    A2        2.11861   0.00007  -0.00018   0.00018   0.00000   2.11861
    A3        2.13349  -0.00006   0.00088  -0.00092  -0.00005   2.13344
    A4        2.03109  -0.00001  -0.00070   0.00074   0.00004   2.03113
    A5        2.15600  -0.00001   0.00001  -0.00004  -0.00003   2.15597
    A6        2.08324   0.00009   0.00012   0.00037   0.00049   2.08373
    A7        2.04395  -0.00008  -0.00013  -0.00033  -0.00046   2.04349
    A8        2.00020   0.00019  -0.00031   0.00073   0.00041   2.00061
    A9        2.14141  -0.00010   0.00016  -0.00040  -0.00023   2.14118
   A10        2.14158  -0.00009   0.00015  -0.00033  -0.00018   2.14140
   A11        2.15594   0.00000   0.00001   0.00008   0.00008   2.15602
   A12        2.04395  -0.00010  -0.00012  -0.00050  -0.00062   2.04334
   A13        2.08329   0.00010   0.00011   0.00042   0.00053   2.08382
   A14        2.13360  -0.00010   0.00088  -0.00112  -0.00023   2.13336
   A15        2.11826   0.00011  -0.00019   0.00048   0.00028   2.11855
   A16        2.03132  -0.00001  -0.00069   0.00064  -0.00005   2.03128
    D1        3.14096   0.00000   0.00002   0.00034   0.00036   3.14132
    D2       -0.00119   0.00001   0.00003   0.00057   0.00060  -0.00059
    D3       -0.00018   0.00000  -0.00008   0.00024   0.00016  -0.00002
    D4       -3.14057   0.00000   0.00001   0.00030   0.00030  -3.14027
    D5        0.00177  -0.00001   0.00003  -0.00094  -0.00090   0.00087
    D6       -3.13978  -0.00001   0.00002  -0.00097  -0.00096  -3.14074
    D7       -3.14035   0.00000   0.00004  -0.00071  -0.00067  -3.14102
    D8        0.00128  -0.00001   0.00002  -0.00075  -0.00072   0.00055
    D9       -0.00081   0.00000  -0.00004   0.00040   0.00035  -0.00045
   D10        3.14053   0.00000  -0.00003   0.00031   0.00029   3.14081
   D11        3.14075   0.00000  -0.00002   0.00043   0.00040   3.14116
   D12       -0.00110   0.00000  -0.00001   0.00035   0.00034  -0.00076
   D13       -0.00060   0.00001  -0.00001   0.00044   0.00043  -0.00017
   D14        3.14055   0.00000  -0.00003   0.00041   0.00038   3.14093
   D15        3.14125   0.00001  -0.00003   0.00053   0.00050  -3.14144
   D16       -0.00079   0.00000  -0.00004   0.00049   0.00045  -0.00034
   D17        0.00111  -0.00001   0.00008  -0.00078  -0.00071   0.00041
   D18        3.14156  -0.00001  -0.00001  -0.00083  -0.00084   3.14072
   D19       -3.14003   0.00000   0.00009  -0.00075  -0.00065  -3.14068
   D20        0.00042  -0.00001   0.00001  -0.00080  -0.00079  -0.00037
         Item               Value     Threshold  Converged?
 Maximum Force            0.000846     0.000015     NO 
 RMS     Force            0.000217     0.000010     NO 
 Maximum Displacement     0.002043     0.000060     NO 
 RMS     Displacement     0.000882     0.000040     NO 
 Predicted change in Energy=-2.500358D-06
 GradGradGradGradGradGradGradGradGradGradGradGradGradGradGradGradGradGrad

                          Input orientation:                          
 ---------------------------------------------------------------------
 Center     Atomic      Atomic             Coordinates (Angstroms)
 Number     Number       Type             X           Y           Z
 ---------------------------------------------------------------------
      1          6           0        6.294933    6.980937    5.227076
      2          6           0        5.130365    6.182277    5.314444
      3          1           0        5.133179    5.231338    5.845535
      4          6           0        3.930586    6.559968    4.735512
      5          6           0        3.760707    7.736846    4.026372
      6          6           0        4.895553    8.524517    3.935464
      7          6           0        6.112027    8.181493    4.501030
      8          1           0        6.928901    8.887318    4.357055
      9          1           0        2.816435    8.018246    3.578741
     10          9           0        2.841155    5.743892    4.856863
     11          9           0        4.784151    9.698619    3.244887
 ---------------------------------------------------------------------
                    Distance matrix (angstroms):
                    1          2          3          4          5
     1  C    0.000000
     2  C    1.414817   0.000000
     3  H    2.189352   1.089197   0.000000
     4  C    2.451323   1.384660   2.107994   0.000000
     5  C    2.904374   2.439626   3.386828   1.384478   0.000000
     6  C    2.451360   2.728152   3.814429   2.330384   1.384401
     7  C    1.414896   2.371111   3.386628   2.728188   2.439615
     8  H    2.189324   3.386527   4.336632   3.814404   3.386796
     9  H    3.986599   3.426036   4.274636   2.169338   1.082224
    10  F    3.687264   2.375299   2.548246   1.366589   2.346733
    11  F    3.687456   4.094824   5.180906   3.577941   2.346638
                    6          7          8          9         10
     6  C    0.000000
     7  C    1.384681   0.000000
     8  H    2.108048   1.089128   0.000000
     9  H    2.169399   3.426105   4.274744   0.000000
    10  F    3.577905   4.094767   5.180791   2.609003   0.000000
    11  F    1.366682   2.375462   2.548544   2.609026   4.691861
                   11
    11  F    0.000000
 Symmetry turned off by external request.
 Stoichiometry    C6H3F2(1-)
 Framework group  C1[X(C6H3F2)]
 Deg. of freedom    27
 Full point group                 C1      NOp   1
 Rotational constants (GHZ):           3.8608034           1.7738498           1.2154228
 Standard basis: 6-311+G(d,p) (5D, 7F)
   194 basis functions,   312 primitive gaussians,   202 cartesian basis functions
    29 alpha electrons       29 beta electrons
       nuclear repulsion energy       329.9236291400 Hartrees.
 NAtoms=   11 NActive=   11 NUniq=   11 SFac= 1.00D+00 NAtFMM=   60 NAOKFM=F Big=F
 Integral buffers will be    131072 words long.
 Raffenetti 2 integral format.
 Two-electron integral symmetry is turned off.
 ------------------------------------------------------------------------------
 Polarizable Continuum Model (PCM)
 =================================
 Model                : PCM.
 Atomic radii         : SMD-Coulomb.
 Polarization charges : Total charges.
 Charge compensation  : None.
 Solution method      : Matrix inversion.
 Cavity type          : VdW (van der Waals Surface) (Alpha=1.000).
 Cavity algorithm     : GePol (No added spheres)
                        Default sphere list used, NSphG=   11.
                        Lebedev-Laikov grids with approx.  5.0 points / Ang**2.
                        Smoothing algorithm: York/Karplus (Gamma=1.0000).
                        Polarization charges: spherical gaussians, with
                                              point-specific exponents (IZeta= 3).
                        Self-potential: point-specific (ISelfS= 7).
                        Self-field    : sphere-specific E.n sum rule (ISelfD= 2).
 1st derivatives      : Analytical E(r).r(x)/FMM algorithm (CHGder, D1EAlg=3).
                        Cavity 1st derivative terms included.
 Solvent              : TetraHydroFuran, Eps=   7.425700 Eps(inf)=   1.974025
 ------------------------------------------------------------------------------
 Spheres list:
 ISph  on   Nord     Re0    Alpha      Xe            Ye            Ze
    1   C      1    1.8500  1.000      6.294933      6.980937      5.227076
    2   C      2    1.8500  1.000      5.130365      6.182277      5.314444
    3   H      3    1.2000  1.000      5.133179      5.231338      5.845535
    4   C      4    1.8500  1.000      3.930586      6.559968      4.735512
    5   C      5    1.8500  1.000      3.760707      7.736846      4.026372
    6   C      6    1.8500  1.000      4.895553      8.524517      3.935464
    7   C      7    1.8500  1.000      6.112027      8.181493      4.501030
    8   H      8    1.2000  1.000      6.928901      8.887318      4.357055
    9   H      9    1.2000  1.000      2.816435      8.018246      3.578741
   10   F     10    1.7300  1.000      2.841155      5.743892      4.856863
   11   F     11    1.7300  1.000      4.784151      9.698619      3.244887
 ------------------------------------------------------------------------------
 ------------------------------------------------------------------------------
 Atomic radii for non-electrostatic terms: SMD-CDS.
 ------------------------------------------------------------------------------
 Nuclear repulsion after PCM non-electrostatic terms =      329.9229226776 Hartrees.
 One-electron integrals computed using PRISM.
 NBasis=   194 RedAO= T EigKep=  4.19D-06  NBF=   194
 NBsUse=   194 1.00D-06 EigRej= -1.00D+00 NBFU=   194
 Initial guess from the checkpoint file:  "3-5-diF-ph-anion-opt-freq-thf.chk"
 B after Tr=     0.001283    0.000905   -0.003117
         Rot=    1.000000   -0.000093    0.000023   -0.000041 Ang=  -0.01 deg.
 Keep R1 ints in memory in canonical form, NReq=211891338.
 Requested convergence on RMS density matrix=1.00D-08 within 128 cycles.
 Requested convergence on MAX density matrix=1.00D-06.
 Requested convergence on             energy=1.00D-06.
 Level shift goal  0.100 maximum shift  0.100.
 No special actions if energy rises.
 Dynamic level shift is on during FON iterations.
 Inv3:  Mode=1 IEnd=     3294912.
 Iteration    1 A*A^-1 deviation from unit magnitude is 5.77D-15 for   1040.
 Iteration    1 A*A^-1 deviation from orthogonality  is 1.12D-15 for    986    425.
 Iteration    1 A^-1*A deviation from unit magnitude is 5.77D-15 for   1040.
 Iteration    1 A^-1*A deviation from orthogonality  is 6.32D-15 for    594    593.
 Error on total polarization charges =  0.04487
 SCF Done:  E(RM062X) =  -430.137634285     A.U. after   10 cycles
            NFock= 10  Conv=0.59D-08     -V/T= 2.0032
 SMD-CDS (non-electrostatic) energy       (kcal/mol) =      -0.44
 (included in total energy above)
 D1PCM: PCM CHGder 1st derivatives, ID1Alg=3 FixD1E=F DoIter=F DoCFld=F I1PDM=0.
 Calling FoFJK, ICntrl=      2127 FMM=F ISym2X=0 I1Cent= 0 IOpClX= 0 NMat=1 NMatS=1 NMatT=0.
 -------------------------------------------------------------------
 Center     Atomic                   Forces (Hartrees/Bohr)
 Number     Number              X              Y              Z
 -------------------------------------------------------------------
      1        6           0.000054371   -0.000024627    0.000026387
      2        6          -0.000078146   -0.000067611    0.000001694
      3        1           0.000009835   -0.000005830   -0.000030013
      4        6           0.000013414    0.000024332   -0.000019829
      5        6           0.000022304   -0.000004404    0.000013651
      6        6          -0.000018763   -0.000023761    0.000021317
      7        6          -0.000007592    0.000098078   -0.000051861
      8        1          -0.000009183    0.000001250    0.000022678
      9        1          -0.000000530    0.000003232    0.000004692
     10        9           0.000010346   -0.000004545   -0.000007993
     11        9           0.000003945    0.000003886    0.000019278
 -------------------------------------------------------------------
 Cartesian Forces:  Max     0.000098078 RMS     0.000031529

 GradGradGradGradGradGradGradGradGradGradGradGradGradGradGradGradGradGrad
 Berny optimization.
 Using GEDIIS/GDIIS optimizer.
 FormGI is forming the generalized inverse of G from B-inverse, IUseBI=4.
 Internal  Forces:  Max     0.000072161 RMS     0.000017115
 Search for a local minimum.
 Step number   4 out of a maximum of   57
 All quantities printed in internal units (Hartrees-Bohrs-Radians)
 Mixed Optimization -- En-DIIS/RFO-DIIS
 Swapping is turned off.
 Update second derivatives using D2CorX and points    1    2    3    4
 DE= -2.58D-06 DEPred=-2.50D-06 R= 1.03D+00
 TightC=F SS=  1.41D+00  RLast= 4.30D-03 DXNew= 8.4853D-01 1.2898D-02
 Trust test= 1.03D+00 RLast= 4.30D-03 DXMaxT set to 5.05D-01
 ITU=  1  1  1  0
     Eigenvalues ---    0.01048   0.01518   0.02351   0.02638   0.03211
     Eigenvalues ---    0.03462   0.03518   0.04194   0.09755   0.10793
     Eigenvalues ---    0.11080   0.17507   0.17703   0.18537   0.21308
     Eigenvalues ---    0.24293   0.30613   0.35511   0.35616   0.36311
     Eigenvalues ---    0.37326   0.39420   0.44052   0.46655   0.47284
     Eigenvalues ---    0.51479   0.52225
 En-DIIS/RFO-DIIS/Sim-DIIS IScMMF=       -3 using points:     4    3
 RFO step:  Lambda=-6.15502366D-08.
 DidBck=F Rises=F RFO-DIIS coefs:    0.82524    0.17476
 Iteration  1 RMS(Cart)=  0.00027532 RMS(Int)=  0.00000004
 Iteration  2 RMS(Cart)=  0.00000004 RMS(Int)=  0.00000002
 Variable       Old X    -DE/DX   Delta X   Delta X   Delta X     New X
                                 (Linear)    (Quad)   (Total)
    R1        2.67362   0.00007  -0.00032   0.00050   0.00018   2.67380
    R2        2.67377   0.00007  -0.00033   0.00053   0.00020   2.67397
    R3        2.05828  -0.00001  -0.00008   0.00005  -0.00003   2.05825
    R4        2.61663  -0.00002  -0.00004  -0.00001  -0.00005   2.61658
    R5        2.61628  -0.00002  -0.00010   0.00005  -0.00005   2.61623
    R6        2.58248  -0.00001  -0.00017   0.00019   0.00002   2.58250
    R7        2.61614  -0.00002  -0.00011   0.00007  -0.00005   2.61609
    R8        2.04511   0.00000   0.00000  -0.00001   0.00000   2.04511
    R9        2.61667  -0.00002  -0.00006   0.00001  -0.00005   2.61661
   R10        2.58266  -0.00001  -0.00017   0.00019   0.00002   2.58267
   R11        2.05815  -0.00001  -0.00008   0.00004  -0.00003   2.05812
    A1        1.98697  -0.00001   0.00003  -0.00005  -0.00002   1.98695
    A2        2.11861   0.00001   0.00000  -0.00005  -0.00005   2.11857
    A3        2.13344  -0.00002   0.00001  -0.00006  -0.00005   2.13339
    A4        2.03113   0.00001  -0.00001   0.00010   0.00010   2.03123
    A5        2.15597   0.00001   0.00001   0.00004   0.00005   2.15602
    A6        2.08373  -0.00001  -0.00009   0.00004  -0.00005   2.08368
    A7        2.04349   0.00000   0.00008  -0.00008   0.00000   2.04349
    A8        2.00061   0.00002  -0.00007   0.00009   0.00002   2.00063
    A9        2.14118  -0.00001   0.00004  -0.00005  -0.00001   2.14116
   A10        2.14140  -0.00001   0.00003  -0.00004  -0.00001   2.14139
   A11        2.15602   0.00001  -0.00001   0.00007   0.00006   2.15608
   A12        2.04334   0.00000   0.00011  -0.00011   0.00000   2.04333
   A13        2.08382  -0.00002  -0.00009   0.00004  -0.00005   2.08377
   A14        2.13336  -0.00002   0.00004  -0.00010  -0.00006   2.13330
   A15        2.11855   0.00001  -0.00005   0.00000  -0.00005   2.11849
   A16        2.03128   0.00001   0.00001   0.00010   0.00011   2.03139
    D1        3.14132   0.00000  -0.00006  -0.00022  -0.00029   3.14103
    D2       -0.00059   0.00000  -0.00011  -0.00010  -0.00021  -0.00079
    D3       -0.00002   0.00000  -0.00003  -0.00016  -0.00019  -0.00021
    D4       -3.14027   0.00000  -0.00005  -0.00020  -0.00026  -3.14053
    D5        0.00087   0.00000   0.00016   0.00027   0.00042   0.00129
    D6       -3.14074   0.00000   0.00017   0.00025   0.00042  -3.14032
    D7       -3.14102   0.00001   0.00012   0.00038   0.00050  -3.14052
    D8        0.00055   0.00001   0.00013   0.00037   0.00050   0.00105
    D9       -0.00045   0.00000  -0.00006  -0.00014  -0.00020  -0.00066
   D10        3.14081   0.00000  -0.00005  -0.00017  -0.00022   3.14059
   D11        3.14116   0.00000  -0.00007  -0.00013  -0.00020   3.14095
   D12       -0.00076   0.00000  -0.00006  -0.00016  -0.00022  -0.00098
   D13       -0.00017   0.00000  -0.00008  -0.00013  -0.00021  -0.00038
   D14        3.14093   0.00000  -0.00007  -0.00015  -0.00022   3.14071
   D15       -3.14144   0.00000  -0.00009  -0.00011  -0.00019   3.14156
   D16       -0.00034   0.00000  -0.00008  -0.00012  -0.00020  -0.00054
   D17        0.00041   0.00000   0.00012   0.00030   0.00042   0.00082
   D18        3.14072   0.00001   0.00015   0.00033   0.00048   3.14120
   D19       -3.14068   0.00000   0.00011   0.00031   0.00043  -3.14025
   D20       -0.00037   0.00001   0.00014   0.00035   0.00049   0.00012
         Item               Value     Threshold  Converged?
 Maximum Force            0.000072     0.000015     NO 
 RMS     Force            0.000017     0.000010     NO 
 Maximum Displacement     0.000772     0.000060     NO 
 RMS     Displacement     0.000275     0.000040     NO 
 Predicted change in Energy=-3.077516D-08
 GradGradGradGradGradGradGradGradGradGradGradGradGradGradGradGradGradGrad

                          Input orientation:                          
 ---------------------------------------------------------------------
 Center     Atomic      Atomic             Coordinates (Angstroms)
 Number     Number       Type             X           Y           Z
 ---------------------------------------------------------------------
      1          6           0        6.294965    6.980928    5.227100
      2          6           0        5.130344    6.182164    5.314349
      3          1           0        5.133290    5.231070    5.845126
      4          6           0        3.930561    6.560030    4.735600
      5          6           0        3.760728    7.736841    4.026390
      6          6           0        4.895574    8.524458    3.935384
      7          6           0        6.112001    8.181631    4.501104
      8          1           0        6.928800    8.887581    4.357448
      9          1           0        2.816459    8.018234    3.578750
     10          9           0        2.841021    5.744127    4.857241
     11          9           0        4.784249    9.698389    3.244486
 ---------------------------------------------------------------------
                    Distance matrix (angstroms):
                    1          2          3          4          5
     1  C    0.000000
     2  C    1.414913   0.000000
     3  H    2.189395   1.089180   0.000000
     4  C    2.451353   1.384634   2.108018   0.000000
     5  C    2.904387   2.439612   3.386830   1.384452   0.000000
     6  C    2.451389   2.728186   3.814450   2.330359   1.384376
     7  C    1.415003   2.371263   3.386751   2.728233   2.439606
     8  H    2.189375   3.386648   4.336717   3.814436   3.386810
     9  H    3.986610   3.426006   4.274629   2.169305   1.082223
    10  F    3.687302   2.375252   2.548262   1.366599   2.346718
    11  F    3.687494   4.094869   5.180936   3.577919   2.346623
                    6          7          8          9         10
     6  C    0.000000
     7  C    1.384653   0.000000
     8  H    2.108080   1.089111   0.000000
     9  H    2.169371   3.426081   4.274749   0.000000
    10  F    3.577883   4.094822   5.180833   2.608967   0.000000
    11  F    1.366693   2.375409   2.548566   2.608994   4.691834
                   11
    11  F    0.000000
 Symmetry turned off by external request.
 Stoichiometry    C6H3F2(1-)
 Framework group  C1[X(C6H3F2)]
 Deg. of freedom    27
 Full point group                 C1      NOp   1
 Rotational constants (GHZ):           3.8607738           1.7738403           1.2154155
 Standard basis: 6-311+G(d,p) (5D, 7F)
   194 basis functions,   312 primitive gaussians,   202 cartesian basis functions
    29 alpha electrons       29 beta electrons
       nuclear repulsion energy       329.9221314091 Hartrees.
 NAtoms=   11 NActive=   11 NUniq=   11 SFac= 1.00D+00 NAtFMM=   60 NAOKFM=F Big=F
 Integral buffers will be    131072 words long.
 Raffenetti 2 integral format.
 Two-electron integral symmetry is turned off.
 ------------------------------------------------------------------------------
 Polarizable Continuum Model (PCM)
 =================================
 Model                : PCM.
 Atomic radii         : SMD-Coulomb.
 Polarization charges : Total charges.
 Charge compensation  : None.
[...]
    A6        2.08367   0.00000   0.00000   0.00000   0.00000   2.08367
    A7        2.04349   0.00000   0.00000   0.00000   0.00000   2.04349
    A8        2.00063   0.00000   0.00000   0.00000   0.00000   2.00063
    A9        2.14116   0.00000   0.00000   0.00000   0.00000   2.14116
   A10        2.14139   0.00000   0.00000   0.00000   0.00000   2.14139
   A11        2.15608   0.00000   0.00000   0.00000   0.00000   2.15608
   A12        2.04334   0.00000   0.00000   0.00000   0.00000   2.04334
   A13        2.08376   0.00000   0.00000   0.00000   0.00000   2.08376
   A14        2.13330   0.00000   0.00000   0.00000   0.00000   2.13330
   A15        2.11850   0.00000   0.00000   0.00000   0.00000   2.11850
   A16        2.03139   0.00000   0.00000   0.00000   0.00000   2.03139
    D1        3.14113   0.00000   0.00000   0.00000   0.00000   3.14112
    D2       -0.00072   0.00000   0.00000  -0.00001  -0.00001  -0.00073
    D3       -0.00012   0.00000   0.00000  -0.00001  -0.00001  -0.00013
    D4       -3.14042   0.00000   0.00000  -0.00001  -0.00001  -3.14043
    D5        0.00113   0.00000   0.00000   0.00001   0.00001   0.00114
    D6       -3.14048   0.00000   0.00000   0.00001   0.00001  -3.14047
    D7       -3.14071   0.00000   0.00000   0.00001   0.00001  -3.14070
    D8        0.00086   0.00000   0.00000   0.00001   0.00001   0.00087
    D9       -0.00057   0.00000   0.00000  -0.00001  -0.00001  -0.00058
   D10        3.14068   0.00000   0.00000   0.00000   0.00000   3.14067
   D11        3.14104   0.00000   0.00000  -0.00001  -0.00001   3.14103
   D12       -0.00090   0.00000   0.00000   0.00000   0.00000  -0.00090
   D13       -0.00030   0.00000   0.00000  -0.00001  -0.00001  -0.00031
   D14        3.14079   0.00000   0.00000  -0.00001  -0.00001   3.14079
   D15       -3.14155   0.00000   0.00000  -0.00001  -0.00001  -3.14156
   D16       -0.00046   0.00000   0.00000  -0.00001  -0.00001  -0.00046
   D17        0.00066   0.00000   0.00000   0.00001   0.00001   0.00067
   D18        3.14101   0.00000   0.00000   0.00001   0.00001   3.14103
   D19       -3.14043   0.00000   0.00000   0.00001   0.00001  -3.14042
   D20       -0.00007   0.00000   0.00000   0.00001   0.00001  -0.00006
         Item               Value     Threshold  Converged?
 Maximum Force            0.000002     0.000015     YES
 RMS     Force            0.000000     0.000010     YES
 Maximum Displacement     0.000022     0.000060     YES
 RMS     Displacement     0.000007     0.000040     YES
 Predicted change in Energy=-3.094342D-11
 Optimization completed.
    -- Stationary point found.
                           ----------------------------
                           !   Optimized Parameters   !
                           ! (Angstroms and Degrees)  !
 --------------------------                            --------------------------
 ! Name  Definition              Value          Derivative Info.                !
 --------------------------------------------------------------------------------
 ! R1    R(1,2)                  1.4149         -DE/DX =    0.0                 !
 ! R2    R(1,7)                  1.415          -DE/DX =    0.0                 !
 ! R3    R(2,3)                  1.0892         -DE/DX =    0.0                 !
 ! R4    R(2,4)                  1.3846         -DE/DX =    0.0                 !
 ! R5    R(4,5)                  1.3844         -DE/DX =    0.0                 !
 ! R6    R(4,10)                 1.3666         -DE/DX =    0.0                 !
 ! R7    R(5,6)                  1.3844         -DE/DX =    0.0                 !
 ! R8    R(5,9)                  1.0822         -DE/DX =    0.0                 !
 ! R9    R(6,7)                  1.3847         -DE/DX =    0.0                 !
 ! R10   R(6,11)                 1.3667         -DE/DX =    0.0                 !
 ! R11   R(7,8)                  1.0891         -DE/DX =    0.0                 !
 ! A1    A(2,1,7)              113.8442         -DE/DX =    0.0                 !
 ! A2    A(1,2,3)              121.3851         -DE/DX =    0.0                 !
 ! A3    A(1,2,4)              122.2338         -DE/DX =    0.0                 !
 ! A4    A(3,2,4)              116.3812         -DE/DX =    0.0                 !
 ! A5    A(2,4,5)              123.5308         -DE/DX =    0.0                 !
 ! A6    A(2,4,10)             119.3857         -DE/DX =    0.0                 !
 ! A7    A(5,4,10)             117.0834         -DE/DX =    0.0                 !
 ! A8    A(4,5,6)              114.6278         -DE/DX =    0.0                 !
 ! A9    A(4,5,9)              122.6795         -DE/DX =    0.0                 !
 ! A10   A(6,5,9)              122.6927         -DE/DX =    0.0                 !
 ! A11   A(5,6,7)              123.5345         -DE/DX =    0.0                 !
 ! A12   A(5,6,11)             117.0748         -DE/DX =    0.0                 !
 ! A13   A(7,6,11)             119.3907         -DE/DX =    0.0                 !
 ! A14   A(1,7,6)              122.2288         -DE/DX =    0.0                 !
 ! A15   A(1,7,8)              121.381          -DE/DX =    0.0                 !
 ! A16   A(6,7,8)              116.3901         -DE/DX =    0.0                 !
 ! D1    D(7,1,2,3)            179.9734         -DE/DX =    0.0                 !
 ! D2    D(7,1,2,4)             -0.0415         -DE/DX =    0.0                 !
 ! D3    D(2,1,7,6)             -0.007          -DE/DX =    0.0                 !
 ! D4    D(2,1,7,8)           -179.9329         -DE/DX =    0.0                 !
 ! D5    D(1,2,4,5)              0.0647         -DE/DX =    0.0                 !
 ! D6    D(1,2,4,10)          -179.9364         -DE/DX =    0.0                 !
 ! D7    D(3,2,4,5)           -179.9494         -DE/DX =    0.0                 !
 ! D8    D(3,2,4,10)             0.0494         -DE/DX =    0.0                 !
 ! D9    D(2,4,5,6)             -0.0328         -DE/DX =    0.0                 !
 ! D10   D(2,4,5,9)            179.9475         -DE/DX =    0.0                 !
 ! D11   D(10,4,5,6)           179.9684         -DE/DX =    0.0                 !
 ! D12   D(10,4,5,9)            -0.0513         -DE/DX =    0.0                 !
 ! D13   D(4,5,6,7)             -0.0173         -DE/DX =    0.0                 !
 ! D14   D(4,5,6,11)           179.9541         -DE/DX =    0.0                 !
 ! D15   D(9,5,6,7)           -179.9976         -DE/DX =    0.0                 !
 ! D16   D(9,5,6,11)            -0.0262         -DE/DX =    0.0                 !
 ! D17   D(5,6,7,1)              0.0376         -DE/DX =    0.0                 !
 ! D18   D(5,6,7,8)            179.9669         -DE/DX =    0.0                 !
 ! D19   D(11,6,7,1)          -179.9333         -DE/DX =    0.0                 !
 ! D20   D(11,6,7,8)            -0.0039         -DE/DX =    0.0                 !
 --------------------------------------------------------------------------------
 GradGradGradGradGradGradGradGradGradGradGradGradGradGradGradGradGradGrad


 ----------------------------------------------------------------------

 Electric dipole moment (input orientation):
 (Debye = 10**-18 statcoulomb cm , SI units = C m)
                  (au)            (Debye)         (10**-30 SI)
   Tot        0.198823D+02      0.505357D+02      0.168569D+03
   x         -0.111625D+02     -0.283723D+02     -0.946397D+02
   y         -0.134113D+02     -0.340882D+02     -0.113706D+03
   z         -0.953098D+01     -0.242253D+02     -0.808070D+02

 Dipole polarizability, Alpha (input orientation).
 (esu units = cm**3 , SI units = C**2 m**2 J**-1)
 Alpha(0;0):
               (au)            (10**-24 esu)      (10**-40 SI)
   iso        0.104392D+03      0.154693D+02      0.172119D+02
   aniso      0.599709D+02      0.888677D+01      0.988787D+01
   xx         0.125041D+03      0.185292D+02      0.206165D+02
   yx         0.210569D+01      0.312031D+00      0.347181D+00
   yy         0.105312D+03      0.156056D+02      0.173636D+02
   zx         0.170683D+02      0.252927D+01      0.281419D+01
   zy        -0.213739D+02     -0.316729D+01     -0.352408D+01
   zz         0.828228D+02      0.122731D+02      0.136556D+02

 ----------------------------------------------------------------------

 Dipole orientation:
     6          0.43842797          0.57347260        -20.31227665
     6         -0.99969833          1.16652451        -18.13758390
     1         -1.09855212          3.08908765        -17.40933333
     6         -2.35250608         -0.64608178        -16.82196817
     6         -2.42197213         -3.17211726        -17.49944049
     6         -1.01887750         -3.76973643        -19.62501815
     6          0.35584195         -2.01161636        -20.99096494
     1          1.38160826         -2.72339350        -22.62712186
     1         -3.48738881         -4.56771868        -16.45080352
     9         -3.70688398          0.04948223        -14.73604329
     9         -1.01952072         -6.24031772        -20.37759653

 Electric dipole moment (dipole orientation):
 (Debye = 10**-18 statcoulomb cm , SI units = C m)
                  (au)            (Debye)         (10**-30 SI)
   Tot        0.198823D+02      0.505357D+02      0.168569D+03
   x          0.000000D+00      0.000000D+00      0.000000D+00
   y          0.000000D+00      0.000000D+00      0.000000D+00
   z          0.198823D+02      0.505357D+02      0.168569D+03

 Dipole polarizability, Alpha (dipole orientation).
 (esu units = cm**3 , SI units = C**2 m**2 J**-1)
 Alpha(0;0):
               (au)            (10**-24 esu)      (10**-40 SI)
   iso        0.104392D+03      0.154693D+02      0.172119D+02
   aniso      0.599709D+02      0.888677D+01      0.988787D+01
   xx         0.883668D+02      0.130946D+02      0.145697D+02
   yx         0.131943D+02      0.195520D+01      0.217545D+01
   yy         0.121487D+03      0.180025D+02      0.200304D+02
   zx        -0.273603D+02     -0.405437D+01     -0.451110D+01
   zy        -0.103665D+01     -0.153615D+00     -0.170920D+00
   zz         0.103322D+03      0.153108D+02      0.170355D+02

 ----------------------------------------------------------------------
 Unable to Open any file for archive entry.
 1\1\GINC-CN013\Freq\RM062X\6-311+G(d,p)\C6H3F2(1-)\TAHMINAAFROZ\30-May
 -2025\0\\#N Geom=AllCheck Guess=TCheck SCRF=Check GenChk RM062X/6-311+
 G(d,p) Freq\\3-5-diF-ph-anion-opt-freq-thf\\-1,1\C,6.2949568894,6.9809
 32067,5.2271020332\C,5.1303264252,6.1821845629,5.3143945871\H,5.133239
 6832,5.2311579772,5.8452847532\C,3.9305720469,6.5600121966,4.735564725
 1\C,3.7607306797,7.7368403222,4.0263915751\C,4.895562397,8.5244753126,
 3.9354173914\C,6.1120136213,8.1816100068,4.5010561245\H,6.9288461296,8
 .8874910935,4.3572837292\H,2.8164615395,8.0182349022,3.5787536618\F,2.
 841076049,5.7440427316,4.8570855228\F,4.7842065391,9.6984698274,3.2446
 438967\\Version=AS64L-G16RevC.01\HF=-430.1376343\RMSD=9.122e-10\RMSF=7
 .945e-06\ZeroPoint=0.0705843\Thermal=0.0765186\ETot=-430.0611157\HTot=
 -430.0601715\GTot=-430.0972099\Dipole=-2.4017754,0.7157269,-1.1387273\
 DipoleDeriv=-0.2681013,-0.0002347,0.1604137,-0.0028369,-0.4790576,-0.1
 765131,0.1628327,-0.1745348,-0.6485987,-0.5364237,-0.0200632,-0.089865
 1,0.1796421,0.0084673,-0.0645941,-0.1985036,-0.1264036,-0.1981404,0.08
 43312,-0.0365603,0.0009685,-0.0905472,-0.1141474,0.1178099,0.030852,0.
 132871,0.0830765,1.4207234,0.4942775,0.107151,0.5304103,1.0384871,-0.3
 190639,0.0836856,-0.3296762,0.3872085,-0.4584656,-0.1000356,-0.0016224
 ,-0.1013707,-0.5556571,0.1286063,-0.0037234,0.1283052,-0.3463699,0.845
 3878,0.0338959,0.1860367,-0.0049862,1.3871169,-0.6762789,0.2101749,-0.
 6680127,0.6171283,-0.3339064,0.3518266,-0.2350284,0.1531864,-0.117737,
 -0.0061275,-0.1277414,0.0540209,-0.2786302,0.0040554,-0.1612166,0.0464
 776,-0.1048653,-0.0618443,0.0847286,0.0172546,0.0693632,0.1136196,0.04
 2186,0.0089051,-0.0691245,0.0092271,0.1390005,0.066254,-0.0690663,0.06
 63516,0.1941339,-1.4168868,-0.7048121,0.0216527,-0.7606945,-0.8088156,
 0.1016913,0.0555647,0.119754,-0.257689,-0.3829002,0.1340172,-0.1270599
 ,0.1928349,-1.4358129,0.7434875,-0.1613298,0.7279614,-0.6657385\Polar=
 125.0410789,2.1056863,105.3117373,17.0683349,-21.3739124,82.8227657\Qu
 adrupole=5.1981885,-48.2971948,43.0990063,-150.012106,-108.0199837,-12
 5.6272658\PG=C01 [X(C6H3F2)]\NImag=0\\0.35035871,0.09230624,0.39875728
 ,0.03651787,-0.15641475,0.16583318,-0.21984267,-0.08428940,-0.00706110
 ,0.57275317,-0.10510715,-0.15084461,0.02673616,0.04803349,0.57555404,0
 .00452740,0.03311280,-0.06329395,0.11167369,-0.23851547,0.28927952,0.0
 0085182,-0.02131190,0.01353821,-0.05193905,0.00478054,-0.00809715,0.05
 522995,-0.00339368,-0.01237011,0.00328160,0.01020583,-0.25207543,0.124
 83418,-0.00214064,0.27056584,0.00355270,-0.00226618,-0.00229352,-0.011
 09414,0.12319809,-0.10598187,0.01084793,-0.13829827,0.10426010,-0.0522
 6240,-0.05241343,0.00879363,-0.24668171,0.10116969,-0.11097213,-0.0001
 9303,-0.00325401,0.00040862,0.59653454,0.00782021,0.05153097,-0.018293
 24,0.01915793,-0.13299784,0.04198030,0.02391973,-0.00850191,0.01447920
 ,0.01508341,0.56261445,-0.02489715,-0.03674547,0.02744860,-0.06511735,
 0.06717056,-0.12504502,-0.01470190,0.00611724,-0.00367042,0.12861178,-
 0.22569139,0.31385153,-0.01019850,-0.02406369,0.01128583,0.02369406,0.
 02236642,-0.00833031,-0.00401492,0.00140889,-0.00357591,-0.12328210,0.
 06858102,-0.05766981,0.72986186,-0.02415696,-0.04925977,0.01833104,0.0
 7046602,-0.00022132,0.02741831,0.00040608,0.00188266,0.00189618,-0.001
 06551,-0.26367294,0.11291166,0.04929816,0.57120972,0.01132872,0.018326
 52,-0.00996892,-0.03514735,0.01265145,-0.00765155,-0.00301991,0.002216
 87,0.00292045,-0.01888853,0.13437341,-0.14095550,0.16384971,-0.2430112
 1,0.29483994,0.03320324,0.08195432,-0.04006932,-0.07678711,-0.00640686
 ,-0.01853193,-0.00213516,-0.00079964,-0.00031082,0.05445231,-0.0742983
 4,0.06039833,-0.28775879,-0.07464422,-0.02832289,0.68114324,0.02185736
 ,-0.00040106,0.01505842,-0.01299111,-0.00164479,-0.00558265,-0.0007748
 2,0.00091281,-0.00053628,-0.01287037,-0.04538567,0.01736661,-0.1443466
 7,-0.16426500,0.01366578,0.08924944,0.51156079,-0.00644632,0.03355027,
 -0.00615402,-0.01490674,-0.00360208,-0.00710615,-0.00032874,-0.0005697
 5,0.00054547,0.02626244,-0.00146629,0.00173661,0.01050717,0.03515861,-
 0.07698408,0.11344783,-0.17492938,0.28241233,-0.10015232,-0.00017134,-
 0.01665181,0.03618744,-0.02190125,0.02403904,-0.00136076,-0.00329414,-
 0.00157926,-0.03012757,0.03414931,-0.02696915,-0.04912458,-0.04091701,
 0.00455152,-0.29124723,0.06237155,-0.10327576,0.64406026,0.02070188,-0
 .22562276,0.10540681,-0.04116371,-0.03352900,0.00493831,-0.00561030,0.
 00060929,0.00337690,0.02759826,-0.03002538,0.02273000,0.00717738,0.044
 15442,-0.01674943,-0.01960861,-0.10618893,0.01519428,0.10977953,0.5336
 7375,-0.02830199,0.09906172,-0.11063591,0.03472313,0.01076851,0.002466
 75,-0.00028858,0.00408646,0.00738400,-0.02328465,0.02476919,-0.0254349
 1,-0.02226112,-0.03152902,0.02094817,-0.05732274,0.04041610,-0.1082431
 8,0.09917758,-0.19499071,0.26235786,0.00849871,0.00331683,0.00220297,0
 .00260416,0.00011849,-0.00225464,0.00016973,0.00014856,-0.00008707,0.0
 0037823,0.00139966,-0.00077156,-0.00344837,0.00189342,-0.00367607,-0.0
 2079087,-0.02116026,0.00411553,-0.21265776,-0.13027969,0.01762504,0.22
 412005,-0.01466279,-0.01700502,0.00239275,-0.00217352,-0.00178757,0.00
 579053,-0.00090721,-0.00048764,0.00009575,0.00141165,-0.00063829,0.000
 97077,0.00089967,0.00155389,0.00225153,0.00603423,0.00402635,0.0020015
 7,-0.13567896,-0.15393445,0.02542233,0.14534959,0.16737786,0.01225217,
 0.00787776,-0.00526808,-0.00097353,0.00649083,0.00585540,0.00050273,0.
 00042697,0.00010580,-0.00078035,0.00096575,-0.00044441,-0.00311998,0.0
 0255756,0.00269195,-0.01112086,-0.00636615,0.00443298,0.02064066,0.027
 13188,-0.04283012,-0.01945452,-0.03561665,0.03782210,0.00008093,-0.000
 31416,0.00078796,0.00222732,-0.00050583,-0.00044808,0.00009335,-0.0001
 4728,-0.00009417,0.00037524,-0.00188828,0.00012729,-0.27915795,0.06354
 183,-0.11311090,-0.01417292,0.01001238,-0.01097597,-0.00154308,-0.0042
 3635,0.00047645,-0.00081125,0.00025849,-0.00059751,0.29057258,-0.00030
 550,-0.00123156,-0.00047044,-0.00100778,-0.00324398,0.00406262,0.00104
 764,-0.00013802,0.00076489,0.02268610,-0.00027620,0.00902205,0.0635309
 6,-0.06964504,0.04344548,-0.01462939,0.00860587,-0.00741893,-0.0037325
 2,-0.00098621,0.00196819,-0.00093451,0.00041606,-0.00014604,-0.0693369
 5,0.06393541,0.00078766,-0.00045685,-0.00140677,-0.00018004,0.00422569
 ,0.00217287,-0.00076011,0.00040146,0.00020863,-0.01359285,0.00142556,-
 0.00160390,-0.11305557,0.04350076,-0.08617961,0.00272569,0.00012717,0.
 00413125,0.00023503,0.00179154,0.00365679,0.00006704,0.00022017,0.0005
 6507,0.12190528,-0.04577524,0.08345985,-0.00306145,0.00949463,-0.00790
 587,-0.04666641,-0.04268951,0.00707026,0.00289830,0.00082839,0.0014722
 4,-0.19230438,-0.09626073,0.00710108,-0.00561666,-0.01109477,0.0026321
 0,-0.00198886,0.00127828,-0.00403712,0.00072622,-0.00443938,0.00269465
 ,-0.00013380,-0.00051941,0.00085372,0.00087271,0.00093596,0.00108767,0
 .24526857,-0.00070272,0.00188924,0.00174663,-0.00510135,0.00406821,0.0
 0056836,0.00066148,0.00052371,-0.00213681,-0.09536409,-0.13799359,0.02
 515232,-0.04661001,-0.03125712,0.00641803,0.00658231,0.00235695,0.0056
 1440,-0.00307135,-0.00104473,-0.00046176,-0.00003236,-0.00057635,-0.00
 072785,0.00118440,0.00146911,-0.00287737,0.14491868,0.16470815,-0.0021
 9584,0.00488855,0.00200832,-0.01396392,-0.01095629,0.00980796,0.001562
 53,-0.00209284,-0.00205198,0.00659744,0.02483591,-0.05223599,0.0224596
 5,0.01736251,0.00319872,-0.00699985,0.00395936,0.00443326,0.00199204,-
 0.00085130,0.00096828,0.00055851,-0.00089340,-0.00122490,0.00095765,-0
 .00296542,-0.00236157,-0.01226166,-0.03500729,0.03775226,-0.00747607,-
 0.00450811,-0.00143838,0.00445080,0.00014196,0.00132385,0.00039976,0.0
 0043772,0.00045987,-0.00688913,0.00233608,-0.00611157,0.00904595,-0.03
 372705,0.01980358,-0.07391784,0.00737422,-0.01436231,0.00523938,0.0400
 8100,-0.02323777,0.00207116,-0.00001173,0.00179748,0.00146308,0.001746
 00,0.00078019,0.00000576,-0.00246498,0.00129344,0.06560716,0.00564311,
 0.00455741,0.00222500,-0.00113640,-0.00327772,0.00139272,-0.00007060,-
 0.00092122,-0.00057350,-0.00298170,0.00534640,0.00099565,0.00175787,-0
 .04047948,0.02641159,0.00656677,-0.20957733,0.09646730,0.00246618,-0.0
 2710601,0.02048900,0.00018027,0.00105516,-0.00259406,0.00143175,0.0010
 9457,-0.00258289,-0.00245214,-0.00414358,0.00172021,-0.01140511,0.2734
 5180,-0.00712521,-0.00093436,0.00373106,0.00204733,0.00183255,-0.00050
 397,0.00074499,-0.00040391,-0.00142667,-0.00315541,0.00262159,0.006353
 41,-0.00008968,0.01540359,-0.00285958,-0.01389344,0.09682102,-0.099204
 49,-0.00215989,0.03202172,-0.01063773,0.00167476,-0.00263536,-0.001705
 79,0.00097200,-0.00248715,-0.00264262,0.00129292,0.00171134,-0.0002943
 7,0.01969161,-0.14395102,0.10919074\\0.00000110,0.00000263,0.00000433,
 -0.00000515,0.00000549,0.00001047,-0.00000422,0.00001095,0.00001938,-0
 .00000025,0.00000513,0.00000758,0.00000100,-0.00000205,-0.00000213,0.0
 0000240,-0.00000722,-0.00000845,0.00000049,-0.00000127,-0.00000819,0.0
 0000353,-0.00000641,-0.00001338,0.00000105,-0.00000380,-0.00000462,-0.
 00000450,0.00000651,0.00001513,0.00000455,-0.00000995,-0.00002011\\\@
 The archive entry for this job was punched.


 FROM AN ANONYMOUS WRITER, ON PERSPECTIVE:

 MAN, DESPITE HIS ARTISTIC PRETENSIONS, HIS SOPHISTICATION AND MANY 
 ACCOMPLISHMENTS, OWES THE FACT OF HIS EXISTENCE TO A SIX-INCH LAYER OF 
 TOPSOIL AND THE FACT THAT IT RAINS.
 Job cpu time:       0 days  0 hours 17 minutes 21.2 seconds.
 Elapsed time:       0 days  0 hours  0 minutes 34.7 seconds.
 File lengths (MBytes):  RWF=     68 Int=      0 D2E=      0 Chk=     10 Scr=      1
 Normal termination of Gaussian 16 at Fri May 30 05:04:48 2025.
