/home/tahminaafroz
cn018.cluster.local
tahminaafroz
Wed Apr 30 05:00:34 CDT 2025
 Entering Gaussian System, Link 0=g16
 Initial command:
 /home/apps/g16/l1.exe "/tmp/3-br-phboh2-opt-freq-thf/Gau-2060581.inp" -scrdir="/tmp/3-br-phboh2-opt-freq-thf/"
 Entering Link 1 = /home/apps/g16/l1.exe PID=   2060582.
  
 Copyright (c) 1988-2019, Gaussian, Inc.  All Rights Reserved.
  
 This is part of the Gaussian(R) 16 program.  It is based on
 the Gaussian(R) 09 system (copyright 2009, Gaussian, Inc.),
 the Gaussian(R) 03 system (copyright 2003, Gaussian, Inc.),
 the Gaussian(R) 98 system (copyright 1998, Gaussian, Inc.),
 the Gaussian(R) 94 system (copyright 1995, Gaussian, Inc.),
 the Gaussian 92(TM) system (copyright 1992, Gaussian, Inc.),
 the Gaussian 90(TM) system (copyright 1990, Gaussian, Inc.),
 the Gaussian 88(TM) system (copyright 1988, Gaussian, Inc.),
 the Gaussian 86(TM) system (copyright 1986, Carnegie Mellon
 University), and the Gaussian 82(TM) system (copyright 1983,
 Carnegie Mellon University). Gaussian is a federally registered
 trademark of Gaussian, Inc.
  
 This software contains proprietary and confidential information,
 including trade secrets, belonging to Gaussian, Inc.
  
 This software is provided under written license and may be
 used, copied, transmitted, or stored only in accord with that
 written license.
  
 The following legend is applicable only to US Government
 contracts under FAR:
  
                    RESTRICTED RIGHTS LEGEND
  
 Use, reproduction and disclosure by the US Government is
 subject to restrictions as set forth in subparagraphs (a)
 and (c) of the Commercial Computer Software - Restricted
 Rights clause in FAR 52.227-19.
  
 Gaussian, Inc.
 340 Quinnipiac St., Bldg. 40, Wallingford CT 06492
  
  
 ---------------------------------------------------------------
 Warning -- This program may not be used in any manner that
 competes with the business of Gaussian, Inc. or will provide
 assistance to any competitor of Gaussian, Inc.  The licensee
 of this program is prohibited from giving any competitor of
 Gaussian, Inc. access to this program.  By using this program,
 the user acknowledges that Gaussian, Inc. is engaged in the
 business of creating and licensing software in the field of
 computational chemistry and represents and warrants to the
 licensee that it is not a competitor of Gaussian, Inc. and that
 it will not use this program in any manner prohibited above.
 ---------------------------------------------------------------
  

 Cite this work as:
 Gaussian 16, Revision C.01,
 M. J. Frisch, G. W. Trucks, H. B. Schlegel, G. E. Scuseria, 
 M. A. Robb, J. R. Cheeseman, G. Scalmani, V. Barone, 
 G. A. Petersson, H. Nakatsuji, X. Li, M. Caricato, A. V. Marenich, 
 J. Bloino, B. G. Janesko, R. Gomperts, B. Mennucci, H. P. Hratchian, 
 J. V. Ortiz, A. F. Izmaylov, J. L. Sonnenberg, D. Williams-Young, 
 F. Ding, F. Lipparini, F. Egidi, J. Goings, B. Peng, A. Petrone, 
 T. Henderson, D. Ranasinghe, V. G. Zakrzewski, J. Gao, N. Rega, 
 G. Zheng, W. Liang, M. Hada, M. Ehara, K. Toyota, R. Fukuda, 
 J. Hasegawa, M. Ishida, T. Nakajima, Y. Honda, O. Kitao, H. Nakai, 
 T. Vreven, K. Throssell, J. A. Montgomery, Jr., J. E. Peralta, 
 F. Ogliaro, M. J. Bearpark, J. J. Heyd, E. N. Brothers, K. N. Kudin, 
 V. N. Staroverov, T. A. Keith, R. Kobayashi, J. Normand, 
 K. Raghavachari, A. P. Rendell, J. C. Burant, S. S. Iyengar, 
 J. Tomasi, M. Cossi, J. M. Millam, M. Klene, C. Adamo, R. Cammi, 
 J. W. Ochterski, R. L. Martin, K. Morokuma, O. Farkas, 
 J. B. Foresman, and D. J. Fox, Gaussian, Inc., Wallingford CT, 2019.
 
 ******************************************
 Gaussian 16:  AS64L-G16RevC.01  3-Jul-2019
                30-Apr-2025 
 ******************************************
 %mem=20GB
 %nprocshared=32
 Will use up to   32 processors via shared memory.
 %chk=3-br-phboh2-opt-freq-thf.chk
 ----------------------------------------------------------------------
 # opt=(calcfc,tight) freq 6-311+g(d,p) scrf=(smd,solvent=thf) nosymm s
 cf=(qc,fermi,xqc) geom=connectivity int=ultrafine m062x
 ----------------------------------------------------------------------
 1/7=10,10=4,18=20,19=15,26=6,38=1,57=2/1,3;
 2/9=110,12=2,15=1,17=6,18=5,40=1/2;
 3/5=4,6=6,7=111,11=2,25=1,30=1,70=32201,71=2,72=20,74=-55,75=-5,140=1/1,2,3;
 4//1;
 5/5=2,22=13,38=5,53=20/2;
 8/6=4,10=90,11=11/1;
 11/6=1,8=1,9=11,15=111,16=1,31=1/1,2,10;
 10/6=1,13=1,31=1/2;
 6/7=2,8=2,9=2,10=2,28=1/1;
 7/10=1,25=1,30=1/1,2,3,16;
 1/7=10,10=4,18=20,19=15,26=6/3(2);
 2/9=110,15=1/2;
 99//99;
 2/9=110,15=1/2;
 3/5=4,6=6,7=111,11=2,25=1,30=1,70=32205,71=1,72=20,74=-55,75=-5/1,2,3;
 4/5=5,16=3,69=1/1;
 5/5=2,22=13,38=5,53=20/2;
 7/30=1/1,2,3,16;
 1/7=10,18=20,19=15,26=6/3(-5);
 2/9=110,15=1/2;
 6/7=2,8=2,9=2,10=2,19=2,28=1/1;
 99/9=1/99;
 ------------------------
 3-br-phboh2-opt-freq-thf
 ------------------------
 Symbolic Z-matrix:
 Charge =  0 Multiplicity = 1
 O                     8.67812   7.47633   5.5776 
 H                     9.49652   7.16644   5.98248 
 C                     6.24162   6.99757   5.17489 
 B                     7.64016   6.61458   5.77822 
 O                     7.88391   5.4749    6.49171 
 H                     7.12003   4.9032    6.61372 
 C                     5.11388   6.17912   5.30147 
 H                     5.16655   5.23106   5.82922 
 C                     3.88452   6.5419    4.76092 
 H                     3.0216    5.89685   4.86883 
 C                     3.7881    7.74884   4.08069 
 C                     4.88272   8.5908    3.92966 
 C                     6.09974   8.2047    4.47935 
 H                     6.95793   8.85768   4.36531 
 H                     2.84619   8.03793   3.66339 
 Br                    4.71796   10.24373   2.98692 
 

 GradGradGradGradGradGradGradGradGradGradGradGradGradGradGradGradGradGrad
 Berny optimization.
 Initialization pass.
                           ----------------------------
                           !    Initial Parameters    !
                           ! (Angstroms and Degrees)  !
 --------------------------                            --------------------------
 ! Name  Definition              Value          Derivative Info.                !
 --------------------------------------------------------------------------------
 ! R1    R(1,2)                  0.9642         calculate D2E/DX2 analytically  !
 ! R2    R(1,4)                  1.3639         calculate D2E/DX2 analytically  !
 ! R3    R(3,4)                  1.5705         calculate D2E/DX2 analytically  !
 ! R4    R(3,7)                  1.3992         calculate D2E/DX2 analytically  !
 ! R5    R(3,13)                 1.4004         calculate D2E/DX2 analytically  !
 ! R6    R(4,5)                  1.3665         calculate D2E/DX2 analytically  !
 ! R7    R(5,6)                  0.9619         calculate D2E/DX2 analytically  !
 ! R8    R(7,8)                  1.0863         calculate D2E/DX2 analytically  !
 ! R9    R(7,9)                  1.3911         calculate D2E/DX2 analytically  !
 ! R10   R(9,10)                 1.0828         calculate D2E/DX2 analytically  !
 ! R11   R(9,11)                 1.3888         calculate D2E/DX2 analytically  !
 ! R12   R(11,12)                1.3892         calculate D2E/DX2 analytically  !
 ! R13   R(11,15)                1.07           calculate D2E/DX2 analytically  !
 ! R14   R(12,13)                1.3901         calculate D2E/DX2 analytically  !
 ! R15   R(12,16)                1.91           calculate D2E/DX2 analytically  !
 ! R16   R(13,14)                1.0844         calculate D2E/DX2 analytically  !
 ! A1    A(2,1,4)              112.4024         calculate D2E/DX2 analytically  !
 ! A2    A(4,3,7)              122.7061         calculate D2E/DX2 analytically  !
 ! A3    A(4,3,13)             119.4214         calculate D2E/DX2 analytically  !
 ! A4    A(7,3,13)             117.8725         calculate D2E/DX2 analytically  !
 ! A5    A(1,4,3)              117.846          calculate D2E/DX2 analytically  !
 ! A6    A(1,4,5)              117.9047         calculate D2E/DX2 analytically  !
 ! A7    A(3,4,5)              124.2492         calculate D2E/DX2 analytically  !
 ! A8    A(4,5,6)              114.8517         calculate D2E/DX2 analytically  !
 ! A9    A(3,7,8)              121.0223         calculate D2E/DX2 analytically  !
 ! A10   A(3,7,9)              121.6406         calculate D2E/DX2 analytically  !
 ! A11   A(8,7,9)              117.337          calculate D2E/DX2 analytically  !
 ! A12   A(7,9,10)             120.6782         calculate D2E/DX2 analytically  !
 ! A13   A(7,9,11)             118.5764         calculate D2E/DX2 analytically  !
 ! A14   A(10,9,11)            120.7453         calculate D2E/DX2 analytically  !
 ! A15   A(9,11,12)            121.6856         calculate D2E/DX2 analytically  !
 ! A16   A(9,11,15)            119.1401         calculate D2E/DX2 analytically  !
 ! A17   A(12,11,15)           119.1743         calculate D2E/DX2 analytically  !
 ! A18   A(11,12,13)           118.5883         calculate D2E/DX2 analytically  !
 ! A19   A(11,12,16)           120.6768         calculate D2E/DX2 analytically  !
 ! A20   A(13,12,16)           120.735          calculate D2E/DX2 analytically  !
 ! A21   A(3,13,12)            121.6364         calculate D2E/DX2 analytically  !
 ! A22   A(3,13,14)            119.4139         calculate D2E/DX2 analytically  !
 ! A23   A(12,13,14)           118.9497         calculate D2E/DX2 analytically  !
 ! D1    D(2,1,4,3)            179.8215         calculate D2E/DX2 analytically  !
 ! D2    D(2,1,4,5)             -0.1273         calculate D2E/DX2 analytically  !
 ! D3    D(7,3,4,1)            178.9817         calculate D2E/DX2 analytically  !
 ! D4    D(7,3,4,5)             -1.0729         calculate D2E/DX2 analytically  !
 ! D5    D(13,3,4,1)            -1.0604         calculate D2E/DX2 analytically  !
 ! D6    D(13,3,4,5)           178.8849         calculate D2E/DX2 analytically  !
 ! D7    D(4,3,7,8)             -0.1439         calculate D2E/DX2 analytically  !
 ! D8    D(4,3,7,9)            179.8344         calculate D2E/DX2 analytically  !
 ! D9    D(13,3,7,8)           179.8976         calculate D2E/DX2 analytically  !
 ! D10   D(13,3,7,9)            -0.1241         calculate D2E/DX2 analytically  !
 ! D11   D(4,3,13,12)         -179.8337         calculate D2E/DX2 analytically  !
 ! D12   D(4,3,13,14)            0.1091         calculate D2E/DX2 analytically  !
 ! D13   D(7,3,13,12)            0.1262         calculate D2E/DX2 analytically  !
 ! D14   D(7,3,13,14)         -179.931          calculate D2E/DX2 analytically  !
 ! D15   D(1,4,5,6)            179.4569         calculate D2E/DX2 analytically  !
 ! D16   D(3,4,5,6)             -0.4884         calculate D2E/DX2 analytically  !
 ! D17   D(3,7,9,10)          -179.9533         calculate D2E/DX2 analytically  !
 ! D18   D(3,7,9,11)             0.0267         calculate D2E/DX2 analytically  !
 ! D19   D(8,7,9,10)             0.0257         calculate D2E/DX2 analytically  !
 ! D20   D(8,7,9,11)          -179.9942         calculate D2E/DX2 analytically  !
 ! D21   D(7,9,11,12)            0.0746         calculate D2E/DX2 analytically  !
 ! D22   D(7,9,11,15)         -179.8492         calculate D2E/DX2 analytically  !
 ! D23   D(10,9,11,12)        -179.9454         calculate D2E/DX2 analytically  !
 ! D24   D(10,9,11,15)           0.1308         calculate D2E/DX2 analytically  !
 ! D25   D(9,11,12,13)          -0.0726         calculate D2E/DX2 analytically  !
 ! D26   D(9,11,12,16)         179.9389         calculate D2E/DX2 analytically  !
 ! D27   D(15,11,12,13)        179.8511         calculate D2E/DX2 analytically  !
 ! D28   D(15,11,12,16)         -0.1373         calculate D2E/DX2 analytically  !
 ! D29   D(11,12,13,3)          -0.0307         calculate D2E/DX2 analytically  !
 ! D30   D(11,12,13,14)       -179.9738         calculate D2E/DX2 analytically  !
 ! D31   D(16,12,13,3)         179.9577         calculate D2E/DX2 analytically  !
 ! D32   D(16,12,13,14)          0.0146         calculate D2E/DX2 analytically  !
 --------------------------------------------------------------------------------
 Trust Radius=3.00D-01 FncErr=5.00D-06 GrdErr=5.00D-06 EigMax=2.50D+02 EigMin=1.00D-04
 Number of steps in this run=     81 maximum allowed number of steps=    100.
 GradGradGradGradGradGradGradGradGradGradGradGradGradGradGradGradGradGrad

                          Input orientation:                          
 ---------------------------------------------------------------------
 Center     Atomic      Atomic             Coordinates (Angstroms)
 Number     Number       Type             X           Y           Z
 ---------------------------------------------------------------------
      1          8           0        8.678122    7.476325    5.577604
      2          1           0        9.496520    7.166437    5.982475
      3          6           0        6.241617    6.997570    5.174887
      4          5           0        7.640159    6.614580    5.778224
      5          8           0        7.883905    5.474902    6.491714
      6          1           0        7.120033    4.903202    6.613724
      7          6           0        5.113879    6.179115    5.301469
      8          1           0        5.166551    5.231059    5.829221
      9          6           0        3.884518    6.541902    4.760923
     10          1           0        3.021595    5.896847    4.868828
     11          6           0        3.788095    7.748839    4.080693
     12          6           0        4.882718    8.590803    3.929663
     13          6           0        6.099736    8.204699    4.479345
     14          1           0        6.957927    8.857675    4.365314
     15          1           0        2.846189    8.037933    3.663394
     16         35           0        4.717963   10.243735    2.986916
 ---------------------------------------------------------------------
                    Distance matrix (angstroms):
                    1          2          3          4          5
     1  O    0.000000
     2  H    0.964223   0.000000
     3  C    2.515540   3.357843   0.000000
     4  B    1.363899   1.947393   1.570547   0.000000
     5  O    2.339246   2.391891   2.598011   1.366509   0.000000
     6  H    3.181532   3.341915   2.688539   1.974185   0.961888
     7  C    3.803003   4.543800   1.399173   2.607492   3.096069
     8  H    4.175603   4.745293   2.168982   2.834690   2.807556
     9  C    4.951641   5.777266   2.436168   3.891661   4.486560
    10  H    5.915523   6.691541   3.416695   4.761646   5.143331
    11  C    5.121266   6.045005   2.789523   4.359650   5.268726
    12  C    4.285191   5.246906   2.436305   3.863433   5.027929
    13  C    2.895648   3.856881   1.400382   2.566801   3.832059
    14  H    2.517309   3.452528   2.151395   2.737377   4.101483
    15  H    6.163687   7.096798   3.859520   5.429603   6.320372
    16  Br   5.482069   6.424776   4.200753   5.431519   6.711823
                    6          7          8          9         10
     6  H    0.000000
     7  C    2.715625   0.000000
     8  H    2.130499   1.086327   0.000000
     9  C    4.072685   1.391091   2.122069   0.000000
    10  H    4.563900   2.155112   2.442635   1.082763   0.000000
    11  C    5.061196   2.389986   3.361057   1.388779   2.153730
    12  C    5.080174   2.784156   3.869982   2.425983   3.406348
    13  C    4.061584   2.398081   3.396400   2.784128   3.866889
    14  H    4.551866   3.384019   4.301674   3.868482   4.951236
    15  H    6.066030   3.358707   4.237148   2.126218   2.463349
    16  Br   6.888031   4.694150   5.779866   4.188711   5.031371
                   11         12         13         14         15
    11  C    0.000000
    12  C    1.389213   0.000000
    13  C    2.389648   1.390093   0.000000
    14  H    3.370217   2.137172   1.084377   0.000000
    15  H    1.070000   2.126973   3.358445   4.251006   0.000000
    16  Br   2.878456   1.910000   2.879984   2.972975   2.970980
                   16
    16  Br   0.000000
 Symmetry turned off by external request.
 Stoichiometry    C6H6BBrO2
 Framework group  C1[X(C6H6BBrO2)]
 Deg. of freedom    42
 Full point group                 C1      NOp   1
 Rotational constants (GHZ):           1.9232654           0.4518103           0.3658709
 Standard basis: 6-311+G(d,p) (5D, 7F)
   282 basis functions,   466 primitive gaussians,   294 cartesian basis functions
    49 alpha electrons       49 beta electrons
       nuclear repulsion energy       685.8905013160 Hartrees.
 NAtoms=   16 NActive=   16 NUniq=   16 SFac= 1.00D+00 NAtFMM=   60 NAOKFM=F Big=F
 Integral buffers will be    131072 words long.
 Raffenetti 2 integral format.
 Two-electron integral symmetry is turned off.
 Force inversion solution in PCM.
 ------------------------------------------------------------------------------
 Polarizable Continuum Model (PCM)
 =================================
 Model                : PCM.
 Atomic radii         : SMD-Coulomb.
 Polarization charges : Total charges.
 Charge compensation  : None.
 Solution method      : Matrix inversion.
 Cavity type          : VdW (van der Waals Surface) (Alpha=1.000).
 Cavity algorithm     : GePol (No added spheres)
                        Default sphere list used, NSphG=   16.
                        Lebedev-Laikov grids with approx.  5.0 points / Ang**2.
                        Smoothing algorithm: York/Karplus (Gamma=1.0000).
                        Polarization charges: spherical gaussians, with
                                              point-specific exponents (IZeta= 3).
                        Self-potential: point-specific (ISelfS= 7).
                        Self-field    : sphere-specific E.n sum rule (ISelfD= 2).
 1st derivatives      : Analytical E(r).r(x)/FMM algorithm (CHGder, D1EAlg=3).
                        Cavity 1st derivative terms included.
 2nd derivatives      : Analytical E(r).r(xy)/FMM algorithm (CHGder, D2EAlg=3).
                        Cavity 2nd derivative terms included.
 Solvent              : TetraHydroFuran, Eps=   7.425700 Eps(inf)=   1.974025
 ------------------------------------------------------------------------------
 Spheres list:
 ISph  on   Nord     Re0    Alpha      Xe            Ye            Ze
    1   O      1    2.2940  1.000      8.678122      7.476325      5.577604
    2   H      2    1.2000  1.000      9.496520      7.166437      5.982475
    3   C      3    1.8500  1.000      6.241617      6.997570      5.174887
    4   B      4    1.8000  1.000      7.640159      6.614580      5.778224
    5   O      5    2.2940  1.000      7.883905      5.474902      6.491714
    6   H      6    1.2000  1.000      7.120033      4.903202      6.613724
    7   C      7    1.8500  1.000      5.113879      6.179115      5.301469
    8   H      8    1.2000  1.000      5.166551      5.231059      5.829221
    9   C      9    1.8500  1.000      3.884518      6.541902      4.760923
   10   H     10    1.2000  1.000      3.021595      5.896847      4.868828
   11   C     11    1.8500  1.000      3.788095      7.748839      4.080693
   12   C     12    1.8500  1.000      4.882718      8.590803      3.929663
   13   C     13    1.8500  1.000      6.099736      8.204699      4.479345
   14   H     14    1.2000  1.000      6.957927      8.857675      4.365314
   15   H     15    1.2000  1.000      2.846189      8.037933      3.663394
   16  Br     16    3.0600  1.000      4.717963     10.243735      2.986916
 ------------------------------------------------------------------------------
 ------------------------------------------------------------------------------
 Atomic radii for non-electrostatic terms: SMD-CDS.
 ------------------------------------------------------------------------------
 Nuclear repulsion after PCM non-electrostatic terms =      685.8844893223 Hartrees.
 One-electron integrals computed using PRISM.
 NBasis=   282 RedAO= T EigKep=  2.45D-06  NBF=   282
 NBsUse=   282 1.00D-06 EigRej= -1.00D+00 NBFU=   282
 ExpMin= 3.15D-02 ExpMax= 4.40D+05 ExpMxC= 1.51D+04 IAcc=3 IRadAn=         5 AccDes= 0.00D+00
 Harris functional with IExCor= 1009 and IRadAn=       5 diagonalized for initial guess.
 HarFok:  IExCor= 1009 AccDes= 0.00D+00 IRadAn=         5 IDoV= 1 UseB2=F ITyADJ=14
 ICtDFT=  3500011 ScaDFX=  1.000000  1.000000  1.000000  1.000000
 FoFCou: FMM=F IPFlag=           0 FMFlag=      100000 FMFlg1=           0
         NFxFlg=           0 DoJE=T BraDBF=F KetDBF=T FulRan=T
         wScrn=  0.000000 ICntrl=       500 IOpCl=  0 I1Cent=   200000004 NGrid=           0
         NMat0=    1 NMatS0=      1 NMatT0=    0 NMatD0=    1 NMtDS0=    0 NMtDT0=    0
 Symmetry not used in FoFCou.
 Requested convergence on RMS density matrix=1.00D-08 within 128 cycles.
 Requested convergence on MAX density matrix=1.00D-06.
 Requested convergence on             energy=1.00D-06.
 Level shift goal  0.100 maximum shift  0.100.
 No special actions if energy rises.
 Dynamic level shift is on during FON iterations.
 Inv3:  Mode=1 IEnd=     8537907.
 Iteration    1 A*A^-1 deviation from unit magnitude is 3.55D-15 for   1677.
 Iteration    1 A*A^-1 deviation from orthogonality  is 1.97D-15 for   1683   1557.
 Iteration    1 A^-1*A deviation from unit magnitude is 3.11D-15 for   1677.
 Iteration    1 A^-1*A deviation from orthogonality  is 2.44D-15 for   1687   1418.
 Error on total polarization charges =  0.01455
 SCF Done:  E(RM062X) =  -2981.81103210     A.U. after   14 cycles
            NFock= 14  Conv=0.37D-08     -V/T= 2.0015
 SMD-CDS (non-electrostatic) energy       (kcal/mol) =      -3.77
 (included in total energy above)
 DoSCS=F DFT=T ScalE2(SS,OS)=  1.000000  1.000000
 Range of M.O.s used for correlation:     1   282
 NBasis=   282 NAE=    49 NBE=    49 NFC=     0 NFV=     0
 NROrb=    282 NOA=    49 NOB=    49 NVA=   233 NVB=   233

 **** Warning!!: The largest alpha MO coefficient is  0.18869444D+03

 Symmetrizing basis deriv contribution to polar:
 IMax=3 JMax=2 DiffMx= 0.00D+00
 G2DrvN: will do    17 centers at a time, making    1 passes.
 Calling FoFCou, ICntrl=  3107 FMM=F I1Cent=   0 AccDes= 0.00D+00.
 NEqPCM:  Using equilibrium solvation (IEInf=0, Eps=   7.4257, EpsInf=   1.9740)
 G2PCM: DoFxE=T DoFxN=T DoGrad=T DoDP/DQ/DG/TGxP=FFFF NFrqRd=   0 IEInf=0 SqF1=F DoCFld=F IF1Alg=4.
 End of G2Drv F.D. properties file   721 does not exist.
 End of G2Drv F.D. properties file   722 does not exist.
 End of G2Drv F.D. properties file   788 does not exist.
          IDoAtm=1111111111111111
 NEqPCM:  Using equilibrium solvation (IEInf=0, Eps=   7.4257, EpsInf=   1.9740)
          Differentiating once with respect to nuclear coordinates.
 Keep R1 ints in memory in canonical form, NReq=832100182.
          There are    51 degrees of freedom in the 1st order CPHF.  IDoFFX=6 NUNeed=     0.
     45 vectors produced by pass  0 Test12= 2.24D-14 1.96D-09 XBig12= 1.44D-01 1.10D-01.
 AX will form    45 AO Fock derivatives at one time.
     45 vectors produced by pass  1 Test12= 2.24D-14 1.96D-09 XBig12= 1.03D-02 3.10D-02.
     45 vectors produced by pass  2 Test12= 2.24D-14 1.96D-09 XBig12= 3.08D-04 3.02D-03.
     45 vectors produced by pass  3 Test12= 2.24D-14 1.96D-09 XBig12= 2.32D-06 2.33D-04.
     45 vectors produced by pass  4 Test12= 2.24D-14 1.96D-09 XBig12= 1.69D-08 1.78D-05.
     45 vectors produced by pass  5 Test12= 2.24D-14 1.96D-09 XBig12= 8.89D-11 1.08D-06.
     44 vectors produced by pass  6 Test12= 2.24D-14 1.96D-09 XBig12= 3.94D-13 7.27D-08.
     11 vectors produced by pass  7 Test12= 2.24D-14 1.96D-09 XBig12= 1.40D-15 4.08D-09.
 InvSVY:  IOpt=1 It=  1 EMax= 3.89D-16
 Solved reduced A of dimension   325 with    51 vectors.
 End of Minotr F.D. properties file   721 does not exist.
 End of Minotr F.D. properties file   722 does not exist.
 End of Minotr F.D. properties file   788 does not exist.

 **********************************************************************

            Population analysis using the SCF Density.

 **********************************************************************

 Alpha  occ. eigenvalues -- -485.34044 -63.33223 -57.15973 -57.15714 -57.15708
 Alpha  occ. eigenvalues --  -19.63950 -19.63343 -10.60768 -10.55924 -10.55915
 Alpha  occ. eigenvalues --  -10.55639 -10.55441 -10.54186  -9.01930  -7.08908
 Alpha  occ. eigenvalues --   -6.84728  -6.83693  -6.83682  -2.87883  -2.87523
 Alpha  occ. eigenvalues --   -2.87508  -2.86591  -2.86590  -1.16957  -1.13278
 Alpha  occ. eigenvalues --   -0.98450  -0.90481  -0.85775  -0.82282  -0.70667
 Alpha  occ. eigenvalues --   -0.69185  -0.65208  -0.62704  -0.59475  -0.54271
 Alpha  occ. eigenvalues --   -0.52800  -0.50668  -0.48827  -0.48513  -0.46000
 Alpha  occ. eigenvalues --   -0.45831  -0.45374  -0.41319  -0.40737  -0.39315
 Alpha  occ. eigenvalues --   -0.38197  -0.35397  -0.32242  -0.30323
 Alpha virt. eigenvalues --   -0.01315  -0.00105   0.00430   0.01444   0.01767
 Alpha virt. eigenvalues --    0.02004   0.03028   0.03690   0.04622   0.05220
 Alpha virt. eigenvalues --    0.05492   0.06857   0.07819   0.08543   0.08633
 Alpha virt. eigenvalues --    0.10351   0.10705   0.11699   0.12285   0.12639
 Alpha virt. eigenvalues --    0.12690   0.14385   0.14404   0.15443   0.16330
 Alpha virt. eigenvalues --    0.16982   0.17089   0.17602   0.18109   0.18607
 Alpha virt. eigenvalues --    0.19403   0.20127   0.21102   0.21699   0.22413
 Alpha virt. eigenvalues --    0.22651   0.23727   0.24335   0.24588   0.24660
 Alpha virt. eigenvalues --    0.25237   0.25320   0.26390   0.27973   0.28143
 Alpha virt. eigenvalues --    0.28604   0.29567   0.31188   0.32409   0.33787
 Alpha virt. eigenvalues --    0.35477   0.35824   0.36968   0.39750   0.40447
 Alpha virt. eigenvalues --    0.43975   0.44562   0.44919   0.47676   0.48811
 Alpha virt. eigenvalues --    0.49279   0.50893   0.51525   0.52578   0.55740
 Alpha virt. eigenvalues --    0.56512   0.56676   0.58769   0.58921   0.59539
 Alpha virt. eigenvalues --    0.61343   0.61768   0.62575   0.64429   0.65545
 Alpha virt. eigenvalues --    0.65853   0.67436   0.68819   0.69341   0.70164
 Alpha virt. eigenvalues --    0.71634   0.71903   0.73110   0.76953   0.77428
 Alpha virt. eigenvalues --    0.78554   0.79364   0.80437   0.83923   0.85546
 Alpha virt. eigenvalues --    0.86162   0.87032   0.89778   0.90713   0.91526
 Alpha virt. eigenvalues --    0.92753   0.95161   0.96656   0.99931   1.01531
 Alpha virt. eigenvalues --    1.04215   1.05153   1.06715   1.07457   1.07599
 Alpha virt. eigenvalues --    1.08969   1.11671   1.12656   1.14697   1.16019
 Alpha virt. eigenvalues --    1.17075   1.18027   1.20502   1.27231   1.28051
 Alpha virt. eigenvalues --    1.31092   1.33877   1.36009   1.39279   1.45835
 Alpha virt. eigenvalues --    1.48727   1.49870   1.50602   1.54010   1.55935
 Alpha virt. eigenvalues --    1.59641   1.60945   1.61688   1.63933   1.66594
 Alpha virt. eigenvalues --    1.68186   1.70475   1.71588   1.75199   1.77116
 Alpha virt. eigenvalues --    1.79465   1.79715   1.85685   1.87536   1.92417
 Alpha virt. eigenvalues --    1.94289   1.95345   1.95517   1.96637   2.00604
 Alpha virt. eigenvalues --    2.01845   2.02624   2.06577   2.06612   2.09234
 Alpha virt. eigenvalues --    2.11794   2.13921   2.16621   2.18501   2.21569
 Alpha virt. eigenvalues --    2.29126   2.32494   2.35787   2.35883   2.43449
 Alpha virt. eigenvalues --    2.45060   2.52914   2.56408   2.58124   2.61677
 Alpha virt. eigenvalues --    2.63107   2.65396   2.67423   2.71772   2.72340
 Alpha virt. eigenvalues --    2.75659   2.77784   2.78766   2.79706   2.83482
 Alpha virt. eigenvalues --    2.83965   2.85984   2.90538   2.93560   2.95318
 Alpha virt. eigenvalues --    3.06915   3.10892   3.13452   3.15570   3.23760
 Alpha virt. eigenvalues --    3.26324   3.26466   3.31306   3.39561   3.42432
 Alpha virt. eigenvalues --    3.45999   3.52422   3.56439   3.60363   3.62667
 Alpha virt. eigenvalues --    3.66445   3.79006   3.91335   3.95540   4.05201
 Alpha virt. eigenvalues --    4.09950   4.16614   4.20172   4.28287   4.33795
 Alpha virt. eigenvalues --    4.36969   4.52900   4.71679   4.84662   5.08010
 Alpha virt. eigenvalues --    5.09027   5.39303   5.49402   5.68453   5.76360
 Alpha virt. eigenvalues --    6.89776   7.63968   7.76567   7.82436  14.79252
 Alpha virt. eigenvalues --   23.62236  23.99137  24.03901  24.14375  24.15490
 Alpha virt. eigenvalues --   24.25341  48.41524  50.00163  50.05335 290.78501
 Alpha virt. eigenvalues --  290.92057 291.008091020.98505
          Condensed to atoms (all electrons):
               1          2          3          4          5          6
     1  O    7.784570   0.281143   0.058256   0.439325  -0.121956   0.016867
     2  H    0.281143   0.418328   0.040663  -0.005100  -0.032570   0.002961
     3  C    0.058256   0.040663   9.049880   0.273188  -0.115394  -0.015076
     4  B    0.439325  -0.005100   0.273188   3.320486   0.371179   0.014202
     5  O   -0.121956  -0.032570  -0.115394   0.371179   7.982516   0.273235
     6  H    0.016867   0.002961  -0.015076   0.014202   0.273235   0.390528
     7  C    0.068514  -0.004796  -1.087551   0.093179  -0.046521  -0.013757
     8  H    0.001705  -0.000027   0.035592   0.010309  -0.003942   0.008888
     9  C    0.052161   0.003782   0.095266   0.078580  -0.002724   0.054258
    10  H   -0.000027   0.000000   0.003904  -0.000528   0.000291  -0.000059
    11  C   -0.018598  -0.000637  -1.083696   0.010632  -0.001281  -0.000808
    12  C   -0.002648  -0.020062  -0.510619  -0.024603   0.078863  -0.015477
    13  C   -0.166823  -0.015103  -0.529022  -0.082867   0.015104  -0.000198
    14  H    0.009095  -0.000153   0.139453  -0.007311   0.002001  -0.000084
    15  H    0.000005   0.000000   0.029105  -0.000164   0.000010  -0.000002
    16  Br  -0.000010  -0.000169  -0.102567  -0.006212  -0.000395  -0.000009
               7          8          9         10         11         12
     1  O    0.068514   0.001705   0.052161  -0.000027  -0.018598  -0.002648
     2  H   -0.004796  -0.000027   0.003782   0.000000  -0.000637  -0.020062
     3  C   -1.087551   0.035592   0.095266   0.003904  -1.083696  -0.510619
     4  B    0.093179   0.010309   0.078580  -0.000528   0.010632  -0.024603
     5  O   -0.046521  -0.003942  -0.002724   0.000291  -0.001281   0.078863
     6  H   -0.013757   0.008888   0.054258  -0.000059  -0.000808  -0.015477
     7  C    9.686490   0.331779  -0.901256  -0.007507   0.194276  -0.038006
     8  H    0.331779   0.482559   0.004482  -0.005138  -0.021486   0.002870
     9  C   -0.901256   0.004482   7.069733   0.379894   0.412471  -0.310766
    10  H   -0.007507  -0.005138   0.379894   0.453452  -0.000987  -0.000334
    11  C    0.194276  -0.021486   0.412471  -0.000987   7.209022   0.536594
    12  C   -0.038006   0.002870  -0.310766  -0.000334   0.536594   9.550820
    13  C   -2.071410  -0.021788  -0.911376  -0.016458  -1.276586  -3.508129
    14  H   -0.007397  -0.000037   0.004361   0.000036  -0.028930  -0.068749
    15  H   -0.029947  -0.000218   0.047420  -0.005641   0.339257   0.010639
    16  Br   0.121710  -0.000563   0.001083   0.000294   0.220677  -0.513348
              13         14         15         16
     1  O   -0.166823   0.009095   0.000005  -0.000010
     2  H   -0.015103  -0.000153   0.000000  -0.000169
     3  C   -0.529022   0.139453   0.029105  -0.102567
     4  B   -0.082867  -0.007311  -0.000164  -0.006212
     5  O    0.015104   0.002001   0.000010  -0.000395
     6  H   -0.000198  -0.000084  -0.000002  -0.000009
     7  C   -2.071410  -0.007397  -0.029947   0.121710
     8  H   -0.021788  -0.000037  -0.000218  -0.000563
     9  C   -0.911376   0.004361   0.047420   0.001083
    10  H   -0.016458   0.000036  -0.005641   0.000294
    11  C   -1.276586  -0.028930   0.339257   0.220677
    12  C   -3.508129  -0.068749   0.010639  -0.513348
    13  C   14.589998   0.314331  -0.034834   0.356866
    14  H    0.314331   0.445406  -0.000136  -0.009769
    15  H   -0.034834  -0.000136   0.451384  -0.009507
    16  Br   0.356866  -0.009769  -0.009507  35.113006
 Mulliken charges:
               1
     1  O   -0.401580
     2  H    0.331740
     3  C   -0.281384
     4  B    0.515705
     5  O   -0.398418
     6  H    0.284532
     7  C   -0.287800
     8  H    0.175015
     9  C   -0.077370
    10  H    0.198808
    11  C   -0.489920
    12  C    0.832955
    13  C   -0.641706
    14  H    0.207884
    15  H    0.202628
    16  Br  -0.171089
 Sum of Mulliken charges =   0.00000
 Mulliken charges with hydrogens summed into heavy atoms:
               1
     1  O   -0.069839
     3  C   -0.281384
     4  B    0.515705
     5  O   -0.113885
     7  C   -0.112786
     9  C    0.121438
    11  C   -0.287292
    12  C    0.832955
    13  C   -0.433822
    16  Br  -0.171089
 APT charges:
               1
     1  O   -0.503227
     2  H    2.081090
     3  C   -1.908823
     4  B   -0.324746
     5  O    1.288484
     6  H   -1.232724
     7  C   -0.870719
     8  H   -0.174551
     9  C    0.353480
    10  H   -0.794109
    11  C   -0.306279
    12  C    0.610713
    13  C   -0.231148
    14  H    1.914094
    15  H   -0.165712
    16  Br   0.264177
 Sum of APT charges =   0.00000
 APT charges with hydrogens summed into heavy atoms:
               1
     1  O    1.577864
     3  C   -1.908823
     4  B   -0.324746
     5  O    0.055760
     7  C   -1.045270
     9  C   -0.440629
    11  C   -0.471991
    12  C    0.610713
    13  C    1.682946
    16  Br   0.264177
 Electronic spatial extent (au):  <R**2>=          43741.1649
 Charge=              0.0000 electrons
 Dipole moment (field-independent basis, Debye):
    X=             -1.0147    Y=             -3.3720    Z=              1.6081  Tot=              3.8712
 Quadrupole moment (field-independent basis, Debye-Ang):
   XX=            -75.4998   YY=           -119.1532   ZZ=            -57.4658
   XY=            -23.4334   XZ=              5.4770   YZ=             -6.2484
 Traceless Quadrupole moment (field-independent basis, Debye-Ang):
   XX=              8.5398   YY=            -35.1136   ZZ=             26.5738
   XY=            -23.4334   XZ=              5.4770   YZ=             -6.2484
 Octapole moment (field-independent basis, Debye-Ang**2):
  XXX=          -1174.9039  YYY=          -2217.7437  ZZZ=           -874.8657  XYY=           -688.8340
  XXY=           -669.5846  XXZ=           -274.0807  XZZ=           -335.8865  YZZ=           -561.4110
  YYZ=           -484.6509  XYZ=            -43.3174
 Hexadecapole moment (field-independent basis, Debye-Ang**3):
 XXXX=         -13748.5864 YYYY=         -33235.6389 ZZZZ=          -8833.2216 XXXY=          -9415.3284
 XXXZ=          -5054.3408 YYYX=         -12327.0043 YYYZ=          -9328.0195 ZZZX=          -5246.8124
 ZZZY=          -7148.8254 XXYY=          -8496.0113 XXZZ=          -3520.8203 YYZZ=          -6804.0571
 XXYZ=          -2433.2058 YYXZ=          -2792.5625 ZZXY=          -3064.2965
 N-N= 6.858844893223D+02 E-N=-8.477707819874D+03  KE= 2.977250532209D+03
  Exact polarizability:       0.000       0.000       0.000       0.000       0.000       0.000
 Approx polarizability:     139.532       3.568     146.095      14.263     -34.180     104.132
 D2PCM: PCM CHGder 2nd derivatives, FixD1E=F FixD2E=F DoIter=F DoCFld=F I1PDM=0
 Calling FoFJK, ICntrl=    100127 FMM=F ISym2X=0 I1Cent= 0 IOpClX= 0 NMat=1 NMatS=1 NMatT=0.
 -------------------------------------------------------------------
 Center     Atomic                   Forces (Hartrees/Bohr)
 Number     Number              X              Y              Z
 -------------------------------------------------------------------
      1        8          -0.000521109   -0.000231309   -0.000014127
      2        1           0.000048199    0.000025604   -0.000003478
      3        6          -0.005439469    0.000170167   -0.001610688
      4        5           0.001673617    0.000591478    0.000145016
      5        8          -0.000570169    0.000518549   -0.000458539
      6        1          -0.000139047   -0.000085900    0.000002925
      7        6          -0.001077002   -0.004704827    0.002236867
      8        1           0.001368050   -0.000047415    0.000408948
      9        6           0.010540354    0.003704536    0.000960471
     10        1          -0.000665670    0.001023439   -0.000755177
     11        6          -0.007362383    0.004566807   -0.004463784
     12        6           0.003982755   -0.012151381    0.007733720
     13        6           0.006261815    0.009469289   -0.003361248
     14        1           0.001083870   -0.000748633    0.000699544
     15        1          -0.009493218    0.002652102   -0.004192132
     16       35           0.000309408   -0.004752507    0.002671684
 -------------------------------------------------------------------
 Cartesian Forces:  Max     0.012151381 RMS     0.004082360
 FormGI is forming the generalized inverse of G from B-inverse, IUseBI=4.

 GradGradGradGradGradGradGradGradGradGradGradGradGradGradGradGradGradGrad
 Berny optimization.
 Internal  Forces:  Max     0.011012512 RMS     0.002983924
 Search for a local minimum.
 Step number   1 out of a maximum of   81
 All quantities printed in internal units (Hartrees-Bohrs-Radians)
 Mixed Optimization -- RFO/linear search
 Second derivative matrix not updated -- analytic derivatives used.
 ITU=  0
     Eigenvalues ---    0.00116   0.00960   0.01233   0.01436   0.01652
     Eigenvalues ---    0.01780   0.02168   0.02428   0.02558   0.02648
     Eigenvalues ---    0.02813   0.02907   0.03850   0.10410   0.10921
     Eigenvalues ---    0.11224   0.11835   0.12259   0.12559   0.14805
     Eigenvalues ---    0.15869   0.16480   0.18150   0.18414   0.18961
     Eigenvalues ---    0.19387   0.23372   0.27414   0.28939   0.35810
     Eigenvalues ---    0.36481   0.36763   0.38614   0.39390   0.42024
     Eigenvalues ---    0.42340   0.47648   0.47713   0.48934   0.51740
     Eigenvalues ---    0.53633   0.54425
 RFO step:  Lambda=-2.71512710D-03 EMin= 1.16153699D-03
 Linear search not attempted -- first point.
 Iteration  1 RMS(Cart)=  0.01553965 RMS(Int)=  0.00019427
 Iteration  2 RMS(Cart)=  0.00028469 RMS(Int)=  0.00005987
 Iteration  3 RMS(Cart)=  0.00000002 RMS(Int)=  0.00005987
 Variable       Old X    -DE/DX   Delta X   Delta X   Delta X     New X
                                 (Linear)    (Quad)   (Total)
    R1        1.82212   0.00003   0.00000   0.00007   0.00007   1.82218
    R2        2.57740  -0.00048   0.00000  -0.00157  -0.00157   2.57583
    R3        2.96790   0.00011   0.00000   0.00387   0.00387   2.97177
    R4        2.64405   0.00004   0.00000  -0.00088  -0.00100   2.64306
    R5        2.64634  -0.00117   0.00000   0.00017   0.00011   2.64645
    R6        2.58233  -0.00073   0.00000  -0.00173  -0.00173   2.58060
    R7        1.81770   0.00016   0.00000   0.00015   0.00015   1.81786
    R8        2.05286   0.00031   0.00000  -0.00057  -0.00057   2.05229
    R9        2.62878   0.00145   0.00000  -0.00037  -0.00043   2.62835
   R10        2.04613  -0.00015   0.00000   0.00159   0.00159   2.04771
   R11        2.62441   0.00099   0.00000   0.00432   0.00438   2.62879
   R12        2.62523   0.00021   0.00000   0.00032   0.00044   2.62567
   R13        2.02201   0.01071   0.00000   0.02353   0.02353   2.04553
   R14        2.62690  -0.00133   0.00000  -0.00651  -0.00645   2.62045
   R15        3.60938  -0.00546   0.00000  -0.00694  -0.00694   3.60244
   R16        2.04917   0.00033   0.00000  -0.00172  -0.00172   2.04746
    A1        1.96179   0.00009   0.00000   0.00207   0.00207   1.96387
    A2        2.14163  -0.00004   0.00000   0.00148   0.00158   2.14320
    A3        2.08430  -0.00204   0.00000  -0.01193  -0.01184   2.07246
    A4        2.05726   0.00208   0.00000   0.01045   0.01026   2.06753
    A5        2.05680   0.00016   0.00000  -0.00102  -0.00102   2.05578
    A6        2.05783   0.00071   0.00000   0.00348   0.00348   2.06131
    A7        2.16856  -0.00088   0.00000  -0.00246  -0.00246   2.16610
    A8        2.00454  -0.00004   0.00000   0.00001   0.00001   2.00455
    A9        2.11224  -0.00052   0.00000  -0.00363  -0.00353   2.10871
   A10        2.12303  -0.00183   0.00000  -0.00960  -0.00979   2.11324
   A11        2.04792   0.00235   0.00000   0.01323   0.01332   2.06124
   A12        2.10623  -0.00124   0.00000  -0.00601  -0.00601   2.10023
   A13        2.06955   0.00540   0.00000   0.02958   0.02958   2.09913
   A14        2.10740  -0.00415   0.00000  -0.02358  -0.02358   2.08383
   A15        2.12381  -0.01083   0.00000  -0.05346  -0.05328   2.07054
   A16        2.07939   0.00518   0.00000   0.02633   0.02623   2.10562
   A17        2.07998   0.00565   0.00000   0.02714   0.02704   2.10703
   A18        2.06976   0.01101   0.00000   0.05354   0.05372   2.12348
   A19        2.10621  -0.00581   0.00000  -0.02724  -0.02733   2.07888
   A20        2.10722  -0.00520   0.00000  -0.02630  -0.02639   2.08083
   A21        2.12296  -0.00584   0.00000  -0.03051  -0.03051   2.09245
   A22        2.08417   0.00143   0.00000   0.00701   0.00701   2.09118
   A23        2.07606   0.00441   0.00000   0.02349   0.02349   2.09956
    D1        3.13848   0.00002   0.00000   0.00045   0.00045   3.13893
    D2       -0.00222   0.00000   0.00000   0.00014   0.00014  -0.00209
    D3        3.12382  -0.00002   0.00000  -0.00430  -0.00429   3.11953
    D4       -0.01873   0.00000   0.00000  -0.00396  -0.00396  -0.02268
    D5       -0.01851   0.00000   0.00000  -0.00335  -0.00335  -0.02186
    D6        3.12213   0.00002   0.00000  -0.00301  -0.00302   3.11911
    D7       -0.00251   0.00001   0.00000   0.00067   0.00068  -0.00183
    D8        3.13870   0.00004   0.00000   0.00160   0.00159   3.14030
    D9        3.13981   0.00000   0.00000  -0.00026  -0.00025   3.13956
   D10       -0.00217   0.00002   0.00000   0.00067   0.00067  -0.00150
   D11       -3.13869  -0.00004   0.00000  -0.00122  -0.00122  -3.13991
   D12        0.00190  -0.00001   0.00000  -0.00057  -0.00058   0.00132
   D13        0.00220  -0.00002   0.00000  -0.00032  -0.00033   0.00188
   D14       -3.14039   0.00001   0.00000   0.00033   0.00031  -3.14008
   D15        3.13211   0.00001   0.00000  -0.00043  -0.00043   3.13169
   D16       -0.00852   0.00000   0.00000  -0.00076  -0.00076  -0.00928
   D17       -3.14078  -0.00003   0.00000  -0.00100  -0.00099   3.14142
   D18        0.00047  -0.00001   0.00000  -0.00024  -0.00022   0.00025
   D19        0.00045  -0.00001   0.00000  -0.00011  -0.00010   0.00034
   D20       -3.14149   0.00001   0.00000   0.00065   0.00067  -3.14082
   D21        0.00130  -0.00003   0.00000  -0.00069  -0.00067   0.00063
   D22       -3.13896  -0.00006   0.00000  -0.00227  -0.00227  -3.14123
   D23       -3.14064   0.00000   0.00000   0.00008   0.00010  -3.14054
   D24        0.00228  -0.00003   0.00000  -0.00150  -0.00150   0.00078
   D25       -0.00127   0.00003   0.00000   0.00104   0.00103  -0.00023
   D26        3.14053   0.00000   0.00000   0.00036   0.00035   3.14087
   D27        3.13899   0.00006   0.00000   0.00262   0.00263  -3.14156
   D28       -0.00240   0.00003   0.00000   0.00194   0.00194  -0.00045
   D29       -0.00054   0.00000   0.00000  -0.00049  -0.00050  -0.00104
   D30       -3.14114  -0.00002   0.00000  -0.00112  -0.00114   3.14091
   D31        3.14085   0.00003   0.00000   0.00019   0.00019   3.14104
   D32        0.00026   0.00000   0.00000  -0.00044  -0.00045  -0.00019
         Item               Value     Threshold  Converged?
 Maximum Force            0.011013     0.000015     NO 
 RMS     Force            0.002984     0.000010     NO 
 Maximum Displacement     0.057990     0.000060     NO 
 RMS     Displacement     0.015541     0.000040     NO 
 Predicted change in Energy=-1.375097D-03
 GradGradGradGradGradGradGradGradGradGradGradGradGradGradGradGradGradGrad

                          Input orientation:                          
 ---------------------------------------------------------------------
 Center     Atomic      Atomic             Coordinates (Angstroms)
 Number     Number       Type             X           Y           Z
 ---------------------------------------------------------------------
      1          8           0        8.677621    7.478084    5.571554
      2          1           0        9.498775    7.172225    5.973984
      3          6           0        6.240112    6.996570    5.176169
      4          5           0        7.642254    6.615891    5.777942
      5          8           0        7.885305    5.478198    6.493085
      6          1           0        7.120668    4.907977    6.617831
      7          6           0        5.113721    6.177130    5.302538
      8          1           0        5.171290    5.229665    5.830223
      9          6           0        3.889777    6.549916    4.757113
     10          1           0        3.024863    5.905637    4.862095
     11          6           0        3.765228    7.753693    4.071143
     12          6           0        4.884669    8.567001    3.944890
     13          6           0        6.110653    8.206814    4.483509
     14          1           0        6.969437    8.857810    4.371267
     15          1           0        2.815502    8.049904    3.644556
     16         35           0        4.729653   10.219109    3.006494
 ---------------------------------------------------------------------
                    Distance matrix (angstroms):
                    1          2          3          4          5
     1  O    0.000000
     2  H    0.964258   0.000000
     3  C    2.515876   3.359501   0.000000
     4  B    1.363069   1.947975   1.572593   0.000000
     5  O    2.340198   2.396347   2.597380   1.365595   0.000000
     6  H    3.181862   3.346154   2.686259   1.973432   0.961968
     7  C    3.803450   4.546399   1.398645   2.609981   3.096383
     8  H    4.173327   4.745665   2.166131   2.833729   2.804823
     9  C    4.944518   5.773119   2.428824   3.889413   4.486248
    10  H    5.910127   6.689700   3.409781   4.760624   5.144583
    11  C    5.143811   6.068976   2.814137   4.386238   5.293271
    12  C    4.268285   5.229970   2.412369   3.843329   5.003780
    13  C    2.881703   3.843339   1.400439   2.559764   3.825328
    14  H    2.502444   3.436197   2.154993   2.730864   4.094228
    15  H    6.197155   7.131808   3.896576   5.468570   6.358513
    16  Br   5.447863   6.390151   4.168182   5.398829   6.677627
                    6          7          8          9         10
     6  H    0.000000
     7  C    2.714513   0.000000
     8  H    2.126943   1.086028   0.000000
     9  C    4.073928   1.390862   2.130001   0.000000
    10  H    4.566569   2.151983   2.449767   1.083602   0.000000
    11  C    5.083571   2.412534   3.382616   1.391096   2.142209
    12  C    5.052995   2.758107   3.843753   2.391265   3.373871
    13  C    4.056820   2.405057   3.399921   2.784325   3.867926
    14  H    4.546548   3.390721   4.304106   3.867759   4.951354
    15  H    6.102993   3.396763   4.275585   2.154487   2.474695
    16  Br   6.853235   4.664432   5.750047   4.151269   4.995559
                   11         12         13         14         15
    11  C    0.000000
    12  C    1.389445   0.000000
    13  C    2.424126   1.386680   0.000000
    14  H    3.402367   2.147702   1.083468   0.000000
    15  H    1.082449   2.153843   3.403892   4.293715   0.000000
    16  Br   2.853396   1.906327   2.852730   2.955059   2.962523
                   16
    16  Br   0.000000
 Symmetry turned off by external request.
 Stoichiometry    C6H6BBrO2
 Framework group  C1[X(C6H6BBrO2)]
 Deg. of freedom    42
 Full point group                 C1      NOp   1
 Rotational constants (GHZ):           1.9217978           0.4572049           0.3693496
 Standard basis: 6-311+G(d,p) (5D, 7F)
   282 basis functions,   466 primitive gaussians,   294 cartesian basis functions
    49 alpha electrons       49 beta electrons
       nuclear repulsion energy       687.8200394646 Hartrees.
 NAtoms=   16 NActive=   16 NUniq=   16 SFac= 1.00D+00 NAtFMM=   60 NAOKFM=F Big=F
 Integral buffers will be    131072 words long.
 Raffenetti 2 integral format.
 Two-electron integral symmetry is turned off.
 ------------------------------------------------------------------------------
 Polarizable Continuum Model (PCM)
 =================================
 Model                : PCM.
 Atomic radii         : SMD-Coulomb.
 Polarization charges : Total charges.
 Charge compensation  : None.
 Solution method      : Matrix inversion.
 Cavity type          : VdW (van der Waals Surface) (Alpha=1.000).
 Cavity algorithm     : GePol (No added spheres)
                        Default sphere list used, NSphG=   16.
                        Lebedev-Laikov grids with approx.  5.0 points / Ang**2.
                        Smoothing algorithm: York/Karplus (Gamma=1.0000).
                        Polarization charges: spherical gaussians, with
                                              point-specific exponents (IZeta= 3).
                        Self-potential: point-specific (ISelfS= 7).
                        Self-field    : sphere-specific E.n sum rule (ISelfD= 2).
 1st derivatives      : Analytical E(r).r(x)/FMM algorithm (CHGder, D1EAlg=3).
                        Cavity 1st derivative terms included.
 Solvent              : TetraHydroFuran, Eps=   7.425700 Eps(inf)=   1.974025
 ------------------------------------------------------------------------------
 Spheres list:
 ISph  on   Nord     Re0    Alpha      Xe            Ye            Ze
    1   O      1    2.2940  1.000      8.677621      7.478084      5.571554
    2   H      2    1.2000  1.000      9.498775      7.172225      5.973984
    3   C      3    1.8500  1.000      6.240112      6.996570      5.176169
    4   B      4    1.8000  1.000      7.642254      6.615891      5.777942
    5   O      5    2.2940  1.000      7.885305      5.478198      6.493085
    6   H      6    1.2000  1.000      7.120668      4.907977      6.617831
    7   C      7    1.8500  1.000      5.113721      6.177130      5.302538
    8   H      8    1.2000  1.000      5.171290      5.229665      5.830223
    9   C      9    1.8500  1.000      3.889777      6.549916      4.757113
   10   H     10    1.2000  1.000      3.024863      5.905637      4.862095
   11   C     11    1.8500  1.000      3.765228      7.753693      4.071143
   12   C     12    1.8500  1.000      4.884669      8.567001      3.944890
   13   C     13    1.8500  1.000      6.110653      8.206814      4.483509
   14   H     14    1.2000  1.000      6.969437      8.857810      4.371267
   15   H     15    1.2000  1.000      2.815502      8.049904      3.644556
   16  Br     16    3.0600  1.000      4.729653     10.219109      3.006494
 ------------------------------------------------------------------------------
 ------------------------------------------------------------------------------
 Atomic radii for non-electrostatic terms: SMD-CDS.
 ------------------------------------------------------------------------------
 Nuclear repulsion after PCM non-electrostatic terms =      687.8140469075 Hartrees.
 One-electron integrals computed using PRISM.
 NBasis=   282 RedAO= T EigKep=  2.77D-06  NBF=   282
 NBsUse=   282 1.00D-06 EigRej= -1.00D+00 NBFU=   282
 Initial guess from the checkpoint file:  "3-br-phboh2-opt-freq-thf.chk"
 B after Tr=     0.005706   -0.014123    0.010630
         Rot=    1.000000   -0.000167   -0.000132   -0.000018 Ang=  -0.02 deg.
 ExpMin= 3.15D-02 ExpMax= 4.40D+05 ExpMxC= 1.51D+04 IAcc=3 IRadAn=         5 AccDes= 0.00D+00
 Harris functional with IExCor= 1009 and IRadAn=       5 diagonalized for initial guess.
 HarFok:  IExCor= 1009 AccDes= 0.00D+00 IRadAn=         5 IDoV= 1 UseB2=F ITyADJ=14
 ICtDFT=  3500011 ScaDFX=  1.000000  1.000000  1.000000  1.000000
 FoFCou: FMM=F IPFlag=           0 FMFlag=      100000 FMFlg1=           0
         NFxFlg=           0 DoJE=T BraDBF=F KetDBF=T FulRan=T
         wScrn=  0.000000 ICntrl=       500 IOpCl=  0 I1Cent=   200000004 NGrid=           0
         NMat0=    1 NMatS0=      1 NMatT0=    0 NMatD0=    1 NMtDS0=    0 NMtDT0=    0
 Symmetry not used in FoFCou.
 Requested convergence on RMS density matrix=1.00D-08 within 128 cycles.
 Requested convergence on MAX density matrix=1.00D-06.
 Requested convergence on             energy=1.00D-06.
 Level shift goal  0.100 maximum shift  0.100.
 No special actions if energy rises.
 Dynamic level shift is on during FON iterations.
 Inv3:  Mode=1 IEnd=     8477283.
 Iteration    1 A*A^-1 deviation from unit magnitude is 4.44D-15 for   1671.
 Iteration    1 A*A^-1 deviation from orthogonality  is 1.74D-15 for   1673   1385.
 Iteration    1 A^-1*A deviation from unit magnitude is 4.22D-15 for   1671.
 Iteration    1 A^-1*A deviation from orthogonality  is 1.82D-15 for   1677   1552.
 Error on total polarization charges =  0.01461
 SCF Done:  E(RM062X) =  -2981.81240894     A.U. after   12 cycles
            NFock= 12  Conv=0.84D-08     -V/T= 2.0015
 SMD-CDS (non-electrostatic) energy       (kcal/mol) =      -3.76
 (included in total energy above)
 D1PCM: PCM CHGder 1st derivatives, ID1Alg=3 FixD1E=F DoIter=F DoCFld=F I1PDM=0.
 Calling FoFJK, ICntrl=      2127 FMM=F ISym2X=0 I1Cent= 0 IOpClX= 0 NMat=1 NMatS=1 NMatT=0.
 -------------------------------------------------------------------
 Center     Atomic                   Forces (Hartrees/Bohr)
 Number     Number              X              Y              Z
 -------------------------------------------------------------------
      1        8          -0.000001446   -0.000012394    0.000007697
      2        1          -0.000001837   -0.000005411    0.000013449
      3        6           0.000033774   -0.000036640    0.000038248
      4        5           0.000020767   -0.000007259    0.000008565
      5        8          -0.000011944   -0.000006914    0.000009833
      6        1          -0.000011800   -0.000004337   -0.000000537
      7        6          -0.000047727   -0.000214269    0.000085967
      8        1           0.000031618   -0.000003821    0.000003635
      9        6           0.000055985    0.000017017    0.000003470
     10        1          -0.000024875   -0.000022558   -0.000006418
     11        6           0.000112903    0.000077568   -0.000008049
     12        6          -0.000022676   -0.000296539    0.000165944
     13        6           0.000191119    0.000266673   -0.000081671
     14        1           0.000068812   -0.000025441    0.000036815
     15        1          -0.000371425    0.000091947   -0.000189246
     16       35          -0.000021249    0.000182377   -0.000087703
 -------------------------------------------------------------------
 Cartesian Forces:  Max     0.000371425 RMS     0.000106662

 GradGradGradGradGradGradGradGradGradGradGradGradGradGradGradGradGradGrad
 Berny optimization.
 Using GEDIIS/GDIIS optimizer.
 FormGI is forming the generalized inverse of G from B-inverse, IUseBI=4.
 Internal  Forces:  Max     0.000425534 RMS     0.000079378
 Search for a local minimum.
 Step number   2 out of a maximum of   81
 All quantities printed in internal units (Hartrees-Bohrs-Radians)
 Mixed Optimization -- En-DIIS/RFO-DIIS
 Update second derivatives using D2CorX and points    1    2
 DE= -1.38D-03 DEPred=-1.38D-03 R= 1.00D+00
 TightC=F SS=  1.41D+00  RLast= 1.14D-01 DXNew= 5.0454D-01 3.4097D-01
 Trust test= 1.00D+00 RLast= 1.14D-01 DXMaxT set to 3.41D-01
 ITU=  1  0
 Use linear search instead of GDIIS.
     Eigenvalues ---    0.00116   0.00960   0.01233   0.01436   0.01652
     Eigenvalues ---    0.01779   0.02168   0.02428   0.02557   0.02648
     Eigenvalues ---    0.02812   0.02907   0.03850   0.10410   0.10922
     Eigenvalues ---    0.11224   0.11835   0.12261   0.12555   0.14728
     Eigenvalues ---    0.15874   0.16483   0.18150   0.18414   0.18995
     Eigenvalues ---    0.19378   0.23585   0.27414   0.28938   0.35810
     Eigenvalues ---    0.36480   0.36766   0.38614   0.39093   0.42024
     Eigenvalues ---    0.42358   0.47647   0.47713   0.48933   0.51731
     Eigenvalues ---    0.53633   0.54425
 RFO step:  Lambda=-1.60482007D-06 EMin= 1.16149456D-03
 Quartic linear search produced a step of  0.01469.
 Iteration  1 RMS(Cart)=  0.00661868 RMS(Int)=  0.00001942
 Iteration  2 RMS(Cart)=  0.00002806 RMS(Int)=  0.00000089
 Iteration  3 RMS(Cart)=  0.00000000 RMS(Int)=  0.00000089
 Variable       Old X    -DE/DX   Delta X   Delta X   Delta X     New X
                                 (Linear)    (Quad)   (Total)
    R1        1.82218   0.00000   0.00000   0.00001   0.00001   1.82219
    R2        2.57583   0.00000  -0.00002  -0.00002  -0.00004   2.57578
    R3        2.97177   0.00002   0.00006  -0.00010  -0.00004   2.97173
    R4        2.64306   0.00014  -0.00001   0.00029   0.00027   2.64333
    R5        2.64645   0.00017   0.00000   0.00035   0.00035   2.64679
    R6        2.58060   0.00000  -0.00003  -0.00004  -0.00006   2.58054
    R7        1.81786   0.00000   0.00000  -0.00002  -0.00002   1.81784
    R8        2.05229   0.00001  -0.00001   0.00006   0.00005   2.05235
    R9        2.62835   0.00013  -0.00001   0.00020   0.00019   2.62854
   R10        2.04771   0.00004   0.00002   0.00009   0.00012   2.04783
   R11        2.62879   0.00016   0.00006   0.00031   0.00037   2.62916
   R12        2.62567   0.00010   0.00001   0.00007   0.00008   2.62575
   R13        2.04553   0.00043   0.00035   0.00071   0.00105   2.04659
   R14        2.62045   0.00018  -0.00009   0.00032   0.00023   2.62067
   R15        3.60244   0.00020  -0.00010   0.00145   0.00135   3.60379
   R16        2.04746   0.00003  -0.00003   0.00007   0.00004   2.04750
    A1        1.96387   0.00000   0.00003   0.00000   0.00003   1.96390
    A2        2.14320  -0.00004   0.00002  -0.00062  -0.00060   2.14261
    A3        2.07246   0.00000  -0.00017   0.00037   0.00020   2.07265
    A4        2.06753   0.00005   0.00015   0.00025   0.00040   2.06793
    A5        2.05578   0.00001  -0.00001   0.00029   0.00027   2.05605
    A6        2.06131   0.00001   0.00005   0.00010   0.00015   2.06145
    A7        2.16610  -0.00002  -0.00004  -0.00038  -0.00042   2.16568
    A8        2.00455   0.00000   0.00000   0.00000   0.00000   2.00455
    A9        2.10871  -0.00002  -0.00005  -0.00034  -0.00039   2.10832
   A10        2.11324  -0.00004  -0.00014  -0.00011  -0.00025   2.11299
   A11        2.06124   0.00006   0.00020   0.00044   0.00064   2.06188
   A12        2.10023  -0.00005  -0.00009  -0.00011  -0.00019   2.10003
   A13        2.09913   0.00008   0.00043  -0.00010   0.00033   2.09946
   A14        2.08383  -0.00003  -0.00035   0.00021  -0.00014   2.08369
   A15        2.07054  -0.00011  -0.00078   0.00018  -0.00060   2.06994
   A16        2.10562   0.00003   0.00039  -0.00027   0.00011   2.10573
   A17        2.10703   0.00008   0.00040   0.00009   0.00049   2.10752
   A18        2.12348   0.00013   0.00079   0.00004   0.00084   2.12432
   A19        2.07888  -0.00009  -0.00040  -0.00009  -0.00049   2.07839
   A20        2.08083  -0.00004  -0.00039   0.00004  -0.00035   2.08048
   A21        2.09245  -0.00011  -0.00045  -0.00027  -0.00071   2.09174
   A22        2.09118  -0.00002   0.00010  -0.00029  -0.00019   2.09099
   A23        2.09956   0.00012   0.00035   0.00056   0.00090   2.10046
    D1        3.13893   0.00000   0.00001  -0.00124  -0.00123   3.13769
    D2       -0.00209   0.00000   0.00000  -0.00128  -0.00128  -0.00336
    D3        3.11953  -0.00001  -0.00006  -0.01126  -0.01133   3.10820
    D4       -0.02268  -0.00001  -0.00006  -0.01122  -0.01128  -0.03396
    D5       -0.02186  -0.00001  -0.00005  -0.01068  -0.01073  -0.03259
    D6        3.11911  -0.00001  -0.00004  -0.01064  -0.01068   3.10843
    D7       -0.00183   0.00000   0.00001   0.00002   0.00003  -0.00181
    D8        3.14030   0.00001   0.00002   0.00059   0.00061   3.14091
    D9        3.13956   0.00000   0.00000  -0.00057  -0.00057   3.13899
   D10       -0.00150   0.00001   0.00001   0.00000   0.00001  -0.00149
   D11       -3.13991   0.00000  -0.00002  -0.00002  -0.00004  -3.13995
   D12        0.00132   0.00000  -0.00001  -0.00018  -0.00019   0.00113
   D13        0.00188   0.00000   0.00000   0.00054   0.00053   0.00241
   D14       -3.14008   0.00000   0.00000   0.00038   0.00038  -3.13970
   D15        3.13169   0.00000  -0.00001  -0.00363  -0.00364   3.12805
   D16       -0.00928   0.00000  -0.00001  -0.00368  -0.00369  -0.01297
   D17        3.14142   0.00000  -0.00001  -0.00048  -0.00049   3.14093
   D18        0.00025   0.00000   0.00000  -0.00022  -0.00022   0.00003
   D19        0.00034   0.00000   0.00000   0.00008   0.00008   0.00042
   D20       -3.14082   0.00000   0.00001   0.00034   0.00035  -3.14047
   D21        0.00063  -0.00001  -0.00001  -0.00012  -0.00012   0.00051
   D22       -3.14123  -0.00001  -0.00003  -0.00037  -0.00040   3.14156
   D23       -3.14054   0.00000   0.00000   0.00014   0.00014  -3.14040
   D24        0.00078  -0.00001  -0.00002  -0.00011  -0.00013   0.00065
   D25       -0.00023   0.00001   0.00002   0.00067   0.00069   0.00045
   D26        3.14087   0.00001   0.00001   0.00052   0.00052   3.14139
   D27       -3.14156   0.00001   0.00004   0.00092   0.00096  -3.14060
   D28       -0.00045   0.00001   0.00003   0.00077   0.00080   0.00034
   D29       -0.00104  -0.00001  -0.00001  -0.00089  -0.00090  -0.00194
   D30        3.14091  -0.00001  -0.00002  -0.00073  -0.00074   3.14017
   D31        3.14104   0.00000   0.00000  -0.00073  -0.00073   3.14031
   D32       -0.00019  -0.00001  -0.00001  -0.00057  -0.00058  -0.00077
         Item               Value     Threshold  Converged?
 Maximum Force            0.000426     0.000015     NO 
 RMS     Force            0.000079     0.000010     NO 
 Maximum Displacement     0.029266     0.000060     NO 
 RMS     Displacement     0.006619     0.000040     NO 
 Predicted change in Energy=-1.090308D-06
 GradGradGradGradGradGradGradGradGradGradGradGradGradGradGradGradGradGrad

                          Input orientation:                          
 ---------------------------------------------------------------------
 Center     Atomic      Atomic             Coordinates (Angstroms)
 Number     Number       Type             X           Y           Z
 ---------------------------------------------------------------------
      1          8           0        8.680798    7.472034    5.562090
      2          1           0        9.501386    7.166562    5.965976
      3          6           0        6.240477    6.996707    5.175607
      4          5           0        7.642564    6.615447    5.777086
      5          8           0        7.882551    5.482131    6.500106
      6          1           0        7.115218    4.917490    6.633318
      7          6           0        5.114923    6.175532    5.299749
      8          1           0        5.173912    5.226911    5.825255
      9          6           0        3.890884    6.548170    4.754180
     10          1           0        3.026742    5.902403    4.856994
     11          6           0        3.765038    7.753389    4.070581
     12          6           0        4.883863    8.568068    3.947272
     13          6           0        6.110424    8.208407    4.485236
     14          1           0        6.968917    8.860124    4.374771
     15          1           0        2.814803    8.049251    3.643471
     16         35           0        4.727028   10.222997    3.012702
 ---------------------------------------------------------------------
                    Distance matrix (angstroms):
                    1          2          3          4          5
     1  O    0.000000
     2  H    0.964261   0.000000
     3  C    2.516043   3.359622   0.000000
     4  B    1.363047   1.947980   1.572572   0.000000
     5  O    2.340254   2.396504   2.597046   1.365561   0.000000
     6  H    3.181865   3.346262   2.685747   1.973394   0.961959
     7  C    3.803316   4.546103   1.398789   2.609664   3.095389
     8  H    4.172300   4.744373   2.166052   2.832771   2.803086
     9  C    4.944646   5.773092   2.428863   3.889211   4.485322
    10  H    5.910098   6.689466   3.409855   4.760338   5.143475
    11  C    5.144751   6.069809   2.814507   4.386602   5.292932
    12  C    4.269151   5.230765   2.412133   3.843355   5.003210
    13  C    2.882479   3.844041   1.400622   2.560049   3.825274
    14  H    2.503409   3.437075   2.155061   2.731092   4.094218
    15  H    6.198725   7.133272   3.897504   5.469496   6.358660
    16  Br   5.449722   6.392034   4.168649   5.399683   6.677958
                    6          7          8          9         10
     6  H    0.000000
     7  C    2.713348   0.000000
     8  H    2.125412   1.086056   0.000000
     9  C    4.072666   1.390962   2.130514   0.000000
    10  H    4.565197   2.152007   2.450339   1.083664   0.000000
    11  C    5.082682   2.413022   3.383327   1.391293   2.142353
    12  C    5.051783   2.758045   3.843732   2.391044   3.373761
    13  C    4.056353   2.405626   3.400298   2.784794   3.868457
    14  H    4.546076   3.391153   4.304206   3.868252   4.951909
    15  H    6.102515   3.397740   4.276819   2.155196   2.475180
    16  Br   6.852788   4.665085   5.750742   4.151654   4.995990
                   11         12         13         14         15
    11  C    0.000000
    12  C    1.389488   0.000000
    13  C    2.424834   1.386800   0.000000
    14  H    3.403269   2.148373   1.083489   0.000000
    15  H    1.083007   2.154640   3.405146   4.295228   0.000000
    16  Br   2.853681   1.907041   2.853193   2.956132   2.963047
                   16
    16  Br   0.000000
 Symmetry turned off by external request.
 Stoichiometry    C6H6BBrO2
 Framework group  C1[X(C6H6BBrO2)]
 Deg. of freedom    42
 Full point group                 C1      NOp   1
 Rotational constants (GHZ):           1.9219144           0.4570559           0.3692715
 Standard basis: 6-311+G(d,p) (5D, 7F)
   282 basis functions,   466 primitive gaussians,   294 cartesian basis functions
    49 alpha electrons       49 beta electrons
       nuclear repulsion energy       687.7448825865 Hartrees.
 NAtoms=   16 NActive=   16 NUniq=   16 SFac= 1.00D+00 NAtFMM=   60 NAOKFM=F Big=F
 Integral buffers will be    131072 words long.
 Raffenetti 2 integral format.
 Two-electron integral symmetry is turned off.
 ------------------------------------------------------------------------------
 Polarizable Continuum Model (PCM)
 =================================
 Model                : PCM.
 Atomic radii         : SMD-Coulomb.
 Polarization charges : Total charges.
 Charge compensation  : None.
 Solution method      : Matrix inversion.
 Cavity type          : VdW (van der Waals Surface) (Alpha=1.000).
 Cavity algorithm     : GePol (No added spheres)
                        Default sphere list used, NSphG=   16.
                        Lebedev-Laikov grids with approx.  5.0 points / Ang**2.
                        Smoothing algorithm: York/Karplus (Gamma=1.0000).
                        Polarization charges: spherical gaussians, with
                                              point-specific exponents (IZeta= 3).
                        Self-potential: point-specific (ISelfS= 7).
                        Self-field    : sphere-specific E.n sum rule (ISelfD= 2).
 1st derivatives      : Analytical E(r).r(x)/FMM algorithm (CHGder, D1EAlg=3).
                        Cavity 1st derivative terms included.
 Solvent              : TetraHydroFuran, Eps=   7.425700 Eps(inf)=   1.974025
 ------------------------------------------------------------------------------
 Spheres list:
 ISph  on   Nord     Re0    Alpha      Xe            Ye            Ze
    1   O      1    2.2940  1.000      8.680798      7.472034      5.562090
    2   H      2    1.2000  1.000      9.501386      7.166562      5.965976
    3   C      3    1.8500  1.000      6.240477      6.996707      5.175607
    4   B      4    1.8000  1.000      7.642564      6.615447      5.777086
    5   O      5    2.2940  1.000      7.882551      5.482131      6.500106
    6   H      6    1.2000  1.000      7.115218      4.917490      6.633318
    7   C      7    1.8500  1.000      5.114923      6.175532      5.299749
    8   H      8    1.2000  1.000      5.173912      5.226911      5.825255
    9   C      9    1.8500  1.000      3.890884      6.548170      4.754180
   10   H     10    1.2000  1.000      3.026742      5.902403      4.856994
   11   C     11    1.8500  1.000      3.765038      7.753389      4.070581
   12   C     12    1.8500  1.000      4.883863      8.568068      3.947272
   13   C     13    1.8500  1.000      6.110424      8.208407      4.485236
   14   H     14    1.2000  1.000      6.968917      8.860124      4.374771
   15   H     15    1.2000  1.000      2.814803      8.049251      3.643471
   16  Br     16    3.0600  1.000      4.727028     10.222997      3.012702
 ------------------------------------------------------------------------------
 ------------------------------------------------------------------------------
 Atomic radii for non-electrostatic terms: SMD-CDS.
 ------------------------------------------------------------------------------
 Nuclear repulsion after PCM non-electrostatic terms =      687.7388900984 Hartrees.
 One-electron integrals computed using PRISM.
 NBasis=   282 RedAO= T EigKep=  2.78D-06  NBF=   282
 NBsUse=   282 1.00D-06 EigRej= -1.00D+00 NBFU=   282
 Initial guess from the checkpoint file:  "3-br-phboh2-opt-freq-thf.chk"
 B after Tr=    -0.002957    0.010984   -0.011202
         Rot=    1.000000   -0.000638   -0.000238   -0.000080 Ang=  -0.08 deg.
 ExpMin= 3.15D-02 ExpMax= 4.40D+05 ExpMxC= 1.51D+04 IAcc=3 IRadAn=         5 AccDes= 0.00D+00
 Harris functional with IExCor= 1009 and IRadAn=       5 diagonalized for initial guess.
 HarFok:  IExCor= 1009 AccDes= 0.00D+00 IRadAn=         5 IDoV= 1 UseB2=F ITyADJ=14
 ICtDFT=  3500011 ScaDFX=  1.000000  1.000000  1.000000  1.000000
 FoFCou: FMM=F IPFlag=           0 FMFlag=      100000 FMFlg1=           0
         NFxFlg=           0 DoJE=T BraDBF=F KetDBF=T FulRan=T
         wScrn=  0.000000 ICntrl=       500 IOpCl=  0 I1Cent=   200000004 NGrid=           0
         NMat0=    1 NMatS0=      1 NMatT0=    0 NMatD0=    1 NMtDS0=    0 NMtDT0=    0
 Symmetry not used in FoFCou.
 Requested convergence on RMS density matrix=1.00D-08 within 128 cycles.
 Requested convergence on MAX density matrix=1.00D-06.
 Requested convergence on             energy=1.00D-06.
 Level shift goal  0.100 maximum shift  0.100.
 No special actions if energy rises.
 Dynamic level shift is on during FON iterations.
 Inv3:  Mode=1 IEnd=     8457123.
 Iteration    1 A*A^-1 deviation from unit magnitude is 5.11D-15 for   1675.
 Iteration    1 A*A^-1 deviation from orthogonality  is 2.57D-15 for   1675   1550.
 Iteration    1 A^-1*A deviation from unit magnitude is 4.22D-15 for   1661.
 Iteration    1 A^-1*A deviation from orthogonality  is 2.17D-15 for   1662   1577.
 Error on total polarization charges =  0.01461
 SCF Done:  E(RM062X) =  -2981.81241002     A.U. after    9 cycles
            NFock=  9  Conv=0.93D-08     -V/T= 2.0015
 SMD-CDS (non-electrostatic) energy       (kcal/mol) =      -3.76
 (included in total energy above)
 D1PCM: PCM CHGder 1st derivatives, ID1Alg=3 FixD1E=F DoIter=F DoCFld=F I1PDM=0.
 Calling FoFJK, ICntrl=      2127 FMM=F ISym2X=0 I1Cent= 0 IOpClX= 0 NMat=1 NMatS=1 NMatT=0.
 -------------------------------------------------------------------
 Center     Atomic                   Forces (Hartrees/Bohr)
 Number     Number              X              Y              Z
 -------------------------------------------------------------------
      1        8          -0.000002107   -0.000002521    0.000007806
      2        1          -0.000003226   -0.000003483    0.000013399
      3        6           0.000002867   -0.000001783    0.000000419
      4        5          -0.000004310   -0.000001319    0.000003495
      5        8          -0.000001619   -0.000004731    0.000006578
      6        1          -0.000007821   -0.000007111   -0.000005447
      7        6          -0.000002428   -0.000002125   -0.000002929
      8        1          -0.000003389   -0.000001803   -0.000006598
      9        6          -0.000002032    0.000000262   -0.000008159
     10        1           0.000000178    0.000000370   -0.000013500
     11        6           0.000019987    0.000001829    0.000001039
     12        6           0.000006066    0.000001492    0.000001770
     13        6          -0.000001603    0.000006558    0.000002060
     14        1           0.000004577    0.000001670    0.000008918
     15        1          -0.000014796    0.000010457   -0.000016010
     16       35           0.000009656    0.000002238    0.000007160
 -------------------------------------------------------------------
 Cartesian Forces:  Max     0.000019987 RMS     0.000006757

 GradGradGradGradGradGradGradGradGradGradGradGradGradGradGradGradGradGrad
 Berny optimization.
 Using GEDIIS/GDIIS optimizer.
 FormGI is forming the generalized inverse of G from B-inverse, IUseBI=4.
 Internal  Forces:  Max     0.000022083 RMS     0.000003157
 Search for a local minimum.
 Step number   3 out of a maximum of   81
 All quantities printed in internal units (Hartrees-Bohrs-Radians)
 Mixed Optimization -- En-DIIS/RFO-DIIS
 Swapping is turned off.
 Update second derivatives using D2CorX and points    1    2    3
 DE= -1.08D-06 DEPred=-1.09D-06 R= 9.89D-01
 TightC=F SS=  1.41D+00  RLast= 2.30D-02 DXNew= 5.7343D-01 6.9003D-02
 Trust test= 9.89D-01 RLast= 2.30D-02 DXMaxT set to 3.41D-01
 ITU=  1  1  0
     Eigenvalues ---    0.00123   0.00959   0.01234   0.01435   0.01651
     Eigenvalues ---    0.01780   0.02168   0.02428   0.02558   0.02648
     Eigenvalues ---    0.02811   0.02907   0.03850   0.10410   0.10922
     Eigenvalues ---    0.11228   0.11835   0.12262   0.12516   0.14637
     Eigenvalues ---    0.15871   0.16484   0.18174   0.18416   0.18990
     Eigenvalues ---    0.19387   0.23569   0.27415   0.28937   0.35811
     Eigenvalues ---    0.36470   0.36761   0.38060   0.38622   0.42022
     Eigenvalues ---    0.42391   0.47649   0.47713   0.48934   0.51519
     Eigenvalues ---    0.53633   0.54425
 En-DIIS/RFO-DIIS/Sim-DIIS IScMMF=       -3 using points:     3    2
 RFO step:  Lambda=-2.29959829D-09.
 DidBck=F Rises=F RFO-DIIS coefs:    0.89122    0.10878
 Iteration  1 RMS(Cart)=  0.00074335 RMS(Int)=  0.00000027
 Iteration  2 RMS(Cart)=  0.00000037 RMS(Int)=  0.00000001
 Variable       Old X    -DE/DX   Delta X   Delta X   Delta X     New X
                                 (Linear)    (Quad)   (Total)
    R1        1.82219   0.00000   0.00000   0.00000   0.00000   1.82219
    R2        2.57578   0.00000   0.00000   0.00000   0.00000   2.57579
    R3        2.97173   0.00000   0.00000   0.00001   0.00002   2.97175
    R4        2.64333   0.00000  -0.00003   0.00004   0.00001   2.64334
    R5        2.64679   0.00000  -0.00004   0.00005   0.00001   2.64680
    R6        2.58054   0.00000   0.00001   0.00001   0.00001   2.58055
    R7        1.81784   0.00000   0.00000   0.00001   0.00001   1.81785
    R8        2.05235   0.00000  -0.00001   0.00000  -0.00001   2.05234
    R9        2.62854   0.00000  -0.00002   0.00003   0.00001   2.62855
   R10        2.04783   0.00000  -0.00001   0.00001   0.00000   2.04783
   R11        2.62916   0.00000  -0.00004   0.00005   0.00001   2.62917
   R12        2.62575   0.00000  -0.00001   0.00001   0.00000   2.62575
   R13        2.04659   0.00002  -0.00011   0.00017   0.00006   2.04665
   R14        2.62067   0.00000  -0.00002   0.00002  -0.00001   2.62067
   R15        3.60379   0.00000  -0.00015   0.00013  -0.00001   3.60377
   R16        2.04750   0.00000   0.00000   0.00001   0.00000   2.04750
    A1        1.96390   0.00000   0.00000   0.00001   0.00000   1.96390
    A2        2.14261   0.00000   0.00006   0.00001   0.00007   2.14268
    A3        2.07265   0.00000  -0.00002  -0.00003  -0.00005   2.07260
    A4        2.06793   0.00000  -0.00004   0.00003  -0.00002   2.06791
    A5        2.05605   0.00000  -0.00003  -0.00002  -0.00004   2.05601
    A6        2.06145   0.00000  -0.00002   0.00000  -0.00001   2.06144
    A7        2.16568   0.00000   0.00005   0.00001   0.00006   2.16574
    A8        2.00455   0.00000   0.00000  -0.00003  -0.00003   2.00452
    A9        2.10832   0.00000   0.00004  -0.00002   0.00002   2.10834
   A10        2.11299   0.00000   0.00003  -0.00002   0.00001   2.11300
   A11        2.06188   0.00000  -0.00007   0.00004  -0.00003   2.06185
   A12        2.10003   0.00000   0.00002  -0.00003  -0.00001   2.10002
   A13        2.09946   0.00000  -0.00004   0.00004   0.00001   2.09947
   A14        2.08369   0.00000   0.00002  -0.00001   0.00001   2.08370
   A15        2.06994   0.00000   0.00007  -0.00008  -0.00002   2.06992
   A16        2.10573   0.00000  -0.00001   0.00002   0.00000   2.10574
   A17        2.10752   0.00000  -0.00005   0.00007   0.00001   2.10753
   A18        2.12432   0.00000  -0.00009   0.00011   0.00002   2.12433
   A19        2.07839   0.00000   0.00005  -0.00005   0.00001   2.07840
   A20        2.08048   0.00000   0.00004  -0.00006  -0.00002   2.08046
   A21        2.09174   0.00000   0.00008  -0.00007   0.00000   2.09174
   A22        2.09099   0.00000   0.00002  -0.00003  -0.00001   2.09098
   A23        2.10046   0.00000  -0.00010   0.00010   0.00001   2.10047
    D1        3.13769   0.00000   0.00013  -0.00003   0.00011   3.13780
    D2       -0.00336   0.00000   0.00014  -0.00003   0.00011  -0.00325
    D3        3.10820   0.00000   0.00123  -0.00001   0.00122   3.10942
    D4       -0.03396   0.00000   0.00123  -0.00002   0.00121  -0.03275
    D5       -0.03259   0.00000   0.00117  -0.00001   0.00116  -0.03143
    D6        3.10843   0.00000   0.00116  -0.00001   0.00115   3.10958
    D7       -0.00181   0.00000   0.00000   0.00007   0.00006  -0.00174
    D8        3.14091   0.00000  -0.00007   0.00008   0.00001   3.14091
    D9        3.13899   0.00000   0.00006   0.00006   0.00012   3.13911
   D10       -0.00149   0.00000   0.00000   0.00007   0.00007  -0.00142
   D11       -3.13995   0.00000   0.00000  -0.00005  -0.00004  -3.13999
   D12        0.00113   0.00000   0.00002  -0.00002   0.00001   0.00114
   D13        0.00241   0.00000  -0.00006  -0.00004  -0.00010   0.00231
   D14       -3.13970   0.00000  -0.00004  -0.00001  -0.00005  -3.13975
   D15        3.12805   0.00000   0.00040   0.00026   0.00066   3.12871
   D16       -0.01297   0.00000   0.00040   0.00026   0.00066  -0.01231
   D17        3.14093   0.00000   0.00005  -0.00006   0.00000   3.14092
   D18        0.00003   0.00000   0.00002  -0.00004  -0.00001   0.00001
   D19        0.00042   0.00000  -0.00001  -0.00005  -0.00005   0.00037
   D20       -3.14047   0.00000  -0.00004  -0.00003  -0.00007  -3.14054
   D21        0.00051   0.00000   0.00001  -0.00003  -0.00001   0.00049
   D22        3.14156   0.00000   0.00004  -0.00006  -0.00002   3.14154
   D23       -3.14040   0.00000  -0.00002  -0.00001  -0.00002  -3.14042
   D24        0.00065   0.00000   0.00001  -0.00004  -0.00003   0.00062
   D25        0.00045   0.00000  -0.00007   0.00006  -0.00002   0.00043
   D26        3.14139   0.00000  -0.00006   0.00005  -0.00001   3.14139
   D27       -3.14060   0.00000  -0.00010   0.00009  -0.00001  -3.14061
   D28        0.00034   0.00000  -0.00009   0.00008   0.00000   0.00034
   D29       -0.00194   0.00000   0.00010  -0.00002   0.00007  -0.00186
[...]
     8         16.16205895         13.26796957        -11.90594264
     1         17.92211124         13.42929907        -11.46258585
     6         11.70376581         12.90786141        -10.29346076
     5         14.62945208         13.16200043         -9.83843840
     8         15.72502736         13.28388549         -7.50518006
     1         14.56080424         13.22275517         -6.11040121
     6          9.96029155         12.71076443         -8.31642109
     1         10.58306607         12.72400757         -6.36089320
     6          7.38524055         12.49023544         -8.79572786
     1          6.05459811         12.33778820         -7.24661303
     6          6.49441077         12.46181157        -11.26921434
     6          8.22795094         12.65652714        -13.23173616
     6         10.80028956         12.87530542        -12.78107571
     1         12.11545718         13.02208563        -14.34346151
     1          4.49177124         12.29048314        -11.65501345
    35          7.03560317         12.61966381        -16.63233702

 Electric dipole moment (dipole orientation):
 (Debye = 10**-18 statcoulomb cm , SI units = C m)
                  (au)            (Debye)         (10**-30 SI)
   Tot        0.155133D+01      0.394308D+01      0.131527D+02
   x          0.000000D+00      0.000000D+00      0.000000D+00
   y          0.000000D+00      0.000000D+00      0.000000D+00
   z          0.155133D+01      0.394308D+01      0.131527D+02

 Dipole polarizability, Alpha (dipole orientation).
 (esu units = cm**3 , SI units = C**2 m**2 J**-1)
 Alpha(0;0):
               (au)            (10**-24 esu)      (10**-40 SI)
   iso        0.132581D+03      0.196465D+02      0.218597D+02
   aniso      0.872180D+02      0.129244D+02      0.143803D+02
   xx         0.153218D+03      0.227046D+02      0.252623D+02
   yx         0.654139D+01      0.969334D+00      0.107853D+01
   yy         0.775620D+02      0.114935D+02      0.127882D+02
   zx         0.132363D+02      0.196142D+01      0.218237D+01
   zy        -0.351480D+00     -0.520839D-01     -0.579512D-01
   zz         0.166963D+03      0.247413D+02      0.275285D+02

 ----------------------------------------------------------------------
 Unable to Open any file for archive entry.
 1\1\GINC-CN018\Freq\RM062X\6-311+G(d,p)\C6H6B1Br1O2\TAHMINAAFROZ\30-Ap
 r-2025\0\\#N Geom=AllCheck Guess=TCheck SCRF=Check GenChk RM062X/6-311
 +G(d,p) Freq\\3-br-phboh2-opt-freq-thf\\0,1\O,8.6805038568,7.472600109
 8,5.5629445471\H,9.5011524077,7.1671186885,5.9666984039\C,6.2404378202
 ,6.9966975538,5.1756950269\B,7.6425444386,6.6154853763,5.7771785012\O,
 7.8828361921,5.4817675246,6.4994801067\H,7.1157830002,4.916521609,6.63
 1758703\C,5.1147827849,6.1756879969,5.3000706303\H,5.1736437966,5.2272
 016666,5.8258279748\C,3.8907613343,6.5483431948,4.7544624985\H,3.02655
 38692,5.9026926471,4.8574681922\C,3.7650215473,7.7534218122,4.07059258
 59\C,4.88393837,8.5679424917,3.9470743106\C,6.1104691472,8.208284523,4
 .4851003431\H,6.9690258813,8.8598954206,4.3744845602\H,2.814778765,8.0
 492965782,3.6434288052\Br,4.7272942086,10.2226654269,3.0121284604\\Ver
 sion=AS64L-G16RevC.01\HF=-2981.81241\RMSD=2.277e-09\RMSF=5.136e-06\Zer
 oPoint=0.1152753\Thermal=0.1245878\ETot=-2981.6878222\HTot=-2981.68687
 8\GTot=-2981.7335915\Dipole=-0.3830597,-1.3521069,0.6570269\DipoleDeri
 v=-1.5912973,-0.3392078,-0.0614528,-0.4404054,-0.8655071,0.0145556,-0.
 0018468,0.0401096,-0.6561875,0.4492637,0.0416582,-0.0090538,0.0501911,
 0.3405689,0.0440879,-0.0173046,0.0431674,0.3628516,-0.6701309,0.244085
 8,-0.2671341,0.101134,-0.1971381,0.0352858,-0.186834,0.0777188,-0.2851
 374,2.2740309,-0.0604211,0.4645297,0.120773,1.6770815,-0.5465853,0.363
 84,-0.5944804,1.124535,-0.8279594,0.1966765,-0.1702931,0.1843539,-1.37
 68474,0.4864517,-0.1675521,0.4870542,-0.9504403,0.3037516,-0.0399737,0
 .0035024,-0.0741098,0.4690587,-0.0724273,0.0285359,-0.0625622,0.423247
 2,0.0119818,-0.0733987,0.0912403,0.0433485,-0.0135014,-0.0725389,0.019
 8138,-0.1079248,-0.1099993,0.1067157,0.0475362,-0.0422851,0.025587,-0.
 0404311,0.1180398,-0.0305499,0.1227486,0.090661,0.0102655,0.0430649,0.
 0171598,0.1352054,-0.0592087,-0.0030945,-0.0296551,-0.0257168,-0.12988
 82,0.0053414,-0.0757151,-0.0080759,-0.08353,0.0478097,0.0479257,-0.003
 4969,0.0500031,0.151598,-0.0435422,0.0533207,-0.0033073,-0.036896,-0.2
 678196,0.0626494,0.0436127,0.0871793,-0.167038,-0.0522879,-0.1648116,0
 .0858739,-0.118683,1.0412776,-0.6178124,0.0633958,-0.6308814,0.3142278
 ,-0.0172545,0.1089159,-0.0307987,0.0382683,-0.2987514,0.104217,0.00972
 6,0.1258476,-0.187894,0.1007503,-0.0561332,0.013971,-0.0591095,0.07604
 11,0.0280187,0.0152495,0.0286997,0.1460287,0.0605625,0.0204443,-0.0423
 177,0.0521434,0.1109296,0.0481958,-0.0591623,0.0386728,0.1364041,-0.12
 01912,0.0539587,-0.0415586,0.061729,-0.6435623,0.3230311,-0.0477719,0.
 3203646,-0.2629686\Polar=144.150766,0.8076491,150.0566123,18.4016126,-
 39.4327915,103.5356867\Quadrupole=7.0062537,-27.1789752,20.1727214,-17
 .4283681,4.5795171,-4.3391046\PG=C01 [X(C6H6B1Br1O2)]\NImag=0\\0.64210
 151,0.02924741,0.28371600,0.15028165,-0.13830100,0.15474249,-0.3778347
 2,0.11605434,-0.16814151,0.40580952,0.14658162,-0.07927535,0.07968294,
 -0.12376927,0.07289020,-0.18595920,0.07131245,-0.10476743,0.18102809,-
 0.07118173,0.10082482,-0.03005562,-0.00194920,-0.00933039,0.00002860,-
 0.00218057,0.00009626,0.60751137,-0.01812766,0.00712310,-0.00413546,-0
 .00316969,-0.00080146,0.00207341,0.07146001,0.53669898,-0.00001711,0.0
 0025156,0.00843452,0.00065561,0.00235911,0.00307920,0.09516370,-0.1990
 4046,0.26624542,-0.23168266,-0.11299336,0.01504024,-0.03293512,-0.0226
 8554,0.00361496,-0.16711684,0.02659988,-0.04378025,0.52578533,-0.13611
 906,-0.16469017,0.03122914,0.00451274,0.00780092,-0.00217441,0.0258042
 5,-0.07668523,0.01485480,0.07431498,0.49392775,0.02857894,0.03760197,-
 0.06096377,-0.01219548,-0.00957557,0.00424530,-0.04343358,0.01503386,-
 0.08288802,0.06103337,-0.18273541,0.26510080,0.00370370,-0.03474800,0.
 01792446,0.00479506,0.00195494,0.00090907,0.00107921,0.02097749,-0.016
 23514,-0.09029012,0.02593845,-0.02776379,0.43574415,-0.02482900,-0.046
 86957,0.02721526,0.00594320,-0.00043864,0.00033321,0.00475866,-0.00709
 226,0.01482712,0.05708984,-0.23766609,0.12879048,0.20335347,0.48460302
 ,0.01227227,0.02454207,0.00057453,-0.00145474,-0.00079671,-0.00258491,
 -0.00675317,0.01922802,0.00317917,-0.04593785,0.12086801,-0.12444119,-
 0.01164080,-0.21580198,0.15139882,0.00305145,0.00273326,-0.00242216,-0
 .00006658,0.00035331,0.00000741,-0.00128175,0.00121663,-0.00037469,0.0
 0414132,0.00155699,0.00098217,-0.35038397,-0.24872190,0.05733599,0.346
 75605,0.00107491,0.00002192,0.00393332,0.00034045,-0.00050072,-0.00011
 514,0.00029062,0.00136104,-0.00215790,-0.02410206,-0.02144543,0.004426
 46,-0.21923748,-0.19217696,0.05088754,0.24211544,0.21135774,-0.0015373
 9,0.00429225,0.00345013,0.00003855,-0.00009237,-0.00080544,0.00009245,
 -0.00189877,-0.00125997,0.01604359,0.01090179,-0.00528708,0.04000009,0
 .04362232,-0.02385322,-0.05390399,-0.05674725,0.02693631,-0.00162308,0
 .00080878,-0.00111109,-0.00052617,-0.00038270,0.00005123,-0.25253601,-
 0.07621700,-0.01293516,-0.01692853,-0.00891755,-0.00068992,0.00088911,
 -0.00226701,0.00183921,0.00095196,0.00017316,0.00009072,0.63388653,0.0
 0517854,0.00005711,0.00167919,0.00039032,0.00041386,0.00004612,-0.1256
 1701,-0.18110589,0.02857413,-0.00060758,0.01077926,-0.00477734,0.00048
 995,-0.00347019,0.00161089,0.00288761,0.00008654,0.00115230,0.04996307
 ,0.60846557,-0.00342004,0.00052873,-0.00060632,-0.00043290,-0.00015059
 ,0.00035370,0.01377787,0.04234875,-0.08152431,-0.00505425,-0.00706809,
 0.00473228,0.00030351,0.00058225,-0.00168633,-0.00150843,0.00031242,-0
 .00016264,0.11290762,-0.23804189,0.29940968,0.00042829,0.00031344,-0.0
 0011909,-0.00005748,-0.00004684,-0.00004390,0.00661477,-0.02043290,0.0
 1244380,-0.00020095,-0.00064113,0.00117205,0.00037818,-0.00019511,-0.0
 0099216,-0.00255234,0.00061452,-0.00153334,-0.05891288,0.00943847,-0.0
 1088842,0.06004626,-0.00020671,0.00037847,-0.00018030,-0.00011010,0.00
 000618,0.00006650,0.00227267,-0.01098848,0.00738758,0.00142160,-0.0022
 7987,0.00001168,0.00036714,0.00144769,-0.00012363,-0.00097514,0.000824
 34,-0.00035740,0.01307911,-0.26677809,0.12612997,-0.01173062,0.2787635
 9,0.00022795,-0.00000350,0.00024254,-0.00000773,0.00009005,0.00013019,
 0.00032573,0.00098216,0.00112217,0.00005031,-0.00060895,-0.00277219,-0
 .00126045,-0.00026241,-0.00193586,-0.00065445,0.00025715,0.00059217,-0
 .01303338,0.12488208,-0.10935697,0.01764652,-0.13989781,0.10697836,-0.
 00232820,0.00026934,-0.00068159,-0.00004772,-0.00008453,0.00016184,-0.
 05367161,-0.03974112,0.00368847,-0.00039318,-0.00598835,0.00143215,0.0
 0079367,0.00062437,-0.00016215,-0.00040093,0.00035254,-0.00013893,-0.2
 9172461,0.07427748,-0.10400042,0.00204773,-0.00188014,0.00030014,0.693
 98752,-0.00010618,0.00042940,-0.00045239,-0.00032972,-0.00016141,-0.00
 021138,0.00624894,0.05194926,-0.02115940,-0.00313256,0.00029824,0.0022
 3417,-0.00014574,0.00033575,-0.00022983,-0.00064219,-0.00001506,-0.000
 56411,0.00915499,-0.13084774,0.03827296,0.02558900,-0.00388141,0.01181
 996,0.09856182,0.58668541,-0.00058480,-0.00031632,-0.00026107,0.000281
 57,-0.00020746,-0.00030305,-0.02122414,-0.03389014,0.02209281,-0.00014
 959,0.00138553,0.00522750,0.00029369,-0.00002172,0.00008273,0.00044841
 ,-0.00023715,-0.00028950,-0.06893311,0.05654086,-0.11426645,-0.0144726
 9,0.00403029,-0.00166455,0.10418634,-0.21425575,0.28070259,-0.00078691
 ,-0.00002432,-0.00016426,-0.00001716,-0.00004219,0.00003469,-0.0033501
 2,0.00166291,-0.00391605,0.00053788,-0.00101363,0.00065759,-0.00017540
 ,0.00035200,-0.00025886,-0.00001430,-0.00012310,0.00006810,-0.01540700
 ,-0.01735903,0.00388592,0.00075136,0.00059669,0.00106878,-0.24080902,-
 0.13970459,0.01806622,0.25081414,0.00013567,-0.00004907,0.00000125,0.0
 0003826,0.00000324,-0.00001764,0.00144952,0.00194705,0.00326138,0.0002
 7826,0.00033030,-0.00002210,-0.00004917,-0.00000868,0.00001250,0.00002
 262,0.00000127,0.00000578,0.00881474,0.00919146,-0.00034911,0.00008320
 ,-0.00035609,-0.00202030,-0.13970274,-0.15654427,0.02402549,0.14964110
 ,0.15985857,-0.00026164,-0.00004115,-0.00016301,-0.00001680,-0.0000378
 4,-0.00002649,-0.00375506,0.00333718,0.00439363,-0.00003494,-0.0003858
 4,0.00033980,-0.00003704,0.00013149,-0.00004216,-0.00001835,-0.0000380
 3,0.00001480,-0.01019258,-0.00775641,0.00519181,0.00133197,-0.00186879
 ,-0.00277025,0.01802646,0.02399062,-0.04634293,-0.01708363,-0.02963953
 ,0.03730461,-0.00168284,-0.00001617,-0.00035218,0.00023938,-0.00000063
 ,0.00000805,-0.01512229,-0.02677059,0.01157403,0.00197942,-0.00188357,
 0.00180205,-0.00026937,0.00054376,-0.00038754,0.00017814,-0.00021660,0
 .00015137,0.03113109,0.03077452,-0.00955656,-0.00420034,0.00097752,-0.
 00379689,-0.12990448,0.04424326,-0.04285843,0.00631226,-0.02207833,0.0
 1257430,0.70998309,-0.00020817,0.00027259,-0.00031131,0.00000115,-0.00
 004260,0.00006283,-0.02578661,-0.05543630,0.02019065,-0.00261790,-0.00
 251113,0.00017354,0.00096412,-0.00060405,0.00059430,-0.00002253,0.0004
 4930,-0.00014293,0.08061516,0.00004037,0.02585805,0.00051398,0.0026586
 2,0.00267469,-0.02501778,-0.27531418,0.10748903,0.00426802,-0.01156650
 ,0.00953492,0.03100257,0.55727007,-0.00029111,-0.00028052,-0.00017962,
 0.00003910,0.00009019,0.00009088,0.01096405,0.01972811,-0.01241998,0.0
 0217701,0.00039426,-0.00039762,-0.00057817,0.00047930,-0.00041580,-0.0
 0001265,-0.00019376,0.00029852,-0.03633664,0.01188866,-0.01055569,-0.0
 0352941,0.00278383,0.00483316,-0.00559220,0.12710473,-0.13206889,-0.00
 161412,0.00206576,0.00230361,0.14560962,-0.21919767,0.29260700,0.00068
 300,-0.00043774,0.00034652,-0.00001708,0.00013202,-0.00000541,0.025955
 64,0.08240030,-0.04006891,0.00419973,0.00126168,-0.00126118,-0.0007353
 9,0.00099997,-0.00035084,-0.00011309,-0.00035927,0.00011032,-0.0825839
 7,-0.01397449,-0.01404600,-0.00135867,-0.00024343,-0.00006685,0.049940
 36,-0.06962070,0.04995635,0.00181031,0.00034614,-0.00188334,-0.2659141
 4,-0.07388489,-0.01816703,0.62626384,-0.00207374,0.00023808,-0.0006205
 8,0.00031759,0.00014524,-0.00006808,0.02410352,0.00038613,0.01178617,0
 .00181345,-0.00235211,0.00522589,0.00038468,0.00046885,-0.00082316,0.0
 0004066,-0.00012064,0.00013356,-0.01444122,-0.00349525,-0.00524538,-0.
 00031898,0.00044606,-0.00073252,-0.01031982,-0.03821977,0.02088442,0.0
 0026646,-0.00087866,0.00472616,-0.13912994,-0.16606297,0.01740780,0.07
 277562,0.40943561,0.00120929,-0.00018741,0.00056808,-0.00013886,-0.000
 13449,-0.00010864,-0.00845437,0.02841146,-0.00780943,-0.00156988,0.005
 02527,0.00320049,-0.00002621,-0.00073095,-0.00091110,-0.00006476,0.000
 05109,0.00007224,-0.01380297,-0.00514366,-0.00692365,-0.00000275,-0.00
 071777,-0.00037261,0.01789861,0.00424413,0.00881098,-0.00183843,0.0047
 3634,0.00469136,0.01702166,0.03586556,-0.07524707,0.10512287,-0.139141
 89,0.21817990,-0.00278522,0.00006116,-0.00048100,0.00068235,0.00020824
 ,0.00003976,-0.12207220,-0.01968003,-0.00581826,0.00227016,0.01966389,
 -0.01075176,-0.00521060,0.00241274,-0.00332641,-0.00028844,-0.00082417
 ,0.00043829,0.04816746,-0.01623950,0.02083999,-0.00348482,-0.00386435,
 -0.00102381,-0.02806091,0.03074908,-0.02331302,0.00009389,0.00079859,-
 0.00007499,-0.05270380,-0.04174350,0.00591613,-0.29464813,0.06871896,-
 0.10189128,0.69729228,-0.00178059,-0.00222672,0.00036502,-0.00041464,-
 0.00036430,0.00009138,0.03572916,-0.25843137,0.11564470,0.00858775,-0.
 00262008,0.00517303,-0.00142275,0.00166096,-0.00066273,-0.00029517,-0.
 00026384,0.00005736,-0.06072574,-0.03708322,0.00557986,-0.00363927,0.0
 0102800,0.00246721,0.02991628,-0.03464625,0.02482058,0.00087627,-0.000
 67502,0.00001661,0.00772050,0.05265483,-0.02282319,0.00326572,-0.11036
 473,0.02643153,0.10420648,0.57188833,0.00052399,0.00074816,-0.00111886
 ,0.00040553,0.00023944,-0.00003956,-0.03585067,0.10002104,-0.12652810,
 -0.00484585,0.00837522,-0.00323005,-0.00102689,0.00046499,0.00063886,0
 .00002910,-0.00010197,0.00011270,0.04494242,0.01808820,0.00780159,-0.0
 0115378,0.00242186,0.00594163,-0.02288652,0.02501289,-0.02420619,-0.00
 013274,0.00000229,-0.00112132,-0.02083305,-0.03684173,0.02024781,-0.06
 648097,0.04502223,-0.10548673,0.10038514,-0.20428410,0.27649071,-0.000
 91493,0.00070324,-0.00069159,-0.00009345,-0.00005085,0.00005291,0.0068
 3294,0.00234784,-0.00004561,0.00014167,0.00105939,0.00033086,0.0000470
 9,-0.00037582,0.00009508,0.00002770,-0.00000179,0.00002808,0.00171167,
 0.00092509,-0.00213248,0.00032752,0.00026672,-0.00008732,-0.00001204,0
 .00096923,-0.00020706,-0.00007015,0.00003460,0.00022911,-0.00277836,0.
 00162402,-0.00349778,-0.01654468,-0.01637046,0.00328771,-0.23814831,-0
 .14003332,0.01965008,0.24994678,0.00002285,0.00045915,-0.00025389,0.00
 028862,0.00033033,-0.00019996,-0.02018180,-0.01150174,0.00186300,-0.00
 138438,-0.00213789,-0.00086058,0.00018341,0.00053781,0.00001660,-0.000
 07373,0.00003744,-0.00008414,0.00077143,-0.00200902,0.00537432,-0.0010
 5177,-0.00056982,0.00008442,0.00072188,-0.00052879,-0.00012261,0.00000
 202,-0.00015243,-0.00043173,0.00165425,0.00148882,0.00319444,0.0094661
 1,0.00688334,0.00065017,-0.14196214,-0.15702730,0.02387082,0.14978641,
 0.16353274,-0.00028433,0.00002511,0.00003654,-0.00011792,-0.00029660,-
 0.00010287,0.01204110,0.00816950,0.00142142,0.00168638,-0.00021591,-0.
 00253846,-0.00024457,-0.00006797,0.00049345,0.00005887,-0.00006823,-0.
 00001061,-0.00207015,0.00540906,0.00405917,0.00062223,0.00046031,0.000
 07201,-0.00008085,-0.00005150,-0.00112408,0.00025052,-0.00042044,-0.00
 065665,-0.00350106,0.00317853,0.00386203,-0.01064957,-0.00662889,0.003
 74731,0.02070479,0.02433716,-0.04631724,-0.01794110,-0.03194204,0.0383
 4997,-0.00000209,0.00004202,-0.00005014,0.00001245,0.00001757,-0.00000
 287,0.00034164,-0.00047350,0.00076808,-0.00021469,0.00005642,0.0001271
 9,0.00001349,0.00000732,-0.00001004,0.00000413,-0.00000311,-0.00000420
 ,0.00215035,-0.00097351,-0.00104474,0.00002684,-0.00013168,0.00011743,
 0.00314272,-0.00141363,0.00033152,0.00019946,0.00070854,0.00089788,-0.
 28142435,0.06679002,-0.10438713,-0.01593100,0.00860730,-0.00990664,-0.
 00184263,-0.00408834,-0.00012726,-0.00063526,0.00042660,-0.00042463,0.
 29333547,0.00007376,0.00009260,0.00001263,0.00000772,0.00001491,-0.000
 00892,-0.00020297,-0.00111963,-0.00024672,-0.00005307,-0.00023812,-0.0
 0029611,0.00005434,0.00003387,0.00001209,-0.00009588,0.00006419,-0.000
 05692,-0.00102926,-0.00253141,0.00522973,0.00124158,-0.00036858,0.0004
 7666,0.02399261,-0.00202101,0.01034032,0.00021704,0.00004761,-0.002290
 59,0.06888236,-0.07379217,0.03867459,-0.01738118,0.00650804,-0.0069166
 2,-0.00396691,-0.00073151,0.00275034,-0.00074296,0.00047326,-0.0004295
 7,-0.07042050,0.07317993,-0.00005026,0.00000969,0.00006704,0.00000005,
 -0.00000405,-0.00000312,0.00061323,-0.00034206,-0.00112228,0.00018497,
 -0.00026666,-0.00057115,-0.00003664,0.00000191,0.00001367,0.00004414,-
 0.00001713,0.00005391,-0.00102227,0.00523542,0.00460325,-0.00061884,0.
 00008595,-0.00035966,-0.01332608,0.00316744,-0.00083029,0.00116679,-0.
 00214340,-0.00284121,-0.10558043,0.03808066,-0.08837958,0.00409547,0.0
 0041317,0.00369762,-0.00018133,0.00269673,0.00491918,0.00020121,-0.000
 09907,0.00017255,0.11312663,-0.04568604,0.08175461,-0.00027169,-0.0000
 6420,-0.00004788,0.00002814,-0.00000457,0.00000711,-0.00315772,-0.0020
 5257,-0.00110252,0.00070658,0.00039451,-0.00002067,-0.00037880,0.00030
 351,-0.00026798,-0.00000934,-0.00009406,0.00005630,0.00135409,0.000446
 05,0.00036933,0.00014655,0.00016071,0.00019404,-0.00255931,-0.00042101
 ,-0.00182126,0.00011074,-0.00052102,0.00029865,0.00417660,-0.01649764,
 0.00930033,-0.03100674,0.00562591,-0.00684398,0.00073892,0.02209764,-0
 .01259853,0.00016182,0.00133024,-0.00004970,0.00082348,-0.00057669,0.0
 0138339,0.02913668,0.00113634,0.00032247,0.00013619,-0.00010097,-0.000
 02039,-0.00000864,0.00380083,0.00369680,0.00160429,-0.00252931,-0.0005
 1035,-0.00040398,0.00093517,-0.00076149,0.00066601,-0.00009998,0.00031
 888,-0.00022147,0.00060005,-0.00171338,0.00063803,0.00026242,-0.000330
 61,-0.00020891,-0.00598184,0.00248184,-0.00046538,0.00038433,-0.001148
 78,0.00075292,0.00429707,-0.02950471,0.01868346,0.00525414,-0.10301724
 ,0.04755724,0.00146144,-0.02279780,0.01421034,-0.00014134,0.00018410,-
 0.00145852,0.00084849,0.00038801,-0.00113256,-0.01012683,0.15241262,-0
 .00068820,-0.00018207,-0.00005580,0.00005745,0.00001566,0.00001742,-0.
 00427300,-0.00002660,0.00358373,0.00154179,0.00042126,0.00024336,-0.00
 058110,0.00043670,-0.00051065,0.00005341,-0.00019143,0.00013768,0.0002
 9605,0.00061238,-0.00106912,0.00013781,-0.00023228,-0.00068014,0.00117
 472,0.00107744,0.00444038,-0.00019051,0.00050174,-0.00027563,-0.001874
 92,0.01279090,-0.00457876,-0.00665142,0.04766112,-0.04610875,-0.001462
 25,0.02008885,-0.00810443,0.00072790,-0.00105979,-0.00146452,0.0005889
 0,-0.00156486,-0.00117455,0.01114336,-0.08034902,0.05559977\\0.0000018
 3,0.00000265,-0.00001069,0.00000332,0.00000410,-0.00001260,0.00000072,
 0.00000066,-0.00000095,0.00000287,0.00000290,-0.00000465,0.00000576,0.
 00000506,-0.00000219,0.00000639,0.00000516,0.00000204,0.00000137,0.000
 00058,0.00000529,0.00000353,0.00000216,0.00000781,-0.00000064,-0.00000
 137,0.00000837,-0.00000003,-0.00000140,0.00001321,-0.00000347,-0.00000
 330,0.00000528,-0.00000407,-0.00000342,-0.00000080,-0.00000216,-0.0000
 0126,-0.00000406,-0.00000271,-0.00000139,-0.00000881,-0.00000487,-0.00
 000499,0.00000778,-0.00000784,-0.00000614,-0.00000504\\\@
 The archive entry for this job was punched.


 THAT'S WHAT MAKES US A GREAT COUNTRY.
 THE LITTLE THINGS ARE SERIOUS AND THE BIG ONES ARE NOT.
           WILL ROGERS
 Job cpu time:       0 days  0 hours 46 minutes 13.4 seconds.
 Elapsed time:       0 days  0 hours  1 minutes 31.5 seconds.
 File lengths (MBytes):  RWF=    197 Int=      0 D2E=      0 Chk=     16 Scr=      1
 Normal termination of Gaussian 16 at Wed Apr 30 05:04:37 2025.
