/home/tahminaafroz
cn011.cluster.local
tahminaafroz
Wed Apr 30 04:38:45 CDT 2025
 Entering Gaussian System, Link 0=g16
 Initial command:
 /home/apps/g16/l1.exe "/tmp/3-br-phboh2-opt-freq/Gau-148494.inp" -scrdir="/tmp/3-br-phboh2-opt-freq/"
 Entering Link 1 = /home/apps/g16/l1.exe PID=    148495.
  
 Copyright (c) 1988-2019, Gaussian, Inc.  All Rights Reserved.
  
 This is part of the Gaussian(R) 16 program.  It is based on
 the Gaussian(R) 09 system (copyright 2009, Gaussian, Inc.),
 the Gaussian(R) 03 system (copyright 2003, Gaussian, Inc.),
 the Gaussian(R) 98 system (copyright 1998, Gaussian, Inc.),
 the Gaussian(R) 94 system (copyright 1995, Gaussian, Inc.),
 the Gaussian 92(TM) system (copyright 1992, Gaussian, Inc.),
 the Gaussian 90(TM) system (copyright 1990, Gaussian, Inc.),
 the Gaussian 88(TM) system (copyright 1988, Gaussian, Inc.),
 the Gaussian 86(TM) system (copyright 1986, Carnegie Mellon
 University), and the Gaussian 82(TM) system (copyright 1983,
 Carnegie Mellon University). Gaussian is a federally registered
 trademark of Gaussian, Inc.
  
 This software contains proprietary and confidential information,
 including trade secrets, belonging to Gaussian, Inc.
  
 This software is provided under written license and may be
 used, copied, transmitted, or stored only in accord with that
 written license.
  
 The following legend is applicable only to US Government
 contracts under FAR:
  
                    RESTRICTED RIGHTS LEGEND
  
 Use, reproduction and disclosure by the US Government is
 subject to restrictions as set forth in subparagraphs (a)
 and (c) of the Commercial Computer Software - Restricted
 Rights clause in FAR 52.227-19.
  
 Gaussian, Inc.
 340 Quinnipiac St., Bldg. 40, Wallingford CT 06492
  
  
 ---------------------------------------------------------------
 Warning -- This program may not be used in any manner that
 competes with the business of Gaussian, Inc. or will provide
 assistance to any competitor of Gaussian, Inc.  The licensee
 of this program is prohibited from giving any competitor of
 Gaussian, Inc. access to this program.  By using this program,
 the user acknowledges that Gaussian, Inc. is engaged in the
 business of creating and licensing software in the field of
 computational chemistry and represents and warrants to the
 licensee that it is not a competitor of Gaussian, Inc. and that
 it will not use this program in any manner prohibited above.
 ---------------------------------------------------------------
  

 Cite this work as:
 Gaussian 16, Revision C.01,
 M. J. Frisch, G. W. Trucks, H. B. Schlegel, G. E. Scuseria, 
 M. A. Robb, J. R. Cheeseman, G. Scalmani, V. Barone, 
 G. A. Petersson, H. Nakatsuji, X. Li, M. Caricato, A. V. Marenich, 
 J. Bloino, B. G. Janesko, R. Gomperts, B. Mennucci, H. P. Hratchian, 
 J. V. Ortiz, A. F. Izmaylov, J. L. Sonnenberg, D. Williams-Young, 
 F. Ding, F. Lipparini, F. Egidi, J. Goings, B. Peng, A. Petrone, 
 T. Henderson, D. Ranasinghe, V. G. Zakrzewski, J. Gao, N. Rega, 
 G. Zheng, W. Liang, M. Hada, M. Ehara, K. Toyota, R. Fukuda, 
 J. Hasegawa, M. Ishida, T. Nakajima, Y. Honda, O. Kitao, H. Nakai, 
 T. Vreven, K. Throssell, J. A. Montgomery, Jr., J. E. Peralta, 
 F. Ogliaro, M. J. Bearpark, J. J. Heyd, E. N. Brothers, K. N. Kudin, 
 V. N. Staroverov, T. A. Keith, R. Kobayashi, J. Normand, 
 K. Raghavachari, A. P. Rendell, J. C. Burant, S. S. Iyengar, 
 J. Tomasi, M. Cossi, J. M. Millam, M. Klene, C. Adamo, R. Cammi, 
 J. W. Ochterski, R. L. Martin, K. Morokuma, O. Farkas, 
 J. B. Foresman, and D. J. Fox, Gaussian, Inc., Wallingford CT, 2019.
 
 ******************************************
 Gaussian 16:  AS64L-G16RevC.01  3-Jul-2019
                30-Apr-2025 
 ******************************************
 %mem=20GB
 %nprocshared=32
 Will use up to   32 processors via shared memory.
 %chk=3-br-phboh2-opt-freq.chk
 ----------------------------------------------------------------------
 # opt=(calcfc,tight) freq 6-311+g(d,p) nosymm scf=(qc,fermi,xqc) geom=
 connectivity int=ultrafine m062x
 ----------------------------------------------------------------------
 1/7=10,10=4,18=20,19=15,26=4,38=1,57=2/1,3;
 2/9=110,12=2,15=1,17=6,18=5,40=1/2;
 3/5=4,6=6,7=111,11=2,25=1,30=1,71=2,74=-55,75=-5,140=1/1,2,3;
 4//1;
 5/5=2,22=13,38=5/2;
 8/6=4,10=90,11=11/1;
 11/6=1,8=1,9=11,15=111,16=1,31=1/1,2,10;
 10/6=1,13=1,31=1/2;
 6/7=2,8=2,9=2,10=2,28=1/1;
 7/10=1,25=1,30=1/1,2,3,16;
 1/7=10,10=4,18=20,19=15,26=4/3(2);
 2/9=110,15=1/2;
 99//99;
 2/9=110,15=1/2;
 3/5=4,6=6,7=111,11=2,25=1,30=1,71=1,74=-55,75=-5/1,2,3;
 4/5=5,16=3,69=1/1;
 5/5=2,22=13,38=5/2;
 7/30=1/1,2,3,16;
 1/7=10,18=20,19=15,26=4/3(-5);
 2/9=110,15=1/2;
 6/7=2,8=2,9=2,10=2,19=2,28=1/1;
 99/9=1/99;
 --------------------
 3-br-phboh2-opt-freq
 --------------------
 Symbolic Z-matrix:
 Charge =  0 Multiplicity = 1
 O                     8.68488   7.45597   5.54071 
 H                     9.49815   7.1495    5.952 
 C                     6.2426    6.99495   5.17236 
 B                     7.63981   6.61429   5.77259 
 O                     7.87677   5.49184   6.51726 
 H                     7.1074    4.94275   6.67491 
 C                     5.11751   6.17311   5.28716 
 H                     5.17717   5.2179    5.80176 
 C                     3.88827   6.53618   4.74914 
 H                     3.02409   5.89163   4.84399 
 C                     3.78655   7.74953   4.08108 
 C                     4.88098   8.59415   3.94235 
 C                     6.09859   8.20755   4.48809 
 H                     6.96014   8.8575    4.38492 
 H                     2.84442   8.03931   3.66478 
 Br                    4.70041   10.25384   3.01451 
 

 GradGradGradGradGradGradGradGradGradGradGradGradGradGradGradGradGradGrad
 Berny optimization.
 Initialization pass.
                           ----------------------------
                           !    Initial Parameters    !
                           ! (Angstroms and Degrees)  !
 --------------------------                            --------------------------
 ! Name  Definition              Value          Derivative Info.                !
 --------------------------------------------------------------------------------
 ! R1    R(1,2)                  0.9615         calculate D2E/DX2 analytically  !
 ! R2    R(1,4)                  1.3617         calculate D2E/DX2 analytically  !
 ! R3    R(3,4)                  1.5676         calculate D2E/DX2 analytically  !
 ! R4    R(3,7)                  1.398          calculate D2E/DX2 analytically  !
 ! R5    R(3,13)                 1.3998         calculate D2E/DX2 analytically  !
 ! R6    R(4,5)                  1.3677         calculate D2E/DX2 analytically  !
 ! R7    R(5,6)                  0.9583         calculate D2E/DX2 analytically  !
 ! R8    R(7,8)                  1.0866         calculate D2E/DX2 analytically  !
 ! R9    R(7,9)                  1.3901         calculate D2E/DX2 analytically  !
 ! R10   R(9,10)                 1.0822         calculate D2E/DX2 analytically  !
 ! R11   R(9,11)                 1.3888         calculate D2E/DX2 analytically  !
 ! R12   R(11,12)                1.3894         calculate D2E/DX2 analytically  !
 ! R13   R(11,15)                1.07           calculate D2E/DX2 analytically  !
 ! R14   R(12,13)                1.3892         calculate D2E/DX2 analytically  !
 ! R15   R(12,16)                1.91           calculate D2E/DX2 analytically  !
 ! R16   R(13,14)                1.0841         calculate D2E/DX2 analytically  !
 ! A1    A(2,1,4)              112.2895         calculate D2E/DX2 analytically  !
 ! A2    A(4,3,7)              122.8954         calculate D2E/DX2 analytically  !
 ! A3    A(4,3,13)             119.2901         calculate D2E/DX2 analytically  !
 ! A4    A(7,3,13)             117.8144         calculate D2E/DX2 analytically  !
 ! A5    A(1,4,3)              117.9524         calculate D2E/DX2 analytically  !
 ! A6    A(1,4,5)              117.8401         calculate D2E/DX2 analytically  !
 ! A7    A(3,4,5)              124.2074         calculate D2E/DX2 analytically  !
 ! A8    A(4,5,6)              114.8807         calculate D2E/DX2 analytically  !
 ! A9    A(3,7,8)              120.7618         calculate D2E/DX2 analytically  !
 ! A10   A(3,7,9)              121.7585         calculate D2E/DX2 analytically  !
 ! A11   A(8,7,9)              117.4792         calculate D2E/DX2 analytically  !
 ! A12   A(7,9,10)             121.1077         calculate D2E/DX2 analytically  !
 ! A13   A(7,9,11)             118.6282         calculate D2E/DX2 analytically  !
 ! A14   A(10,9,11)            120.2641         calculate D2E/DX2 analytically  !
 ! A15   A(9,11,12)            121.4285         calculate D2E/DX2 analytically  !
 ! A16   A(9,11,15)            119.2254         calculate D2E/DX2 analytically  !
 ! A17   A(12,11,15)           119.3461         calculate D2E/DX2 analytically  !
 ! A18   A(11,12,13)           118.817          calculate D2E/DX2 analytically  !
 ! A19   A(11,12,16)           120.1511         calculate D2E/DX2 analytically  !
 ! A20   A(13,12,16)           121.0319         calculate D2E/DX2 analytically  !
 ! A21   A(3,13,12)            121.5528         calculate D2E/DX2 analytically  !
 ! A22   A(3,13,14)            118.9546         calculate D2E/DX2 analytically  !
 ! A23   A(12,13,14)           119.4926         calculate D2E/DX2 analytically  !
 ! D1    D(2,1,4,3)            179.4301         calculate D2E/DX2 analytically  !
 ! D2    D(2,1,4,5)             -0.4327         calculate D2E/DX2 analytically  !
 ! D3    D(7,3,4,1)            176.5809         calculate D2E/DX2 analytically  !
 ! D4    D(7,3,4,5)             -3.5658         calculate D2E/DX2 analytically  !
 ! D5    D(13,3,4,1)            -3.4021         calculate D2E/DX2 analytically  !
 ! D6    D(13,3,4,5)           176.4512         calculate D2E/DX2 analytically  !
 ! D7    D(4,3,7,8)             -0.4603         calculate D2E/DX2 analytically  !
 ! D8    D(4,3,7,9)            179.7933         calculate D2E/DX2 analytically  !
 ! D9    D(13,3,7,8)           179.5229         calculate D2E/DX2 analytically  !
 ! D10   D(13,3,7,9)            -0.2235         calculate D2E/DX2 analytically  !
 ! D11   D(4,3,13,12)         -179.7332         calculate D2E/DX2 analytically  !
 ! D12   D(4,3,13,14)            0.2076         calculate D2E/DX2 analytically  !
 ! D13   D(7,3,13,12)            0.283          calculate D2E/DX2 analytically  !
 ! D14   D(7,3,13,14)         -179.7763         calculate D2E/DX2 analytically  !
 ! D15   D(1,4,5,6)            178.364          calculate D2E/DX2 analytically  !
 ! D16   D(3,4,5,6)             -1.4894         calculate D2E/DX2 analytically  !
 ! D17   D(3,7,9,10)           179.9829         calculate D2E/DX2 analytically  !
 ! D18   D(3,7,9,11)             0.0384         calculate D2E/DX2 analytically  !
 ! D19   D(8,7,9,10)             0.2286         calculate D2E/DX2 analytically  !
 ! D20   D(8,7,9,11)          -179.7159         calculate D2E/DX2 analytically  !
 ! D21   D(7,9,11,12)            0.0976         calculate D2E/DX2 analytically  !
 ! D22   D(7,9,11,15)         -179.8882         calculate D2E/DX2 analytically  !
 ! D23   D(10,9,11,12)        -179.8474         calculate D2E/DX2 analytically  !
 ! D24   D(10,9,11,15)           0.1668         calculate D2E/DX2 analytically  !
 ! D25   D(9,11,12,13)          -0.0401         calculate D2E/DX2 analytically  !
 ! D26   D(9,11,12,16)         179.9275         calculate D2E/DX2 analytically  !
 ! D27   D(15,11,12,13)        179.9457         calculate D2E/DX2 analytically  !
 ! D28   D(15,11,12,16)         -0.0866         calculate D2E/DX2 analytically  !
 ! D29   D(11,12,13,3)          -0.1558         calculate D2E/DX2 analytically  !
 ! D30   D(11,12,13,14)        179.9038         calculate D2E/DX2 analytically  !
 ! D31   D(16,12,13,3)         179.8769         calculate D2E/DX2 analytically  !
 ! D32   D(16,12,13,14)         -0.0636         calculate D2E/DX2 analytically  !
 --------------------------------------------------------------------------------
 Trust Radius=3.00D-01 FncErr=1.00D-07 GrdErr=1.00D-06 EigMax=2.50D+02 EigMin=1.00D-04
 Number of steps in this run=     81 maximum allowed number of steps=    100.
 GradGradGradGradGradGradGradGradGradGradGradGradGradGradGradGradGradGrad

                          Input orientation:                          
 ---------------------------------------------------------------------
 Center     Atomic      Atomic             Coordinates (Angstroms)
 Number     Number       Type             X           Y           Z
 ---------------------------------------------------------------------
      1          8           0        8.684881    7.455970    5.540714
      2          1           0        9.498150    7.149504    5.951999
      3          6           0        6.242598    6.994953    5.172357
      4          5           0        7.639813    6.614287    5.772586
      5          8           0        7.876771    5.491844    6.517256
      6          1           0        7.107399    4.942752    6.674912
      7          6           0        5.117512    6.173113    5.287159
      8          1           0        5.177165    5.217898    5.801758
      9          6           0        3.888273    6.536175    4.749139
     10          1           0        3.024094    5.891631    4.843988
     11          6           0        3.786551    7.749526    4.081084
     12          6           0        4.880975    8.594145    3.942349
     13          6           0        6.098594    8.207551    4.488090
     14          1           0        6.960137    8.857503    4.384917
     15          1           0        2.844418    8.039310    3.664777
     16         35           0        4.700407   10.253845    3.014506
 ---------------------------------------------------------------------
                    Distance matrix (angstroms):
                    1          2          3          4          5
     1  O    0.000000
     2  H    0.961501   0.000000
     3  C    2.512562   3.351171   0.000000
     4  B    1.361750   1.942180   1.567607   0.000000
     5  O    2.337620   2.386676   2.595884   1.367684   0.000000
     6  H    3.176652   3.332874   2.686463   1.972736   0.958275
     7  C    3.799491   4.537107   1.398005   2.606200   3.096898
     8  H    4.169074   4.735460   2.165460   2.831146   2.806217
     9  C    4.947733   5.770075   2.435659   3.889421   4.486088
    10  H    5.914143   6.687551   3.418174   4.763338   5.148605
    11  C    5.119603   6.040092   2.791491   4.358621   5.268962
    12  C    4.280177   5.238701   2.433999   3.857563   5.022869
    13  C    2.891673   3.849607   1.399769   2.561987   3.828119
    14  H    2.504976   3.437225   2.145697   2.723895   4.088367
    15  H    6.162015   7.091917   3.861490   5.428569   6.320664
    16  Br   5.485058   6.425273   4.201791   5.430791   6.710827
                    6          7          8          9         10
     6  H    0.000000
     7  C    2.720165   0.000000
     8  H    2.136330   1.086649   0.000000
     9  C    4.075582   1.390075   2.122994   0.000000
    10  H    4.574498   2.158247   2.450909   1.082238   0.000000
    11  C    5.062999   2.389802   3.362093   1.388836   2.148287
    12  C    5.075090   2.779543   3.865770   2.423140   3.400668
    13  C    4.056943   2.395824   3.393049   2.783373   3.865579
    14  H    4.537735   3.378647   4.293385   3.867502   4.949705
    15  H    6.068162   3.358834   4.238957   2.127178   2.456694
    16  Br   6.884758   4.689488   5.775537   4.182054   5.018559
                   11         12         13         14         15
    11  C    0.000000
    12  C    1.389386   0.000000
    13  C    2.391858   1.389203   0.000000
    14  H    3.375141   2.141994   1.084130   0.000000
    15  H    1.070000   2.128955   3.360924   4.257603   0.000000
    16  Br   2.871295   1.910000   2.883348   2.989009   2.961707
                   16
    16  Br   0.000000
 Symmetry turned off by external request.
 Stoichiometry    C6H6BBrO2
 Framework group  C1[X(C6H6BBrO2)]
 Deg. of freedom    42
 Full point group                 C1      NOp   1
 Rotational constants (GHZ):           1.9299017           0.4517667           0.3661613
 Standard basis: 6-311+G(d,p) (5D, 7F)
   282 basis functions,   466 primitive gaussians,   294 cartesian basis functions
    49 alpha electrons       49 beta electrons
       nuclear repulsion energy       686.2481633457 Hartrees.
 NAtoms=   16 NActive=   16 NUniq=   16 SFac= 1.00D+00 NAtFMM=   60 NAOKFM=F Big=F
 Integral buffers will be    131072 words long.
 Raffenetti 2 integral format.
 Two-electron integral symmetry is turned off.
 One-electron integrals computed using PRISM.
 NBasis=   282 RedAO= T EigKep=  2.47D-06  NBF=   282
 NBsUse=   282 1.00D-06 EigRej= -1.00D+00 NBFU=   282
 ExpMin= 3.15D-02 ExpMax= 4.40D+05 ExpMxC= 1.51D+04 IAcc=3 IRadAn=         5 AccDes= 0.00D+00
 Harris functional with IExCor= 1009 and IRadAn=       5 diagonalized for initial guess.
 HarFok:  IExCor= 1009 AccDes= 0.00D+00 IRadAn=         5 IDoV= 1 UseB2=F ITyADJ=14
 ICtDFT=  3500011 ScaDFX=  1.000000  1.000000  1.000000  1.000000
 FoFCou: FMM=F IPFlag=           0 FMFlag=      100000 FMFlg1=           0
         NFxFlg=           0 DoJE=T BraDBF=F KetDBF=T FulRan=T
         wScrn=  0.000000 ICntrl=       500 IOpCl=  0 I1Cent=   200000004 NGrid=           0
         NMat0=    1 NMatS0=      1 NMatT0=    0 NMatD0=    1 NMtDS0=    0 NMtDT0=    0
 Symmetry not used in FoFCou.
 Requested convergence on RMS density matrix=1.00D-08 within 128 cycles.
 Requested convergence on MAX density matrix=1.00D-06.
 Requested convergence on             energy=1.00D-06.
 Level shift goal  0.100 maximum shift  0.100.
 No special actions if energy rises.
 Dynamic level shift is on during FON iterations.
 SCF Done:  E(RM062X) =  -2981.79616861     A.U. after   14 cycles
            NFock= 14  Conv=0.58D-08     -V/T= 2.0015
 DoSCS=F DFT=T ScalE2(SS,OS)=  1.000000  1.000000
 Range of M.O.s used for correlation:     1   282
 NBasis=   282 NAE=    49 NBE=    49 NFC=     0 NFV=     0
 NROrb=    282 NOA=    49 NOB=    49 NVA=   233 NVB=   233

 **** Warning!!: The largest alpha MO coefficient is  0.17451054D+03

 Symmetrizing basis deriv contribution to polar:
 IMax=3 JMax=2 DiffMx= 0.00D+00
 G2DrvN: will do    17 centers at a time, making    1 passes.
 Calling FoFCou, ICntrl=  3107 FMM=F I1Cent=   0 AccDes= 0.00D+00.
 End of G2Drv F.D. properties file   721 does not exist.
 End of G2Drv F.D. properties file   722 does not exist.
 End of G2Drv F.D. properties file   788 does not exist.
          IDoAtm=1111111111111111
          Differentiating once with respect to nuclear coordinates.
 Keep R1 ints in memory in canonical form, NReq=832100182.
          There are    51 degrees of freedom in the 1st order CPHF.  IDoFFX=6 NUNeed=     0.
     45 vectors produced by pass  0 Test12= 2.24D-14 1.96D-09 XBig12= 1.53D-01 1.15D-01.
 AX will form    45 AO Fock derivatives at one time.
     45 vectors produced by pass  1 Test12= 2.24D-14 1.96D-09 XBig12= 1.13D-02 3.28D-02.
     45 vectors produced by pass  2 Test12= 2.24D-14 1.96D-09 XBig12= 3.70D-04 3.00D-03.
     45 vectors produced by pass  3 Test12= 2.24D-14 1.96D-09 XBig12= 3.11D-06 2.47D-04.
     45 vectors produced by pass  4 Test12= 2.24D-14 1.96D-09 XBig12= 2.33D-08 2.37D-05.
     45 vectors produced by pass  5 Test12= 2.24D-14 1.96D-09 XBig12= 1.13D-10 1.27D-06.
     45 vectors produced by pass  6 Test12= 2.24D-14 1.96D-09 XBig12= 5.32D-13 8.84D-08.
     11 vectors produced by pass  7 Test12= 2.24D-14 1.96D-09 XBig12= 2.13D-15 3.97D-09.
 InvSVY:  IOpt=1 It=  1 EMax= 4.44D-16
 Solved reduced A of dimension   326 with    51 vectors.
 End of Minotr F.D. properties file   721 does not exist.
 End of Minotr F.D. properties file   722 does not exist.
 End of Minotr F.D. properties file   788 does not exist.

 **********************************************************************

            Population analysis using the SCF Density.

 **********************************************************************

 Alpha  occ. eigenvalues -- -485.33854 -63.33031 -57.15784 -57.15520 -57.15515
 Alpha  occ. eigenvalues --  -19.64775 -19.63888 -10.61029 -10.56530 -10.56508
 Alpha  occ. eigenvalues --  -10.56280 -10.56247 -10.54657  -9.01737  -7.09480
 Alpha  occ. eigenvalues --   -6.84545  -6.83492  -6.83483  -2.87699  -2.87333
 Alpha  occ. eigenvalues --   -2.87320  -2.86386  -2.86386  -1.17774  -1.14062
 Alpha  occ. eigenvalues --   -0.98875  -0.90695  -0.86350  -0.82592  -0.71259
 Alpha  occ. eigenvalues --   -0.69877  -0.66078  -0.63452  -0.60249  -0.54909
 Alpha  occ. eigenvalues --   -0.53521  -0.51395  -0.49291  -0.49096  -0.46387
 Alpha  occ. eigenvalues --   -0.46329  -0.46149  -0.41865  -0.41364  -0.39953
 Alpha  occ. eigenvalues --   -0.38256  -0.35223  -0.32648  -0.30486
 Alpha virt. eigenvalues --   -0.01787  -0.00908   0.00072   0.01140   0.01465
 Alpha virt. eigenvalues --    0.01854   0.02889   0.03372   0.03942   0.05074
 Alpha virt. eigenvalues --    0.05821   0.06520   0.07767   0.08155   0.08288
 Alpha virt. eigenvalues --    0.10273   0.10442   0.11199   0.11621   0.12432
 Alpha virt. eigenvalues --    0.12683   0.14020   0.14115   0.14882   0.15952
 Alpha virt. eigenvalues --    0.16741   0.16940   0.17066   0.18162   0.18402
 Alpha virt. eigenvalues --    0.19174   0.19574   0.20413   0.21265   0.21919
 Alpha virt. eigenvalues --    0.22276   0.22903   0.23885   0.24017   0.24582
 Alpha virt. eigenvalues --    0.24897   0.25277   0.26080   0.27713   0.27864
 Alpha virt. eigenvalues --    0.28051   0.28872   0.30579   0.31711   0.33178
 Alpha virt. eigenvalues --    0.34691   0.35467   0.36583   0.39144   0.40010
 Alpha virt. eigenvalues --    0.43523   0.44369   0.45075   0.47055   0.48151
 Alpha virt. eigenvalues --    0.49266   0.50251   0.50923   0.52300   0.55360
 Alpha virt. eigenvalues --    0.55761   0.56515   0.58131   0.58745   0.58839
 Alpha virt. eigenvalues --    0.60687   0.61682   0.62312   0.63682   0.65138
 Alpha virt. eigenvalues --    0.65710   0.66626   0.68886   0.69036   0.69683
 Alpha virt. eigenvalues --    0.70726   0.71730   0.72444   0.76155   0.77203
 Alpha virt. eigenvalues --    0.78463   0.79187   0.79971   0.83423   0.84593
 Alpha virt. eigenvalues --    0.85654   0.86225   0.89036   0.90564   0.91128
 Alpha virt. eigenvalues --    0.92370   0.94565   0.96473   0.99312   1.01221
 Alpha virt. eigenvalues --    1.03665   1.04885   1.06267   1.06696   1.07184
 Alpha virt. eigenvalues --    1.08353   1.11149   1.12235   1.14526   1.15692
 Alpha virt. eigenvalues --    1.16333   1.17642   1.19795   1.26964   1.27781
 Alpha virt. eigenvalues --    1.30614   1.33410   1.35323   1.38786   1.44957
 Alpha virt. eigenvalues --    1.47831   1.48726   1.50208   1.53403   1.55433
 Alpha virt. eigenvalues --    1.59084   1.60102   1.61190   1.63180   1.66043
 Alpha virt. eigenvalues --    1.67381   1.69729   1.70649   1.74375   1.76521
 Alpha virt. eigenvalues --    1.78292   1.79075   1.84978   1.86661   1.91994
 Alpha virt. eigenvalues --    1.93524   1.94528   1.94944   1.96262   2.00292
 Alpha virt. eigenvalues --    2.00978   2.01867   2.05871   2.06587   2.08611
 Alpha virt. eigenvalues --    2.11184   2.13689   2.16020   2.18085   2.20989
 Alpha virt. eigenvalues --    2.28433   2.32532   2.35466   2.35506   2.42557
 Alpha virt. eigenvalues --    2.43851   2.52493   2.55710   2.57007   2.60763
 Alpha virt. eigenvalues --    2.62460   2.64281   2.66607   2.71028   2.71390
 Alpha virt. eigenvalues --    2.74492   2.76349   2.78138   2.78538   2.82839
 Alpha virt. eigenvalues --    2.83566   2.85587   2.89818   2.93138   2.94943
 Alpha virt. eigenvalues --    3.06355   3.10497   3.13095   3.15223   3.23320
 Alpha virt. eigenvalues --    3.25879   3.25967   3.30802   3.39188   3.41966
 Alpha virt. eigenvalues --    3.45566   3.51906   3.55766   3.59717   3.62269
 Alpha virt. eigenvalues --    3.65738   3.78465   3.90835   3.95318   4.04504
 Alpha virt. eigenvalues --    4.09143   4.16007   4.19710   4.28505   4.33960
 Alpha virt. eigenvalues --    4.37177   4.53103   4.71808   4.84323   5.07365
 Alpha virt. eigenvalues --    5.08534   5.38635   5.48955   5.68283   5.76055
 Alpha virt. eigenvalues --    6.89943   7.64232   7.76814   7.82581  14.78976
 Alpha virt. eigenvalues --   23.61740  23.98599  24.03591  24.13933  24.15217
 Alpha virt. eigenvalues --   24.24852  48.41690  49.99559  50.04768 290.78700
 Alpha virt. eigenvalues --  290.92267 291.009531020.98663
          Condensed to atoms (all electrons):
               1          2          3          4          5          6
     1  O    7.760544   0.266999   0.061884   0.449050  -0.122691   0.019581
     2  H    0.266999   0.452643   0.048270  -0.004367  -0.034938   0.003281
     3  C    0.061884   0.048270   9.530174   0.248437  -0.150753  -0.001567
     4  B    0.449050  -0.004367   0.248437   3.348783   0.364428   0.016813
     5  O   -0.122691  -0.034938  -0.150753   0.364428   7.990051   0.252538
     6  H    0.019581   0.003281  -0.001567   0.016813   0.252538   0.435127
     7  C    0.064941  -0.007119  -1.277093   0.092312  -0.016008  -0.033896
     8  H    0.002105  -0.000049   0.057017   0.014824  -0.005090   0.011453
     9  C    0.056281   0.003889  -0.009232   0.088858  -0.004703   0.053720
    10  H   -0.000030  -0.000001   0.002353  -0.000305   0.000343  -0.000062
    11  C   -0.020905  -0.000703  -1.268603   0.013280   0.000909  -0.001487
    12  C   -0.012946  -0.020646  -0.483160  -0.026642   0.082654  -0.016875
    13  C   -0.165391  -0.015765  -0.573066  -0.073719   0.004140   0.007057
    14  H    0.008847  -0.000423   0.131263  -0.007279   0.002270  -0.000106
    15  H    0.000007   0.000000   0.032071  -0.000343   0.000012  -0.000003
    16  Br  -0.000057  -0.000179  -0.092320  -0.006643  -0.000360  -0.000033
               7          8          9         10         11         12
     1  O    0.064941   0.002105   0.056281  -0.000030  -0.020905  -0.012946
     2  H   -0.007119  -0.000049   0.003889  -0.000001  -0.000703  -0.020646
     3  C   -1.277093   0.057017  -0.009232   0.002353  -1.268603  -0.483160
     4  B    0.092312   0.014824   0.088858  -0.000305   0.013280  -0.026642
     5  O   -0.016008  -0.005090  -0.004703   0.000343   0.000909   0.082654
     6  H   -0.033896   0.011453   0.053720  -0.000062  -0.001487  -0.016875
     7  C   10.304379   0.263112  -1.092931   0.022592   0.205314  -0.233989
     8  H    0.263112   0.547435   0.053437  -0.006579  -0.029871   0.007414
     9  C   -1.092931   0.053437   7.554560   0.335648   0.393968  -0.343498
    10  H    0.022592  -0.006579   0.335648   0.495488   0.017671  -0.010584
    11  C    0.205314  -0.029871   0.393968   0.017671   7.638501   0.460725
    12  C   -0.233989   0.007414  -0.343498  -0.010584   0.460725  10.005058
    13  C   -2.129506  -0.038205  -1.121266  -0.014045  -1.440579  -3.695251
    14  H   -0.007655  -0.000072   0.004207   0.000045  -0.025514  -0.050210
    15  H   -0.033467  -0.000306   0.039924  -0.006599   0.313462   0.044781
    16  Br   0.127399  -0.000744   0.009040   0.000221   0.239629  -0.575613
              13         14         15         16
     1  O   -0.165391   0.008847   0.000007  -0.000057
     2  H   -0.015765  -0.000423   0.000000  -0.000179
     3  C   -0.573066   0.131263   0.032071  -0.092320
     4  B   -0.073719  -0.007279  -0.000343  -0.006643
     5  O    0.004140   0.002270   0.000012  -0.000360
     6  H    0.007057  -0.000106  -0.000003  -0.000033
     7  C   -2.129506  -0.007655  -0.033467   0.127399
     8  H   -0.038205  -0.000072  -0.000306  -0.000744
     9  C   -1.121266   0.004207   0.039924   0.009040
    10  H   -0.014045   0.000045  -0.006599   0.000221
    11  C   -1.440579  -0.025514   0.313462   0.239629
    12  C   -3.695251  -0.050210   0.044781  -0.575613
    13  C   15.274553   0.300207  -0.040550   0.383410
    14  H    0.300207   0.454022  -0.000163  -0.009029
    15  H   -0.040550  -0.000163   0.481398  -0.007782
    16  Br   0.383410  -0.009029  -0.007782  35.098235
 Mulliken charges:
               1
     1  O   -0.368219
     2  H    0.309107
     3  C   -0.255674
     4  B    0.482513
     5  O   -0.362803
     6  H    0.254459
     7  C   -0.248384
     8  H    0.124121
     9  C   -0.021903
    10  H    0.163846
    11  C   -0.495794
    12  C    0.868783
    13  C   -0.662024
    14  H    0.199589
    15  H    0.177557
    16  Br  -0.165174
 Sum of Mulliken charges =   0.00000
 Mulliken charges with hydrogens summed into heavy atoms:
               1
     1  O   -0.059112
     3  C   -0.255674
     4  B    0.482513
     5  O   -0.108343
     7  C   -0.124263
     9  C    0.141943
    11  C   -0.318237
    12  C    0.868783
    13  C   -0.462435
    16  Br  -0.165174
 APT charges:
               1
     1  O   -0.419543
     2  H    2.048254
     3  C   -2.053732
     4  B   -0.382351
     5  O    1.260300
     6  H   -1.166332
     7  C   -0.773187
     8  H   -0.195422
     9  C    0.404906
    10  H   -0.800469
    11  C   -0.383572
    12  C    0.626036
    13  C   -0.232910
    14  H    1.920764
    15  H   -0.167727
    16  Br   0.314985
 Sum of APT charges =   0.00000
 APT charges with hydrogens summed into heavy atoms:
               1
     1  O    1.628712
     3  C   -2.053732
     4  B   -0.382351
     5  O    0.093968
     7  C   -0.968609
     9  C   -0.395563
    11  C   -0.551300
    12  C    0.626036
    13  C    1.687854
    16  Br   0.314985
 Electronic spatial extent (au):  <R**2>=          43748.0087
 Charge=              0.0000 electrons
 Dipole moment (field-independent basis, Debye):
    X=             -0.6935    Y=             -2.5056    Z=              1.2810  Tot=              2.8983
 Quadrupole moment (field-independent basis, Debye-Ang):
   XX=            -72.6092   YY=           -106.6542   ZZ=            -60.2724
   XY=            -16.5676   XZ=              5.2577   YZ=             -4.3856
 Traceless Quadrupole moment (field-independent basis, Debye-Ang):
   XX=              7.2360   YY=            -26.8089   ZZ=             19.5729
   XY=            -16.5676   XZ=              5.2577   YZ=             -4.3856
 Octapole moment (field-independent basis, Debye-Ang**2):
  XXX=          -1153.0404  YYY=          -2075.7289  ZZZ=           -895.1469  XYY=           -606.1151
  XXY=           -623.6405  XXZ=           -270.5132  XZZ=           -343.3275  YZZ=           -559.4834
  YYZ=           -443.8835  XYZ=            -22.4165
 Hexadecapole moment (field-independent basis, Debye-Ang**3):
 XXXX=         -13592.3544 YYYY=         -31738.2459 ZZZZ=          -8963.4354 XXXY=          -9111.4452
 XXXZ=          -5016.9691 YYYX=         -11449.5763 YYYZ=          -8833.3008 ZZZX=          -5316.3008
 ZZZY=          -7178.8553 XXYY=          -7979.3832 XXZZ=          -3540.4609 YYZZ=          -6656.0611
 XXYZ=          -2282.9541 YYXZ=          -2493.0842 ZZXY=          -2997.9945
 N-N= 6.862481633457D+02 E-N=-8.478144472056D+03  KE= 2.977276170761D+03
  Exact polarizability:       0.000       0.000       0.000       0.000       0.000       0.000
 Approx polarizability:     140.077       3.473     146.644      14.733     -34.450     103.263
 Calling FoFJK, ICntrl=    100127 FMM=F ISym2X=0 I1Cent= 0 IOpClX= 0 NMat=1 NMatS=1 NMatT=0.
 -------------------------------------------------------------------
 Center     Atomic                   Forces (Hartrees/Bohr)
 Number     Number              X              Y              Z
 -------------------------------------------------------------------
      1        8          -0.000692337   -0.000423667    0.000053773
      2        1           0.000041014    0.000048928   -0.000022021
      3        6          -0.005962637    0.000295578   -0.001816211
      4        5           0.001929801    0.000694461    0.000154678
      5        8          -0.000539601    0.000411568   -0.000391335
      6        1          -0.000150992   -0.000071486   -0.000013359
      7        6          -0.000914095   -0.005114743    0.002420095
      8        1           0.001172028   -0.000076419    0.000377214
      9        6           0.009189867    0.004369125    0.000306630
     10        1          -0.000254876    0.000266395   -0.000216927
     11        6          -0.005313584    0.002784667   -0.002919492
     12        6           0.002285200   -0.008765414    0.005307611
     13        6           0.006373928    0.008527213   -0.002732491
     14        1           0.000407606   -0.000217302    0.000220340
     15        1          -0.008624358    0.003281114   -0.004232909
     16       35           0.001053038   -0.006010017    0.003504404
 -------------------------------------------------------------------
 Cartesian Forces:  Max     0.009189867 RMS     0.003567945
 FormGI is forming the generalized inverse of G from B-inverse, IUseBI=4.

 GradGradGradGradGradGradGradGradGradGradGradGradGradGradGradGradGradGrad
 Berny optimization.
 Internal  Forces:  Max     0.010129217 RMS     0.002722232
 Search for a local minimum.
 Step number   1 out of a maximum of   81
 All quantities printed in internal units (Hartrees-Bohrs-Radians)
 Mixed Optimization -- RFO/linear search
 Second derivative matrix not updated -- analytic derivatives used.
 ITU=  0
     Eigenvalues ---    0.00079   0.01034   0.01226   0.01503   0.01640
     Eigenvalues ---    0.01779   0.02169   0.02414   0.02524   0.02622
     Eigenvalues ---    0.02796   0.02874   0.03940   0.10300   0.11076
     Eigenvalues ---    0.11211   0.11753   0.12269   0.12507   0.15005
     Eigenvalues ---    0.15895   0.16647   0.18083   0.18791   0.19130
     Eigenvalues ---    0.19379   0.23380   0.27396   0.29095   0.35585
     Eigenvalues ---    0.36536   0.36803   0.39378   0.39446   0.42261
     Eigenvalues ---    0.42541   0.47768   0.47850   0.49231   0.51969
     Eigenvalues ---    0.55208   0.56295
 RFO step:  Lambda=-2.18335501D-03 EMin= 7.94617567D-04
 Linear search not attempted -- first point.
 Iteration  1 RMS(Cart)=  0.01454816 RMS(Int)=  0.00014094
 Iteration  2 RMS(Cart)=  0.00022072 RMS(Int)=  0.00004111
 Iteration  3 RMS(Cart)=  0.00000001 RMS(Int)=  0.00004111
 Variable       Old X    -DE/DX   Delta X   Delta X   Delta X     New X
                                 (Linear)    (Quad)   (Total)
    R1        1.81697   0.00001   0.00000  -0.00001  -0.00001   1.81697
    R2        2.57333  -0.00073   0.00000  -0.00208  -0.00208   2.57126
    R3        2.96235   0.00028   0.00000   0.00445   0.00445   2.96680
    R4        2.64185   0.00002   0.00000  -0.00064  -0.00072   2.64112
    R5        2.64518  -0.00079   0.00000  -0.00015  -0.00019   2.64499
    R6        2.58455  -0.00062   0.00000  -0.00133  -0.00133   2.58322
    R7        1.81088   0.00015   0.00000   0.00013   0.00013   1.81101
    R8        2.05347   0.00031   0.00000  -0.00075  -0.00075   2.05272
    R9        2.62686   0.00115   0.00000   0.00002  -0.00002   2.62684
   R10        2.04513   0.00003   0.00000   0.00203   0.00203   2.04716
   R11        2.62452   0.00098   0.00000   0.00277   0.00281   2.62733
   R12        2.62556  -0.00011   0.00000   0.00029   0.00038   2.62593
   R13        2.02201   0.01013   0.00000   0.02251   0.02251   2.04452
   R14        2.62521  -0.00159   0.00000  -0.00483  -0.00479   2.62043
   R15        3.60938  -0.00703   0.00000  -0.01855  -0.01855   3.59083
   R16        2.04871   0.00017   0.00000  -0.00185  -0.00185   2.04686
    A1        1.95982   0.00013   0.00000   0.00233   0.00233   1.96215
    A2        2.14493  -0.00040   0.00000  -0.00078  -0.00072   2.14421
    A3        2.08201  -0.00194   0.00000  -0.01071  -0.01065   2.07136
    A4        2.05625   0.00235   0.00000   0.01149   0.01137   2.06762
    A5        2.05866   0.00018   0.00000  -0.00031  -0.00031   2.05835
    A6        2.05670   0.00073   0.00000   0.00344   0.00344   2.06013
    A7        2.16783  -0.00091   0.00000  -0.00313  -0.00313   2.16470
    A8        2.00505  -0.00008   0.00000  -0.00061  -0.00061   2.00444
    A9        2.10769  -0.00014   0.00000  -0.00175  -0.00168   2.10601
   A10        2.12509  -0.00217   0.00000  -0.01052  -0.01065   2.11444
   A11        2.05040   0.00232   0.00000   0.01226   0.01233   2.06273
   A12        2.11373  -0.00198   0.00000  -0.01255  -0.01255   2.10118
   A13        2.07045   0.00482   0.00000   0.02603   0.02603   2.09648
   A14        2.09900  -0.00284   0.00000  -0.01348  -0.01348   2.08553
   A15        2.11933  -0.00922   0.00000  -0.04491  -0.04479   2.07454
   A16        2.08088   0.00529   0.00000   0.02932   0.02926   2.11013
   A17        2.08298   0.00393   0.00000   0.01559   0.01553   2.09851
   A18        2.07375   0.00960   0.00000   0.04553   0.04566   2.11941
   A19        2.09703  -0.00407   0.00000  -0.01765  -0.01771   2.07932
   A20        2.11240  -0.00553   0.00000  -0.02788  -0.02795   2.08446
   A21        2.12150  -0.00537   0.00000  -0.02763  -0.02762   2.09387
   A22        2.07615   0.00220   0.00000   0.01264   0.01264   2.08879
   A23        2.08554   0.00318   0.00000   0.01499   0.01499   2.10053
    D1        3.13165   0.00001   0.00000  -0.00023  -0.00023   3.13141
    D2       -0.00755   0.00000   0.00000  -0.00021  -0.00021  -0.00776
    D3        3.08192  -0.00002   0.00000  -0.00513  -0.00513   3.07679
    D4       -0.06224   0.00000   0.00000  -0.00514  -0.00514  -0.06738
    D5       -0.05938  -0.00001   0.00000  -0.00498  -0.00498  -0.06436
    D6        3.07965   0.00001   0.00000  -0.00499  -0.00500   3.07466
    D7       -0.00803   0.00001   0.00000  -0.00014  -0.00014  -0.00817
    D8        3.13799   0.00001   0.00000   0.00057   0.00056   3.13854
    D9        3.13327   0.00000   0.00000  -0.00029  -0.00029   3.13298
   D10       -0.00390   0.00001   0.00000   0.00042   0.00041  -0.00349
   D11       -3.13694  -0.00001   0.00000   0.00005   0.00004  -3.13689
   D12        0.00362  -0.00001   0.00000   0.00013   0.00012   0.00374
   D13        0.00494  -0.00001   0.00000   0.00020   0.00018   0.00512
   D14       -3.13769   0.00000   0.00000   0.00027   0.00026  -3.13743
   D15        3.11304   0.00002   0.00000  -0.00099  -0.00099   3.11204
   D16       -0.02600   0.00000   0.00000  -0.00097  -0.00097  -0.02697
   D17        3.14129  -0.00002   0.00000  -0.00077  -0.00076   3.14053
   D18        0.00067  -0.00001   0.00000  -0.00036  -0.00035   0.00032
   D19        0.00399  -0.00001   0.00000  -0.00005  -0.00005   0.00394
   D20       -3.13664   0.00000   0.00000   0.00036   0.00036  -3.13627
   D21        0.00170  -0.00002   0.00000  -0.00048  -0.00047   0.00124
   D22       -3.13964  -0.00003   0.00000  -0.00152  -0.00152  -3.14116
   D23       -3.13893  -0.00001   0.00000  -0.00008  -0.00006  -3.13899
   D24        0.00291  -0.00002   0.00000  -0.00112  -0.00112   0.00179
   D25       -0.00070   0.00003   0.00000   0.00115   0.00115   0.00045
   D26        3.14033   0.00002   0.00000   0.00085   0.00084   3.14117
   D27        3.14065   0.00005   0.00000   0.00219   0.00220  -3.14034
   D28       -0.00151   0.00004   0.00000   0.00189   0.00189   0.00038
   D29       -0.00272  -0.00001   0.00000  -0.00096  -0.00097  -0.00369
   D30        3.13991  -0.00002   0.00000  -0.00104  -0.00105   3.13886
   D31        3.13944   0.00000   0.00000  -0.00066  -0.00066   3.13878
   D32       -0.00111  -0.00001   0.00000  -0.00074  -0.00074  -0.00185
         Item               Value     Threshold  Converged?
 Maximum Force            0.010129     0.000015     NO 
 RMS     Force            0.002722     0.000010     NO 
 Maximum Displacement     0.047251     0.000060     NO 
 RMS     Displacement     0.014549     0.000040     NO 
 Predicted change in Energy=-1.102620D-03
 GradGradGradGradGradGradGradGradGradGradGradGradGradGradGradGradGradGrad

                          Input orientation:                          
 ---------------------------------------------------------------------
 Center     Atomic      Atomic             Coordinates (Angstroms)
 Number     Number       Type             X           Y           Z
 ---------------------------------------------------------------------
      1          8           0        8.684321    7.456259    5.534021
      2          1           0        9.499648    7.153675    5.944097
      3          6           0        6.240310    6.994523    5.171809
      4          5           0        7.640918    6.615869    5.771555
      5          8           0        7.875310    5.495960    6.519552
      6          1           0        7.104092    4.950123    6.679886
      7          6           0        5.117865    6.169874    5.287662
      8          1           0        5.182456    5.215259    5.801936
      9          6           0        3.893135    6.542138    4.745695
     10          1           0        3.031252    5.892935    4.841901
     11          6           0        3.766660    7.752569    4.073487
     12          6           0        4.881380    8.573741    3.955083
     13          6           0        6.107659    8.210033    4.490630
     14          1           0        6.965848    8.862522    4.385841
     15          1           0        2.819414    8.055030    3.647131
     16         35           0        4.717469   10.229496    3.037305
 ---------------------------------------------------------------------
                    Distance matrix (angstroms):
                    1          2          3          4          5
     1  O    0.000000
     2  H    0.961497   0.000000
     3  C    2.513482   3.353363   0.000000
     4  B    1.360650   1.942649   1.569961   0.000000
     5  O    2.338491   2.391159   2.595251   1.366980   0.000000
     6  H    3.176610   3.337022   2.683279   1.971790   0.958344
     7  C    3.799354   4.538590   1.397623   2.607463   3.094385
     8  H    4.166164   4.734534   2.163769   2.829605   2.800933
     9  C    4.940905   5.765686   2.428056   3.886349   4.483166
    10  H    5.905946   6.681650   3.408869   4.757721   5.141692
    11  C    5.138517   6.060116   2.810674   4.380114   5.287393
    12  C    4.266634   5.225051   2.412683   3.840297   5.001285
    13  C    2.880283   3.838496   1.399666   2.555976   3.821951
    14  H    2.499808   3.430519   2.152573   2.724586   4.088224
    15  H    6.189993   7.121378   3.892537   5.461800   6.353088
    16  Br   5.446132   6.385871   4.164156   5.392678   6.671159
                    6          7          8          9         10
     6  H    0.000000
     7  C    2.714991   0.000000
     8  H    2.129266   1.086251   0.000000
     9  C    4.072573   1.390062   2.130400   0.000000
    10  H    4.566739   2.151593   2.451243   1.083310   0.000000
    11  C    5.077939   2.409335   3.380822   1.390325   2.142317
    12  C    5.049317   2.758671   3.844595   2.393556   3.375817
    13  C    4.051263   2.403580   3.397675   2.784071   3.867378
    14  H    4.537468   3.388019   4.299807   3.867202   4.950503
    15  H    6.098894   3.395295   4.276851   2.156052   2.479315
    16  Br   6.843693   4.658857   5.744734   4.146653   4.990556
                   11         12         13         14         15
    11  C    0.000000
    12  C    1.389585   0.000000
    13  C    2.421478   1.386669   0.000000
    14  H    3.400643   2.148012   1.083149   0.000000
    15  H    1.081914   2.148395   3.398245   4.288433   0.000000
    16  Br   2.848312   1.900186   2.850089   2.956751   2.950051
                   16
    16  Br   0.000000
 Symmetry turned off by external request.
 Stoichiometry    C6H6BBrO2
 Framework group  C1[X(C6H6BBrO2)]
 Deg. of freedom    42
 Full point group                 C1      NOp   1
 Rotational constants (GHZ):           1.9265797           0.4579175           0.3700856
 Standard basis: 6-311+G(d,p) (5D, 7F)
   282 basis functions,   466 primitive gaussians,   294 cartesian basis functions
    49 alpha electrons       49 beta electrons
       nuclear repulsion energy       688.5469716751 Hartrees.
 NAtoms=   16 NActive=   16 NUniq=   16 SFac= 1.00D+00 NAtFMM=   60 NAOKFM=F Big=F
 Integral buffers will be    131072 words long.
 Raffenetti 2 integral format.
 Two-electron integral symmetry is turned off.
 One-electron integrals computed using PRISM.
 NBasis=   282 RedAO= T EigKep=  2.76D-06  NBF=   282
 NBsUse=   282 1.00D-06 EigRej= -1.00D+00 NBFU=   282
 Initial guess from the checkpoint file:  "3-br-phboh2-opt-freq.chk"
 B after Tr=     0.003067   -0.004035    0.000723
         Rot=    1.000000   -0.000434    0.000025    0.000247 Ang=  -0.06 deg.
 ExpMin= 3.15D-02 ExpMax= 4.40D+05 ExpMxC= 1.51D+04 IAcc=3 IRadAn=         5 AccDes= 0.00D+00
 Harris functional with IExCor= 1009 and IRadAn=       5 diagonalized for initial guess.
 HarFok:  IExCor= 1009 AccDes= 0.00D+00 IRadAn=         5 IDoV= 1 UseB2=F ITyADJ=14
 ICtDFT=  3500011 ScaDFX=  1.000000  1.000000  1.000000  1.000000
 FoFCou: FMM=F IPFlag=           0 FMFlag=      100000 FMFlg1=           0
         NFxFlg=           0 DoJE=T BraDBF=F KetDBF=T FulRan=T
         wScrn=  0.000000 ICntrl=       500 IOpCl=  0 I1Cent=   200000004 NGrid=           0
         NMat0=    1 NMatS0=      1 NMatT0=    0 NMatD0=    1 NMtDS0=    0 NMtDT0=    0
 Symmetry not used in FoFCou.
 Requested convergence on RMS density matrix=1.00D-08 within 128 cycles.
 Requested convergence on MAX density matrix=1.00D-06.
 Requested convergence on             energy=1.00D-06.
 Level shift goal  0.100 maximum shift  0.100.
 No special actions if energy rises.
 Dynamic level shift is on during FON iterations.
 SCF Done:  E(RM062X) =  -2981.79727118     A.U. after   13 cycles
            NFock= 13  Conv=0.35D-08     -V/T= 2.0015
 Calling FoFJK, ICntrl=      2127 FMM=F ISym2X=0 I1Cent= 0 IOpClX= 0 NMat=1 NMatS=1 NMatT=0.
 -------------------------------------------------------------------
 Center     Atomic                   Forces (Hartrees/Bohr)
 Number     Number              X              Y              Z
 -------------------------------------------------------------------
      1        8           0.000000214   -0.000011382   -0.000000604
      2        1          -0.000000331   -0.000003487    0.000005976
      3        6           0.000018555   -0.000023887    0.000021098
      4        5           0.000020785   -0.000007531    0.000007215
      5        8          -0.000006967   -0.000005569    0.000006577
      6        1          -0.000007650   -0.000003090   -0.000001761
      7        6          -0.000031767   -0.000169826    0.000067180
      8        1           0.000025026   -0.000005855    0.000002331
      9        6           0.000064333    0.000023056    0.000004088
     10        1          -0.000017976   -0.000018257   -0.000001299
     11        6           0.000095204   -0.000024642    0.000044161
     12        6           0.000002760   -0.000186213    0.000114847
     13        6           0.000157560    0.000119719   -0.000006390
     14        1           0.000031106   -0.000008783    0.000015741
     15        1          -0.000313406    0.000137873   -0.000171742
     16       35          -0.000037446    0.000187874   -0.000107417
 -------------------------------------------------------------------
 Cartesian Forces:  Max     0.000313406 RMS     0.000083865

 GradGradGradGradGradGradGradGradGradGradGradGradGradGradGradGradGradGrad
 Berny optimization.
 Using GEDIIS/GDIIS optimizer.
 FormGI is forming the generalized inverse of G from B-inverse, IUseBI=4.
 Internal  Forces:  Max     0.000380512 RMS     0.000066966
 Search for a local minimum.
 Step number   2 out of a maximum of   81
 All quantities printed in internal units (Hartrees-Bohrs-Radians)
 Mixed Optimization -- En-DIIS/RFO-DIIS
 Update second derivatives using D2CorX and points    1    2
 DE= -1.10D-03 DEPred=-1.10D-03 R= 1.00D+00
 TightC=F SS=  1.41D+00  RLast= 1.00D-01 DXNew= 5.0454D-01 3.0037D-01
 Trust test= 1.00D+00 RLast= 1.00D-01 DXMaxT set to 3.00D-01
 ITU=  1  0
 Use linear search instead of GDIIS.
     Eigenvalues ---    0.00079   0.01034   0.01226   0.01503   0.01640
     Eigenvalues ---    0.01779   0.02169   0.02414   0.02523   0.02622
     Eigenvalues ---    0.02795   0.02873   0.03940   0.10300   0.11075
     Eigenvalues ---    0.11209   0.11753   0.12266   0.12508   0.14935
     Eigenvalues ---    0.15891   0.16662   0.18082   0.18788   0.19127
     Eigenvalues ---    0.19380   0.23688   0.27396   0.29096   0.35584
     Eigenvalues ---    0.36538   0.36805   0.39074   0.39425   0.42252
     Eigenvalues ---    0.42562   0.47767   0.47849   0.49230   0.51969
     Eigenvalues ---    0.55208   0.56295
 RFO step:  Lambda=-1.42826331D-06 EMin= 7.94623755D-04
 Quartic linear search produced a step of  0.00954.
 Iteration  1 RMS(Cart)=  0.00771045 RMS(Int)=  0.00002659
 Iteration  2 RMS(Cart)=  0.00003864 RMS(Int)=  0.00000040
 Iteration  3 RMS(Cart)=  0.00000000 RMS(Int)=  0.00000040
 Variable       Old X    -DE/DX   Delta X   Delta X   Delta X     New X
                                 (Linear)    (Quad)   (Total)
    R1        1.81697   0.00000   0.00000   0.00000   0.00000   1.81697
    R2        2.57126   0.00000  -0.00002  -0.00001  -0.00003   2.57123
    R3        2.96680   0.00002   0.00004   0.00004   0.00008   2.96688
    R4        2.64112   0.00010  -0.00001   0.00023   0.00022   2.64135
    R5        2.64499   0.00011   0.00000   0.00023   0.00022   2.64521
    R6        2.58322   0.00000  -0.00001   0.00002   0.00001   2.58323
    R7        1.81101   0.00000   0.00000   0.00002   0.00002   1.81103
    R8        2.05272   0.00001  -0.00001   0.00000   0.00000   2.05271
    R9        2.62684   0.00010   0.00000   0.00016   0.00016   2.62700
   R10        2.04716   0.00003   0.00002   0.00008   0.00009   2.04725
   R11        2.62733   0.00013   0.00003   0.00022   0.00025   2.62758
   R12        2.62593   0.00009   0.00000   0.00012   0.00013   2.62606
   R13        2.04452   0.00038   0.00021   0.00073   0.00094   2.04546
   R14        2.62043   0.00016  -0.00005   0.00027   0.00023   2.62065
   R15        3.59083   0.00022  -0.00018   0.00147   0.00130   3.59213
   R16        2.04686   0.00002  -0.00002   0.00003   0.00001   2.04687
    A1        1.96215   0.00001   0.00002   0.00005   0.00008   1.96222
    A2        2.14421  -0.00001  -0.00001  -0.00019  -0.00020   2.14401
    A3        2.07136  -0.00002  -0.00010   0.00008  -0.00002   2.07134
    A4        2.06762   0.00003   0.00011   0.00011   0.00022   2.06784
    A5        2.05835   0.00000   0.00000   0.00006   0.00006   2.05841
    A6        2.06013   0.00001   0.00003   0.00009   0.00013   2.06026
    A7        2.16470   0.00000  -0.00003  -0.00016  -0.00019   2.16451
    A8        2.00444   0.00000  -0.00001  -0.00019  -0.00019   2.00424
    A9        2.10601  -0.00001  -0.00002  -0.00021  -0.00022   2.10579
   A10        2.11444  -0.00004  -0.00010  -0.00010  -0.00021   2.11423
   A11        2.06273   0.00005   0.00012   0.00030   0.00042   2.06315
   A12        2.10118  -0.00005  -0.00012  -0.00013  -0.00025   2.10093
   A13        2.09648   0.00007   0.00025   0.00008   0.00033   2.09681
   A14        2.08553  -0.00003  -0.00013   0.00005  -0.00008   2.08545
   A15        2.07454  -0.00008  -0.00043  -0.00004  -0.00046   2.07408
   A16        2.11013   0.00008   0.00028   0.00024   0.00052   2.11065
   A17        2.09851   0.00001   0.00015  -0.00020  -0.00006   2.09846
   A18        2.11941   0.00006   0.00044   0.00007   0.00051   2.11991
   A19        2.07932  -0.00008  -0.00017  -0.00035  -0.00052   2.07880
   A20        2.08446   0.00002  -0.00027   0.00027   0.00001   2.08447
   A21        2.09387  -0.00005  -0.00026  -0.00012  -0.00039   2.09349
   A22        2.08879   0.00000   0.00012  -0.00011   0.00001   2.08880
   A23        2.10053   0.00005   0.00014   0.00023   0.00037   2.10090
    D1        3.13141   0.00000   0.00000  -0.00188  -0.00188   3.12953
    D2       -0.00776   0.00000   0.00000  -0.00136  -0.00136  -0.00912
    D3        3.07679  -0.00001  -0.00005  -0.01272  -0.01277   3.06402
    D4       -0.06738  -0.00001  -0.00005  -0.01328  -0.01333  -0.08071
    D5       -0.06436  -0.00001  -0.00005  -0.01262  -0.01266  -0.07702
    D6        3.07466  -0.00001  -0.00005  -0.01317  -0.01322   3.06144
    D7       -0.00817   0.00000   0.00000  -0.00140  -0.00140  -0.00958
    D8        3.13854   0.00000   0.00001  -0.00047  -0.00046   3.13808
    D9        3.13298   0.00000   0.00000  -0.00151  -0.00151   3.13147
   D10       -0.00349   0.00000   0.00000  -0.00057  -0.00057  -0.00406
   D11       -3.13689   0.00000   0.00000   0.00079   0.00079  -3.13610
   D12        0.00374   0.00000   0.00000   0.00069   0.00069   0.00444
   D13        0.00512   0.00000   0.00000   0.00089   0.00090   0.00602
   D14       -3.13743   0.00000   0.00000   0.00079   0.00079  -3.13663
   D15        3.11204   0.00000  -0.00001  -0.00463  -0.00464   3.10741
   D16       -0.02697   0.00000  -0.00001  -0.00407  -0.00408  -0.03105
   D17        3.14053   0.00000  -0.00001  -0.00026  -0.00027   3.14027
   D18        0.00032   0.00000   0.00000   0.00003   0.00003   0.00035
   D19        0.00394   0.00000   0.00000   0.00065   0.00065   0.00460
   D20       -3.13627   0.00000   0.00000   0.00095   0.00095  -3.13532
   D21        0.00124   0.00000   0.00000   0.00018   0.00018   0.00141
   D22       -3.14116  -0.00001  -0.00001  -0.00006  -0.00007  -3.14123
   D23       -3.13899   0.00000   0.00000   0.00047   0.00047  -3.13852
   D24        0.00179   0.00000  -0.00001   0.00024   0.00023   0.00202
   D25        0.00045   0.00000   0.00001   0.00015   0.00016   0.00062
   D26        3.14117   0.00000   0.00001  -0.00015  -0.00014   3.14103
   D27       -3.14034   0.00001   0.00002   0.00039   0.00041  -3.13993
   D28        0.00038   0.00000   0.00002   0.00009   0.00010   0.00048
   D29       -0.00369   0.00000  -0.00001  -0.00070  -0.00071  -0.00440
   D30        3.13886   0.00000  -0.00001  -0.00060  -0.00061   3.13825
   D31        3.13878   0.00000  -0.00001  -0.00040  -0.00040   3.13838
   D32       -0.00185   0.00000  -0.00001  -0.00029  -0.00030  -0.00215
         Item               Value     Threshold  Converged?
 Maximum Force            0.000381     0.000015     NO 
 RMS     Force            0.000067     0.000010     NO 
 Maximum Displacement     0.034863     0.000060     NO 
 RMS     Displacement     0.007711     0.000040     NO 
 Predicted change in Energy=-8.137342D-07
 GradGradGradGradGradGradGradGradGradGradGradGradGradGradGradGradGradGrad

                          Input orientation:                          
 ---------------------------------------------------------------------
 Center     Atomic      Atomic             Coordinates (Angstroms)
 Number     Number       Type             X           Y           Z
 ---------------------------------------------------------------------
      1          8           0        8.687415    7.449252    5.523247
      2          1           0        9.502171    7.148016    5.935448
      3          6           0        6.240725    6.993872    5.170710
      4          5           0        7.641312    6.615078    5.770528
      5          8           0        7.872772    5.501137    6.528297
      6          1           0        7.098871    4.962053    6.698334
      7          6           0        5.119096    6.167520    5.283722
      8          1           0        5.185039    5.211126    5.794503
      9          6           0        3.894183    6.540222    4.742248
     10          1           0        3.033062    5.889573    4.836029
     11          6           0        3.766402    7.752538    4.073417
     12          6           0        4.880593    8.574949    3.957869
     13          6           0        6.107383    8.211070    4.492441
     14          1           0        6.965174    8.864367    4.389357
     15          1           0        2.818729    8.055630    3.647190
     16         35           0        4.714812   10.233603    3.044252
 ---------------------------------------------------------------------
                    Distance matrix (angstroms):
                    1          2          3          4          5
     1  O    0.000000
     2  H    0.961499   0.000000
     3  C    2.513552   3.353448   0.000000
     4  B    1.360634   1.942683   1.570004   0.000000
     5  O    2.338572   2.391363   2.595165   1.366986   0.000000
     6  H    3.176548   3.337106   2.682972   1.971689   0.958357
     7  C    3.799093   4.538443   1.397741   2.607463   3.094474
     8  H    4.165263   4.733818   2.163740   2.829299   2.801155
     9  C    4.940786   5.765645   2.428093   3.886379   4.483173
    10  H    5.905639   6.681450   3.408899   4.757691   5.141736
    11  C    5.139101   6.060664   2.811032   4.380517   5.287487
    12  C    4.267258   5.225508   2.412621   3.840364   5.000855
    13  C    2.880883   3.838871   1.399785   2.556097   3.821654
    14  H    2.500874   3.431124   2.152693   2.724720   4.087800
    15  H    6.191023   7.122379   3.893392   5.462698   6.353705
    16  Br   5.447898   6.387383   4.164863   5.393580   6.671395
                    6          7          8          9         10
     6  H    0.000000
     7  C    2.715472   0.000000
     8  H    2.131126   1.086248   0.000000
     9  C    4.072703   1.390148   2.130738   0.000000
    10  H    4.567196   2.151563   2.451524   1.083360   0.000000
    11  C    5.077632   2.409751   3.381337   1.390458   2.142429
    12  C    5.048160   2.758710   3.844634   2.393401   3.375764
    13  C    4.050323   2.403940   3.397902   2.784311   3.867668
    14  H    4.536221   3.388344   4.299939   3.867450   4.950800
    15  H    6.099124   3.396304   4.278034   2.156899   2.480137
    16  Br   6.842900   4.659581   5.745456   4.147009   4.990927
                   11         12         13         14         15
    11  C    0.000000
    12  C    1.389653   0.000000
    13  C    2.421988   1.386791   0.000000
    14  H    3.401195   2.148353   1.083157   0.000000
    15  H    1.082413   2.148837   3.399097   4.289274   0.000000
    16  Br   2.848570   1.900872   2.850815   2.957743   2.949955
                   16
    16  Br   0.000000
 Symmetry turned off by external request.
 Stoichiometry    C6H6BBrO2
 Framework group  C1[X(C6H6BBrO2)]
 Deg. of freedom    42
 Full point group                 C1      NOp   1
 Rotational constants (GHZ):           1.9263944           0.4577568           0.3700194
 Standard basis: 6-311+G(d,p) (5D, 7F)
   282 basis functions,   466 primitive gaussians,   294 cartesian basis functions
    49 alpha electrons       49 beta electrons
       nuclear repulsion energy       688.4661759632 Hartrees.
 NAtoms=   16 NActive=   16 NUniq=   16 SFac= 1.00D+00 NAtFMM=   60 NAOKFM=F Big=F
 Integral buffers will be    131072 words long.
 Raffenetti 2 integral format.
 Two-electron integral symmetry is turned off.
 One-electron integrals computed using PRISM.
 NBasis=   282 RedAO= T EigKep=  2.78D-06  NBF=   282
 NBsUse=   282 1.00D-06 EigRej= -1.00D+00 NBFU=   282
 Initial guess from the checkpoint file:  "3-br-phboh2-opt-freq.chk"
 B after Tr=    -0.003298    0.011932   -0.012145
         Rot=    1.000000   -0.000694   -0.000257   -0.000080 Ang=  -0.09 deg.
 ExpMin= 3.15D-02 ExpMax= 4.40D+05 ExpMxC= 1.51D+04 IAcc=3 IRadAn=         5 AccDes= 0.00D+00
 Harris functional with IExCor= 1009 and IRadAn=       5 diagonalized for initial guess.
 HarFok:  IExCor= 1009 AccDes= 0.00D+00 IRadAn=         5 IDoV= 1 UseB2=F ITyADJ=14
 ICtDFT=  3500011 ScaDFX=  1.000000  1.000000  1.000000  1.000000
 FoFCou: FMM=F IPFlag=           0 FMFlag=      100000 FMFlg1=           0
         NFxFlg=           0 DoJE=T BraDBF=F KetDBF=T FulRan=T
         wScrn=  0.000000 ICntrl=       500 IOpCl=  0 I1Cent=   200000004 NGrid=           0
         NMat0=    1 NMatS0=      1 NMatT0=    0 NMatD0=    1 NMtDS0=    0 NMtDT0=    0
 Symmetry not used in FoFCou.
 Requested convergence on RMS density matrix=1.00D-08 within 128 cycles.
 Requested convergence on MAX density matrix=1.00D-06.
 Requested convergence on             energy=1.00D-06.
 Level shift goal  0.100 maximum shift  0.100.
 No special actions if energy rises.
 Dynamic level shift is on during FON iterations.
 SCF Done:  E(RM062X) =  -2981.79727205     A.U. after   10 cycles
            NFock= 10  Conv=0.54D-08     -V/T= 2.0015
 Calling FoFJK, ICntrl=      2127 FMM=F ISym2X=0 I1Cent= 0 IOpClX= 0 NMat=1 NMatS=1 NMatT=0.
 -------------------------------------------------------------------
 Center     Atomic                   Forces (Hartrees/Bohr)
 Number     Number              X              Y              Z
 -------------------------------------------------------------------
      1        8          -0.000001416   -0.000003348    0.000007610
      2        1          -0.000001700   -0.000006164    0.000007624
      3        6           0.000003346   -0.000001709   -0.000000236
      4        5          -0.000002165   -0.000002308   -0.000000962
      5        8          -0.000002755   -0.000007720   -0.000001069
      6        1          -0.000011034   -0.000004445   -0.000001285
      7        6          -0.000003205   -0.000002856   -0.000000461
      8        1           0.000000588   -0.000002480   -0.000006498
      9        6          -0.000000751    0.000002479   -0.000006910
     10        1          -0.000001094    0.000002411   -0.000009477
     11        6           0.000017279   -0.000000843    0.000005548
     12        6           0.000003097    0.000008230   -0.000002989
     13        6          -0.000001180    0.000006199    0.000002911
     14        1           0.000003627    0.000001328    0.000006319
     15        1          -0.000011507    0.000012518   -0.000011700
     16       35           0.000008869   -0.000001293    0.000011574
 -------------------------------------------------------------------
 Cartesian Forces:  Max     0.000017279 RMS     0.000006098

 GradGradGradGradGradGradGradGradGradGradGradGradGradGradGradGradGradGrad
 Berny optimization.
 Using GEDIIS/GDIIS optimizer.
 FormGI is forming the generalized inverse of G from B-inverse, IUseBI=4.
 Internal  Forces:  Max     0.000018082 RMS     0.000003480
 Search for a local minimum.
 Step number   3 out of a maximum of   81
 All quantities printed in internal units (Hartrees-Bohrs-Radians)
 Mixed Optimization -- En-DIIS/RFO-DIIS
 Swapping is turned off.
 Update second derivatives using D2CorX and points    1    2    3
 DE= -8.77D-07 DEPred=-8.14D-07 R= 1.08D+00
 Trust test= 1.08D+00 RLast= 2.71D-02 DXMaxT set to 3.00D-01
 ITU=  0  1  0
     Eigenvalues ---    0.00070   0.01034   0.01226   0.01503   0.01640
     Eigenvalues ---    0.01779   0.02169   0.02414   0.02524   0.02622
     Eigenvalues ---    0.02796   0.02873   0.03940   0.10298   0.11080
     Eigenvalues ---    0.11222   0.11755   0.12255   0.12510   0.15301
     Eigenvalues ---    0.15985   0.16670   0.18028   0.18776   0.19224
     Eigenvalues ---    0.19367   0.23785   0.27436   0.29089   0.35583
     Eigenvalues ---    0.36537   0.36806   0.38967   0.39423   0.42247
     Eigenvalues ---    0.42600   0.47765   0.47852   0.49230   0.52398
     Eigenvalues ---    0.55208   0.56298
 En-DIIS/RFO-DIIS/Sim-DIIS IScMMF=       -3 using points:     3    2
 RFO step:  Lambda=-3.41350725D-08.
 DidBck=F Rises=F RFO-DIIS coefs:    1.23907   -0.23907
 Iteration  1 RMS(Cart)=  0.00187294 RMS(Int)=  0.00000161
 Iteration  2 RMS(Cart)=  0.00000231 RMS(Int)=  0.00000001
 Iteration  3 RMS(Cart)=  0.00000000 RMS(Int)=  0.00000001
 Variable       Old X    -DE/DX   Delta X   Delta X   Delta X     New X
                                 (Linear)    (Quad)   (Total)
    R1        1.81697   0.00000   0.00000   0.00000   0.00000   1.81697
    R2        2.57123   0.00000  -0.00001   0.00000  -0.00001   2.57121
    R3        2.96688   0.00000   0.00002  -0.00004  -0.00002   2.96686
    R4        2.64135   0.00000   0.00005  -0.00004   0.00001   2.64136
    R5        2.64521   0.00000   0.00005  -0.00005   0.00000   2.64521
    R6        2.58323   0.00000   0.00000   0.00001   0.00001   2.58324
    R7        1.81103   0.00000   0.00001   0.00001   0.00001   1.81105
    R8        2.05271   0.00000   0.00000   0.00000   0.00000   2.05271
    R9        2.62700   0.00000   0.00004  -0.00003   0.00001   2.62701
   R10        2.04725   0.00000   0.00002  -0.00002   0.00000   2.04726
   R11        2.62758   0.00000   0.00006  -0.00005   0.00001   2.62759
   R12        2.62606   0.00000   0.00003  -0.00003   0.00001   2.62607
   R13        2.04546   0.00002   0.00023  -0.00016   0.00006   2.04553
   R14        2.62065   0.00000   0.00005  -0.00005   0.00000   2.62065
   R15        3.59213  -0.00001   0.00031  -0.00034  -0.00003   3.59210
   R16        2.04687   0.00000   0.00000   0.00000   0.00000   2.04687
    A1        1.96222   0.00000   0.00002  -0.00001   0.00000   1.96223
    A2        2.14401  -0.00001  -0.00005  -0.00004  -0.00009   2.14392
    A3        2.07134   0.00001  -0.00001   0.00007   0.00007   2.07141
    A4        2.06784   0.00000   0.00005  -0.00003   0.00002   2.06786
    A5        2.05841   0.00001   0.00001   0.00004   0.00005   2.05847
    A6        2.06026   0.00000   0.00003   0.00001   0.00005   2.06031
    A7        2.16451  -0.00001  -0.00005  -0.00005  -0.00010   2.16441
    A8        2.00424  -0.00001  -0.00005  -0.00005  -0.00010   2.00415
    A9        2.10579   0.00000  -0.00005   0.00000  -0.00005   2.10574
   A10        2.11423   0.00000  -0.00005   0.00004  -0.00001   2.11422
   A11        2.06315   0.00000   0.00010  -0.00004   0.00006   2.06321
   A12        2.10093   0.00000  -0.00006   0.00006   0.00000   2.10093
   A13        2.09681   0.00000   0.00008  -0.00008   0.00000   2.09680
   A14        2.08545   0.00000  -0.00002   0.00002   0.00000   2.08545
   A15        2.07408   0.00000  -0.00011   0.00011   0.00000   2.07408
   A16        2.11065   0.00000   0.00012  -0.00011   0.00002   2.11067
   A17        2.09846   0.00000  -0.00001  -0.00001  -0.00002   2.09844
   A18        2.11991   0.00000   0.00012  -0.00011   0.00001   2.11992
   A19        2.07880   0.00000  -0.00012   0.00013   0.00001   2.07881
   A20        2.08447   0.00000   0.00000  -0.00002  -0.00002   2.08445
   A21        2.09349   0.00000  -0.00009   0.00007  -0.00002   2.09347
   A22        2.08880   0.00000   0.00000   0.00001   0.00001   2.08881
   A23        2.10090   0.00000   0.00009  -0.00008   0.00001   2.10091
    D1        3.12953   0.00000  -0.00045   0.00000  -0.00045   3.12908
    D2       -0.00912   0.00000  -0.00032   0.00001  -0.00031  -0.00943
    D3        3.06402   0.00000  -0.00305   0.00006  -0.00299   3.06103
    D4       -0.08071   0.00000  -0.00319   0.00004  -0.00314  -0.08385
    D5       -0.07702   0.00000  -0.00303   0.00001  -0.00302  -0.08004
    D6        3.06144   0.00000  -0.00316  -0.00001  -0.00317   3.05827
    D7       -0.00958   0.00000  -0.00034  -0.00008  -0.00042  -0.01000
    D8        3.13808   0.00000  -0.00011  -0.00005  -0.00016   3.13793
    D9        3.13147   0.00000  -0.00036  -0.00003  -0.00039   3.13108
   D10       -0.00406   0.00000  -0.00014   0.00001  -0.00013  -0.00419
   D11       -3.13610   0.00000   0.00019   0.00005   0.00024  -3.13586
   D12        0.00444   0.00000   0.00017   0.00004   0.00020   0.00464
   D13        0.00602   0.00000   0.00021   0.00000   0.00021   0.00623
   D14       -3.13663   0.00000   0.00019  -0.00002   0.00017  -3.13646
   D15        3.10741   0.00000  -0.00111  -0.00025  -0.00136   3.10604
   D16       -0.03105   0.00000  -0.00098  -0.00023  -0.00121  -0.03226
   D17        3.14027   0.00000  -0.00006  -0.00001  -0.00007   3.14019
   D18        0.00035   0.00000   0.00001  -0.00002  -0.00002   0.00033
   D19        0.00460   0.00000   0.00016   0.00003   0.00019   0.00478
   D20       -3.13532   0.00000   0.00023   0.00001   0.00024  -3.13508
   D21        0.00141   0.00000   0.00004   0.00003   0.00008   0.00149
   D22       -3.14123   0.00000  -0.00002   0.00006   0.00004  -3.14120
   D23       -3.13852   0.00000   0.00011   0.00002   0.00013  -3.13839
   D24        0.00202   0.00000   0.00005   0.00004   0.00009   0.00211
   D25        0.00062   0.00000   0.00004  -0.00003   0.00001   0.00063
   D26        3.14103   0.00000  -0.00003   0.00005   0.00001   3.14104
   D27       -3.13993   0.00000   0.00010  -0.00005   0.00005  -3.13988
   D28        0.00048   0.00000   0.00003   0.00002   0.00005   0.00053
   D29       -0.00440   0.00000  -0.00017   0.00001  -0.00016  -0.00456
   D30        3.13825   0.00000  -0.00015   0.00003  -0.00012   3.13814
   D31        3.13838   0.00000  -0.00010  -0.00006  -0.00016   3.13822
   D32       -0.00215   0.00000  -0.00007  -0.00005  -0.00012  -0.00227
         Item               Value     Threshold  Converged?
 Maximum Force            0.000018     0.000015     NO 
 RMS     Force            0.000003     0.000010     YES
 Maximum Displacement     0.008375     0.000060     NO 
 RMS     Displacement     0.001873     0.000040     NO 
 Predicted change in Energy=-1.706761D-08
 GradGradGradGradGradGradGradGradGradGradGradGradGradGradGradGradGradGrad

                          Input orientation:                          
 ---------------------------------------------------------------------
 Center     Atomic      Atomic             Coordinates (Angstroms)
 Number     Number       Type             X           Y           Z
 ---------------------------------------------------------------------
      1          8           0        8.688177    7.447548    5.520713
      2          1           0        9.502759    7.146591    5.933463
      3          6           0        6.240853    6.993743    5.170366
      4          5           0        7.641396    6.614904    5.770234
      5          8           0        7.872059    5.502378    6.530330
      6          1           0        7.097422    4.965102    6.702766
      7          6           0        5.119446    6.166993    5.282732
      8          1           0        5.185739    5.210163    5.792653
      9          6           0        3.894466    6.539738    4.741430
     10          1           0        3.033529    5.888761    4.834639
     11          6           0        3.766401    7.752496    4.073449
     12          6           0        4.880397    8.575259    3.958488
     13          6           0        6.107278    8.211307    4.492801
     14          1           0        6.964938    8.864838    4.390088
     15          1           0        2.818646    8.055673    3.647376
     16         35           0        4.714232   10.234514    3.046063
 ---------------------------------------------------------------------
                    Distance matrix (angstroms):
                    1          2          3          4          5
     1  O    0.000000
     2  H    0.961500   0.000000
     3  C    2.513579   3.353463   0.000000
     4  B    1.360628   1.942681   1.569994   0.000000
     5  O    2.338603   2.391416   2.595092   1.366991   0.000000
     6  H    3.176522   3.337120   2.682786   1.971641   0.958364
     7  C    3.798987   4.538337   1.397747   2.607397   3.094365
     8  H    4.164963   4.733523   2.163715   2.829143   2.801048
     9  C    4.940756   5.765602   2.428094   3.886332   4.483027
    10  H    5.905554   6.681354   3.408904   4.757632   5.141599
    11  C    5.139207   6.060741   2.811023   4.380501   5.287318
    12  C    4.267490   5.225691   2.412609   3.840381   5.000701
    13  C    2.881140   3.839065   1.399785   2.556140   3.821553
    14  H    2.501315   3.431460   2.152703   2.724812   4.087743
    15  H    6.191171   7.122499   3.893417   5.462715   6.353559
    16  Br   5.448239   6.387671   4.164833   5.393605   6.671214
                    6          7          8          9         10
     6  H    0.000000
     7  C    2.715406   0.000000
     8  H    2.131406   1.086250   0.000000
     9  C    4.072499   1.390152   2.130781   0.000000
    10  H    4.567086   2.151569   2.451590   1.083362   0.000000
    11  C    5.077261   2.409755   3.381367   1.390460   2.142433
    12  C    5.047721   2.758716   3.844641   2.393408   3.375772
    13  C    4.049960   2.403960   3.397899   2.784330   3.867688
    14  H    4.535854   3.388366   4.299929   3.867471   4.950823
    15  H    6.098766   3.396348   4.278115   2.156942   2.480176
    16  Br   6.842351   4.659572   5.745448   4.147005   4.990925
                   11         12         13         14         15
    11  C    0.000000
    12  C    1.389656   0.000000
    13  C    2.421998   1.386791   0.000000
    14  H    3.401207   2.148359   1.083159   0.000000
    15  H    1.082447   2.148855   3.399127   4.289302   0.000000
    16  Br   2.848564   1.900857   2.850789   2.957718   2.949944
                   16
    16  Br   0.000000
 Symmetry turned off by external request.
 Stoichiometry    C6H6BBrO2
 Framework group  C1[X(C6H6BBrO2)]
 Deg. of freedom    42
 Full point group                 C1      NOp   1
 Rotational constants (GHZ):           1.9263832           0.4577476           0.3700252
 Standard basis: 6-311+G(d,p) (5D, 7F)
   282 basis functions,   466 primitive gaussians,   294 cartesian basis functions
    49 alpha electrons       49 beta electrons
       nuclear repulsion energy       688.4659972215 Hartrees.
 NAtoms=   16 NActive=   16 NUniq=   16 SFac= 1.00D+00 NAtFMM=   60 NAOKFM=F Big=F
 Integral buffers will be    131072 words long.
 Raffenetti 2 integral format.
 Two-electron integral symmetry is turned off.
 One-electron integrals computed using PRISM.
 NBasis=   282 RedAO= T EigKep=  2.78D-06  NBF=   282
 NBsUse=   282 1.00D-06 EigRej= -1.00D+00 NBFU=   282
 Initial guess from the checkpoint file:  "3-br-phboh2-opt-freq.chk"
 B after Tr=    -0.000696    0.002965   -0.003203
         Rot=    1.000000   -0.000177   -0.000060   -0.000020 Ang=  -0.02 deg.
 Requested convergence on RMS density matrix=1.00D-08 within 128 cycles.
 Requested convergence on MAX density matrix=1.00D-06.
 Requested convergence on             energy=1.00D-06.
 Level shift goal  0.100 maximum shift  0.100.
 No special actions if energy rises.
 Dynamic level shift is on during FON iterations.
 SCF Done:  E(RM062X) =  -2981.79727207     A.U. after    9 cycles
            NFock=  9  Conv=0.39D-08     -V/T= 2.0015
 Calling FoFJK, ICntrl=      2127 FMM=F ISym2X=0 I1Cent= 0 IOpClX= 0 NMat=1 NMatS=1 NMatT=0.
 -------------------------------------------------------------------
 Center     Atomic                   Forces (Hartrees/Bohr)
 Number     Number              X              Y              Z
 -------------------------------------------------------------------
      1        8          -0.000001190   -0.000003453    0.000007218
      2        1          -0.000001964   -0.000005786    0.000007836
      3        6          -0.000000395   -0.000000738   -0.000000377
      4        5          -0.000002289   -0.000002904    0.000001451
      5        8          -0.000003850   -0.000006842   -0.000000867
      6        1          -0.000007070   -0.000005377   -0.000002868
      7        6          -0.000001814    0.000001471   -0.000003980
      8        1          -0.000002561   -0.000001602   -0.000006655
      9        6          -0.000000526    0.000002565   -0.000006896
     10        1          -0.000000403    0.000002984   -0.000009650
     11        6           0.000000731    0.000004545   -0.000003028
     12        6           0.000003947    0.000005015    0.000000678
     13        6           0.000000089   -0.000000708    0.000004645
     14        1           0.000002281    0.000000949    0.000007034
     15        1           0.000008388    0.000004371   -0.000001411
     16       35           0.000006627    0.000005508    0.000006871
 -------------------------------------------------------------------
 Cartesian Forces:  Max     0.000009650 RMS     0.000004387

 GradGradGradGradGradGradGradGradGradGradGradGradGradGradGradGradGradGrad
 Berny optimization.
 Using GEDIIS/GDIIS optimizer.
 FormGI is forming the generalized inverse of G from B-inverse, IUseBI=4.
 Internal  Forces:  Max     0.000005668 RMS     0.000001096
 Search for a local minimum.
 Step number   4 out of a maximum of   81
 All quantities printed in internal units (Hartrees-Bohrs-Radians)
 Mixed Optimization -- En-DIIS/RFO-DIIS
 Swapping is turned off.
 Update second derivatives using D2CorX and points    1    2    3    4
 DE= -1.88D-08 DEPred=-1.71D-08 R= 1.10D+00
 Trust test= 1.10D+00 RLast= 6.51D-03 DXMaxT set to 3.00D-01
 ITU=  0  0  1  0
     Eigenvalues ---    0.00064   0.01024   0.01227   0.01502   0.01638
     Eigenvalues ---    0.01779   0.02169   0.02415   0.02523   0.02619
     Eigenvalues ---    0.02795   0.02873   0.03937   0.10282   0.11081
     Eigenvalues ---    0.11218   0.11760   0.12246   0.12510   0.15205
     Eigenvalues ---    0.15905   0.16699   0.17871   0.18764   0.19124
     Eigenvalues ---    0.19334   0.23986   0.27429   0.29029   0.35581
     Eigenvalues ---    0.36539   0.36809   0.39420   0.39861   0.42248
     Eigenvalues ---    0.42632   0.47765   0.47858   0.49231   0.52817
     Eigenvalues ---    0.55208   0.56276
 En-DIIS/RFO-DIIS/Sim-DIIS IScMMF=       -3 using points:     4    3    2
 RFO step:  Lambda=-2.71766354D-10.
 DIIS inversion failure, remove point   3.
 RFO-DIIS uses    2 points instead of    3
 DidBck=F Rises=F RFO-DIIS coefs:    1.12279   -0.12279    0.00000
 Iteration  1 RMS(Cart)=  0.00023314 RMS(Int)=  0.00000003
 Iteration  2 RMS(Cart)=  0.00000004 RMS(Int)=  0.00000000
 Variable       Old X    -DE/DX   Delta X   Delta X   Delta X     New X
                                 (Linear)    (Quad)   (Total)
    R1        1.81697   0.00000   0.00000   0.00000   0.00000   1.81697
    R2        2.57121   0.00000   0.00000   0.00000   0.00000   2.57121
    R3        2.96686   0.00000   0.00000   0.00000  -0.00001   2.96685
    R4        2.64136   0.00000   0.00000   0.00000   0.00000   2.64136
    R5        2.64521   0.00000   0.00000   0.00000   0.00000   2.64521
    R6        2.58324   0.00000   0.00000   0.00000   0.00000   2.58324
    R7        1.81105   0.00000   0.00000   0.00000   0.00000   1.81105
    R8        2.05271   0.00000   0.00000   0.00000   0.00000   2.05271
    R9        2.62701   0.00000   0.00000   0.00000   0.00000   2.62700
   R10        2.04726   0.00000   0.00000   0.00000   0.00000   2.04726
   R11        2.62759   0.00000   0.00000   0.00000   0.00000   2.62759
   R12        2.62607   0.00000   0.00000   0.00000   0.00000   2.62607
   R13        2.04553  -0.00001   0.00001  -0.00002  -0.00001   2.04552
   R14        2.62065   0.00000   0.00000   0.00000   0.00000   2.62065
   R15        3.59210   0.00000   0.00000   0.00000   0.00000   3.59209
   R16        2.04687   0.00000   0.00000   0.00000   0.00000   2.04687
    A1        1.96223   0.00000   0.00000   0.00000   0.00000   1.96223
    A2        2.14392   0.00000  -0.00001  -0.00001  -0.00002   2.14391
    A3        2.07141   0.00000   0.00001   0.00001   0.00001   2.07142
    A4        2.06786   0.00000   0.00000   0.00000   0.00000   2.06786
    A5        2.05847   0.00000   0.00001   0.00001   0.00001   2.05848
    A6        2.06031   0.00000   0.00001   0.00000   0.00001   2.06032
    A7        2.16441   0.00000  -0.00001  -0.00001  -0.00002   2.16439
    A8        2.00415   0.00000  -0.00001  -0.00001  -0.00002   2.00412
    A9        2.10574   0.00000  -0.00001   0.00000  -0.00001   2.10573
   A10        2.11422   0.00000   0.00000   0.00000   0.00000   2.11422
   A11        2.06321   0.00000   0.00001   0.00000   0.00001   2.06322
[...]
     1         18.04902544         13.85266126        -10.62581492
     6         11.81446729         13.29603093         -9.63603490
     5         14.72041167         13.56863020         -9.10368895
     8         15.74790087         13.72257072         -6.73858692
     1         14.54543444         13.70497346         -5.38445777
     6         10.02768634         13.00040566         -7.71333245
     1         10.60925866         12.93123660         -5.74594204
     6          7.46839177         12.77309740         -8.26059418
     1          6.10371522         12.54241711         -6.75205183
     6          6.64175216         12.83657185        -10.75395407
     6          8.41492015         13.12616076        -12.66922010
     6         10.97246465         13.34968351        -12.14307870
     1         12.32645550         13.56800828        -13.66253207
     1          4.65480013         12.66252349        -11.20767919
    35          7.30104420         13.21313855        -16.08314098

 Electric dipole moment (dipole orientation):
 (Debye = 10**-18 statcoulomb cm , SI units = C m)
                  (au)            (Debye)         (10**-30 SI)
   Tot        0.115204D+01      0.292818D+01      0.976736D+01
   x          0.000000D+00      0.000000D+00      0.000000D+00
   y          0.000000D+00      0.000000D+00      0.000000D+00
   z          0.115204D+01      0.292818D+01      0.976736D+01

 Dipole polarizability, Alpha (dipole orientation).
 (esu units = cm**3 , SI units = C**2 m**2 J**-1)
 Alpha(0;0):
               (au)            (10**-24 esu)      (10**-40 SI)
   iso        0.105176D+03      0.155855D+02      0.173412D+02
   aniso      0.708481D+02      0.104986D+02      0.116813D+02
   xx         0.121691D+03      0.180327D+02      0.200641D+02
   yx         0.529140D+01      0.784104D+00      0.872434D+00
   yy         0.617656D+02      0.915272D+01      0.101838D+02
   zx         0.141734D+02      0.210028D+01      0.233688D+01
   zy        -0.198790D+01     -0.294576D+00     -0.327760D+00
   zz         0.132073D+03      0.195712D+02      0.217758D+02

 ----------------------------------------------------------------------
 Unable to Open any file for archive entry.
 1\1\GINC-CN011\Freq\RM062X\6-311+G(d,p)\C6H6B1Br1O2\TAHMINAAFROZ\30-Ap
 r-2025\0\\#N Geom=AllCheck Guess=TCheck SCRF=Check GenChk RM062X/6-311
 +G(d,p) Freq\\3-br-phboh2-opt-freq\\0,1\O,8.6882768076,7.4473345146,5.
 5204064741\H,9.5028353295,7.1463992361,5.9332199515\C,6.2408710243,6.9
 93734856,5.1703250533\B,7.6414068139,6.6148829143,5.7701934141\O,7.871
 9592593,5.502516305,6.5305587494\H,7.097210955,4.965498902,6.703310531
 3\C,5.1194943546,6.1669347602,5.2826157195\H,5.1858368875,5.2100538264
 ,5.7924350333\C,3.8945076585,6.5396761776,4.7413291655\H,3.0335952315,
 5.8886564964,4.834464788\C,3.7664081747,7.7524857654,4.0734535003\C,4.
 8803734311,8.5752996121,3.958562292\C,6.107263524,8.2113412057,4.49284
 75575\H,6.9649039739,8.8649054436,4.3901788047\H,2.818649647,8.0556604
 993,3.6474056856\Br,4.7141451277,10.2346263955,3.0462848499\\Version=A
 S64L-G16RevC.01\HF=-2981.7972721\RMSD=3.381e-09\RMSF=4.245e-06\ZeroPoi
 nt=0.1157343\Thermal=0.1250495\ETot=-2981.6722226\HTot=-2981.6712784\G
 Tot=-2981.7183228\Dipole=-0.2605826,-0.9933566,0.522039\DipoleDeriv=-1
 .3456511,-0.2344808,-0.050918,-0.3841173,-0.6864543,-0.0014071,0.04435
 57,0.0311735,-0.5442934,0.3669661,0.031201,-0.0162055,0.0633954,0.2929
 419,0.050284,-0.0444284,0.0449833,0.3064892,-0.5384472,0.2044344,-0.22
 20599,0.07306,-0.1603761,0.0395756,-0.1450291,0.0767626,-0.2181902,1.9
 485788,-0.1388789,0.433207,0.0861377,1.3404308,-0.4875024,0.308761,-0.
 5379301,0.9647652,-0.6989512,0.2590643,-0.2065926,0.1842072,-1.1155942
 ,0.4194756,-0.1691495,0.432413,-0.8429255,0.2352814,-0.1038423,0.04462
 01,-0.0811724,0.3809732,-0.0600623,0.0422655,-0.0657913,0.3729414,-0.0
 002176,-0.0538757,0.0675958,0.0385712,-0.0086609,-0.0562398,-0.0004021
 ,-0.0822648,-0.1014284,0.0771075,0.0269273,-0.0279155,0.0245394,-0.072
 8928,0.1112055,-0.0252469,0.1095259,0.0588982,0.0202068,0.0458951,0.01
 43443,0.1263869,-0.0346706,-0.0027786,-0.0232434,-0.020323,-0.1055765,
 -0.0144242,-0.0644006,-0.0103734,-0.0700692,0.0175416,0.0442187,-0.007
 5354,0.0450895,0.1150402,-0.0184397,0.0428067,0.0018205,-0.0277087,-0.
 2431698,0.0640121,0.0369533,0.0826015,-0.1383218,-0.0640666,-0.1511535
 ,0.0689045,-0.1431756,0.906966,-0.5291923,0.0682778,-0.5322898,0.26765
 11,-0.0095717,0.1101626,-0.0377615,0.0537665,-0.2545944,0.0984229,-0.0
 081964,0.1145821,-0.1544718,0.09093,-0.0457634,0.0142126,-0.0448861,0.
 0668719,0.0168985,0.0114272,0.0175014,0.1164163,0.0259972,0.0189351,-0
 .0402659,0.0291234,0.0856294,0.0338912,-0.0462174,0.0306919,0.1063489,
 -0.0752986,0.0529688,-0.0326127,0.0719415,-0.5149418,0.2591983,-0.0425
 919,0.2532743,-0.2033428\Polar=113.4651432,-2.8299635,119.379304,16.09
 22716,-31.9065139,82.6845767\Quadrupole=5.718739,-20.4966301,14.777891
 1,-12.1813555,4.2844382,-2.9543538\PG=C01 [X(C6H6B1Br1O2)]\NImag=0\\0.
 66628661,0.03212680,0.27844890,0.14927536,-0.14627222,0.16947631,-0.38
 814168,0.11609894,-0.17558281,0.41568562,0.14687489,-0.07904652,0.0817
 7814,-0.12510425,0.07221196,-0.19532706,0.07349640,-0.11321481,0.18957
 752,-0.07354564,0.10872839,-0.02921782,-0.00165071,-0.00885137,-0.0004
 3988,-0.00212068,0.00005508,0.61006831,-0.01711499,0.00780838,-0.00379
 842,-0.00356353,-0.00065776,0.00217011,0.07131705,0.54262252,0.0005436
 3,0.00010102,0.00915445,0.00092611,0.00259258,0.00287459,0.09793832,-0
 .19740070,0.26379826,-0.24825630,-0.11574293,0.02096459,-0.03131404,-0
 .02237720,0.00495310,-0.17055798,0.02694818,-0.04438853,0.54836753,-0.
 14264448,-0.16609743,0.03551620,0.00730838,0.00912528,-0.00181724,0.02
 608209,-0.07858931,0.01538656,0.07992226,0.49260623,0.03824691,0.04283
 656,-0.06695632,-0.01389733,-0.00969491,0.00571532,-0.04461749,0.01535
 769,-0.08455271,0.05406641,-0.19484506,0.28378419,0.00567779,-0.034050
 42,0.01930041,0.00410392,0.00242887,0.00047684,0.00171030,0.02069619,-
 0.01703026,-0.09337328,0.02221918,-0.02582509,0.45739264,-0.02179271,-
 0.04037988,0.02803005,0.00455942,-0.00149831,-0.00001928,0.00460214,-0
 .00523179,0.01504688,0.05444812,-0.23739242,0.13544772,0.20547866,0.46
 911244,0.01185560,0.02500803,-0.00008512,-0.00094991,-0.00066185,-0.00
 325821,-0.00651612,0.01919015,0.00294791,-0.04669185,0.12836911,-0.137
 09578,-0.03485719,-0.23615975,0.17209191,0.00244174,0.00200094,-0.0021
 0611,0.00017292,0.00039855,-0.00000031,-0.00135964,0.00107242,-0.00027
 427,0.00397299,0.00211093,0.00011092,-0.37008198,-0.24944027,0.0796052
 8,0.36650852,0.00057474,-0.00094254,0.00459207,0.00060891,-0.00041072,
 -0.00006617,0.00036611,0.00077205,-0.00221629,-0.02530544,-0.01760198,
 0.00405064,-0.21909658,-0.18428701,0.06385336,0.24333656,0.20087342,-0
 .00142132,0.00477182,0.00288993,-0.00008061,-0.00008042,-0.00078525,-0
 .00006878,-0.00193649,-0.00126357,0.01795211,0.00961736,-0.00440059,0.
 06016314,0.05771673,-0.03294793,-0.07579792,-0.06991229,0.03571761,-0.
 00129870,0.00073798,-0.00112597,-0.00064493,-0.00027165,0.00012457,-0.
 25226744,-0.07704100,-0.01479945,-0.01764518,-0.00839519,-0.00127774,0
 .00029052,-0.00291000,0.00215606,0.00108725,0.00033723,0.00026376,0.63
 576436,0.00494073,-0.00028440,0.00178809,0.00061440,0.00042328,0.00003
 854,-0.12713887,-0.18199411,0.02697487,-0.00077605,0.01205504,-0.00574
 467,-0.00001801,-0.00490906,0.00221635,0.00352249,0.00061386,0.0012147
 6,0.04908844,0.61198135,-0.00305098,0.00073935,-0.00047006,-0.00052372
 ,-0.00015687,0.00034518,0.01157993,0.04062706,-0.07973978,-0.00535366,
 -0.00753578,0.00430449,0.00057782,0.00104365,-0.00105292,-0.00156085,-
 0.00016348,-0.00061030,0.11617714,-0.23180915,0.28948214,0.00029240,0.
 00037524,-0.00020315,-0.00005344,-0.00008375,-0.00003305,0.00681943,-0
 .02029435,0.01216752,0.00009528,-0.00098691,0.00136836,-0.00002777,0.0
 0081046,-0.00007845,-0.00198453,0.00013512,-0.00163195,-0.05890371,0.0
 1124110,-0.01191062,0.05971187,-0.00016659,0.00066295,-0.00035308,-0.0
 0016574,-0.00004131,0.00008612,0.00247930,-0.01219579,0.00759325,0.001
 63553,-0.00314853,0.00076564,0.00100982,0.00187190,-0.00104657,-0.0014
 5752,0.00093866,-0.00037552,0.01467242,-0.26764776,0.12261578,-0.01385
 430,0.28201180,0.00025483,-0.00010721,0.00028815,0.00001824,0.00012580
 ,0.00014011,0.00067491,0.00128112,0.00062331,0.00002404,-0.00014011,-0
 .00293565,-0.00043958,-0.00107500,-0.00014614,-0.00065668,0.00037597,0
 .00092062,-0.01398274,0.12096862,-0.10336122,0.01746510,-0.13619233,0.
 09972383,-0.00196094,0.00054268,-0.00064638,-0.00013712,-0.00012091,0.
 00014239,-0.05401560,-0.04082875,0.00339195,-0.00068846,-0.00672374,0.
 00168261,0.00116011,0.00097506,-0.00032249,-0.00058212,0.00040617,-0.0
 0020365,-0.29250073,0.07531065,-0.10404105,0.00230140,-0.00197047,0.00
 052509,0.69284714,0.00012630,0.00065634,-0.00060011,-0.00041288,-0.000
 14545,-0.00015123,0.00680426,0.05208325,-0.02040765,-0.00364905,-0.000
 02471,0.00223518,0.00019904,0.00065483,-0.00024879,-0.00076919,-0.0002
 3220,-0.00066791,0.00880884,-0.13057366,0.03753086,0.02585374,-0.00482
 041,0.01210347,0.09713540,0.59351819,-0.00075476,-0.00040070,-0.000247
 48,0.00027270,-0.00023422,-0.00031262,-0.02160932,-0.03336657,0.021456
 70,0.00003193,0.00124702,0.00531214,0.00014569,-0.00012068,0.00004492,
 0.00057276,-0.00015505,-0.00022892,-0.06939336,0.05624330,-0.11223354,
 -0.01387358,0.00402849,-0.00203850,0.10775154,-0.21066479,0.27450250,-
 0.00068865,0.00001637,-0.00014210,-0.00004388,-0.00003727,0.00003063,-
 0.00353476,0.00180884,-0.00403882,0.00038217,-0.00111648,0.00062384,-0
 .00016114,0.00036672,-0.00025736,-0.00003806,-0.00011650,0.00005213,-0
 .01559577,-0.01821292,0.00402808,0.00048616,0.00071777,0.00092491,-0.2
 3874954,-0.13929578,0.01526003,0.24956024,0.00015061,-0.00004739,-0.00
 000837,0.00003823,0.00000101,-0.00001879,0.00151568,0.00199632,0.00314
 274,0.00020511,0.00039026,-0.00000596,-0.00004599,-0.00004141,0.000008
 97,0.00003026,0.00001323,0.00001953,0.00847046,0.00903117,-0.00048407,
 0.00013273,-0.00026667,-0.00193338,-0.13930477,-0.15833782,0.02284013,
 0.15000851,0.16243391,-0.00024243,-0.00003956,-0.00017430,-0.00002923,
 -0.00003535,-0.00002943,-0.00379114,0.00328388,0.00439596,-0.00005023,
 -0.00038360,0.00043780,-0.00004049,0.00015220,-0.00007949,-0.00002864,
 -0.00003761,0.00002205,-0.00991393,-0.00813998,0.00487706,0.00121080,-
 0.00172583,-0.00281133,0.01525444,0.02274698,-0.04535220,-0.01433783,-
 0.02809617,0.03653486,-0.00148126,-0.00001006,-0.00022791,0.00020715,-
 0.00000352,-0.00003575,-0.01525022,-0.02590461,0.01078302,0.00178910,-
 0.00193520,0.00172931,-0.00027855,0.00044005,-0.00034968,0.00019967,-0
 .00010157,0.00015869,0.03038562,0.03048269,-0.00918058,-0.00425133,0.0
 0128266,-0.00399644,-0.12977999,0.04538144,-0.04297650,0.00605813,-0.0
 2282301,0.01258506,0.70734357,-0.00026354,0.00036541,-0.00029299,-0.00
 001559,-0.00011814,0.00004521,-0.02664418,-0.05599762,0.01932038,-0.00
 223073,-0.00308871,0.00055164,0.00111237,-0.00032351,0.00043775,-0.000
 12141,0.00047243,-0.00014616,0.08201470,-0.00024758,0.02658822,0.00057
 289,0.00260247,0.00256625,-0.02455526,-0.27910892,0.10597615,0.0039041
 3,-0.01171076,0.00919029,0.02948800,0.56664131,-0.00017150,-0.00029754
 ,-0.00014674,0.00004675,0.00011892,0.00007619,0.01102997,0.01911372,-0
 .01223304,0.00179559,0.00066586,-0.00059473,-0.00058497,0.00028776,-0.
 00029296,-0.00001060,-0.00015942,0.00028139,-0.03593112,0.01219437,-0.
 00996436,-0.00353889,0.00268590,0.00476301,-0.00650373,0.12598105,-0.1
 2894358,-0.00135251,0.00148370,0.00247885,0.14691819,-0.21758714,0.287
 88827,0.00108587,-0.00039348,0.00032527,-0.00004226,0.00017587,0.00001
 751,0.02640985,0.08230499,-0.03877518,0.00325485,0.00200564,-0.0018728
 4,-0.00070708,0.00072610,-0.00006619,-0.00012193,-0.00036771,0.0000359
 1,-0.08254732,-0.01384922,-0.01421863,-0.00157293,-0.00033226,-0.00013
 094,0.05032588,-0.06991733,0.04903211,0.00200573,0.00035620,-0.0018607
 3,-0.26357470,-0.07401145,-0.01866500,0.62462588,-0.00254260,0.0001530
 0,-0.00064920,0.00038924,0.00022062,-0.00008401,0.02495086,0.00071107,
 0.01174621,0.00241737,-0.00282640,0.00558462,0.00009944,0.00067983,-0.
 00099650,0.00019882,-0.00021424,0.00023589,-0.01464144,-0.00403037,-0.
 00533779,-0.00036658,0.00055210,-0.00075579,-0.01066274,-0.03850837,0.
 02042765,0.00032211,-0.00137633,0.00481382,-0.13991324,-0.16969561,0.0
 1717435,0.07104766,0.42300285,0.00140825,-0.00019673,0.00047870,-0.000
 19193,-0.00015551,-0.00005548,-0.00845417,0.02850708,-0.00721007,-0.00
 203059,0.00534599,0.00308036,0.00017774,-0.00101957,-0.00081141,-0.000
 11987,0.00015448,0.00004115,-0.01379631,-0.00511838,-0.00750390,-0.000
 07079,-0.00074785,-0.00035535,0.01795361,0.00373801,0.00962953,-0.0017
 9630,0.00481418,0.00465741,0.01575642,0.03594132,-0.07523091,0.1066336
 4,-0.14201696,0.21828902,-0.00297885,-0.00041669,-0.00031768,0.0006584
 4,0.00024878,-0.00002722,-0.12245396,-0.01923693,-0.00609232,0.0026592
 9,0.02044011,-0.01079554,-0.00522322,0.00190825,-0.00335958,-0.0002732
 0,-0.00066099,0.00046294,0.04856783,-0.01581379,0.02032223,-0.00345559
 ,-0.00417962,-0.00086953,-0.02860739,0.03045612,-0.02270028,0.00009753
 ,0.00097501,-0.00013576,-0.05221539,-0.04186689,0.00528997,-0.29464805
 ,0.06943363,-0.10099067,0.69772238,-0.00187953,-0.00251792,0.00065036,
 -0.00045033,-0.00035183,0.00004818,0.03678484,-0.26207156,0.11521498,0
 .00890037,-0.00189535,0.00459967,-0.00149505,0.00144373,-0.00049643,-0
 .00040890,-0.00034552,-0.00001312,-0.06132243,-0.03784052,0.00521536,-
 0.00384301,0.00078706,0.00237004,0.03039548,-0.03527054,0.02464076,0.0
 0105211,-0.00070789,0.00009627,0.00759756,0.05389537,-0.02261448,0.004
 00165,-0.11280286,0.02692368,0.10324002,0.57916749,0.00052152,0.000965
 01,-0.00095651,0.00041332,0.00015735,-0.00011218,-0.03579586,0.0993211
 9,-0.12436517,-0.00502940,0.00811968,-0.00314629,-0.00099209,0.0004966
 4,0.00063768,0.00000848,-0.00008128,0.00012164,0.04431182,0.01807370,0
 .00821865,-0.00107460,0.00223937,0.00603502,-0.02274555,0.02456403,-0.
 02400740,-0.00023284,0.00011492,-0.00110076,-0.02056027,-0.03680425,0.
 01978744,-0.06649222,0.04565292,-0.10519944,0.10237031,-0.20179377,0.2
 7276602,-0.00151817,0.00035047,-0.00055629,-0.00005564,-0.00003307,0.0
 0004488,0.00671787,0.00241893,-0.00007801,0.00093277,0.00134300,0.0003
 1044,-0.00011663,-0.00049163,0.00015145,0.00005005,-0.00002582,0.00005
 150,0.00170928,0.00098019,-0.00211221,0.00035215,0.00030822,-0.0001012
 3,-0.00001228,0.00103511,-0.00025509,-0.00008740,0.00004769,0.00022197
 ,-0.00288242,0.00160747,-0.00348623,-0.01646587,-0.01664504,0.00315313
 ,-0.23824827,-0.14069158,0.01799332,0.24999222,0.00023020,0.00058232,-
 0.00040756,0.00022125,0.00036395,-0.00019775,-0.02028481,-0.01185222,0
 .00178015,-0.00175675,-0.00240051,-0.00063370,0.00028723,0.00068707,-0
 .00006499,-0.00011862,0.00002432,-0.00009957,0.00076305,-0.00216401,0.
 00530300,-0.00107815,-0.00063672,0.00012217,0.00075216,-0.00047075,-0.
 00009657,0.00002446,-0.00016475,-0.00041783,0.00167900,0.00136382,0.00
 322630,0.00941166,0.00723998,0.00056456,-0.14236236,-0.15813888,0.0223
 6645,0.15069924,0.16486927,-0.00035370,-0.00034230,-0.00012600,-0.0000
 7818,-0.00025983,-0.00010190,0.01166084,0.00809805,0.00141982,0.002047
 04,0.00016681,-0.00249147,-0.00036580,-0.00009580,0.00049860,0.0000745
 6,-0.00007279,0.00001841,-0.00205155,0.00533368,0.00413259,0.00062620,
 0.00051914,0.00009612,-0.00013384,-0.00000597,-0.00107161,0.00024110,-
 0.00040354,-0.00068820,-0.00353901,0.00316545,0.00394814,-0.01049167,-
 0.00678524,0.00391765,0.01896176,0.02278078,-0.04618784,-0.01634617,-0
 .03022809,0.03814936,-0.00002432,0.00005631,-0.00006160,0.00001645,0.0
 0002062,-0.00000140,0.00036551,-0.00053754,0.00077549,-0.00020176,0.00
 000718,0.00016139,0.00000424,0.00003096,-0.00003016,0.00001172,-0.0000
 1071,0.00000164,0.00218986,-0.00081886,-0.00109579,0.00001544,-0.00013
 735,0.00008407,0.00280832,-0.00140250,0.00028954,0.00022208,0.00076835
 ,0.00087295,-0.28034356,0.06781823,-0.10385216,-0.01668121,0.00929515,
 -0.01037364,-0.00205387,-0.00432246,-0.00013338,-0.00069829,0.00047039
 ,-0.00044446,0.29363247,0.00001353,0.00011113,-0.00001940,0.00000957,0
 .00001032,-0.00000586,-0.00045397,-0.00110546,-0.00026828,0.00009426,-
 0.00039239,-0.00015411,0.00006471,0.00016343,-0.00005559,-0.00012519,0
 .00003120,-0.00005939,-0.00096244,-0.00278537,0.00513465,0.00120192,-0
 .00037627,0.00053635,0.02419736,-0.00194585,0.01010691,0.00021651,-0.0
 0014589,-0.00208175,0.07043114,-0.07542806,0.03944378,-0.01740522,0.00
 715902,-0.00719686,-0.00411464,-0.00088209,0.00267792,-0.00076963,0.00
 049016,-0.00046940,-0.07186560,0.07506419,-0.00000783,0.00000412,0.000
 07784,-0.00000009,0.00000285,-0.00000537,0.00069109,-0.00033506,-0.001
 00108,0.00012992,-0.00019619,-0.00063114,-0.00005321,-0.00004748,0.000
 02507,0.00005474,0.00000854,0.00006327,-0.00103909,0.00517171,0.004586
 52,-0.00061569,0.00013994,-0.00028404,-0.01304111,0.00285881,-0.000841
 13,0.00116540,-0.00191188,-0.00294153,-0.10527322,0.03866898,-0.087994
 41,0.00359307,0.00038792,0.00365913,-0.00022322,0.00259584,0.00498831,
 0.00019746,-0.00011405,0.00012254,0.11331347,-0.04624625,0.08153535,-0
 .00021772,-0.00004143,-0.00004426,0.00002837,0.00000474,0.00000225,-0.
 00299397,-0.00204490,-0.00104921,0.00058304,0.00036321,-0.00001416,-0.
 00036987,0.00028865,-0.00028943,-0.00000342,-0.00007951,0.00006241,0.0
 0140906,0.00044703,0.00036286,0.00017518,0.00015813,0.00020595,-0.0024
 0868,-0.00035352,-0.00179341,0.00008716,-0.00052508,0.00028520,0.00407
 417,-0.01680875,0.00901623,-0.03134670,0.00661735,-0.00725853,0.000452
 32,0.02244124,-0.01256255,0.00033064,0.00106204,0.00019288,0.00073690,
 -0.00053230,0.00110832,0.02946352,0.00136665,0.00052766,0.00004645,-0.
 00013601,-0.00008640,0.00002141,0.00339087,0.00370203,0.00139331,-0.00
 273306,-0.00071907,-0.00035095,0.00111054,-0.00054986,0.00064676,-0.00
 022988,0.00029502,-0.00028523,0.00065102,-0.00162784,0.00068919,0.0001
 8385,-0.00029347,-0.00024597,-0.00554830,0.00252605,-0.00047184,0.0003
 4141,-0.00106700,0.00067424,0.00390867,-0.02962191,0.01828287,0.006246
 89,-0.11026429,0.05046256,0.00194997,-0.02246871,0.01393014,-0.0001335
 4,0.00020695,-0.00140094,0.00062782,0.00003193,-0.00098780,-0.01099690
 ,0.15940890,-0.00077652,-0.00026605,0.00001195,0.00007916,0.00004896,-
 0.00000454,-0.00392590,-0.00011282,0.00369441,0.00157954,0.00048338,0.
 00017040,-0.00065298,0.00031592,-0.00047614,0.00012853,-0.00017066,0.0
 0016049,0.00027792,0.00059421,-0.00101056,0.00019277,-0.00023245,-0.00
 065794,0.00093617,0.00098807,0.00433117,-0.00016837,0.00043799,-0.0002
 2675,-0.00179133,0.01237891,-0.00382255,-0.00706411,0.05060211,-0.0473
 8638,-0.00189542,0.01978189,-0.00747916,0.00081107,-0.00110252,-0.0016
 3622,0.00049402,-0.00134273,-0.00135933,0.01177545,-0.08240420,0.05569
 115\\0.00000090,0.00000378,-0.00000695,0.00000200,0.00000561,-0.000007
 84,0.00000056,0.00000077,-0.00000038,0.00000210,0.00000359,-0.00000234
 ,0.00000457,0.00000601,0.00000029,0.00000545,0.00000580,0.00000338,0.0
 0000139,0.00000007,0.00000429,0.00000326,0.00000170,0.00000681,-0.0000
 0004,-0.00000235,0.00000591,0.00000066,-0.00000275,0.00000950,-0.00000
 192,-0.00000448,0.00000297,-0.00000339,-0.00000374,-0.00000193,-0.0000
 0180,-0.00000111,-0.00000356,-0.00000264,-0.00000079,-0.00000723,-0.00
 000437,-0.00000593,0.00000349,-0.00000673,-0.00000618,-0.00000641\\\@
 The archive entry for this job was punched.


 It is also a good rule not to put too much confidence in
 experimental results until they have been confirmed by
 Theory.
                             -- Sir Arthur Eddington
 Job cpu time:       0 days  0 hours 42 minutes 37.1 seconds.
 Elapsed time:       0 days  0 hours  1 minutes 21.9 seconds.
 File lengths (MBytes):  RWF=    145 Int=      0 D2E=      0 Chk=      8 Scr=      1
 Normal termination of Gaussian 16 at Wed Apr 30 04:42:19 2025.
