/home/tahminaafroz
cn011.cluster.local
tahminaafroz
Sat Apr 26 20:07:39 CDT 2025
 Entering Gaussian System, Link 0=g16
 Initial command:
 /home/apps/g16/l1.exe "/tmp/3-cl-phboh2-opt-freq-thf/Gau-1411278.inp" -scrdir="/tmp/3-cl-phboh2-opt-freq-thf/"
 Entering Link 1 = /home/apps/g16/l1.exe PID=   1411279.
  
 Copyright (c) 1988-2019, Gaussian, Inc.  All Rights Reserved.
  
 This is part of the Gaussian(R) 16 program.  It is based on
 the Gaussian(R) 09 system (copyright 2009, Gaussian, Inc.),
 the Gaussian(R) 03 system (copyright 2003, Gaussian, Inc.),
 the Gaussian(R) 98 system (copyright 1998, Gaussian, Inc.),
 the Gaussian(R) 94 system (copyright 1995, Gaussian, Inc.),
 the Gaussian 92(TM) system (copyright 1992, Gaussian, Inc.),
 the Gaussian 90(TM) system (copyright 1990, Gaussian, Inc.),
 the Gaussian 88(TM) system (copyright 1988, Gaussian, Inc.),
 the Gaussian 86(TM) system (copyright 1986, Carnegie Mellon
 University), and the Gaussian 82(TM) system (copyright 1983,
 Carnegie Mellon University). Gaussian is a federally registered
 trademark of Gaussian, Inc.
  
 This software contains proprietary and confidential information,
 including trade secrets, belonging to Gaussian, Inc.
  
 This software is provided under written license and may be
 used, copied, transmitted, or stored only in accord with that
 written license.
  
 The following legend is applicable only to US Government
 contracts under FAR:
  
                    RESTRICTED RIGHTS LEGEND
  
 Use, reproduction and disclosure by the US Government is
 subject to restrictions as set forth in subparagraphs (a)
 and (c) of the Commercial Computer Software - Restricted
 Rights clause in FAR 52.227-19.
  
 Gaussian, Inc.
 340 Quinnipiac St., Bldg. 40, Wallingford CT 06492
  
  
 ---------------------------------------------------------------
 Warning -- This program may not be used in any manner that
 competes with the business of Gaussian, Inc. or will provide
 assistance to any competitor of Gaussian, Inc.  The licensee
 of this program is prohibited from giving any competitor of
 Gaussian, Inc. access to this program.  By using this program,
 the user acknowledges that Gaussian, Inc. is engaged in the
 business of creating and licensing software in the field of
 computational chemistry and represents and warrants to the
 licensee that it is not a competitor of Gaussian, Inc. and that
 it will not use this program in any manner prohibited above.
 ---------------------------------------------------------------
  

 Cite this work as:
 Gaussian 16, Revision C.01,
 M. J. Frisch, G. W. Trucks, H. B. Schlegel, G. E. Scuseria, 
 M. A. Robb, J. R. Cheeseman, G. Scalmani, V. Barone, 
 G. A. Petersson, H. Nakatsuji, X. Li, M. Caricato, A. V. Marenich, 
 J. Bloino, B. G. Janesko, R. Gomperts, B. Mennucci, H. P. Hratchian, 
 J. V. Ortiz, A. F. Izmaylov, J. L. Sonnenberg, D. Williams-Young, 
 F. Ding, F. Lipparini, F. Egidi, J. Goings, B. Peng, A. Petrone, 
 T. Henderson, D. Ranasinghe, V. G. Zakrzewski, J. Gao, N. Rega, 
 G. Zheng, W. Liang, M. Hada, M. Ehara, K. Toyota, R. Fukuda, 
 J. Hasegawa, M. Ishida, T. Nakajima, Y. Honda, O. Kitao, H. Nakai, 
 T. Vreven, K. Throssell, J. A. Montgomery, Jr., J. E. Peralta, 
 F. Ogliaro, M. J. Bearpark, J. J. Heyd, E. N. Brothers, K. N. Kudin, 
 V. N. Staroverov, T. A. Keith, R. Kobayashi, J. Normand, 
 K. Raghavachari, A. P. Rendell, J. C. Burant, S. S. Iyengar, 
 J. Tomasi, M. Cossi, J. M. Millam, M. Klene, C. Adamo, R. Cammi, 
 J. W. Ochterski, R. L. Martin, K. Morokuma, O. Farkas, 
 J. B. Foresman, and D. J. Fox, Gaussian, Inc., Wallingford CT, 2019.
 
 ******************************************
 Gaussian 16:  AS64L-G16RevC.01  3-Jul-2019
                26-Apr-2025 
 ******************************************
 %mem=20GB
 %nprocshared=32
 Will use up to   32 processors via shared memory.
 %chk=3-cl-phboh2-opt-freq-thf.chk
 ----------------------------------------------------------------------
 # opt=(calcfc,tight) freq 6-311+g(d,p) scrf=(smd,solvent=thf) nosymm s
 cf=(qc,fermi,xqc) geom=connectivity int=ultrafine m062x
 ----------------------------------------------------------------------
 1/7=10,10=4,18=20,19=15,26=6,38=1,57=2/1,3;
 2/9=110,12=2,15=1,17=6,18=5,40=1/2;
 3/5=4,6=6,7=111,11=2,25=1,30=1,70=32201,71=2,72=20,74=-55,75=-5,140=1/1,2,3;
 4//1;
 5/5=2,22=13,38=5,53=20/2;
 8/6=4,10=90,11=11/1;
 11/6=1,8=1,9=11,15=111,16=1,31=1/1,2,10;
 10/6=1,13=1,31=1/2;
 6/7=2,8=2,9=2,10=2,28=1/1;
 7/10=1,25=1,30=1/1,2,3,16;
 1/7=10,10=4,18=20,19=15,26=6/3(2);
 2/9=110,15=1/2;
 99//99;
 2/9=110,15=1/2;
 3/5=4,6=6,7=111,11=2,25=1,30=1,70=32205,71=1,72=20,74=-55,75=-5/1,2,3;
 4/5=5,16=3,69=1/1;
 5/5=2,22=13,38=5,53=20/2;
 7/30=1/1,2,3,16;
 1/7=10,18=20,19=15,26=6/3(-5);
 2/9=110,15=1/2;
 6/7=2,8=2,9=2,10=2,19=2,28=1/1;
 99/9=1/99;
 ------------------------
 3-cl-phboh2-opt-freq-thf
 ------------------------
 Symbolic Z-matrix:
 Charge =  0 Multiplicity = 1
 O                     8.68486   7.45508   5.53239 
 H                     9.49973   7.15212   5.9431 
 C                     6.24016   6.99491   5.17144 
 B                     7.6406    6.6159    5.77105 
 O                     7.87431   5.4967    6.52041 
 H                     7.10227   4.95226   6.6816 
 C                     5.118     6.16932   5.287 
 H                     5.18332   5.2142    5.80017 
 C                     3.89292   6.54198   4.7456 
 H                     3.03142   5.89228   4.84168 
 C                     3.76644   7.75259   4.07445 
 C                     4.88066   8.57394   3.95576 
 C                     6.10685   8.2103    4.49113 
 H                     6.96244   8.86624   4.3842 
 H                     2.82063   8.06      3.64666 
 Cl                    4.72852   10.09361   3.11174 
 

 GradGradGradGradGradGradGradGradGradGradGradGradGradGradGradGradGradGrad
 Berny optimization.
 Initialization pass.
                           ----------------------------
                           !    Initial Parameters    !
                           ! (Angstroms and Degrees)  !
 --------------------------                            --------------------------
 ! Name  Definition              Value          Derivative Info.                !
 --------------------------------------------------------------------------------
 ! R1    R(1,2)                  0.9615         calculate D2E/DX2 analytically  !
 ! R2    R(1,4)                  1.3608         calculate D2E/DX2 analytically  !
 ! R3    R(3,4)                  1.5698         calculate D2E/DX2 analytically  !
 ! R4    R(3,7)                  1.3979         calculate D2E/DX2 analytically  !
 ! R5    R(3,13)                 1.3992         calculate D2E/DX2 analytically  !
 ! R6    R(4,5)                  1.367          calculate D2E/DX2 analytically  !
 ! R7    R(5,6)                  0.9584         calculate D2E/DX2 analytically  !
 ! R8    R(7,8)                  1.0862         calculate D2E/DX2 analytically  !
 ! R9    R(7,9)                  1.3903         calculate D2E/DX2 analytically  !
 ! R10   R(9,10)                 1.0833         calculate D2E/DX2 analytically  !
 ! R11   R(9,11)                 1.39           calculate D2E/DX2 analytically  !
 ! R12   R(11,12)                1.3893         calculate D2E/DX2 analytically  !
 ! R13   R(11,15)                1.0826         calculate D2E/DX2 analytically  !
 ! R14   R(12,13)                1.3865         calculate D2E/DX2 analytically  !
 ! R15   R(12,16)                1.745          calculate D2E/DX2 analytically  !
 ! R16   R(13,14)                1.0834         calculate D2E/DX2 analytically  !
 ! A1    A(2,1,4)              112.4046         calculate D2E/DX2 analytically  !
 ! A2    A(4,3,7)              122.8162         calculate D2E/DX2 analytically  !
 ! A3    A(4,3,13)             118.7127         calculate D2E/DX2 analytically  !
 ! A4    A(7,3,13)             118.4711         calculate D2E/DX2 analytically  !
 ! A5    A(1,4,3)              117.9512         calculate D2E/DX2 analytically  !
 ! A6    A(1,4,5)              118.0237         calculate D2E/DX2 analytically  !
 ! A7    A(3,4,5)              124.0249         calculate D2E/DX2 analytically  !
 ! A8    A(4,5,6)              114.808          calculate D2E/DX2 analytically  !
 ! A9    A(3,7,8)              120.6699         calculate D2E/DX2 analytically  !
 ! A10   A(3,7,9)              121.1217         calculate D2E/DX2 analytically  !
 ! A11   A(8,7,9)              118.2078         calculate D2E/DX2 analytically  !
 ! A12   A(7,9,10)             120.3628         calculate D2E/DX2 analytically  !
 ! A13   A(7,9,11)             120.1114         calculate D2E/DX2 analytically  !
 ! A14   A(10,9,11)            119.5257         calculate D2E/DX2 analytically  !
 ! A15   A(9,11,12)            118.8929         calculate D2E/DX2 analytically  !
 ! A16   A(9,11,15)            121.1716         calculate D2E/DX2 analytically  !
 ! A17   A(12,11,15)           119.9354         calculate D2E/DX2 analytically  !
 ! A18   A(11,12,13)           121.4147         calculate D2E/DX2 analytically  !
 ! A19   A(11,12,16)           119.0947         calculate D2E/DX2 analytically  !
 ! A20   A(13,12,16)           119.4906         calculate D2E/DX2 analytically  !
 ! A21   A(3,13,12)            119.9875         calculate D2E/DX2 analytically  !
 ! A22   A(3,13,14)            119.9114         calculate D2E/DX2 analytically  !
 ! A23   A(12,13,14)           120.1011         calculate D2E/DX2 analytically  !
 ! D1    D(2,1,4,3)            179.3864         calculate D2E/DX2 analytically  !
 ! D2    D(2,1,4,5)             -0.4642         calculate D2E/DX2 analytically  !
 ! D3    D(7,3,4,1)            176.1675         calculate D2E/DX2 analytically  !
 ! D4    D(7,3,4,5)             -3.9917         calculate D2E/DX2 analytically  !
 ! D5    D(13,3,4,1)            -3.8007         calculate D2E/DX2 analytically  !
 ! D6    D(13,3,4,5)           176.0402         calculate D2E/DX2 analytically  !
 ! D7    D(4,3,7,8)             -0.5034         calculate D2E/DX2 analytically  !
 ! D8    D(4,3,7,9)            179.8007         calculate D2E/DX2 analytically  !
 ! D9    D(13,3,7,8)           179.4649         calculate D2E/DX2 analytically  !
 ! D10   D(13,3,7,9)            -0.2311         calculate D2E/DX2 analytically  !
 ! D11   D(4,3,13,12)         -179.7367         calculate D2E/DX2 analytically  !
 ! D12   D(4,3,13,14)            0.2223         calculate D2E/DX2 analytically  !
 ! D13   D(7,3,13,12)            0.2938         calculate D2E/DX2 analytically  !
 ! D14   D(7,3,13,14)         -179.7472         calculate D2E/DX2 analytically  !
 ! D15   D(1,4,5,6)            178.2798         calculate D2E/DX2 analytically  !
 ! D16   D(3,4,5,6)             -1.561          calculate D2E/DX2 analytically  !
 ! D17   D(3,7,9,10)           179.9497         calculate D2E/DX2 analytically  !
 ! D18   D(3,7,9,11)             0.0431         calculate D2E/DX2 analytically  !
 ! D19   D(8,7,9,10)             0.2465         calculate D2E/DX2 analytically  !
 ! D20   D(8,7,9,11)          -179.6601         calculate D2E/DX2 analytically  !
 ! D21   D(7,9,11,12)            0.0833         calculate D2E/DX2 analytically  !
 ! D22   D(7,9,11,15)         -179.9714         calculate D2E/DX2 analytically  !
 ! D23   D(10,9,11,12)        -179.8241         calculate D2E/DX2 analytically  !
 ! D24   D(10,9,11,15)           0.1212         calculate D2E/DX2 analytically  !
 ! D25   D(9,11,12,13)          -0.0178         calculate D2E/DX2 analytically  !
 ! D26   D(9,11,12,16)         179.8904         calculate D2E/DX2 analytically  !
 ! D27   D(15,11,12,13)       -179.9638         calculate D2E/DX2 analytically  !
 ! D28   D(15,11,12,16)         -0.0556         calculate D2E/DX2 analytically  !
 ! D29   D(11,12,13,3)          -0.1741         calculate D2E/DX2 analytically  !
 ! D30   D(11,12,13,14)        179.867          calculate D2E/DX2 analytically  !
 ! D31   D(16,12,13,3)         179.9181         calculate D2E/DX2 analytically  !
 ! D32   D(16,12,13,14)         -0.0408         calculate D2E/DX2 analytically  !
 --------------------------------------------------------------------------------
 Trust Radius=3.00D-01 FncErr=5.00D-06 GrdErr=5.00D-06 EigMax=2.50D+02 EigMin=1.00D-04
 Number of steps in this run=     81 maximum allowed number of steps=    100.
 GradGradGradGradGradGradGradGradGradGradGradGradGradGradGradGradGradGrad

                          Input orientation:                          
 ---------------------------------------------------------------------
 Center     Atomic      Atomic             Coordinates (Angstroms)
 Number     Number       Type             X           Y           Z
 ---------------------------------------------------------------------
      1          8           0        8.684862    7.455081    5.532389
      2          1           0        9.499727    7.152123    5.943104
      3          6           0        6.240158    6.994906    5.171436
      4          5           0        7.640596    6.615898    5.771047
      5          8           0        7.874311    5.496698    6.520410
      6          1           0        7.102267    4.952257    6.681604
      7          6           0        5.118004    6.169316    5.287001
      8          1           0        5.183323    5.214205    5.800165
      9          6           0        3.892921    6.541978    4.745599
     10          1           0        3.031420    5.892282    4.841684
     11          6           0        3.766438    7.752593    4.074447
     12          6           0        4.880659    8.573941    3.955763
     13          6           0        6.106850    8.210304    4.491129
     14          1           0        6.962439    8.866236    4.384202
     15          1           0        2.820634    8.060003    3.646664
     16         17           0        4.728516   10.093611    3.111739
 ---------------------------------------------------------------------
                    Distance matrix (angstroms):
                    1          2          3          4          5
     1  O    0.000000
     2  H    0.961496   0.000000
     3  C    2.513688   3.353353   0.000000
     4  B    1.360763   1.942552   1.569843   0.000000
     5  O    2.338470   2.390751   2.595152   1.367032   0.000000
     6  H    3.176386   3.336556   2.682584   1.971450   0.958359
     7  C    3.799458   4.538268   1.397921   2.607145   3.093694
     8  H    4.165814   4.733635   2.164046   2.829096   2.799995
     9  C    4.941204   5.765637   2.428169   3.886139   4.482637
    10  H    5.905999   6.681266   3.408888   4.757293   5.140837
    11  C    5.138580   6.059954   2.810118   4.379455   5.286437
    12  C    4.267266   5.225599   2.412354   3.840109   5.000879
    13  C    2.881099   3.839218   1.399207   2.555914   3.821722
    14  H    2.505281   3.436014   2.154833   2.728966   4.092515
    15  H    6.189593   7.120967   3.892622   5.461728   6.353629
    16  Cl   5.336109   6.279605   4.016141   5.258005   6.530442
                    6          7          8          9         10
     6  H    0.000000
     7  C    2.713568   0.000000
     8  H    2.127886   1.086205   0.000000
     9  C    4.071269   1.390259   2.130781   0.000000
    10  H    4.565167   2.151485   2.451359   1.083292   0.000000
    11  C    5.076111   2.409104   3.380692   1.389975   2.142349
    12  C    5.048004   2.758759   3.844639   2.393395   3.375772
    13  C    4.050174   2.403510   3.397512   2.783801   3.867090
    14  H    4.540577   3.389744   4.302039   3.867134   4.950414
    15  H    6.099289   3.397545   4.280004   2.159133   2.484254
    16  Cl   6.694188   4.503727   5.589552   3.997726   4.850156
                   11         12         13         14         15
    11  C    0.000000
    12  C    1.389312   0.000000
    13  C    2.420878   1.386504   0.000000
    14  H    3.398613   2.145415   1.083380   0.000000
    15  H    1.082610   2.145548   3.396311   4.283518   0.000000
    16  Cl   2.707908   1.744970   2.710972   2.848864   2.839317
                   16
    16  Cl   0.000000
 Symmetry turned off by external request.
 Stoichiometry    C6H6BClO2
 Framework group  C1[X(C6H6BClO2)]
 Deg. of freedom    42
 Full point group                 C1      NOp   1
 Rotational constants (GHZ):           2.1337378           0.6704968           0.5103812
 Standard basis: 6-311+G(d,p) (5D, 7F)
   264 basis functions,   425 primitive gaussians,   274 cartesian basis functions
    40 alpha electrons       40 beta electrons
       nuclear repulsion energy       538.3845790745 Hartrees.
 NAtoms=   16 NActive=   16 NUniq=   16 SFac= 1.00D+00 NAtFMM=   60 NAOKFM=F Big=F
 Integral buffers will be    131072 words long.
 Raffenetti 2 integral format.
 Two-electron integral symmetry is turned off.
 Force inversion solution in PCM.
 ------------------------------------------------------------------------------
 Polarizable Continuum Model (PCM)
 =================================
 Model                : PCM.
 Atomic radii         : SMD-Coulomb.
 Polarization charges : Total charges.
 Charge compensation  : None.
 Solution method      : Matrix inversion.
 Cavity type          : VdW (van der Waals Surface) (Alpha=1.000).
 Cavity algorithm     : GePol (No added spheres)
                        Default sphere list used, NSphG=   16.
                        Lebedev-Laikov grids with approx.  5.0 points / Ang**2.
                        Smoothing algorithm: York/Karplus (Gamma=1.0000).
                        Polarization charges: spherical gaussians, with
                                              point-specific exponents (IZeta= 3).
                        Self-potential: point-specific (ISelfS= 7).
                        Self-field    : sphere-specific E.n sum rule (ISelfD= 2).
 1st derivatives      : Analytical E(r).r(x)/FMM algorithm (CHGder, D1EAlg=3).
                        Cavity 1st derivative terms included.
 2nd derivatives      : Analytical E(r).r(xy)/FMM algorithm (CHGder, D2EAlg=3).
                        Cavity 2nd derivative terms included.
 Solvent              : TetraHydroFuran, Eps=   7.425700 Eps(inf)=   1.974025
 ------------------------------------------------------------------------------
 Spheres list:
 ISph  on   Nord     Re0    Alpha      Xe            Ye            Ze
    1   O      1    2.2940  1.000      8.684862      7.455081      5.532389
    2   H      2    1.2000  1.000      9.499727      7.152123      5.943104
    3   C      3    1.8500  1.000      6.240158      6.994906      5.171436
    4   B      4    1.8000  1.000      7.640596      6.615898      5.771047
    5   O      5    2.2940  1.000      7.874311      5.496698      6.520410
    6   H      6    1.2000  1.000      7.102267      4.952257      6.681604
    7   C      7    1.8500  1.000      5.118004      6.169316      5.287001
    8   H      8    1.2000  1.000      5.183323      5.214205      5.800165
    9   C      9    1.8500  1.000      3.892921      6.541978      4.745599
   10   H     10    1.2000  1.000      3.031420      5.892282      4.841684
   11   C     11    1.8500  1.000      3.766438      7.752593      4.074447
   12   C     12    1.8500  1.000      4.880659      8.573941      3.955763
   13   C     13    1.8500  1.000      6.106850      8.210304      4.491129
   14   H     14    1.2000  1.000      6.962439      8.866236      4.384202
   15   H     15    1.2000  1.000      2.820634      8.060003      3.646664
   16  Cl     16    2.3800  1.000      4.728516     10.093611      3.111739
 ------------------------------------------------------------------------------
 ------------------------------------------------------------------------------
 Atomic radii for non-electrostatic terms: SMD-CDS.
 ------------------------------------------------------------------------------
 Nuclear repulsion after PCM non-electrostatic terms =      538.3798614161 Hartrees.
 One-electron integrals computed using PRISM.
 NBasis=   264 RedAO= T EigKep=  2.19D-06  NBF=   264
 NBsUse=   264 1.00D-06 EigRej= -1.00D+00 NBFU=   264
 ExpMin= 3.15D-02 ExpMax= 1.06D+05 ExpMxC= 3.62D+03 IAcc=3 IRadAn=         5 AccDes= 0.00D+00
 Harris functional with IExCor= 1009 and IRadAn=       5 diagonalized for initial guess.
 HarFok:  IExCor= 1009 AccDes= 0.00D+00 IRadAn=         5 IDoV= 1 UseB2=F ITyADJ=14
 ICtDFT=  3500011 ScaDFX=  1.000000  1.000000  1.000000  1.000000
 FoFCou: FMM=F IPFlag=           0 FMFlag=      100000 FMFlg1=           0
         NFxFlg=           0 DoJE=T BraDBF=F KetDBF=T FulRan=T
         wScrn=  0.000000 ICntrl=       500 IOpCl=  0 I1Cent=   200000004 NGrid=           0
         NMat0=    1 NMatS0=      1 NMatT0=    0 NMatD0=    1 NMtDS0=    0 NMtDT0=    0
 Symmetry not used in FoFCou.
 Requested convergence on RMS density matrix=1.00D-08 within 128 cycles.
 Requested convergence on MAX density matrix=1.00D-06.
 Requested convergence on             energy=1.00D-06.
 Level shift goal  0.100 maximum shift  0.100.
 No special actions if energy rises.
 Dynamic level shift is on during FON iterations.
 Inv3:  Mode=1 IEnd=     7834368.
 Iteration    1 A*A^-1 deviation from unit magnitude is 3.11D-15 for   1605.
 Iteration    1 A*A^-1 deviation from orthogonality  is 1.60D-15 for    193     96.
 Iteration    1 A^-1*A deviation from unit magnitude is 3.11D-15 for   1605.
 Iteration    1 A^-1*A deviation from orthogonality  is 1.37D-15 for    848     81.
 Error on total polarization charges =  0.01943
 SCF Done:  E(RM062X) =  -867.839957552     A.U. after   14 cycles
            NFock= 14  Conv=0.92D-08     -V/T= 2.0028
 SMD-CDS (non-electrostatic) energy       (kcal/mol) =      -2.96
 (included in total energy above)
 DoSCS=F DFT=T ScalE2(SS,OS)=  1.000000  1.000000
 Range of M.O.s used for correlation:     1   264
 NBasis=   264 NAE=    40 NBE=    40 NFC=     0 NFV=     0
 NROrb=    264 NOA=    40 NOB=    40 NVA=   224 NVB=   224

 **** Warning!!: The largest alpha MO coefficient is  0.17224892D+03

 Symmetrizing basis deriv contribution to polar:
 IMax=3 JMax=2 DiffMx= 0.00D+00
 G2DrvN: will do    17 centers at a time, making    1 passes.
 Calling FoFCou, ICntrl=  3107 FMM=F I1Cent=   0 AccDes= 0.00D+00.
 NEqPCM:  Using equilibrium solvation (IEInf=0, Eps=   7.4257, EpsInf=   1.9740)
 G2PCM: DoFxE=T DoFxN=T DoGrad=T DoDP/DQ/DG/TGxP=FFFF NFrqRd=   0 IEInf=0 SqF1=F DoCFld=F IF1Alg=4.
 End of G2Drv F.D. properties file   721 does not exist.
 End of G2Drv F.D. properties file   722 does not exist.
 End of G2Drv F.D. properties file   788 does not exist.
          IDoAtm=1111111111111111
 NEqPCM:  Using equilibrium solvation (IEInf=0, Eps=   7.4257, EpsInf=   1.9740)
          Differentiating once with respect to nuclear coordinates.
 Keep R1 ints in memory in canonical form, NReq=647109706.
          There are    51 degrees of freedom in the 1st order CPHF.  IDoFFX=6 NUNeed=     0.
     45 vectors produced by pass  0 Test12= 1.76D-14 1.96D-09 XBig12= 2.25D-01 1.54D-01.
 AX will form    45 AO Fock derivatives at one time.
     45 vectors produced by pass  1 Test12= 1.76D-14 1.96D-09 XBig12= 1.08D-02 3.42D-02.
     45 vectors produced by pass  2 Test12= 1.76D-14 1.96D-09 XBig12= 3.49D-04 3.71D-03.
     45 vectors produced by pass  3 Test12= 1.76D-14 1.96D-09 XBig12= 2.43D-06 2.46D-04.
     45 vectors produced by pass  4 Test12= 1.76D-14 1.96D-09 XBig12= 1.79D-08 2.00D-05.
     45 vectors produced by pass  5 Test12= 1.76D-14 1.96D-09 XBig12= 9.44D-11 1.20D-06.
     43 vectors produced by pass  6 Test12= 1.76D-14 1.96D-09 XBig12= 4.50D-13 8.34D-08.
     10 vectors produced by pass  7 Test12= 1.76D-14 1.96D-09 XBig12= 1.74D-15 4.04D-09.
 InvSVY:  IOpt=1 It=  1 EMax= 3.89D-16
 Solved reduced A of dimension   323 with    51 vectors.
 End of Minotr F.D. properties file   721 does not exist.
 End of Minotr F.D. properties file   722 does not exist.
 End of Minotr F.D. properties file   788 does not exist.

 **********************************************************************

            Population analysis using the SCF Density.

 **********************************************************************

 Alpha  occ. eigenvalues -- -102.67939 -19.63869 -19.63366 -10.61042 -10.55966
 Alpha  occ. eigenvalues --  -10.55721 -10.55535 -10.55417 -10.54084  -9.82221
 Alpha  occ. eigenvalues --   -7.54721  -7.54068  -7.54056  -7.08806  -1.17042
 Alpha  occ. eigenvalues --   -1.13390  -1.00244  -0.94167  -0.85859  -0.83257
 Alpha  occ. eigenvalues --   -0.70812  -0.69288  -0.65269  -0.62883  -0.59579
 Alpha  occ. eigenvalues --   -0.54582  -0.53232  -0.51052  -0.49956  -0.48708
 Alpha  occ. eigenvalues --   -0.46809  -0.45960  -0.45703  -0.41884  -0.40770
 Alpha  occ. eigenvalues --   -0.40524  -0.40099  -0.37715  -0.32261  -0.30631
 Alpha virt. eigenvalues --   -0.01298  -0.00049   0.00705   0.01963   0.02125
 Alpha virt. eigenvalues --    0.03100   0.03570   0.04080   0.05495   0.06199
 Alpha virt. eigenvalues --    0.07076   0.07933   0.08305   0.08854   0.10331
 Alpha virt. eigenvalues --    0.10904   0.11794   0.12323   0.12890   0.12981
 Alpha virt. eigenvalues --    0.13459   0.14417   0.14720   0.15646   0.16398
 Alpha virt. eigenvalues --    0.17031   0.17587   0.18372   0.18580   0.19488
 Alpha virt. eigenvalues --    0.19729   0.21350   0.21555   0.22661   0.22883
 Alpha virt. eigenvalues --    0.23267   0.23802   0.24142   0.24398   0.24798
 Alpha virt. eigenvalues --    0.25233   0.25843   0.26862   0.27594   0.28653
 Alpha virt. eigenvalues --    0.29190   0.30140   0.31597   0.33161   0.34251
 Alpha virt. eigenvalues --    0.35409   0.35655   0.36428   0.39741   0.42417
 Alpha virt. eigenvalues --    0.44364   0.45723   0.47908   0.48192   0.48730
 Alpha virt. eigenvalues --    0.50173   0.50489   0.51145   0.52105   0.55687
 Alpha virt. eigenvalues --    0.56881   0.56946   0.59151   0.59678   0.60478
 Alpha virt. eigenvalues --    0.61564   0.62315   0.64086   0.64697   0.66883
 Alpha virt. eigenvalues --    0.67601   0.69689   0.70568   0.71414   0.72343
 Alpha virt. eigenvalues --    0.73086   0.74074   0.78300   0.79368   0.84325
 Alpha virt. eigenvalues --    0.85164   0.86413   0.86813   0.87686   0.89317
 Alpha virt. eigenvalues --    0.90300   0.92015   0.92703   0.92961   0.94443
 Alpha virt. eigenvalues --    0.95490   0.99107   1.00422   1.01110   1.03330
 Alpha virt. eigenvalues --    1.05915   1.06798   1.07947   1.08577   1.09659
 Alpha virt. eigenvalues --    1.11717   1.11762   1.12699   1.16901   1.18211
 Alpha virt. eigenvalues --    1.18825   1.20978   1.26091   1.30280   1.33104
 Alpha virt. eigenvalues --    1.33213   1.34838   1.35956   1.40411   1.46022
 Alpha virt. eigenvalues --    1.48480   1.49307   1.51228   1.54029   1.56438
 Alpha virt. eigenvalues --    1.60445   1.60936   1.61908   1.63766   1.66091
 Alpha virt. eigenvalues --    1.68542   1.70416   1.71924   1.76115   1.77562
 Alpha virt. eigenvalues --    1.79250   1.80105   1.86131   1.88739   1.93378
 Alpha virt. eigenvalues --    1.94608   1.95448   1.96424   1.97001   2.01797
 Alpha virt. eigenvalues --    2.02522   2.03950   2.06830   2.09011   2.12054
 Alpha virt. eigenvalues --    2.16268   2.16705   2.21050   2.26324   2.30774
 Alpha virt. eigenvalues --    2.33571   2.36091   2.42115   2.44215   2.45126
 Alpha virt. eigenvalues --    2.54058   2.56105   2.57573   2.58961   2.61352
 Alpha virt. eigenvalues --    2.64333   2.65917   2.67696   2.71784   2.72740
 Alpha virt. eigenvalues --    2.76534   2.78180   2.79981   2.81089   2.84216
 Alpha virt. eigenvalues --    2.85742   2.86289   2.90469   2.93739   2.95465
 Alpha virt. eigenvalues --    3.07110   3.11107   3.13566   3.24027   3.24070
 Alpha virt. eigenvalues --    3.26666   3.27657   3.31669   3.39786   3.42479
 Alpha virt. eigenvalues --    3.45998   3.52429   3.56559   3.60390   3.64290
 Alpha virt. eigenvalues --    3.66328   3.81086   3.91713   3.96152   4.04975
 Alpha virt. eigenvalues --    4.10084   4.17266   4.19986   4.85632   5.08138
 Alpha virt. eigenvalues --    5.09098   5.39349   5.49789   5.69006   5.76981
 Alpha virt. eigenvalues --    9.97173  14.79375  23.62987  23.98713  24.04110
 Alpha virt. eigenvalues --   24.13972  24.15751  24.25092  25.93365  26.24258
 Alpha virt. eigenvalues --   26.72490  50.00186  50.05469 216.07269
          Condensed to atoms (all electrons):
               1          2          3          4          5          6
     1  O    7.782471   0.284557   0.057940   0.444368  -0.125940   0.017486
     2  H    0.284557   0.415642   0.035560  -0.005836  -0.031495   0.002869
     3  C    0.057940   0.035560   9.053734   0.238368  -0.129950  -0.010190
     4  B    0.444368  -0.005836   0.238368   3.322625   0.368071   0.015863
     5  O   -0.125940  -0.031495  -0.129950   0.368071   7.996464   0.267214
     6  H    0.017486   0.002869  -0.010190   0.015863   0.267214   0.394784
     7  C    0.073042  -0.005586  -0.503435   0.100842  -0.044381  -0.028198
     8  H    0.001640  -0.000033  -0.005085   0.009639  -0.004746   0.008440
     9  C    0.056687   0.004417  -0.540141   0.072963  -0.028295   0.053478
    10  H   -0.000035   0.000000   0.010141  -0.000644   0.000348  -0.000061
    11  C   -0.034951  -0.001631  -1.112416  -0.008750   0.025073  -0.003748
    12  C   -0.046044  -0.020019  -2.015291  -0.048928   0.108459  -0.018826
    13  C   -0.121550  -0.007789   1.616844  -0.009794  -0.007483   0.017485
    14  H    0.006771  -0.000009   0.075412  -0.008061   0.002396  -0.000085
    15  H    0.000024   0.000000   0.016533   0.000170  -0.000011  -0.000001
    16  Cl   0.001218   0.000236  -0.005546  -0.000111  -0.000972   0.000073
               7          8          9         10         11         12
     1  O    0.073042   0.001640   0.056687  -0.000035  -0.034951  -0.046044
     2  H   -0.005586  -0.000033   0.004417   0.000000  -0.001631  -0.020019
     3  C   -0.503435  -0.005085  -0.540141   0.010141  -1.112416  -2.015291
     4  B    0.100842   0.009639   0.072963  -0.000644  -0.008750  -0.048928
     5  O   -0.044381  -0.004746  -0.028295   0.000348   0.025073   0.108459
     6  H   -0.028198   0.008440   0.053478  -0.000061  -0.003748  -0.018826
     7  C   10.139366   0.357346  -0.613936   0.014849   0.561679  -0.511780
     8  H    0.357346   0.480632  -0.005977  -0.005170  -0.018123   0.004821
     9  C   -0.613936  -0.005977   7.674705   0.381747   1.646583  -1.452994
    10  H    0.014849  -0.005170   0.381747   0.456692  -0.003256  -0.002984
    11  C    0.561679  -0.018123   1.646583  -0.003256  14.792768   0.275721
    12  C   -0.511780   0.004821  -1.452994  -0.002984   0.275721  17.446119
    13  C   -3.417321   0.000450  -1.121409  -0.045182  -9.885567  -7.481087
    14  H   -0.008745  -0.000038   0.001025   0.000045   0.038378   0.059819
    15  H   -0.042737  -0.000162   0.001909  -0.005824   0.238267   0.086256
    16  Cl   0.055206   0.000660   0.175691   0.000980   0.011231  -1.255644
              13         14         15         16
     1  O   -0.121550   0.006771   0.000024   0.001218
     2  H   -0.007789  -0.000009   0.000000   0.000236
     3  C    1.616844   0.075412   0.016533  -0.005546
     4  B   -0.009794  -0.008061   0.000170  -0.000111
     5  O   -0.007483   0.002396  -0.000011  -0.000972
     6  H    0.017485  -0.000085  -0.000001   0.000073
     7  C   -3.417321  -0.008745  -0.042737   0.055206
     8  H    0.000450  -0.000038  -0.000162   0.000660
     9  C   -1.121409   0.001025   0.001909   0.175691
    10  H   -0.045182   0.000045  -0.005824   0.000980
    11  C   -9.885567   0.038378   0.238267   0.011231
    12  C   -7.481087   0.059819   0.086256  -1.255644
    13  C   26.366717   0.186779   0.054870   0.394576
    14  H    0.186779   0.438155  -0.000237  -0.008584
    15  H    0.054870  -0.000237   0.442822  -0.004412
    16  Cl   0.394576  -0.008584  -0.004412  17.363747
 Mulliken charges:
               1
     1  O   -0.397687
     2  H    0.329117
     3  C   -0.782477
     4  B    0.509216
     5  O   -0.394751
     6  H    0.283417
     7  C   -0.126212
     8  H    0.175705
     9  C   -0.306453
    10  H    0.198355
    11  C   -0.521258
    12  C    0.872402
    13  C   -0.540539
    14  H    0.216981
    15  H    0.212532
    16  Cl   0.271651
 Sum of Mulliken charges =   0.00000
 Mulliken charges with hydrogens summed into heavy atoms:
               1
     1  O   -0.068569
     3  C   -0.782477
     4  B    0.509216
     5  O   -0.111335
     7  C    0.049494
     9  C   -0.108098
    11  C   -0.308726
    12  C    0.872402
    13  C   -0.323558
    16  Cl   0.271651
 APT charges:
               1
     1  O   -0.550160
     2  H    2.088363
     3  C   -2.468354
     4  B   -0.312305
     5  O    1.213159
     6  H   -1.185344
     7  C   -0.298534
     8  H   -0.164909
     9  C   -0.262635
    10  H   -0.795884
    11  C    0.200246
    12  C    1.983566
    13  C   -0.858594
    14  H    1.980663
    15  H   -0.109642
    16  Cl  -0.459636
 Sum of APT charges =   0.00000
 APT charges with hydrogens summed into heavy atoms:
               1
     1  O    1.538203
     3  C   -2.468354
     4  B   -0.312305
     5  O    0.027815
     7  C   -0.463442
     9  C   -1.058520
    11  C    0.090605
    12  C    1.983566
    13  C    1.122069
    16  Cl  -0.459636
 Electronic spatial extent (au):  <R**2>=          34830.2980
 Charge=              0.0000 electrons
 Dipole moment (field-independent basis, Debye):
    X=             -1.0093    Y=             -3.3024    Z=              1.6518  Tot=              3.8279
 Quadrupole moment (field-independent basis, Debye-Ang):
   XX=            -69.2209   YY=           -113.2315   ZZ=            -51.1322
   XY=            -22.8700   XZ=              5.9521   YZ=             -5.0732
 Traceless Quadrupole moment (field-independent basis, Debye-Ang):
   XX=              8.6406   YY=            -35.3699   ZZ=             26.7293
   XY=            -22.8700   XZ=              5.9521   YZ=             -5.0732
 Octapole moment (field-independent basis, Debye-Ang**2):
  XXX=          -1086.2877  YYY=          -2045.1984  ZZZ=           -822.2592  XYY=           -657.6265
  XXY=           -599.6421  XXZ=           -253.3901  XZZ=           -303.7532  YZZ=           -491.1643
  YYZ=           -455.0507  XYZ=            -34.7504
 Hexadecapole moment (field-independent basis, Debye-Ang**3):
 XXXX=         -12901.1679 YYYY=         -29632.6090 ZZZZ=          -8520.7696 XXXY=          -8455.7011
 XXXZ=          -4786.8771 YYYX=         -11473.6195 YYYZ=          -8689.7194 ZZZX=          -4982.7815
 ZZZY=          -6585.2097 XXYY=          -7632.3772 XXZZ=          -3310.6489 YYZZ=          -6007.0519
 XXYZ=          -2192.9839 YYXZ=          -2622.5282 ZZXY=          -2710.9320
 N-N= 5.383798614161D+02 E-N=-3.123235902077D+03  KE= 8.654001128839D+02
  Exact polarizability:       0.000       0.000       0.000       0.000       0.000       0.000
 Approx polarizability:     132.599       3.956     133.230      14.199     -30.582      94.496
 D2PCM: PCM CHGder 2nd derivatives, FixD1E=F FixD2E=F DoIter=F DoCFld=F I1PDM=0
 Calling FoFJK, ICntrl=    100127 FMM=F ISym2X=0 I1Cent= 0 IOpClX= 0 NMat=1 NMatS=1 NMatT=0.
 -------------------------------------------------------------------
 Center     Atomic                   Forces (Hartrees/Bohr)
 Number     Number              X              Y              Z
 -------------------------------------------------------------------
      1        8          -0.000953374    0.001810880   -0.001465559
      2        1           0.002545196   -0.000718785    0.001135899
      3        6          -0.000445524    0.000354662   -0.000355809
      4        5          -0.000458873   -0.001992419    0.001195958
      5        8           0.002675420    0.002692523   -0.001019046
      6        1          -0.002949261   -0.002181244    0.000550541
      7        6           0.000206393   -0.001352401    0.000637824
      8        1          -0.000093548    0.000039444    0.000166804
      9        6          -0.000011044    0.000149757   -0.000096738
     10        1          -0.000164982   -0.000064670   -0.000038938
     11        6          -0.000508174    0.001231182   -0.000767494
     12        6           0.000446680   -0.003465133    0.001939443
     13        6           0.000427522    0.000960308   -0.000397900
     14        1           0.000090757    0.000475198   -0.000162466
     15        1          -0.000708798   -0.000344406    0.000001906
     16       17          -0.000098389    0.002405103   -0.001324425
 -------------------------------------------------------------------
 Cartesian Forces:  Max     0.003465133 RMS     0.001293358
 FormGI is forming the generalized inverse of G from B-inverse, IUseBI=4.

 GradGradGradGradGradGradGradGradGradGradGradGradGradGradGradGradGradGrad
 Berny optimization.
 Internal  Forces:  Max     0.003718102 RMS     0.000773571
 Search for a local minimum.
 Step number   1 out of a maximum of   81
 All quantities printed in internal units (Hartrees-Bohrs-Radians)
 Mixed Optimization -- En-DIIS/RFO-DIIS
 Second derivative matrix not updated -- analytic derivatives used.
 ITU=  0
     Eigenvalues ---    0.00115   0.01001   0.01253   0.01460   0.01675
     Eigenvalues ---    0.01785   0.02164   0.02443   0.02597   0.02708
     Eigenvalues ---    0.02853   0.03152   0.03855   0.10524   0.10930
     Eigenvalues ---    0.11291   0.11590   0.12040   0.12463   0.15892
     Eigenvalues ---    0.16381   0.18020   0.18519   0.19078   0.19828
     Eigenvalues ---    0.20092   0.27084   0.28141   0.29486   0.35976
     Eigenvalues ---    0.36600   0.36721   0.36881   0.39042   0.42617
     Eigenvalues ---    0.42876   0.47882   0.48151   0.49413   0.52095
     Eigenvalues ---    0.54633   0.55686
 RFO step:  Lambda=-1.41387811D-04 EMin= 1.15220643D-03
 Linear search not attempted -- first point.
 Iteration  1 RMS(Cart)=  0.02746637 RMS(Int)=  0.00034126
 Iteration  2 RMS(Cart)=  0.00049311 RMS(Int)=  0.00000232
 Iteration  3 RMS(Cart)=  0.00000014 RMS(Int)=  0.00000232
 Variable       Old X    -DE/DX   Delta X   Delta X   Delta X     New X
                                 (Linear)    (Quad)   (Total)
    R1        1.81696   0.00287   0.00000   0.00516   0.00516   1.82213
    R2        2.57147   0.00194   0.00000   0.00446   0.00446   2.57593
    R3        2.96657   0.00101   0.00000   0.00480   0.00480   2.97137
    R4        2.64169   0.00090   0.00000   0.00203   0.00203   2.64372
    R5        2.64412   0.00093   0.00000   0.00194   0.00194   2.64606
    R6        2.58332  -0.00071   0.00000  -0.00255  -0.00255   2.58077
    R7        1.81104   0.00372   0.00000   0.00667   0.00667   1.81771
    R8        2.05263   0.00004   0.00000  -0.00039  -0.00039   2.05224
    R9        2.62721   0.00085   0.00000   0.00162   0.00162   2.62883
   R10        2.04712   0.00016   0.00000   0.00056   0.00056   2.04769
   R11        2.62667   0.00056   0.00000   0.00152   0.00152   2.62819
   R12        2.62542   0.00030   0.00000  -0.00081  -0.00081   2.62461
   R13        2.04584   0.00052   0.00000   0.00105   0.00105   2.04689
   R14        2.62011   0.00016   0.00000  -0.00044  -0.00044   2.61967
   R15        3.29752   0.00275   0.00000   0.01360   0.01360   3.31112
   R16        2.04729   0.00038   0.00000   0.00078   0.00078   2.04807
    A1        1.96183   0.00040   0.00000   0.00169   0.00169   1.96352
    A2        2.14355  -0.00053   0.00000  -0.00173  -0.00173   2.14182
    A3        2.07193   0.00046   0.00000   0.00174   0.00174   2.07366
    A4        2.06771   0.00006   0.00000  -0.00001  -0.00001   2.06770
    A5        2.05864   0.00013   0.00000  -0.00231  -0.00231   2.05633
    A6        2.05990   0.00016   0.00000   0.00105   0.00105   2.06095
    A7        2.16464  -0.00029   0.00000   0.00127   0.00127   2.16591
    A8        2.00378   0.00005   0.00000   0.00059   0.00059   2.00437
    A9        2.10609   0.00022   0.00000   0.00234   0.00233   2.10842
   A10        2.11397  -0.00031   0.00000  -0.00067  -0.00067   2.11330
   A11        2.06312   0.00009   0.00000  -0.00165  -0.00165   2.06146
   A12        2.10073  -0.00012   0.00000  -0.00091  -0.00091   2.09982
   A13        2.09634   0.00040   0.00000   0.00247   0.00247   2.09881
   A14        2.08612  -0.00028   0.00000  -0.00156  -0.00156   2.08456
   A15        2.07507  -0.00061   0.00000  -0.00510  -0.00510   2.06997
   A16        2.11484  -0.00029   0.00000  -0.00270  -0.00270   2.11214
   A17        2.09327   0.00090   0.00000   0.00780   0.00780   2.10107
   A18        2.11909   0.00087   0.00000   0.00630   0.00630   2.12539
   A19        2.07859  -0.00019   0.00000  -0.00198  -0.00198   2.07661
   A20        2.08550  -0.00069   0.00000  -0.00431  -0.00431   2.08119
   A21        2.09418  -0.00042   0.00000  -0.00298  -0.00298   2.09120
   A22        2.09285   0.00055   0.00000   0.00423   0.00423   2.09707
   A23        2.09616  -0.00013   0.00000  -0.00125  -0.00125   2.09491
    D1        3.13088   0.00004   0.00000   0.00795   0.00795   3.13884
    D2       -0.00810  -0.00003   0.00000   0.00535   0.00535  -0.00275
    D3        3.07470   0.00001   0.00000   0.04364   0.04364   3.11834
    D4       -0.06967   0.00009   0.00000   0.04641   0.04641  -0.02326
    D5       -0.06633   0.00001   0.00000   0.04450   0.04450  -0.02184
    D6        3.07248   0.00009   0.00000   0.04727   0.04727   3.11975
    D7       -0.00879   0.00009   0.00000   0.00738   0.00738  -0.00140
    D8        3.13811   0.00003   0.00000   0.00257   0.00257   3.14069
    D9        3.13225   0.00009   0.00000   0.00652   0.00652   3.13877
   D10       -0.00403   0.00003   0.00000   0.00171   0.00171  -0.00232
   D11       -3.13700  -0.00003   0.00000  -0.00418  -0.00418  -3.14117
   D12        0.00388  -0.00003   0.00000  -0.00352  -0.00351   0.00037
   D13        0.00513  -0.00003   0.00000  -0.00336  -0.00335   0.00177
   D14       -3.13718  -0.00004   0.00000  -0.00269  -0.00269  -3.13987
   D15        3.11157   0.00013   0.00000   0.01833   0.01833   3.12990
   D16       -0.02724   0.00005   0.00000   0.01556   0.01556  -0.01169
   D17        3.14072   0.00000   0.00000   0.00112   0.00111  -3.14136
   D18        0.00075  -0.00001   0.00000   0.00043   0.00043   0.00118
   D19        0.00430  -0.00006   0.00000  -0.00359  -0.00358   0.00072
   D20       -3.13566  -0.00007   0.00000  -0.00428  -0.00427  -3.13993
   D21        0.00145   0.00000   0.00000  -0.00093  -0.00093   0.00052
   D22       -3.14109   0.00001   0.00000  -0.00046  -0.00046  -3.14156
   D23       -3.13852  -0.00002   0.00000  -0.00161  -0.00161  -3.14013
   D24        0.00212   0.00000   0.00000  -0.00114  -0.00114   0.00097
   D25       -0.00031   0.00000   0.00000  -0.00075  -0.00075  -0.00106
   D26        3.13968   0.00000   0.00000  -0.00069  -0.00069   3.13899
   D27       -3.14096  -0.00001   0.00000  -0.00121  -0.00121   3.14101
   D28       -0.00097  -0.00001   0.00000  -0.00115  -0.00115  -0.00212
   D29       -0.00304   0.00001   0.00000   0.00293   0.00293  -0.00010
   D30        3.13927   0.00002   0.00000   0.00226   0.00227   3.14154
   D31        3.14016   0.00002   0.00000   0.00287   0.00287  -3.14015
   D32       -0.00071   0.00002   0.00000   0.00220   0.00220   0.00149
         Item               Value     Threshold  Converged?
 Maximum Force            0.003718     0.000015     NO 
 RMS     Force            0.000774     0.000010     NO 
 Maximum Displacement     0.124142     0.000060     NO 
 RMS     Displacement     0.027523     0.000040     NO 
 Predicted change in Energy=-7.138009D-05
 GradGradGradGradGradGradGradGradGradGradGradGradGradGradGradGradGradGrad

                          Input orientation:                          
 ---------------------------------------------------------------------
 Center     Atomic      Atomic             Coordinates (Angstroms)
 Number     Number       Type             X           Y           Z
 ---------------------------------------------------------------------
      1          8           0        8.677806    7.477772    5.572078
      2          1           0        9.498454    7.170365    5.974288
      3          6           0        6.239649    6.998344    5.176425
      4          5           0        7.641554    6.616285    5.777327
      5          8           0        7.884125    5.477145    6.490495
      6          1           0        7.118741    4.908208    6.615911
      7          6           0        5.113969    6.177196    5.301926
      8          1           0        5.173113    5.229049    5.828149
      9          6           0        3.889139    6.549439    4.757467
     10          1           0        3.025203    5.903848    4.862318
     11          6           0        3.763606    7.753447    4.072723
     12          6           0        4.882470    8.566699    3.947168
     13          6           0        6.109038    8.208946    4.485023
     14          1           0        6.963840    8.865237    4.370130
     15          1           0        2.815902    8.055498    3.643923
     16         17           0        4.736517   10.083954    3.083032
 ---------------------------------------------------------------------
                    Distance matrix (angstroms):
                    1          2          3          4          5
     1  O    0.000000
     2  H    0.964228   0.000000
     3  C    2.516149   3.359462   0.000000
     4  B    1.363124   1.947787   1.572383   0.000000
     5  O    2.340071   2.395730   2.597138   1.365683   0.000000
     6  H    3.181656   3.345455   2.685813   1.973344   0.961889
     7  C    3.803343   4.545566   1.398996   2.609117   3.094597
     8  H    4.171955   4.743273   2.166253   2.831998   2.801756
     9  C    4.945374   5.773267   2.429390   3.889113   4.484764
    10  H    5.910408   6.689059   3.410168   4.759779   5.142193
    11  C    5.145234   6.069960   2.814095   4.386034   5.292055
    12  C    4.269739   5.231279   2.410964   3.842674   5.002379
    13  C    2.883552   3.845088   1.400232   2.560316   3.825648
    14  H    2.511457   3.445313   2.158669   2.738116   4.101467
    15  H    6.197861   7.132361   3.897202   5.468973   6.359069
    16  Cl   5.340534   6.286845   4.020285   5.265282   6.537655
                    6          7          8          9         10
     6  H    0.000000
     7  C    2.712195   0.000000
     8  H    2.123435   1.085999   0.000000
     9  C    4.071582   1.391117   2.130347   0.000000
    10  H    4.563270   2.151956   2.449836   1.083590   0.000000
    11  C    5.081351   2.412258   3.382428   1.390780   2.142362
    12  C    5.050511   2.756571   3.842197   2.390111   3.373087
    13  C    4.056483   2.405306   3.399960   2.784984   3.868574
    14  H    4.552538   3.393498   4.307480   3.868686   4.952265
    15  H    6.103489   3.399721   4.279731   2.158711   2.481510
    16  Cl   6.704072   4.508738   5.594318   4.001822   4.854662
                   11         12         13         14         15
    11  C    0.000000
    12  C    1.388885   0.000000
    13  C    2.424567   1.386271   0.000000
    14  H    3.400886   2.144790   1.083792   0.000000
    15  H    1.083165   2.150346   3.402315   4.288175   0.000000
    16  Cl   2.712436   1.752169   2.713863   2.846553   2.849210
                   16
    16  Cl   0.000000
 Symmetry turned off by external request.
 Stoichiometry    C6H6BClO2
 Framework group  C1[X(C6H6BClO2)]
 Deg. of freedom    42
 Full point group                 C1      NOp   1
 Rotational constants (GHZ):           2.1297638           0.6693017           0.5092812
 Standard basis: 6-311+G(d,p) (5D, 7F)
   264 basis functions,   425 primitive gaussians,   274 cartesian basis functions
    40 alpha electrons       40 beta electrons
       nuclear repulsion energy       537.8472993646 Hartrees.
 NAtoms=   16 NActive=   16 NUniq=   16 SFac= 1.00D+00 NAtFMM=   60 NAOKFM=F Big=F
 Integral buffers will be    131072 words long.
 Raffenetti 2 integral format.
 Two-electron integral symmetry is turned off.
 ------------------------------------------------------------------------------
 Polarizable Continuum Model (PCM)
 =================================
 Model                : PCM.
 Atomic radii         : SMD-Coulomb.
 Polarization charges : Total charges.
 Charge compensation  : None.
 Solution method      : Matrix inversion.
 Cavity type          : VdW (van der Waals Surface) (Alpha=1.000).
 Cavity algorithm     : GePol (No added spheres)
                        Default sphere list used, NSphG=   16.
                        Lebedev-Laikov grids with approx.  5.0 points / Ang**2.
                        Smoothing algorithm: York/Karplus (Gamma=1.0000).
                        Polarization charges: spherical gaussians, with
                                              point-specific exponents (IZeta= 3).
                        Self-potential: point-specific (ISelfS= 7).
                        Self-field    : sphere-specific E.n sum rule (ISelfD= 2).
 1st derivatives      : Analytical E(r).r(x)/FMM algorithm (CHGder, D1EAlg=3).
                        Cavity 1st derivative terms included.
 Solvent              : TetraHydroFuran, Eps=   7.425700 Eps(inf)=   1.974025
 ------------------------------------------------------------------------------
 Spheres list:
 ISph  on   Nord     Re0    Alpha      Xe            Ye            Ze
    1   O      1    2.2940  1.000      8.677806      7.477772      5.572078
    2   H      2    1.2000  1.000      9.498454      7.170365      5.974288
    3   C      3    1.8500  1.000      6.239649      6.998344      5.176425
    4   B      4    1.8000  1.000      7.641554      6.616285      5.777327
    5   O      5    2.2940  1.000      7.884125      5.477145      6.490495
    6   H      6    1.2000  1.000      7.118741      4.908208      6.615911
    7   C      7    1.8500  1.000      5.113969      6.177196      5.301926
    8   H      8    1.2000  1.000      5.173113      5.229049      5.828149
    9   C      9    1.8500  1.000      3.889139      6.549439      4.757467
   10   H     10    1.2000  1.000      3.025203      5.903848      4.862318
   11   C     11    1.8500  1.000      3.763606      7.753447      4.072723
   12   C     12    1.8500  1.000      4.882470      8.566699      3.947168
   13   C     13    1.8500  1.000      6.109038      8.208946      4.485023
   14   H     14    1.2000  1.000      6.963840      8.865237      4.370130
   15   H     15    1.2000  1.000      2.815902      8.055498      3.643923
   16  Cl     16    2.3800  1.000      4.736517     10.083954      3.083032
 ------------------------------------------------------------------------------
 ------------------------------------------------------------------------------
 Atomic radii for non-electrostatic terms: SMD-CDS.
 ------------------------------------------------------------------------------
 Nuclear repulsion after PCM non-electrostatic terms =      537.8425831264 Hartrees.
 One-electron integrals computed using PRISM.
 NBasis=   264 RedAO= T EigKep=  2.19D-06  NBF=   264
 NBsUse=   264 1.00D-06 EigRej= -1.00D+00 NBFU=   264
 Initial guess from the checkpoint file:  "3-cl-phboh2-opt-freq-thf.chk"
 B after Tr=     0.015287   -0.031184    0.025736
         Rot=    0.999998    0.001825    0.000928    0.000134 Ang=   0.24 deg.
 ExpMin= 3.15D-02 ExpMax= 1.06D+05 ExpMxC= 3.62D+03 IAcc=3 IRadAn=         5 AccDes= 0.00D+00
 Harris functional with IExCor= 1009 and IRadAn=       5 diagonalized for initial guess.
 HarFok:  IExCor= 1009 AccDes= 0.00D+00 IRadAn=         5 IDoV= 1 UseB2=F ITyADJ=14
 ICtDFT=  3500011 ScaDFX=  1.000000  1.000000  1.000000  1.000000
 FoFCou: FMM=F IPFlag=           0 FMFlag=      100000 FMFlg1=           0
         NFxFlg=           0 DoJE=T BraDBF=F KetDBF=T FulRan=T
         wScrn=  0.000000 ICntrl=       500 IOpCl=  0 I1Cent=   200000004 NGrid=           0
         NMat0=    1 NMatS0=      1 NMatT0=    0 NMatD0=    1 NMtDS0=    0 NMtDT0=    0
 Symmetry not used in FoFCou.
 Requested convergence on RMS density matrix=1.00D-08 within 128 cycles.
 Requested convergence on MAX density matrix=1.00D-06.
 Requested convergence on             energy=1.00D-06.
 Level shift goal  0.100 maximum shift  0.100.
 No special actions if energy rises.
 Dynamic level shift is on during FON iterations.
 Inv3:  Mode=1 IEnd=     7834368.
 Iteration    1 A*A^-1 deviation from unit magnitude is 4.00D-15 for   1605.
 Iteration    1 A*A^-1 deviation from orthogonality  is 1.19D-15 for   1396   1321.
 Iteration    1 A^-1*A deviation from unit magnitude is 3.77D-15 for   1605.
 Iteration    1 A^-1*A deviation from orthogonality  is 1.11D-15 for    335    246.
 Error on total polarization charges =  0.01950
 SCF Done:  E(RM062X) =  -867.840028042     A.U. after   12 cycles
            NFock= 12  Conv=0.77D-08     -V/T= 2.0029
 SMD-CDS (non-electrostatic) energy       (kcal/mol) =      -2.96
 (included in total energy above)
 D1PCM: PCM CHGder 1st derivatives, ID1Alg=3 FixD1E=F DoIter=F DoCFld=F I1PDM=0.
 Calling FoFJK, ICntrl=      2127 FMM=F ISym2X=0 I1Cent= 0 IOpClX= 0 NMat=1 NMatS=1 NMatT=0.
 -------------------------------------------------------------------
 Center     Atomic                   Forces (Hartrees/Bohr)
 Number     Number              X              Y              Z
 -------------------------------------------------------------------
      1        8          -0.000016589    0.000032929   -0.000012601
      2        1           0.000022664   -0.000011060    0.000018264
      3        6           0.000001011   -0.000007782   -0.000017445
      4        5           0.000006547   -0.000003573   -0.000018790
      5        8           0.000058326    0.000044463    0.000057251
      6        1          -0.000059024   -0.000044742   -0.000012423
      7        6          -0.000010906   -0.000006640    0.000018170
      8        1          -0.000006483   -0.000001939   -0.000003952
      9        6           0.000002020   -0.000000235   -0.000014495
     10        1           0.000000684   -0.000002276   -0.000005785
     11        6          -0.000005387    0.000001735   -0.000002946
     12        6           0.000015065   -0.000044826   -0.000003279
     13        6           0.000009941    0.000003727    0.000000754
     14        1          -0.000005499    0.000000893    0.000001792
     15        1          -0.000001651   -0.000004213   -0.000005150
     16       17          -0.000010719    0.000043539    0.000000635
 -------------------------------------------------------------------
 Cartesian Forces:  Max     0.000059024 RMS     0.000021823

 GradGradGradGradGradGradGradGradGradGradGradGradGradGradGradGradGradGrad
 Berny optimization.
 Using GEDIIS/GDIIS optimizer.
 FormGI is forming the generalized inverse of G from B-inverse, IUseBI=4.
 Internal  Forces:  Max     0.000071439 RMS     0.000014456
 Search for a local minimum.
 Step number   2 out of a maximum of   81
 All quantities printed in internal units (Hartrees-Bohrs-Radians)
 Mixed Optimization -- En-DIIS/RFO-DIIS
 Swapping is turned off.
 Update second derivatives using D2CorX and points    1    2
 DE= -7.05D-05 DEPred=-7.14D-05 R= 9.88D-01
 TightC=F SS=  1.41D+00  RLast= 9.85D-02 DXNew= 5.0454D-01 2.9558D-01
 Trust test= 9.88D-01 RLast= 9.85D-02 DXMaxT set to 3.00D-01
 ITU=  1  0
     Eigenvalues ---    0.00120   0.00996   0.01255   0.01461   0.01675
     Eigenvalues ---    0.01785   0.02163   0.02443   0.02598   0.02708
     Eigenvalues ---    0.02853   0.03153   0.03857   0.10524   0.10924
     Eigenvalues ---    0.11289   0.11588   0.12041   0.12464   0.15832
     Eigenvalues ---    0.16307   0.18016   0.18519   0.19073   0.19831
     Eigenvalues ---    0.20093   0.27000   0.28140   0.29476   0.35976
     Eigenvalues ---    0.36599   0.36723   0.36878   0.39030   0.42607
     Eigenvalues ---    0.42872   0.47884   0.48142   0.49377   0.52012
     Eigenvalues ---    0.54308   0.55388
 En-DIIS/RFO-DIIS/Sim-DIIS IScMMF=       -3 using points:     2    1
 RFO step:  Lambda=-5.05972620D-07.
 DidBck=F Rises=F RFO-DIIS coefs:    0.87005    0.12995
 Iteration  1 RMS(Cart)=  0.00389425 RMS(Int)=  0.00000656
 Iteration  2 RMS(Cart)=  0.00000992 RMS(Int)=  0.00000030
 Iteration  3 RMS(Cart)=  0.00000000 RMS(Int)=  0.00000030
 Variable       Old X    -DE/DX   Delta X   Delta X   Delta X     New X
                                 (Linear)    (Quad)   (Total)
    R1        1.82213   0.00003  -0.00067   0.00076   0.00009   1.82222
    R2        2.57593   0.00002  -0.00058   0.00062   0.00004   2.57597
    R3        2.97137   0.00002  -0.00062   0.00062  -0.00001   2.97137
    R4        2.64372   0.00002  -0.00026   0.00031   0.00004   2.64376
    R5        2.64606   0.00001  -0.00025   0.00024  -0.00001   2.64605
    R6        2.58077   0.00002   0.00033  -0.00033   0.00001   2.58077
    R7        1.81771   0.00007  -0.00087   0.00104   0.00018   1.81788
    R8        2.05224   0.00000   0.00005   0.00000   0.00005   2.05229
    R9        2.62883   0.00001  -0.00021   0.00024   0.00003   2.62886
   R10        2.04769   0.00000  -0.00007   0.00008   0.00000   2.04769
   R11        2.62819   0.00000  -0.00020   0.00022   0.00002   2.62822
   R12        2.62461   0.00000   0.00010  -0.00011  -0.00001   2.62460
   R13        2.04689   0.00000  -0.00014   0.00014   0.00001   2.04689
   R14        2.61967   0.00000   0.00006  -0.00007  -0.00001   2.61966
   R15        3.31112   0.00004  -0.00177   0.00197   0.00020   3.31132
   R16        2.04807   0.00000  -0.00010   0.00009  -0.00001   2.04806
    A1        1.96352  -0.00001  -0.00022   0.00013  -0.00009   1.96343
    A2        2.14182   0.00002   0.00022  -0.00031  -0.00009   2.14173
    A3        2.07366  -0.00001  -0.00023   0.00024   0.00001   2.07368
    A4        2.06770   0.00000   0.00000   0.00007   0.00008   2.06777
    A5        2.05633   0.00000   0.00030  -0.00017   0.00013   2.05646
    A6        2.06095   0.00001  -0.00014   0.00026   0.00013   2.06108
    A7        2.16591   0.00000  -0.00016  -0.00009  -0.00026   2.16565
    A8        2.00437  -0.00002  -0.00008  -0.00021  -0.00029   2.00408
    A9        2.10842   0.00001  -0.00030   0.00025  -0.00005   2.10837
   A10        2.11330   0.00000   0.00009  -0.00017  -0.00008   2.11322
   A11        2.06146  -0.00001   0.00021  -0.00008   0.00013   2.06160
   A12        2.09982   0.00000   0.00012  -0.00010   0.00002   2.09984
   A13        2.09881   0.00001  -0.00032   0.00036   0.00004   2.09885
   A14        2.08456   0.00000   0.00020  -0.00026  -0.00005   2.08450
   A15        2.06997   0.00000   0.00066  -0.00068  -0.00002   2.06995
   A16        2.11214   0.00000   0.00035  -0.00038  -0.00003   2.11212
   A17        2.10107   0.00000  -0.00101   0.00106   0.00005   2.10112
   A18        2.12539   0.00000  -0.00082   0.00086   0.00004   2.12543
   A19        2.07661  -0.00001   0.00026  -0.00028  -0.00002   2.07659
   A20        2.08119   0.00000   0.00056  -0.00058  -0.00002   2.08117
   A21        2.09120   0.00000   0.00039  -0.00044  -0.00005   2.09115
   A22        2.09707   0.00000  -0.00055   0.00059   0.00005   2.09712
   A23        2.09491   0.00000   0.00016  -0.00016   0.00000   2.09492
    D1        3.13884   0.00000  -0.00103   0.00014  -0.00089   3.13794
    D2       -0.00275   0.00001  -0.00070   0.00061  -0.00009  -0.00284
    D3        3.11834   0.00000  -0.00567  -0.00024  -0.00591   3.11243
    D4       -0.02326  -0.00001  -0.00603  -0.00074  -0.00677  -0.03002
    D5       -0.02184  -0.00001  -0.00578  -0.00119  -0.00698  -0.02881
    D6        3.11975  -0.00002  -0.00614  -0.00169  -0.00783   3.11192
    D7       -0.00140  -0.00001  -0.00096  -0.00013  -0.00109  -0.00249
    D8        3.14069  -0.00001  -0.00033  -0.00048  -0.00082   3.13987
    D9        3.13877   0.00000  -0.00085   0.00082  -0.00003   3.13875
   D10       -0.00232   0.00000  -0.00022   0.00047   0.00024  -0.00208
   D11       -3.14117   0.00002   0.00054   0.00089   0.00143  -3.13974
   D12        0.00037   0.00000   0.00046   0.00042   0.00087   0.00124
   D13        0.00177   0.00000   0.00044  -0.00002   0.00041   0.00219
   D14       -3.13987  -0.00001   0.00035  -0.00049  -0.00015  -3.14001
   D15        3.12990   0.00001  -0.00238   0.00267   0.00028   3.13019
   D16       -0.01169   0.00002  -0.00202   0.00316   0.00114  -0.01054
   D17       -3.14136   0.00000  -0.00014  -0.00021  -0.00035   3.14148
   D18        0.00118  -0.00001  -0.00006  -0.00056  -0.00061   0.00057
   D19        0.00072   0.00000   0.00047  -0.00055  -0.00009   0.00063
   D20       -3.13993  -0.00001   0.00055  -0.00090  -0.00035  -3.14028
   D21        0.00052   0.00001   0.00012   0.00019   0.00031   0.00083
   D22       -3.14156   0.00001   0.00006   0.00046   0.00052  -3.14104
   D23       -3.14013   0.00000   0.00021  -0.00016   0.00005  -3.14008
   D24        0.00097   0.00000   0.00015   0.00011   0.00026   0.00123
   D25       -0.00106   0.00000   0.00010   0.00026   0.00035  -0.00071
   D26        3.13899   0.00002   0.00009   0.00085   0.00094   3.13993
   D27        3.14101   0.00000   0.00016  -0.00001   0.00015   3.14116
   D28       -0.00212   0.00001   0.00015   0.00058   0.00073  -0.00139
   D29       -0.00010  -0.00001  -0.00038  -0.00034  -0.00072  -0.00083
   D30        3.14154   0.00001  -0.00029   0.00013  -0.00016   3.14137
   D31       -3.14015  -0.00002  -0.00037  -0.00093  -0.00131  -3.14146
   D32        0.00149  -0.00001  -0.00029  -0.00046  -0.00075   0.00074
         Item               Value     Threshold  Converged?
 Maximum Force            0.000071     0.000015     NO 
 RMS     Force            0.000014     0.000010     NO 
 Maximum Displacement     0.016073     0.000060     NO 
 RMS     Displacement     0.003894     0.000040     NO 
 Predicted change in Energy=-2.529956D-07
 GradGradGradGradGradGradGradGradGradGradGradGradGradGradGradGradGradGrad

                          Input orientation:                          
 ---------------------------------------------------------------------
 Center     Atomic      Atomic             Coordinates (Angstroms)
 Number     Number       Type             X           Y           Z
 ---------------------------------------------------------------------
      1          8           0        8.679542    7.474518    5.566485
      2          1           0        9.499726    7.167783    5.970266
      3          6           0        6.240054    6.997725    5.175167
      4          5           0        7.641766    6.616046    5.776748
      5          8           0        7.882300    5.480346    6.496073
      6          1           0        7.115672    4.913582    6.624416
      7          6           0        5.114699    6.175957    5.299778
      8          1           0        5.174332    5.227180    5.824865
      9          6           0        3.889777    6.548320    4.755571
     10          1           0        3.026129    5.902172    4.859387
     11          6           0        3.763653    7.753320    4.072656
     12          6           0        4.882141    8.567272    3.948329
     13          6           0        6.108999    8.209117    4.485244
     14          1           0        6.963506    8.865932    4.371202
     15          1           0        2.815735    8.055636    3.644511
     16         17           0        4.735095   10.086526    3.087684
 ---------------------------------------------------------------------
                    Distance matrix (angstroms):
                    1          2          3          4          5
     1  O    0.000000
     2  H    0.964276   0.000000
     3  C    2.516260   3.359548   0.000000
     4  B    1.363145   1.947788   1.572379   0.000000
     5  O    2.340182   2.395826   2.596960   1.365686   0.000000
     6  H    3.181714   3.345601   2.685271   1.973246   0.961983
     7  C    3.803354   4.545519   1.399020   2.609071   3.094287
     8  H    4.171785   4.743007   2.166265   2.831872   2.801376
     9  C    4.945430   5.773279   2.429368   3.889063   4.484435
    10  H    5.910444   6.689042   3.410172   4.759756   5.141894
    11  C    5.145408   6.070116   2.814075   4.386010   5.291749
    12  C    4.269988   5.231529   2.410921   3.842647   5.002106
    13  C    2.883819   3.845348   1.400229   2.560320   3.825470
    14  H    2.511875   3.445741   2.158689   2.738172   4.101396
    15  H    6.198058   7.132543   3.897185   5.468952   6.358743
    16  Cl   5.340946   6.287293   4.020346   5.265363   6.537501
                    6          7          8          9         10
     6  H    0.000000
     7  C    2.711485   0.000000
     8  H    2.122835   1.086025   0.000000
     9  C    4.070792   1.391132   2.130465   0.000000
    10  H    4.562566   2.151982   2.450008   1.083592   0.000000
    11  C    5.080514   2.412307   3.382548   1.390793   2.142344
    12  C    5.049709   2.756608   3.842262   2.390104   3.373065
    13  C    4.055860   2.405377   3.400020   2.785008   3.868600
    14  H    4.552054   3.393569   4.307528   3.868705   4.952286
    15  H    6.102606   3.399756   4.279847   2.158709   2.481451
    16  Cl   6.703356   4.508882   5.594492   4.001914   4.854721
                   11         12         13         14         15
    11  C    0.000000
    12  C    1.388881   0.000000
    13  C    2.424588   1.386266   0.000000
    14  H    3.400896   2.144784   1.083787   0.000000
    15  H    1.083168   2.150375   3.402349   4.288201   0.000000
    16  Cl   2.712512   1.752274   2.713937   2.846592   2.849301
                   16
    16  Cl   0.000000
 Symmetry turned off by external request.
 Stoichiometry    C6H6BClO2
 Framework group  C1[X(C6H6BClO2)]
 Deg. of freedom    42
 Full point group                 C1      NOp   1
 Rotational constants (GHZ):           2.1296768           0.6692870           0.5092839
 Standard basis: 6-311+G(d,p) (5D, 7F)
   264 basis functions,   425 primitive gaussians,   274 cartesian basis functions
    40 alpha electrons       40 beta electrons
       nuclear repulsion energy       537.8418885168 Hartrees.
 NAtoms=   16 NActive=   16 NUniq=   16 SFac= 1.00D+00 NAtFMM=   60 NAOKFM=F Big=F
 Integral buffers will be    131072 words long.
 Raffenetti 2 integral format.
 Two-electron integral symmetry is turned off.
 ------------------------------------------------------------------------------
 Polarizable Continuum Model (PCM)
 =================================
 Model                : PCM.
 Atomic radii         : SMD-Coulomb.
 Polarization charges : Total charges.
 Charge compensation  : None.
 Solution method      : Matrix inversion.
 Cavity type          : VdW (van der Waals Surface) (Alpha=1.000).
 Cavity algorithm     : GePol (No added spheres)
                        Default sphere list used, NSphG=   16.
                        Lebedev-Laikov grids with approx.  5.0 points / Ang**2.
                        Smoothing algorithm: York/Karplus (Gamma=1.0000).
                        Polarization charges: spherical gaussians, with
                                              point-specific exponents (IZeta= 3).
                        Self-potential: point-specific (ISelfS= 7).
                        Self-field    : sphere-specific E.n sum rule (ISelfD= 2).
 1st derivatives      : Analytical E(r).r(x)/FMM algorithm (CHGder, D1EAlg=3).
                        Cavity 1st derivative terms included.
 Solvent              : TetraHydroFuran, Eps=   7.425700 Eps(inf)=   1.974025
 ------------------------------------------------------------------------------
 Spheres list:
 ISph  on   Nord     Re0    Alpha      Xe            Ye            Ze
    1   O      1    2.2940  1.000      8.679542      7.474518      5.566485
    2   H      2    1.2000  1.000      9.499726      7.167783      5.970266
    3   C      3    1.8500  1.000      6.240054      6.997725      5.175167
    4   B      4    1.8000  1.000      7.641766      6.616046      5.776748
    5   O      5    2.2940  1.000      7.882300      5.480346      6.496073
    6   H      6    1.2000  1.000      7.115672      4.913582      6.624416
    7   C      7    1.8500  1.000      5.114699      6.175957      5.299778
    8   H      8    1.2000  1.000      5.174332      5.227180      5.824865
    9   C      9    1.8500  1.000      3.889777      6.548320      4.755571
   10   H     10    1.2000  1.000      3.026129      5.902172      4.859387
   11   C     11    1.8500  1.000      3.763653      7.753320      4.072656
   12   C     12    1.8500  1.000      4.882141      8.567272      3.948329
   13   C     13    1.8500  1.000      6.108999      8.209117      4.485244
   14   H     14    1.2000  1.000      6.963506      8.865932      4.371202
   15   H     15    1.2000  1.000      2.815735      8.055636      3.644511
   16  Cl     16    2.3800  1.000      4.735095     10.086526      3.087684
 ------------------------------------------------------------------------------
 ------------------------------------------------------------------------------
 Atomic radii for non-electrostatic terms: SMD-CDS.
 ------------------------------------------------------------------------------
 Nuclear repulsion after PCM non-electrostatic terms =      537.8371720773 Hartrees.
 One-electron integrals computed using PRISM.
 NBasis=   264 RedAO= T EigKep=  2.19D-06  NBF=   264
 NBsUse=   264 1.00D-06 EigRej= -1.00D+00 NBFU=   264
 Initial guess from the checkpoint file:  "3-cl-phboh2-opt-freq-thf.chk"
 B after Tr=    -0.000978    0.005498   -0.005905
         Rot=    1.000000   -0.000322   -0.000100   -0.000040 Ang=  -0.04 deg.
 Requested convergence on RMS density matrix=1.00D-08 within 128 cycles.
 Requested convergence on MAX density matrix=1.00D-06.
 Requested convergence on             energy=1.00D-06.
 Level shift goal  0.100 maximum shift  0.100.
 No special actions if energy rises.
 Dynamic level shift is on during FON iterations.
 Inv3:  Mode=1 IEnd=     7785963.
 Iteration    1 A*A^-1 deviation from unit magnitude is 2.89D-15 for   1579.
 Iteration    1 A*A^-1 deviation from orthogonality  is 1.95D-15 for   1610    514.
 Iteration    1 A^-1*A deviation from unit magnitude is 2.89D-15 for   1579.
 Iteration    1 A^-1*A deviation from orthogonality  is 1.65D-15 for    484    315.
 Error on total polarization charges =  0.01949
 SCF Done:  E(RM062X) =  -867.840028208     A.U. after    9 cycles
            NFock=  9  Conv=0.59D-08     -V/T= 2.0029
 SMD-CDS (non-electrostatic) energy       (kcal/mol) =      -2.96
 (included in total energy above)
 D1PCM: PCM CHGder 1st derivatives, ID1Alg=3 FixD1E=F DoIter=F DoCFld=F I1PDM=0.
 Calling FoFJK, ICntrl=      2127 FMM=F ISym2X=0 I1Cent= 0 IOpClX= 0 NMat=1 NMatS=1 NMatT=0.
 -------------------------------------------------------------------
 Center     Atomic                   Forces (Hartrees/Bohr)
 Number     Number              X              Y              Z
 -------------------------------------------------------------------
      1        8           0.000003625   -0.000005123    0.000015204
      2        1          -0.000013689    0.000009750   -0.000000012
      3        6           0.000001283    0.000001591    0.000004910
      4        5          -0.000001814    0.000011214    0.000002563
      5        8          -0.000015499   -0.000016248   -0.000006935
      6        1           0.000017158    0.000016042    0.000005445
      7        6           0.000002334    0.000005252   -0.000006377
      8        1           0.000004263   -0.000000031   -0.000001552
      9        6           0.000000646   -0.000004644   -0.000000685
     10        1           0.000002764   -0.000003533   -0.000003583
     11        6           0.000003554   -0.000008707    0.000000402
     12        6          -0.000003018    0.000013537   -0.000004139
     13        6          -0.000004891   -0.000003255    0.000000204
     14        1          -0.000001096   -0.000000556    0.000001929
     15        1           0.000003949   -0.000002987   -0.000004629
     16       17           0.000000431   -0.000012302   -0.000002746
 -------------------------------------------------------------------
 Cartesian Forces:  Max     0.000017158 RMS     0.000007279

 GradGradGradGradGradGradGradGradGradGradGradGradGradGradGradGradGradGrad
 Berny optimization.
 Using GEDIIS/GDIIS optimizer.
 FormGI is forming the generalized inverse of G from B-inverse, IUseBI=4.
 Internal  Forces:  Max     0.000021052 RMS     0.000004579
 Search for a local minimum.
 Step number   3 out of a maximum of   81
 All quantities printed in internal units (Hartrees-Bohrs-Radians)
 Mixed Optimization -- En-DIIS/RFO-DIIS
 Swapping is turned off.
 Update second derivatives using D2CorX and points    1    2    3
 DE= -1.66D-07 DEPred=-2.53D-07 R= 6.55D-01
 Trust test= 6.55D-01 RLast= 1.43D-02 DXMaxT set to 3.00D-01
 ITU=  0  1  0
     Eigenvalues ---    0.00148   0.01044   0.01259   0.01458   0.01687
     Eigenvalues ---    0.01787   0.02167   0.02443   0.02619   0.02709
     Eigenvalues ---    0.02857   0.03162   0.03854   0.10529   0.10931
     Eigenvalues ---    0.11303   0.11591   0.12041   0.12463   0.15849
     Eigenvalues ---    0.16368   0.18020   0.18522   0.19101   0.19838
     Eigenvalues ---    0.20092   0.26991   0.28141   0.29487   0.35976
     Eigenvalues ---    0.36600   0.36721   0.36882   0.39044   0.42620
     Eigenvalues ---    0.42889   0.47886   0.48145   0.49390   0.52074
     Eigenvalues ---    0.54523   0.55471
 En-DIIS/RFO-DIIS/Sim-DIIS IScMMF=       -3 using points:     3    2    1
 RFO step:  Lambda=-5.16070367D-08.
 DidBck=T Rises=F RFO-DIIS coefs:    0.73613    0.27563   -0.01175
 Iteration  1 RMS(Cart)=  0.00135676 RMS(Int)=  0.00000078
 Iteration  2 RMS(Cart)=  0.00000118 RMS(Int)=  0.00000003
 Iteration  3 RMS(Cart)=  0.00000000 RMS(Int)=  0.00000003
 Variable       Old X    -DE/DX   Delta X   Delta X   Delta X     New X
                                 (Linear)    (Quad)   (Total)
    R1        1.82222  -0.00001   0.00004  -0.00006  -0.00003   1.82219
    R2        2.57597  -0.00001   0.00004  -0.00006  -0.00002   2.57596
    R3        2.97137  -0.00001   0.00006  -0.00005   0.00001   2.97137
    R4        2.64376  -0.00001   0.00001  -0.00003  -0.00001   2.64375
    R5        2.64605   0.00000   0.00002  -0.00002   0.00000   2.64605
    R6        2.58077   0.00000  -0.00003   0.00005   0.00002   2.58079
    R7        1.81788  -0.00002   0.00003  -0.00007  -0.00004   1.81784
    R8        2.05229   0.00000  -0.00002   0.00000  -0.00002   2.05227
    R9        2.62886  -0.00001   0.00001  -0.00002  -0.00001   2.62885
   R10        2.04769   0.00000   0.00001  -0.00001   0.00000   2.04769
   R11        2.62822   0.00000   0.00001  -0.00002  -0.00001   2.62821
   R12        2.62460   0.00000  -0.00001   0.00001   0.00000   2.62461
   R13        2.04689   0.00000   0.00001  -0.00001   0.00000   2.04689
   R14        2.61966   0.00000   0.00000   0.00000   0.00000   2.61966
   R15        3.31132  -0.00001   0.00011  -0.00015  -0.00004   3.31128
   R16        2.04806   0.00000   0.00001  -0.00001   0.00000   2.04806
    A1        1.96343   0.00000   0.00004  -0.00003   0.00001   1.96344
    A2        2.14173  -0.00001   0.00000   0.00004   0.00004   2.14178
    A3        2.07368   0.00001   0.00002  -0.00003  -0.00002   2.07366
    A4        2.06777   0.00000  -0.00002  -0.00001  -0.00003   2.06775
    A5        2.05646   0.00000  -0.00006   0.00002  -0.00004   2.05642
    A6        2.06108   0.00000  -0.00002  -0.00002  -0.00004   2.06104
    A7        2.16565   0.00000   0.00008   0.00000   0.00008   2.16573
    A8        2.00408   0.00000   0.00008  -0.00003   0.00005   2.00414
    A9        2.10837   0.00000   0.00004  -0.00002   0.00002   2.10839
   A10        2.11322   0.00000   0.00001   0.00002   0.00003   2.11325
   A11        2.06160   0.00000  -0.00005   0.00000  -0.00005   2.06155
   A12        2.09984   0.00000  -0.00002   0.00001   0.00000   2.09983
   A13        2.09885   0.00000   0.00002  -0.00003  -0.00001   2.09883
   A14        2.08450   0.00000   0.00000   0.00002   0.00002   2.08452
   A15        2.06995   0.00000  -0.00005   0.00007   0.00001   2.06996
   A16        2.11212   0.00000  -0.00002   0.00004   0.00001   2.11213
   A17        2.10112   0.00000   0.00008  -0.00010  -0.00003   2.10109
   A18        2.12543   0.00000   0.00006  -0.00008  -0.00002   2.12541
   A19        2.07659   0.00000  -0.00002   0.00002   0.00000   2.07659
   A20        2.08117   0.00000  -0.00004   0.00006   0.00002   2.08119
   A21        2.09115   0.00000  -0.00002   0.00004   0.00002   2.09117
   A22        2.09712   0.00000   0.00004  -0.00006  -0.00002   2.09710
   A23        2.09492   0.00000  -0.00002   0.00002   0.00000   2.09492
    D1        3.13794   0.00000   0.00033  -0.00001   0.00032   3.13826
    D2       -0.00284   0.00000   0.00009   0.00009   0.00018  -0.00266
    D3        3.11243   0.00000   0.00207   0.00018   0.00225   3.11468
    D4       -0.03002   0.00000   0.00233   0.00007   0.00240  -0.02762
    D5       -0.02881   0.00001   0.00236   0.00003   0.00239  -0.02642
    D6        3.11192   0.00001   0.00262  -0.00008   0.00254   3.11446
    D7       -0.00249   0.00000   0.00037  -0.00020   0.00018  -0.00232
    D8        3.13987   0.00000   0.00025  -0.00016   0.00009   3.13995
    D9        3.13875   0.00000   0.00008  -0.00005   0.00004   3.13879
   D10       -0.00208   0.00000  -0.00004  -0.00001  -0.00005  -0.00213
   D11       -3.13974   0.00000  -0.00043   0.00018  -0.00025  -3.13999
   D12        0.00124   0.00000  -0.00027   0.00015  -0.00013   0.00112
   D13        0.00219   0.00000  -0.00015   0.00003  -0.00012   0.00207
   D14       -3.14001   0.00000   0.00001   0.00000   0.00001  -3.14001
   D15        3.13019   0.00000   0.00014   0.00000   0.00014   3.13032
   D16       -0.01054  -0.00001  -0.00012   0.00010  -0.00001  -0.01056
   D17        3.14148   0.00000   0.00011   0.00002   0.00012  -3.14158
   D18        0.00057   0.00000   0.00017  -0.00002   0.00014   0.00071
   D19        0.00063   0.00000  -0.00002   0.00006   0.00004   0.00067
   D20       -3.14028   0.00000   0.00004   0.00001   0.00006  -3.14022
   D21        0.00083   0.00000  -0.00009   0.00003  -0.00006   0.00077
   D22       -3.14104   0.00000  -0.00014   0.00004  -0.00010  -3.14114
   D23       -3.14008   0.00000  -0.00003  -0.00001  -0.00004  -3.14012
   D24        0.00123   0.00000  -0.00008   0.00000  -0.00008   0.00115
   D25       -0.00071   0.00000  -0.00010  -0.00001  -0.00011  -0.00082
   D26        3.13993  -0.00001  -0.00026   0.00007  -0.00019   3.13974
   D27        3.14116   0.00000  -0.00005  -0.00002  -0.00007   3.14109
   D28       -0.00139   0.00000  -0.00021   0.00006  -0.00015  -0.00153
   D29       -0.00083   0.00000   0.00022  -0.00002   0.00020  -0.00062
   D30        3.14137   0.00000   0.00007   0.00001   0.00008   3.14145
   D31       -3.14146   0.00001   0.00038  -0.00010   0.00028  -3.14118
   D32        0.00074   0.00000   0.00022  -0.00007   0.00015   0.00089
         Item               Value     Threshold  Converged?
 Maximum Force            0.000021     0.000015     NO 
 RMS     Force            0.000005     0.000010     YES
 Maximum Displacement     0.005751     0.000060     NO 
 RMS     Displacement     0.001357     0.000040     NO 
 Predicted change in Energy=-2.580108D-08
 GradGradGradGradGradGradGradGradGradGradGradGradGradGradGradGradGradGrad

                          Input orientation:                          
 ---------------------------------------------------------------------
 Center     Atomic      Atomic             Coordinates (Angstroms)
 Number     Number       Type             X           Y           Z
[...]
     6         11.67325068         12.81899157        -10.43943147
     5         14.60369315         13.05933404        -10.01071867
     8         15.72118169         13.17143056         -7.68711366
     1         14.56917541         13.10931525         -6.28227191
     6          9.94758036         12.63709321         -8.44483987
     1         10.58911745         12.65227976         -6.49547615
     6          7.36636085         12.43045374         -8.89809795
     1          6.05056577         12.29097631         -7.33532385
     6          6.45291791         12.39957675        -11.36226828
     6          8.16862924         12.57694030        -13.34051157
     6         10.74558853         12.78383601        -12.91729304
     1         12.03683762         12.91873562        -14.50128166
     1          4.44786381         12.24036972        -11.74195061
    17          7.03874339         12.53452584        -16.45276537

 Electric dipole moment (dipole orientation):
 (Debye = 10**-18 statcoulomb cm , SI units = C m)
                  (au)            (Debye)         (10**-30 SI)
   Tot        0.153415D+01      0.389941D+01      0.130070D+02
   x          0.000000D+00      0.000000D+00      0.000000D+00
   y          0.000000D+00      0.000000D+00      0.000000D+00
   z          0.153415D+01      0.389941D+01      0.130070D+02

 Dipole polarizability, Alpha (dipole orientation).
 (esu units = cm**3 , SI units = C**2 m**2 J**-1)
 Alpha(0;0):
               (au)            (10**-24 esu)      (10**-40 SI)
   iso        0.125601D+03      0.186122D+02      0.207088D+02
   aniso      0.824315D+02      0.122151D+02      0.135911D+02
   xx         0.148763D+03      0.220444D+02      0.245277D+02
   yx         0.623323D+01      0.923669D+00      0.102772D+01
   yy         0.725874D+02      0.107563D+02      0.119680D+02
   zx         0.103435D+02      0.153275D+01      0.170542D+01
   zy        -0.338543D+00     -0.501669D-01     -0.558182D-01
   zz         0.155453D+03      0.230357D+02      0.256307D+02

 ----------------------------------------------------------------------
 Unable to Open any file for archive entry.
 1\1\GINC-CN011\Freq\RM062X\6-311+G(d,p)\C6H6B1Cl1O2\TAHMINAAFROZ\26-Ap
 r-2025\0\\#N Geom=AllCheck Guess=TCheck SCRF=Check GenChk RM062X/6-311
 +G(d,p) Freq\\3-cl-phboh2-opt-freq-thf\\0,1\O,8.6789268743,7.475704418
 4,5.5684990018\H,9.4992421316,7.168765474,5.9718233993\C,6.2399619034,
 6.9978442504,5.1754408604\B,7.6417057871,6.6161290688,5.776934034\O,7.
 8828925045,5.4793272666,6.4943159519\H,7.1167243361,4.9116890097,6.621
 3725939\C,5.1144628651,6.1763457923,5.3004582005\H,5.1739122213,5.2278
 024112,5.8259682175\C,3.8895581341,6.5486995478,4.7562224802\H,3.02578
 72355,5.9027891632,4.8604749606\C,3.7636347615,7.7533727291,4.07270690
 78\C,4.8822743984,8.5670424781,3.9478754427\C,6.1090627923,8.208959580
 8,4.4849987993\H,6.9636846295,8.8655649233,4.3706207037\H,2.8157641968
 ,8.0556616196,3.6444410821\Cl,4.7355302285,10.0857342668,3.0862303644\
 \Version=AS64L-G16RevC.01\HF=-867.8400282\RMSD=4.194e-09\RMSF=2.509e-0
 6\ZeroPoint=0.1158844\Thermal=0.1249497\ETot=-867.7150785\HTot=-867.71
 41343\GTot=-867.7595167\Dipole=-0.3914335,-1.3370975,0.6423075\DipoleD
 eriv=-1.5895876,-0.3455306,-0.0614069,-0.4440729,-0.8685618,0.012393,-
 0.0043335,0.0376703,-0.6563585,0.4478674,0.0422263,-0.0093431,0.050518
 4,0.3400326,0.0442503,-0.0168066,0.0431425,0.363405,-0.6686527,0.21779
 71,-0.251976,0.1224534,-0.192571,0.0367946,-0.1972754,0.0659172,-0.283
 4969,2.275418,-0.0468045,0.4604229,0.1231965,1.6867346,-0.5440099,0.36
 56202,-0.5894637,1.1192856,-0.8278672,0.1924833,-0.1668665,0.1836031,-
 1.3769361,0.4814101,-0.1653395,0.4809655,-0.9443078,0.3044646,-0.04017
 36,0.0032365,-0.0745617,0.4678259,-0.0712075,0.0274805,-0.0612455,0.42
 21012,-0.0107715,-0.0769591,0.0875018,0.0400074,-0.0185319,-0.0719609,
 0.0169487,-0.1072111,-0.1141989,0.1038425,0.0469555,-0.0431338,0.02531
 13,-0.0412178,0.1190974,-0.0316961,0.1243502,0.0911712,0.0148216,0.065
 6903,0.007092,0.1137907,-0.0539591,-0.0142549,-0.016095,-0.0248051,-0.
 1301684,0.005114,-0.0781551,-0.0065608,-0.0833288,0.0523765,0.0455201,
 -0.0032842,0.0466845,0.1532081,-0.0343349,0.0071583,0.0295046,-0.00787
 7,-0.234322,0.0421204,0.0351339,0.0464733,-0.1664577,0.0006414,-0.1715
 811,0.0899186,-0.1244963,1.1450757,-0.6495476,0.0678274,-0.664616,0.38
 61046,-0.0123912,0.1556242,-0.0492248,0.006323,-0.2584031,0.0640881,0.
 0336975,0.1086019,-0.1921687,0.0927446,-0.0645362,0.0131255,-0.0531526
 ,0.0827343,0.0322149,0.0067738,0.0287798,0.1544598,0.0472834,0.0267638
 ,-0.0528107,0.0393206,0.116819,0.0473571,-0.0613073,0.0446305,0.142568
 ,-0.1485923,0.0690413,-0.0494793,0.0829649,-0.8470957,0.4257349,-0.057
 3442,0.4201257,-0.3451466\Polar=140.3995487,1.7569131,139.5970402,18.1
 822354,-36.184348,96.8067435\Quadrupole=7.0113976,-26.9603241,19.94892
 65,-17.3823634,4.3281994,-4.1833112\PG=C01 [X(C6H6B1Cl1O2)]\NImag=0\\0
 .64114081,0.02888313,0.28523785,0.15120273,-0.13746018,0.15381121,-0.3
 7753328,0.11658431,-0.16796612,0.40549523,0.14721424,-0.07985386,0.079
 90232,-0.12434055,0.07344155,-0.18562518,0.07146052,-0.10448958,0.1808
 5397,-0.07135632,0.10059695,-0.02994910,-0.00195448,-0.00938581,0.0000
 2438,-0.00218512,0.00007973,0.60754645,-0.01818499,0.00712450,-0.00416
 641,-0.00319119,-0.00083351,0.00205501,0.07044118,0.53790848,-0.000143
 33,0.00026959,0.00843198,0.00063862,0.00234198,0.00311399,0.09548843,-
 0.19942620,0.26706718,-0.23119600,-0.11306400,0.01417925,-0.03292306,-
 0.02274179,0.00344083,-0.16739503,0.02670395,-0.04385910,0.52548759,-0
 .13629692,-0.16530045,0.03047826,0.00455465,0.00785439,-0.00213914,0.0
 2590602,-0.07677260,0.01483924,0.07418861,0.49548079,0.02760563,0.0369
 2477,-0.06059563,-0.01223611,-0.00961102,0.00417619,-0.04352084,0.0150
 2710,-0.08304050,0.06209083,-0.18123867,0.26362149,0.00369939,-0.03478
 393,0.01770085,0.00478835,0.00195592,0.00093670,0.00112180,0.02105240,
 -0.01617593,-0.09032517,0.02609133,-0.02780391,0.43496620,-0.02482373,
 -0.04722581,0.02698477,0.00595516,-0.00042747,0.00034725,0.00473456,-0
 .00723652,0.01479829,0.05730835,-0.23846747,0.12815424,0.20384580,0.48
 733714,0.01208051,0.02425131,0.00083082,-0.00140111,-0.00078770,-0.002
 58944,-0.00674639,0.01924937,0.00337074,-0.04580861,0.12013206,-0.1232
 6487,-0.00929916,-0.21341123,0.14889460,0.00305302,0.00274044,-0.00242
 094,-0.00006671,0.00035437,0.00001098,-0.00128458,0.00122174,-0.000361
 44,0.00415266,0.00155885,0.00102131,-0.34964526,-0.24952197,0.05499202
 ,0.34607011,0.00107134,-0.00001234,0.00391339,0.00034193,-0.00050215,-
 0.00011101,0.00030829,0.00137769,-0.00214605,-0.02414666,-0.02156681,0
 .00427384,-0.21995547,-0.19366038,0.04955420,0.24288474,0.21296253,-0.
 00153054,0.00429182,0.00347415,0.00003739,-0.00009137,-0.00080512,0.00
 009978,-0.00189385,-0.00131043,0.01591794,0.01087105,-0.00518333,0.037
 80022,0.04213425,-0.02298584,-0.05159359,-0.05525426,0.02595065,-0.001
 63051,0.00082002,-0.00111218,-0.00051953,-0.00038794,0.00003997,-0.252
 09188,-0.07595187,-0.01281051,-0.01695593,-0.00891452,-0.00067578,0.00
 089400,-0.00227846,0.00184007,0.00094708,0.00016449,0.00008559,0.63332
 860,0.00519464,0.00005954,0.00169311,0.00039153,0.00041442,0.00004682,
 -0.12533405,-0.18102852,0.02847679,-0.00065106,0.01081186,-0.00478105,
 0.00049452,-0.00346464,0.00161959,0.00290874,0.00007724,0.00114955,0.0
 4957580,0.60836009,-0.00343594,0.00052662,-0.00061773,-0.00043271,-0.0
 0015451,0.00034163,0.01390210,0.04222972,-0.08167096,-0.00503083,-0.00
 707441,0.00476270,0.00030458,0.00059978,-0.00172385,-0.00152072,0.0003
 1600,-0.00014330,0.11254959,-0.23795776,0.29904299,0.00043069,0.000316
 33,-0.00011605,-0.00005771,-0.00004650,-0.00004387,0.00659545,-0.02041
 894,0.01245041,-0.00019935,-0.00064260,0.00116827,0.00046229,-0.000159
 34,-0.00098228,-0.00260608,0.00062952,-0.00152184,-0.05886064,0.009550
 14,-0.01098464,0.06002494,-0.00020655,0.00038054,-0.00018139,-0.000111
 65,0.00000483,0.00006628,0.00229056,-0.01101084,0.00733592,0.00141599,
 -0.00229360,0.00001461,0.00040661,0.00144937,-0.00015147,-0.00096288,0
 .00084122,-0.00034508,0.01321815,-0.26677786,0.12619363,-0.01194961,0.
 27882632,0.00022416,-0.00000418,0.00023975,-0.00000820,0.00008918,0.00
 013087,0.00032522,0.00094788,0.00102867,0.00005211,-0.00061000,-0.0027
 6477,-0.00122087,-0.00029109,-0.00187822,-0.00067178,0.00025631,0.0006
 1420,-0.01312665,0.12495558,-0.10912555,0.01770540,-0.13988115,0.10680
 445,-0.00236121,0.00025769,-0.00069438,-0.00004718,-0.00008522,0.00016
 151,-0.05371491,-0.03995564,0.00372174,-0.00034797,-0.00599426,0.00145
 168,0.00078508,0.00063912,-0.00016919,-0.00040206,0.00034363,-0.000132
 31,-0.29161635,0.07427416,-0.10356782,0.00197357,-0.00187164,0.0003116
 7,0.69410470,-0.00011057,0.00044003,-0.00044880,-0.00032758,-0.0001621
 0,-0.00021585,0.00636696,0.05191849,-0.02090341,-0.00313310,0.00028101
 ,0.00222648,-0.00014851,0.00034156,-0.00023431,-0.00064337,-0.00001283
 ,-0.00055975,0.00913095,-0.13082511,0.03798067,0.02561576,-0.00390805,
 0.01175080,0.09871112,0.58858338,-0.00058000,-0.00031922,-0.00025378,0
 .00028096,-0.00020136,-0.00029664,-0.02136997,-0.03373125,0.02234626,-
 0.00013194,0.00138293,0.00521148,0.00028953,-0.00001286,0.00009337,0.0
 0044572,-0.00024113,-0.00030194,-0.06846167,0.05621446,-0.11429792,-0.
 01446679,0.00398837,-0.00172905,0.10317514,-0.21471775,0.28161886,-0.0
 0078489,-0.00002394,-0.00016581,-0.00001810,-0.00004257,0.00003394,-0.
 00337770,0.00167597,-0.00390361,0.00052496,-0.00101116,0.00065512,-0.0
 0017253,0.00035044,-0.00025728,-0.00001577,-0.00012196,0.00006671,-0.0
 1540910,-0.01738654,0.00391746,0.00075663,0.00059584,0.00106532,-0.240
 81548,-0.13976552,0.01835567,0.25074606,0.00013554,-0.00004985,0.00000
 149,0.00003831,0.00000330,-0.00001727,0.00143967,0.00194278,0.00323459
 ,0.00027609,0.00033199,-0.00002977,-0.00005108,-0.00000772,0.00001538,
 0.00002326,-0.00000022,0.00000534,0.00877218,0.00918129,-0.00035733,0.
 00008192,-0.00035923,-0.00202074,-0.13965903,-0.15679153,0.02427418,0.
 14969700,0.16009862,-0.00025775,-0.00004071,-0.00016343,-0.00001661,-0
 .00003783,-0.00002682,-0.00372544,0.00332229,0.00437130,-0.00003671,-0
 .00038942,0.00032823,-0.00003638,0.00013247,-0.00003482,-0.00001822,-0
 .00003787,0.00001230,-0.01017038,-0.00772296,0.00520823,0.00133043,-0.
 00186876,-0.00277696,0.01827333,0.02419235,-0.04649582,-0.01740540,-0.
 02988842,0.03743077,-0.00164278,-0.00001101,-0.00034286,0.00023356,0.0
 0000282,0.00001054,-0.01529260,-0.02669417,0.01161173,0.00190667,-0.00
 186046,0.00177395,-0.00025115,0.00052132,-0.00037086,0.00017431,-0.000
 20789,0.00014229,0.03125446,0.03080052,-0.00975265,-0.00420297,0.00097
 626,-0.00376566,-0.13045034,0.04373959,-0.04241289,0.00640669,-0.02214
 629,0.01263487,0.71066310,-0.00023871,0.00025126,-0.00032756,0.0000034
 1,-0.00004343,0.00006484,-0.02594046,-0.05548078,0.01989446,-0.0025381
 1,-0.00253713,0.00018463,0.00094757,-0.00057872,0.00058673,-0.00002691
 ,0.00044163,-0.00014374,0.08050625,0.00015489,0.02610633,0.00050698,0.
 00263221,0.00266925,-0.02433799,-0.27753391,0.10834409,0.00419676,-0.0
 1148875,0.00949257,0.03101827,0.56449055,-0.00025890,-0.00028400,-0.00
 019528,0.00003868,0.00008647,0.00008347,0.01115997,0.01953067,-0.01273
 320,0.00213723,0.00039789,-0.00043841,-0.00057294,0.00047307,-0.000394
 77,-0.00000809,-0.00019258,0.00029088,-0.03648319,0.01219461,-0.009993
 65,-0.00350002,0.00277017,0.00480792,-0.00575261,0.12758128,-0.1333059
 1,-0.00155325,0.00203332,0.00233580,0.14428301,-0.22204771,0.29580509,
 0.00074207,-0.00044820,0.00036047,-0.00001796,0.00012411,-0.00001464,0
 .02699091,0.08252725,-0.03981536,0.00415230,0.00121820,-0.00126631,-0.
 00068008,0.00094120,-0.00030448,-0.00011319,-0.00034459,0.00009932,-0.
 08345149,-0.01410418,-0.01391639,-0.00137319,-0.00027207,-0.00010177,0
 .05130436,-0.06951631,0.05011291,0.00179383,0.00047559,-0.00198732,-0.
 26796624,-0.07045822,-0.01877867,0.63749140,-0.00226335,0.00020174,-0.
 00062449,0.00032842,0.00016159,-0.00006309,0.02456096,0.00084372,0.011
 71602,0.00207527,-0.00239456,0.00536810,0.00029204,0.00056122,-0.00091
 607,0.00006623,-0.00016360,0.00017759,-0.01456517,-0.00337890,-0.00581
 327,-0.00036174,0.00050342,-0.00068635,-0.01059735,-0.03780189,0.02091
 920,0.00038695,-0.00075758,0.00473723,-0.13920446,-0.16748235,0.015453
 46,0.07083376,0.43736541,0.00132883,-0.00013454,0.00063657,-0.00015331
 ,-0.00013143,-0.00009903,-0.00843268,0.02815291,-0.00761526,-0.0017866
 6,0.00509017,0.00319207,0.00004546,-0.00080735,-0.00086123,-0.00008705
 ,0.00008785,0.00006402,-0.01366222,-0.00574059,-0.00748133,-0.00002637
 ,-0.00067338,-0.00024958,0.01825657,0.00440413,0.00934431,-0.00192705,
 0.00475308,0.00474955,0.01839969,0.03483657,-0.07993628,0.10406960,-0.
 14598705,0.23657230,-0.00281884,0.00005730,-0.00050488,0.00068657,0.00
 021412,0.00005545,-0.12253905,-0.01856248,-0.00642860,0.00240801,0.019
 63611,-0.01069277,-0.00527067,0.00250021,-0.00334877,-0.00028597,-0.00
 085420,0.00044173,0.04838722,-0.01623575,0.02068329,-0.00348259,-0.003
 83936,-0.00102449,-0.02829809,0.03076930,-0.02318056,0.00009778,0.0007
 9772,-0.00006833,-0.05242679,-0.04254497,0.00572138,-0.29675670,0.0693
 6747,-0.10128213,0.69787595,-0.00186906,-0.00221120,0.00031273,-0.0003
 9420,-0.00036503,0.00007984,0.03565596,-0.26010172,0.11622130,0.008753
 08,-0.00261707,0.00523417,-0.00148439,0.00174387,-0.00073742,-0.000302
 25,-0.00027785,0.00007016,-0.06057952,-0.03697378,0.00594947,-0.003614
 59,0.00100975,0.00246432,0.03011788,-0.03467280,0.02449134,0.00088077,
 -0.00067541,0.00000532,0.00766160,0.05368611,-0.02194461,0.00033072,-0
 .11314396,0.02424974,0.10232494,0.57786442,0.00054908,0.00073206,-0.00
 112185,0.00040708,0.00022856,-0.00005494,-0.03581948,0.10102273,-0.127
 53041,-0.00487062,0.00835364,-0.00324650,-0.00100545,0.00043008,0.0006
 4443,0.00003662,-0.00009581,0.00011529,0.04470913,0.01837070,0.0082073
 5,-0.00115003,0.00241388,0.00590048,-0.02285408,0.02465533,-0.02467749
 ,-0.00013346,0.00000060,-0.00111725,-0.02147094,-0.03613841,0.02242454
 ,-0.06390815,0.04381497,-0.10949888,0.10095582,-0.20716021,0.28013854,
 -0.00078946,0.00067902,-0.00063849,-0.00009219,-0.00005370,0.00005754,
 0.00707083,0.00241063,0.00002951,0.00003760,0.00102700,0.00032821,0.00
 007756,-0.00039227,0.00010843,0.00002532,0.00000581,0.00002273,0.00166
 206,0.00095253,-0.00214569,0.00033348,0.00026177,-0.00009112,-0.000026
 62,0.00094345,-0.00021253,-0.00006922,0.00002685,0.00022598,-0.0027924
 1,0.00170789,-0.00349363,-0.01638420,-0.01677672,0.00338576,-0.2367343
 4,-0.13991936,0.01991916,0.24734262,-0.00000347,0.00047922,-0.00026048
 ,0.00028789,0.00032262,-0.00019829,-0.01999120,-0.01126968,0.00171276,
 -0.00133810,-0.00210317,-0.00088902,0.00017107,0.00054403,0.00001465,-
 0.00007343,0.00003463,-0.00008145,0.00083140,-0.00196336,0.00533119,-0
 .00104767,-0.00055349,0.00009388,0.00067530,-0.00050754,-0.00011974,0.
 00000071,-0.00014749,-0.00041950,0.00163149,0.00138221,0.00313516,0.00
 903423,0.00701146,0.00081212,-0.14185721,-0.15823432,0.02468080,0.1501
 5891,0.16402708,-0.00024334,0.00001530,0.00004987,-0.00011849,-0.00029
 523,-0.00009999,0.01205972,0.00795555,0.00137850,0.00164088,-0.0002584
 8,-0.00255066,-0.00022856,-0.00008497,0.00050833,0.00005967,-0.0000625
 4,-0.00001426,-0.00208154,0.00536635,0.00401990,0.00061391,0.00046731,
 0.00009775,-0.00008029,-0.00003098,-0.00108629,0.00024202,-0.00040996,
 -0.00063667,-0.00344460,0.00314610,0.00369909,-0.01050347,-0.00644593,
 0.00434760,0.02096801,0.02514443,-0.04661207,-0.01884543,-0.03236153,0
 .03837520,-0.00004496,0.00003516,-0.00005625,0.00001702,0.00001775,-0.
 00000230,0.00026864,-0.00047318,0.00072897,-0.00012562,0.00003368,0.00
 015438,-0.00001171,0.00003806,-0.00003205,0.00000649,-0.00001291,0.000
 00191,0.00213467,-0.00099110,-0.00101076,0.00003007,-0.00012990,0.0001
 0777,0.00334257,-0.00140506,0.00042433,0.00018895,0.00073748,0.0008756
 2,-0.28071865,0.06768143,-0.10426381,-0.01586426,0.00886009,-0.0101999
 0,-0.00187933,-0.00408016,-0.00006645,-0.00065130,0.00044080,-0.000430
 79,0.29313160,0.00004751,0.00008748,0.00000600,0.00001070,0.00001527,-
 0.00000782,-0.00020731,-0.00107835,-0.00023685,-0.00000576,-0.00024637
 ,-0.00026154,0.00004125,0.00004970,-0.00000527,-0.00009506,0.00005850,
 -0.00005176,-0.00107756,-0.00251975,0.00517646,0.00123152,-0.00035293,
 0.00048153,0.02387140,-0.00187988,0.01012853,0.00020551,0.00006826,-0.
 00231398,0.06978719,-0.07481337,0.03942755,-0.01708844,0.00684129,-0.0
 0662544,-0.00388879,-0.00083269,0.00271052,-0.00074543,0.00045146,-0.0
 0043378,-0.07144939,0.07352287,-0.00005656,0.00000574,0.00006218,0.000
 00037,-0.00000410,-0.00000197,0.00056851,-0.00030978,-0.00109085,0.000
 19240,-0.00025478,-0.00054458,-0.00003806,0.00000262,0.00000636,0.0000
 4487,-0.00001888,0.00005492,-0.00099291,0.00520250,0.00457861,-0.00062
 616,0.00009798,-0.00033432,-0.01318942,0.00301313,-0.00082670,0.001170
 90,-0.00215498,-0.00285571,-0.10533844,0.03891864,-0.08846361,0.003757
 32,0.00064607,0.00416097,-0.00015298,0.00263984,0.00473420,0.00020628,
 -0.00009868,0.00014894,0.11350454,-0.04610882,0.08191147,-0.00031493,-
 0.00008783,-0.00003954,0.00003060,0.00000005,0.00000483,-0.00397362,-0
 .00260065,-0.00117153,0.00079835,0.00050548,-0.00005364,-0.00043809,0.
 00034156,-0.00030085,-0.00000937,-0.00010606,0.00006267,0.00192733,0.0
 0056008,0.00044112,0.00017540,0.00017849,0.00021889,-0.00343009,-0.000
 22710,-0.00226791,0.00014788,-0.00064521,0.00038229,0.00510512,-0.0204
 8319,0.01132486,-0.03986758,0.00699761,-0.00792853,0.00103684,0.026518
 57,-0.01529822,0.00099025,0.00107928,0.00039230,0.00017581,-0.00063736
 ,0.00094934,0.03764608,0.00145094,0.00039135,0.00017721,-0.00013114,-0
 .00003042,-0.00001178,0.00390847,0.00369687,0.00187156,-0.00310275,-0.
 00046082,-0.00059687,0.00112487,-0.00095816,0.00082017,-0.00013251,0.0
 0040276,-0.00027849,0.00073579,-0.00212743,0.00094740,0.00030881,-0.00
 039166,-0.00021520,-0.00638916,0.00253118,-0.00039978,0.00036175,-0.00
 134846,0.00083723,0.00398522,-0.03308041,0.02138525,0.00674696,-0.1283
 6701,0.05771322,0.00211560,-0.02419832,0.01598053,-0.00028638,0.000526
 35,-0.00171165,0.00069726,0.00062851,-0.00157649,-0.01139373,0.1827856
 6,-0.00085939,-0.00023490,-0.00009928,0.00007561,0.00002235,0.00002043
 ,-0.00468283,0.00003426,0.00388300,0.00187300,0.00041967,0.00033709,-0
 .00069609,0.00055068,-0.00061562,0.00007062,-0.00024146,0.00016781,0.0
 0035267,0.00091230,-0.00110711,0.00014961,-0.00024694,-0.00076564,0.00
 108846,0.00130669,0.00465724,-0.00016128,0.00056049,-0.00032869,-0.001
 95716,0.01441320,-0.00398569,-0.00780305,0.05770359,-0.05732579,-0.002
 14220,0.02297958,-0.00830544,0.00114329,-0.00135188,-0.00162523,0.0002
 6481,-0.00188533,-0.00153992,0.01328392,-0.09494229,0.06663282\\0.0000
 0149,-0.00000387,-0.00000482,0.00000182,-0.00000473,-0.00000626,-0.000
 00004,-0.00000051,-0.00000039,0.00000049,-0.00000226,-0.00000277,0.000
 00015,-0.00000308,-0.00000431,0.00000024,-0.00000117,-0.00000162,-0.00
 000070,0.00000122,0.00000105,-0.00000125,0.00000086,0.00000129,-0.0000
 0125,0.00000247,0.00000365,-0.00000186,0.00000373,0.00000492,-0.000000
 70,0.00000280,0.00000345,0.00000015,0.00000117,0.00000165,0.00000066,-
 0.00000039,-0.00000068,0.00000132,-0.00000150,-0.00000204,-0.00000113,
 0.00000390,0.00000513,0.00000062,0.00000135,0.00000175\\\@
 The archive entry for this job was punched.


 Boundary, n.  In political geography, an imaginary
 line between two nations, separating the imaginary
 rights of one from the imaginary rights of another.
                               -- Ambrose Bierce
 Job cpu time:       0 days  0 hours 43 minutes  2.5 seconds.
 Elapsed time:       0 days  0 hours  1 minutes 25.0 seconds.
 File lengths (MBytes):  RWF=    166 Int=      0 D2E=      0 Chk=     15 Scr=      1
 Normal termination of Gaussian 16 at Sat Apr 26 20:11:13 2025.
