/home/tahminaafroz
cn016.cluster.local
tahminaafroz
Fri May 30 01:12:20 CDT 2025
 Entering Gaussian System, Link 0=g16
 Initial command:
 /home/apps/g16/l1.exe "/tmp/3-isopropyl-ph-anion-opt-freq-thf/Gau-668134.inp" -scrdir="/tmp/3-isopropyl-ph-anion-opt-freq-thf/"
 Entering Link 1 = /home/apps/g16/l1.exe PID=    668135.
  
 Copyright (c) 1988-2019, Gaussian, Inc.  All Rights Reserved.
  
 This is part of the Gaussian(R) 16 program.  It is based on
 the Gaussian(R) 09 system (copyright 2009, Gaussian, Inc.),
 the Gaussian(R) 03 system (copyright 2003, Gaussian, Inc.),
 the Gaussian(R) 98 system (copyright 1998, Gaussian, Inc.),
 the Gaussian(R) 94 system (copyright 1995, Gaussian, Inc.),
 the Gaussian 92(TM) system (copyright 1992, Gaussian, Inc.),
 the Gaussian 90(TM) system (copyright 1990, Gaussian, Inc.),
 the Gaussian 88(TM) system (copyright 1988, Gaussian, Inc.),
 the Gaussian 86(TM) system (copyright 1986, Carnegie Mellon
 University), and the Gaussian 82(TM) system (copyright 1983,
 Carnegie Mellon University). Gaussian is a federally registered
 trademark of Gaussian, Inc.
  
 This software contains proprietary and confidential information,
 including trade secrets, belonging to Gaussian, Inc.
  
 This software is provided under written license and may be
 used, copied, transmitted, or stored only in accord with that
 written license.
  
 The following legend is applicable only to US Government
 contracts under FAR:
  
                    RESTRICTED RIGHTS LEGEND
  
 Use, reproduction and disclosure by the US Government is
 subject to restrictions as set forth in subparagraphs (a)
 and (c) of the Commercial Computer Software - Restricted
 Rights clause in FAR 52.227-19.
  
 Gaussian, Inc.
 340 Quinnipiac St., Bldg. 40, Wallingford CT 06492
  
  
 ---------------------------------------------------------------
 Warning -- This program may not be used in any manner that
 competes with the business of Gaussian, Inc. or will provide
 assistance to any competitor of Gaussian, Inc.  The licensee
 of this program is prohibited from giving any competitor of
 Gaussian, Inc. access to this program.  By using this program,
 the user acknowledges that Gaussian, Inc. is engaged in the
 business of creating and licensing software in the field of
 computational chemistry and represents and warrants to the
 licensee that it is not a competitor of Gaussian, Inc. and that
 it will not use this program in any manner prohibited above.
 ---------------------------------------------------------------
  

 Cite this work as:
 Gaussian 16, Revision C.01,
 M. J. Frisch, G. W. Trucks, H. B. Schlegel, G. E. Scuseria, 
 M. A. Robb, J. R. Cheeseman, G. Scalmani, V. Barone, 
 G. A. Petersson, H. Nakatsuji, X. Li, M. Caricato, A. V. Marenich, 
 J. Bloino, B. G. Janesko, R. Gomperts, B. Mennucci, H. P. Hratchian, 
 J. V. Ortiz, A. F. Izmaylov, J. L. Sonnenberg, D. Williams-Young, 
 F. Ding, F. Lipparini, F. Egidi, J. Goings, B. Peng, A. Petrone, 
 T. Henderson, D. Ranasinghe, V. G. Zakrzewski, J. Gao, N. Rega, 
 G. Zheng, W. Liang, M. Hada, M. Ehara, K. Toyota, R. Fukuda, 
 J. Hasegawa, M. Ishida, T. Nakajima, Y. Honda, O. Kitao, H. Nakai, 
 T. Vreven, K. Throssell, J. A. Montgomery, Jr., J. E. Peralta, 
 F. Ogliaro, M. J. Bearpark, J. J. Heyd, E. N. Brothers, K. N. Kudin, 
 V. N. Staroverov, T. A. Keith, R. Kobayashi, J. Normand, 
 K. Raghavachari, A. P. Rendell, J. C. Burant, S. S. Iyengar, 
 J. Tomasi, M. Cossi, J. M. Millam, M. Klene, C. Adamo, R. Cammi, 
 J. W. Ochterski, R. L. Martin, K. Morokuma, O. Farkas, 
 J. B. Foresman, and D. J. Fox, Gaussian, Inc., Wallingford CT, 2019.
 
 ******************************************
 Gaussian 16:  AS64L-G16RevC.01  3-Jul-2019
                30-May-2025 
 ******************************************
 %mem=20GB
 %nprocshared=32
 Will use up to   32 processors via shared memory.
 %chk=3-isopropyl-ph-anion-opt-freq-thf.chk
 ----------------------------------------------------------------------
 # opt=(calcfc,tight) freq 6-311+g(d,p) scrf=(smd,solvent=thf) nosymm s
 cf=(qc,fermi,xqc) geom=connectivity int=ultrafine m062x
 ----------------------------------------------------------------------
 1/7=10,10=4,18=20,19=15,26=6,38=1,57=2/1,3;
 2/9=110,12=2,15=1,17=6,18=5,40=1/2;
 3/5=4,6=6,7=111,11=2,25=1,30=1,70=32201,71=2,72=20,74=-55,75=-5,140=1/1,2,3;
 4//1;
 5/5=2,22=13,38=5,53=20/2;
 8/6=4,10=90,11=11/1;
 11/6=1,8=1,9=11,15=111,16=1,31=1/1,2,10;
 10/6=1,13=1,31=1/2;
 6/7=2,8=2,9=2,10=2,28=1/1;
 7/10=1,25=1,30=1/1,2,3,16;
 1/7=10,10=4,18=20,19=15,26=6/3(2);
 2/9=110,15=1/2;
 99//99;
 2/9=110,15=1/2;
 3/5=4,6=6,7=111,11=2,25=1,30=1,70=32205,71=1,72=20,74=-55,75=-5/1,2,3;
 4/5=5,16=3,69=1/1;
 5/5=2,22=13,38=5,53=20/2;
 7/30=1/1,2,3,16;
 1/7=10,18=20,19=15,26=6/3(-5);
 2/9=110,15=1/2;
 6/7=2,8=2,9=2,10=2,19=2,28=1/1;
 99/9=1/99;
 ---------------------------------
 3-isopropyl-ph-anion-opt-freq-thf
 ---------------------------------
 Symbolic Z-matrix:
 Charge = -1 Multiplicity = 1
 C                     6.23832   6.95687   5.12531 
 C                     5.13159   6.53244   5.81612 
 H                     5.17233   5.74478   6.55986 
 C                     3.92822   7.17884   5.50613 
 H                     3.0168    6.88895   6.01816 
 C                     3.8964    8.18745   4.54839 
 C                     5.05295   8.58809   3.86772 
 C                     6.26261   7.94662   4.17202 
 H                     7.17755   8.23345   3.66264 
 H                     2.95206   8.67297   4.32426 
 C                     5.00502   9.68748   2.82417 
 H                     6.02279   9.81587   2.44329 
 C                     4.55201   11.01599   3.43819 
 H                     5.19908   11.31014   4.26811 
 H                     4.57544   11.80925   2.68628 
 H                     3.52813   10.94074   3.81563 
 C                     4.10029   9.2973    1.65083 
 H                     4.11977   10.07388   0.88161 
 H                     4.42252   8.35664   1.19771 
 H                     3.06485   9.17814   1.98266 
 

 GradGradGradGradGradGradGradGradGradGradGradGradGradGradGradGradGradGrad
 Berny optimization.
 Initialization pass.
                           ----------------------------
                           !    Initial Parameters    !
                           ! (Angstroms and Degrees)  !
 --------------------------                            --------------------------
 ! Name  Definition              Value          Derivative Info.                !
 --------------------------------------------------------------------------------
 ! R1    R(1,2)                  1.3719         calculate D2E/DX2 analytically  !
 ! R2    R(1,8)                  1.3744         calculate D2E/DX2 analytically  !
 ! R3    R(2,3)                  1.0841         calculate D2E/DX2 analytically  !
 ! R4    R(2,4)                  1.4007         calculate D2E/DX2 analytically  !
 ! R5    R(4,5)                  1.0848         calculate D2E/DX2 analytically  !
 ! R6    R(4,6)                  1.3913         calculate D2E/DX2 analytically  !
 ! R7    R(6,7)                  1.4005         calculate D2E/DX2 analytically  !
 ! R8    R(6,10)                 1.0852         calculate D2E/DX2 analytically  !
 ! R9    R(7,8)                  1.4026         calculate D2E/DX2 analytically  !
 ! R10   R(7,11)                 1.5166         calculate D2E/DX2 analytically  !
 ! R11   R(8,9)                  1.0857         calculate D2E/DX2 analytically  !
 ! R12   R(11,12)                1.0943         calculate D2E/DX2 analytically  !
 ! R13   R(11,13)                1.5321         calculate D2E/DX2 analytically  !
 ! R14   R(11,17)                1.5322         calculate D2E/DX2 analytically  !
 ! R15   R(13,14)                1.0927         calculate D2E/DX2 analytically  !
 ! R16   R(13,15)                1.0932         calculate D2E/DX2 analytically  !
 ! R17   R(13,16)                1.0938         calculate D2E/DX2 analytically  !
 ! R18   R(17,18)                1.0932         calculate D2E/DX2 analytically  !
 ! R19   R(17,19)                1.0927         calculate D2E/DX2 analytically  !
 ! R20   R(17,20)                1.0938         calculate D2E/DX2 analytically  !
 ! A1    A(2,1,8)              125.8941         calculate D2E/DX2 analytically  !
 ! A2    A(1,2,3)              122.6779         calculate D2E/DX2 analytically  !
 ! A3    A(1,2,4)              116.03           calculate D2E/DX2 analytically  !
 ! A4    A(3,2,4)              121.2921         calculate D2E/DX2 analytically  !
 ! A5    A(2,4,5)              119.6042         calculate D2E/DX2 analytically  !
 ! A6    A(2,4,6)              120.4341         calculate D2E/DX2 analytically  !
 ! A7    A(5,4,6)              119.9617         calculate D2E/DX2 analytically  !
 ! A8    A(4,6,7)              121.5389         calculate D2E/DX2 analytically  !
 ! A9    A(4,6,10)             119.1047         calculate D2E/DX2 analytically  !
 ! A10   A(7,6,10)             119.3564         calculate D2E/DX2 analytically  !
 ! A11   A(6,7,8)              118.4197         calculate D2E/DX2 analytically  !
 ! A12   A(6,7,11)             121.0445         calculate D2E/DX2 analytically  !
 ! A13   A(8,7,11)             120.5357         calculate D2E/DX2 analytically  !
 ! A14   A(1,8,7)              117.6831         calculate D2E/DX2 analytically  !
 ! A15   A(1,8,9)              122.0418         calculate D2E/DX2 analytically  !
 ! A16   A(7,8,9)              120.2751         calculate D2E/DX2 analytically  !
 ! A17   A(7,11,12)            107.1674         calculate D2E/DX2 analytically  !
 ! A18   A(7,11,13)            111.2341         calculate D2E/DX2 analytically  !
 ! A19   A(7,11,17)            111.1621         calculate D2E/DX2 analytically  !
 ! A20   A(12,11,13)           108.2265         calculate D2E/DX2 analytically  !
 ! A21   A(12,11,17)           108.2128         calculate D2E/DX2 analytically  !
 ! A22   A(13,11,17)           110.6802         calculate D2E/DX2 analytically  !
 ! A23   A(11,13,14)           111.2679         calculate D2E/DX2 analytically  !
 ! A24   A(11,13,15)           110.3171         calculate D2E/DX2 analytically  !
 ! A25   A(11,13,16)           110.819          calculate D2E/DX2 analytically  !
 ! A26   A(14,13,15)           108.3224         calculate D2E/DX2 analytically  !
 ! A27   A(14,13,16)           108.1045         calculate D2E/DX2 analytically  !
 ! A28   A(15,13,16)           107.8969         calculate D2E/DX2 analytically  !
 ! A29   A(11,17,18)           110.329          calculate D2E/DX2 analytically  !
 ! A30   A(11,17,19)           111.2639         calculate D2E/DX2 analytically  !
 ! A31   A(11,17,20)           110.7562         calculate D2E/DX2 analytically  !
 ! A32   A(18,17,19)           108.33           calculate D2E/DX2 analytically  !
 ! A33   A(18,17,20)           107.9214         calculate D2E/DX2 analytically  !
 ! A34   A(19,17,20)           108.1299         calculate D2E/DX2 analytically  !
 ! D1    D(8,1,2,3)           -179.9753         calculate D2E/DX2 analytically  !
 ! D2    D(8,1,2,4)              0.0343         calculate D2E/DX2 analytically  !
 ! D3    D(2,1,8,7)             -0.0556         calculate D2E/DX2 analytically  !
 ! D4    D(2,1,8,9)            179.9804         calculate D2E/DX2 analytically  !
 ! D5    D(1,2,4,5)           -179.989          calculate D2E/DX2 analytically  !
 ! D6    D(1,2,4,6)             -0.0048         calculate D2E/DX2 analytically  !
 ! D7    D(3,2,4,5)              0.0205         calculate D2E/DX2 analytically  !
 ! D8    D(3,2,4,6)           -179.9953         calculate D2E/DX2 analytically  !
 ! D9    D(2,4,6,7)             -0.0005         calculate D2E/DX2 analytically  !
 ! D10   D(2,4,6,10)           179.9282         calculate D2E/DX2 analytically  !
 ! D11   D(5,4,6,7)            179.9837         calculate D2E/DX2 analytically  !
 ! D12   D(5,4,6,10)            -0.0876         calculate D2E/DX2 analytically  !
 ! D13   D(4,6,7,8)             -0.0205         calculate D2E/DX2 analytically  !
 ! D14   D(4,6,7,11)           179.9056         calculate D2E/DX2 analytically  !
 ! D15   D(10,6,7,8)          -179.949          calculate D2E/DX2 analytically  !
 ! D16   D(10,6,7,11)           -0.0229         calculate D2E/DX2 analytically  !
 ! D17   D(6,7,8,1)              0.0458         calculate D2E/DX2 analytically  !
 ! D18   D(6,7,8,9)           -179.9895         calculate D2E/DX2 analytically  !
 ! D19   D(11,7,8,1)          -179.8807         calculate D2E/DX2 analytically  !
 ! D20   D(11,7,8,9)             0.084          calculate D2E/DX2 analytically  !
 ! D21   D(6,7,11,12)          179.8899         calculate D2E/DX2 analytically  !
 ! D22   D(6,7,11,13)           61.775          calculate D2E/DX2 analytically  !
 ! D23   D(6,7,11,17)          -62.052          calculate D2E/DX2 analytically  !
 ! D24   D(8,7,11,12)           -0.1856         calculate D2E/DX2 analytically  !
 ! D25   D(8,7,11,13)         -118.3004         calculate D2E/DX2 analytically  !
 ! D26   D(8,7,11,17)          117.8726         calculate D2E/DX2 analytically  !
 ! D27   D(7,11,13,14)          56.6468         calculate D2E/DX2 analytically  !
 ! D28   D(7,11,13,15)         176.9008         calculate D2E/DX2 analytically  !
 ! D29   D(7,11,13,16)         -63.6687         calculate D2E/DX2 analytically  !
 ! D30   D(12,11,13,14)        -60.8269         calculate D2E/DX2 analytically  !
 ! D31   D(12,11,13,15)         59.427          calculate D2E/DX2 analytically  !
 ! D32   D(12,11,13,16)        178.8576         calculate D2E/DX2 analytically  !
 ! D33   D(17,11,13,14)       -179.2527         calculate D2E/DX2 analytically  !
 ! D34   D(17,11,13,15)        -58.9987         calculate D2E/DX2 analytically  !
 ! D35   D(17,11,13,16)         60.4319         calculate D2E/DX2 analytically  !
 ! D36   D(7,11,17,18)        -176.8252         calculate D2E/DX2 analytically  !
 ! D37   D(7,11,17,19)         -56.5564         calculate D2E/DX2 analytically  !
 ! D38   D(7,11,17,20)          63.7463         calculate D2E/DX2 analytically  !
 ! D39   D(12,11,17,18)        -59.401          calculate D2E/DX2 analytically  !
 ! D40   D(12,11,17,19)         60.8678         calculate D2E/DX2 analytically  !
 ! D41   D(12,11,17,20)       -178.8296         calculate D2E/DX2 analytically  !
 ! D42   D(13,11,17,18)         59.0331         calculate D2E/DX2 analytically  !
 ! D43   D(13,11,17,19)        179.3018         calculate D2E/DX2 analytically  !
 ! D44   D(13,11,17,20)        -60.3955         calculate D2E/DX2 analytically  !
 --------------------------------------------------------------------------------
 Trust Radius=3.00D-01 FncErr=5.00D-06 GrdErr=5.00D-06 EigMax=2.50D+02 EigMin=1.00D-04
 Number of steps in this run=    108 maximum allowed number of steps=    120.
 GradGradGradGradGradGradGradGradGradGradGradGradGradGradGradGradGradGrad

                          Input orientation:                          
 ---------------------------------------------------------------------
 Center     Atomic      Atomic             Coordinates (Angstroms)
 Number     Number       Type             X           Y           Z
 ---------------------------------------------------------------------
      1          6           0        6.238322    6.956865    5.125309
      2          6           0        5.131595    6.532444    5.816118
      3          1           0        5.172327    5.744782    6.559864
      4          6           0        3.928220    7.178835    5.506126
      5          1           0        3.016802    6.888953    6.018156
      6          6           0        3.896404    8.187450    4.548385
      7          6           0        5.052953    8.588088    3.867717
      8          6           0        6.262610    7.946621    4.172017
      9          1           0        7.177551    8.233450    3.662643
     10          1           0        2.952062    8.672966    4.324262
     11          6           0        5.005021    9.687480    2.824166
     12          1           0        6.022787    9.815872    2.443295
     13          6           0        4.552010   11.015991    3.438187
     14          1           0        5.199081   11.310136    4.268108
     15          1           0        4.575436   11.809251    2.686276
     16          1           0        3.528125   10.940736    3.815625
     17          6           0        4.100293    9.297296    1.650826
     18          1           0        4.119775   10.073883    0.881611
     19          1           0        4.422519    8.356636    1.197706
     20          1           0        3.064852    9.178137    1.982662
 ---------------------------------------------------------------------
                    Distance matrix (angstroms):
                    1          2          3          4          5
     1  C    0.000000
     2  C    1.371931   0.000000
     3  H    2.159500   1.084080   0.000000
     4  C    2.351779   1.400724   2.171330   0.000000
     5  H    3.343648   2.154128   2.499773   1.084845   0.000000
     6  C    2.707722   2.423198   3.411840   1.391253   2.149423
     7  C    2.376452   2.833394   3.917435   2.436268   3.414287
     8  C    1.374399   2.445845   3.426168   2.796197   3.881000
     9  H    2.156667   3.422983   4.313732   3.881854   4.966684
    10  H    3.792912   3.399681   4.301367   2.140587   2.460929
    11  C    3.777903   4.349948   5.433995   3.826971   4.688959
    12  H    3.926013   4.790726   5.851769   4.552154   5.512026
    13  C    4.708135   5.108098   6.157540   4.403323   5.103484
    14  H    4.556949   5.022672   6.018806   4.496157   5.231813
    15  H    5.679764   6.160350   7.220717   5.459963   6.143297
    16  H    4.993162   5.099620   6.101818   4.143642   4.639993
    17  C    4.703277   5.104669   6.153720   4.402366   5.103689
    18  H    5.675651   6.157510   7.217447   5.459316   6.143649
    19  H    4.547809   5.015994   6.011384   4.493777   5.231336
    20  H    4.988105   5.095734   6.097553   4.142151   4.639815
                    6          7          8          9         10
     6  C    0.000000
     7  C    1.400509   0.000000
     8  C    2.408025   1.402622   0.000000
     9  H    3.398909   2.163733   1.085748   0.000000
    10  H    1.085237   2.151600   3.392710   4.299497   0.000000
    11  C    2.540089   1.516562   2.535512   2.745384   2.737548
    12  H    3.406562   2.115895   2.557361   2.307455   3.778045
    13  C    3.108537   2.515980   3.589664   3.832281   2.972327
    14  H    3.395098   2.755215   3.528960   3.707685   3.465099
    15  H    4.128677   3.464061   4.469216   4.528868   3.892894
    16  H    2.872830   2.804063   4.070522   4.546549   2.394440
    17  C    3.109530   2.514984   3.585574   3.827361   2.975816
    18  H    4.129619   3.463414   4.465843   4.524525   3.895891
    19  H    3.395949   2.753176   3.521445   3.698823   3.469533
    20  H    2.873304   2.802523   4.066394   4.541923   2.398126
                   11         12         13         14         15
    11  C    0.000000
    12  H    1.094255   0.000000
    13  C    1.532052   2.143194   0.000000
    14  H    2.180743   2.498251   1.092699   0.000000
    15  H    2.169209   2.475364   1.093243   1.772073   0.000000
    16  H    2.175974   3.061364   1.093830   1.770110   1.768222
    17  C    1.532156   2.143108   2.520440   3.479802   2.758231
    18  H    2.169444   2.475254   2.758709   3.763188   2.544788
    19  H    2.180786   2.498343   3.479755   4.330540   3.762948
    20  H    2.175274   3.060763   2.776310   3.784655   3.114434
                   16         17         18         19         20
    16  H    0.000000
    17  C    2.777522   0.000000
    18  H    3.116075   1.093233   0.000000
    19  H    3.785632   1.092698   1.772148   0.000000
    20  H    2.584788   1.093825   1.768484   1.770390   0.000000
 Symmetry turned off by external request.
 Stoichiometry    C9H11(1-)
 Framework group  C1[X(C9H11)]
 Deg. of freedom    54
 Full point group                 C1      NOp   1
 Rotational constants (GHZ):           3.4720980           1.1058112           1.0226516
 Standard basis: 6-311+G(d,p) (5D, 7F)
   264 basis functions,   412 primitive gaussians,   273 cartesian basis functions
    33 alpha electrons       33 beta electrons
       nuclear repulsion energy       412.1162894267 Hartrees.
 NAtoms=   20 NActive=   20 NUniq=   20 SFac= 1.00D+00 NAtFMM=   60 NAOKFM=F Big=F
 Integral buffers will be    131072 words long.
 Raffenetti 2 integral format.
 Two-electron integral symmetry is turned off.
 Force inversion solution in PCM.
 ------------------------------------------------------------------------------
 Polarizable Continuum Model (PCM)
 =================================
 Model                : PCM.
 Atomic radii         : SMD-Coulomb.
 Polarization charges : Total charges.
 Charge compensation  : None.
 Solution method      : Matrix inversion.
 Cavity type          : VdW (van der Waals Surface) (Alpha=1.000).
 Cavity algorithm     : GePol (No added spheres)
                        Default sphere list used, NSphG=   20.
                        Lebedev-Laikov grids with approx.  5.0 points / Ang**2.
                        Smoothing algorithm: York/Karplus (Gamma=1.0000).
                        Polarization charges: spherical gaussians, with
                                              point-specific exponents (IZeta= 3).
                        Self-potential: point-specific (ISelfS= 7).
                        Self-field    : sphere-specific E.n sum rule (ISelfD= 2).
 1st derivatives      : Analytical E(r).r(x)/FMM algorithm (CHGder, D1EAlg=3).
                        Cavity 1st derivative terms included.
 2nd derivatives      : Analytical E(r).r(xy)/FMM algorithm (CHGder, D2EAlg=3).
                        Cavity 2nd derivative terms included.
 Solvent              : TetraHydroFuran, Eps=   7.425700 Eps(inf)=   1.974025
 ------------------------------------------------------------------------------
 Spheres list:
 ISph  on   Nord     Re0    Alpha      Xe            Ye            Ze
    1   C      1    1.8500  1.000      6.238322      6.956865      5.125309
    2   C      2    1.8500  1.000      5.131595      6.532444      5.816118
    3   H      3    1.2000  1.000      5.172327      5.744782      6.559864
    4   C      4    1.8500  1.000      3.928220      7.178835      5.506126
    5   H      5    1.2000  1.000      3.016802      6.888953      6.018156
    6   C      6    1.8500  1.000      3.896404      8.187450      4.548385
    7   C      7    1.8500  1.000      5.052953      8.588088      3.867717
    8   C      8    1.8500  1.000      6.262610      7.946621      4.172017
    9   H      9    1.2000  1.000      7.177551      8.233450      3.662643
   10   H     10    1.2000  1.000      2.952062      8.672966      4.324262
   11   C     11    1.8500  1.000      5.005021      9.687480      2.824166
   12   H     12    1.2000  1.000      6.022787      9.815872      2.443295
   13   C     13    1.8500  1.000      4.552010     11.015991      3.438187
   14   H     14    1.2000  1.000      5.199081     11.310136      4.268108
   15   H     15    1.2000  1.000      4.575436     11.809251      2.686276
   16   H     16    1.2000  1.000      3.528125     10.940736      3.815625
   17   C     17    1.8500  1.000      4.100293      9.297296      1.650826
   18   H     18    1.2000  1.000      4.119775     10.073883      0.881611
   19   H     19    1.2000  1.000      4.422519      8.356636      1.197706
   20   H     20    1.2000  1.000      3.064852      9.178137      1.982662
 ------------------------------------------------------------------------------
 ------------------------------------------------------------------------------
 Atomic radii for non-electrostatic terms: SMD-CDS.
 ------------------------------------------------------------------------------
 Nuclear repulsion after PCM non-electrostatic terms =      412.1127922850 Hartrees.
 One-electron integrals computed using PRISM.
 NBasis=   264 RedAO= T EigKep=  2.82D-06  NBF=   264
 NBsUse=   264 1.00D-06 EigRej= -1.00D+00 NBFU=   264
 ExpMin= 4.38D-02 ExpMax= 4.56D+03 ExpMxC= 6.82D+02 IAcc=3 IRadAn=         5 AccDes= 0.00D+00
 Harris functional with IExCor= 1009 and IRadAn=       5 diagonalized for initial guess.
 HarFok:  IExCor= 1009 AccDes= 0.00D+00 IRadAn=         5 IDoV= 1 UseB2=F ITyADJ=14
 ICtDFT=  3500011 ScaDFX=  1.000000  1.000000  1.000000  1.000000
 FoFCou: FMM=F IPFlag=           0 FMFlag=      100000 FMFlg1=           0
         NFxFlg=           0 DoJE=T BraDBF=F KetDBF=T FulRan=T
         wScrn=  0.000000 ICntrl=       500 IOpCl=  0 I1Cent=   200000004 NGrid=           0
         NMat0=    1 NMatS0=      1 NMatT0=    0 NMatD0=    1 NMtDS0=    0 NMtDT0=    0
 Symmetry not used in FoFCou.
 Requested convergence on RMS density matrix=1.00D-08 within 128 cycles.
 Requested convergence on MAX density matrix=1.00D-06.
 Requested convergence on             energy=1.00D-06.
 Level shift goal  0.100 maximum shift  0.100.
 No special actions if energy rises.
 Dynamic level shift is on during FON iterations.
 Inv3:  Mode=1 IEnd=     6912972.
 Iteration    1 A*A^-1 deviation from unit magnitude is 4.11D-15 for   1512.
 Iteration    1 A*A^-1 deviation from orthogonality  is 2.25D-15 for   1371   1142.
 Iteration    1 A^-1*A deviation from unit magnitude is 4.00D-15 for   1512.
 Iteration    1 A^-1*A deviation from orthogonality  is 4.57D-15 for    869    867.
 Error on total polarization charges =  0.07466
 SCF Done:  E(RM062X) =  -349.544038254     A.U. after   16 cycles
            NFock= 16  Conv=0.54D-08     -V/T= 2.0040
 SMD-CDS (non-electrostatic) energy       (kcal/mol) =      -2.19
 (included in total energy above)
 DoSCS=F DFT=T ScalE2(SS,OS)=  1.000000  1.000000
 Range of M.O.s used for correlation:     1   264
 NBasis=   264 NAE=    33 NBE=    33 NFC=     0 NFV=     0
 NROrb=    264 NOA=    33 NOB=    33 NVA=   231 NVB=   231

 **** Warning!!: The largest alpha MO coefficient is  0.20421494D+03

 Symmetrizing basis deriv contribution to polar:
 IMax=3 JMax=2 DiffMx= 0.00D+00
 G2DrvN: will do    21 centers at a time, making    1 passes.
 Calling FoFCou, ICntrl=  3107 FMM=F I1Cent=   0 AccDes= 0.00D+00.
 NEqPCM:  Using equilibrium solvation (IEInf=0, Eps=   7.4257, EpsInf=   1.9740)
 G2PCM: DoFxE=T DoFxN=T DoGrad=T DoDP/DQ/DG/TGxP=FFFF NFrqRd=   0 IEInf=0 SqF1=F DoCFld=F IF1Alg=4.
 End of G2Drv F.D. properties file   721 does not exist.
 End of G2Drv F.D. properties file   722 does not exist.
 End of G2Drv F.D. properties file   788 does not exist.
          IDoAtm=11111111111111111111
 NEqPCM:  Using equilibrium solvation (IEInf=0, Eps=   7.4257, EpsInf=   1.9740)
          Differentiating once with respect to nuclear coordinates.
 Keep R1 ints in memory in canonical form, NReq=647117361.
          There are    63 degrees of freedom in the 1st order CPHF.  IDoFFX=6 NUNeed=     0.
     57 vectors produced by pass  0 Test12= 1.21D-14 1.59D-09 XBig12= 1.15D-01 9.54D-02.
 AX will form    57 AO Fock derivatives at one time.
     57 vectors produced by pass  1 Test12= 1.21D-14 1.59D-09 XBig12= 9.01D-03 2.82D-02.
     57 vectors produced by pass  2 Test12= 1.21D-14 1.59D-09 XBig12= 2.50D-04 3.51D-03.
     57 vectors produced by pass  3 Test12= 1.21D-14 1.59D-09 XBig12= 2.47D-06 2.65D-04.
     57 vectors produced by pass  4 Test12= 1.21D-14 1.59D-09 XBig12= 1.56D-08 1.98D-05.
     57 vectors produced by pass  5 Test12= 1.21D-14 1.59D-09 XBig12= 9.23D-11 1.77D-06.
     42 vectors produced by pass  6 Test12= 1.21D-14 1.59D-09 XBig12= 3.78D-13 9.56D-08.
      7 vectors produced by pass  7 Test12= 1.21D-14 1.59D-09 XBig12= 1.38D-15 4.38D-09.
 InvSVY:  IOpt=1 It=  1 EMax= 3.89D-16
 Solved reduced A of dimension   391 with    63 vectors.
 End of Minotr F.D. properties file   721 does not exist.
 End of Minotr F.D. properties file   722 does not exist.
 End of Minotr F.D. properties file   788 does not exist.

 **********************************************************************

            Population analysis using the SCF Density.

 **********************************************************************

 Alpha  occ. eigenvalues --  -10.51495 -10.50435 -10.50099 -10.50097 -10.49945
 Alpha  occ. eigenvalues --  -10.49543 -10.48181 -10.48178 -10.43171  -0.91784
 Alpha  occ. eigenvalues --   -0.86605  -0.78751  -0.76991  -0.75229  -0.66435
 Alpha  occ. eigenvalues --   -0.63268  -0.57931  -0.54014  -0.50259  -0.48257
 Alpha  occ. eigenvalues --   -0.45532  -0.45280  -0.44855  -0.42806  -0.40590
 Alpha  occ. eigenvalues --   -0.39220  -0.39135  -0.37026  -0.36134  -0.34335
 Alpha  occ. eigenvalues --   -0.26004  -0.24782  -0.16389
 Alpha virt. eigenvalues --    0.03321   0.04473   0.05272   0.05424   0.05700
 Alpha virt. eigenvalues --    0.06701   0.07092   0.07472   0.07974   0.08751
 Alpha virt. eigenvalues --    0.09292   0.09325   0.10130   0.10956   0.12438
 Alpha virt. eigenvalues --    0.12885   0.13279   0.13718   0.13825   0.14417
 Alpha virt. eigenvalues --    0.16634   0.16707   0.18136   0.19133   0.19165
 Alpha virt. eigenvalues --    0.19466   0.19655   0.21100   0.21227   0.21646
 Alpha virt. eigenvalues --    0.22403   0.22705   0.24128   0.24499   0.25497
 Alpha virt. eigenvalues --    0.26357   0.26562   0.26960   0.26970   0.27450
 Alpha virt. eigenvalues --    0.28202   0.28321   0.28960   0.29893   0.30260
 Alpha virt. eigenvalues --    0.30799   0.32055   0.32758   0.32932   0.33864
 Alpha virt. eigenvalues --    0.34589   0.35527   0.39706   0.42525   0.42579
 Alpha virt. eigenvalues --    0.44339   0.46147   0.46675   0.48514   0.53456
 Alpha virt. eigenvalues --    0.53796   0.56085   0.56121   0.57602   0.58324
 Alpha virt. eigenvalues --    0.61969   0.62521   0.62761   0.64116   0.64928
 Alpha virt. eigenvalues --    0.65240   0.67100   0.67352   0.70511   0.70612
 Alpha virt. eigenvalues --    0.71304   0.72970   0.73295   0.73577   0.74375
 Alpha virt. eigenvalues --    0.75244   0.76405   0.77771   0.78051   0.78718
 Alpha virt. eigenvalues --    0.79962   0.80951   0.81648   0.83506   0.83520
 Alpha virt. eigenvalues --    0.83937   0.86159   0.88929   0.90945   0.92221
 Alpha virt. eigenvalues --    0.95122   0.96741   0.98003   0.98500   0.99658
 Alpha virt. eigenvalues --    1.02418   1.04633   1.05265   1.09315   1.11830
 Alpha virt. eigenvalues --    1.13249   1.16839   1.17194   1.21538   1.24139
 Alpha virt. eigenvalues --    1.27137   1.29811   1.30120   1.35796   1.37828
 Alpha virt. eigenvalues --    1.45804   1.50438   1.53058   1.53847   1.56300
 Alpha virt. eigenvalues --    1.56783   1.57936   1.59494   1.62351   1.62460
 Alpha virt. eigenvalues --    1.63362   1.65193   1.65768   1.67463   1.69288
 Alpha virt. eigenvalues --    1.69592   1.70841   1.72662   1.75159   1.75541
 Alpha virt. eigenvalues --    1.76276   1.80106   1.80425   1.81037   1.83247
 Alpha virt. eigenvalues --    1.83328   1.85894   1.86992   1.93385   1.96648
 Alpha virt. eigenvalues --    1.98785   2.00126   2.00705   2.01046   2.01298
 Alpha virt. eigenvalues --    2.04164   2.04859   2.09609   2.10171   2.11084
 Alpha virt. eigenvalues --    2.13255   2.15586   2.17181   2.19748   2.21459
 Alpha virt. eigenvalues --    2.23937   2.31351   2.36121   2.36606   2.43715
 Alpha virt. eigenvalues --    2.44959   2.46520   2.47248   2.50048   2.50787
 Alpha virt. eigenvalues --    2.56767   2.57288   2.58794   2.59295   2.61291
 Alpha virt. eigenvalues --    2.61830   2.62979   2.64012   2.69093   2.72650
 Alpha virt. eigenvalues --    2.73690   2.74437   2.74785   2.77235   2.79131
 Alpha virt. eigenvalues --    2.81253   2.81409   2.81610   2.85885   2.90664
 Alpha virt. eigenvalues --    2.91348   2.93297   2.95189   2.96837   2.98135
 Alpha virt. eigenvalues --    2.98687   3.03443   3.04535   3.08419   3.17187
 Alpha virt. eigenvalues --    3.18964   3.23457   3.27663   3.34636   3.47718
 Alpha virt. eigenvalues --    3.51984   3.53677   3.61720   3.71776   3.77617
 Alpha virt. eigenvalues --    3.83959   3.84493   3.86039   3.90194   3.92483
 Alpha virt. eigenvalues --    4.10400   4.16798   4.22900   4.24482   4.36222
 Alpha virt. eigenvalues --    4.45549   4.91202  23.69989  23.96865  24.07120
 Alpha virt. eigenvalues --   24.07357  24.08526  24.10986  24.22064  24.24761
 Alpha virt. eigenvalues --   24.35331
          Condensed to atoms (all electrons):
               1          2          3          4          5          6
     1  C    8.735143  -1.164959  -0.143968   0.888916  -0.044046  -0.084937
     2  C   -1.164959   6.641813   0.541845  -0.465846   0.073526   0.002222
     3  H   -0.143968   0.541845   0.544686  -0.107706  -0.000819  -0.006948
     4  C    0.888916  -0.465846  -0.107706   6.234008   0.286214   0.011184
     5  H   -0.044046   0.073526  -0.000819   0.286214   0.521138  -0.006615
     6  C   -0.084937   0.002222  -0.006948   0.011184  -0.006615   8.075031
     7  C    1.014056  -0.824821   0.001469   0.515208   0.004739   0.321698
     8  C   -1.860411   1.209809   0.019293  -0.839063   0.013344  -2.000773
     9  H   -0.106765   0.051031   0.000379  -0.026725   0.000159   0.004552
    10  H    0.015078  -0.034428  -0.000323   0.002002  -0.007065   0.229526
    11  C   -0.113732  -0.078810   0.002187  -0.189157   0.007000  -0.325375
    12  H   -0.000494  -0.003722   0.000004  -0.001316   0.000024  -0.082330
    13  C   -0.020982   0.025150  -0.000127   0.011629   0.000041   0.005385
    14  H    0.009865   0.002205  -0.000001  -0.008112   0.000002  -0.004024
    15  H    0.000612   0.000829   0.000000   0.002223   0.000000   0.005954
    16  H   -0.003875  -0.004119  -0.000001   0.007612   0.000032  -0.009790
    17  C   -0.022006   0.025900  -0.000120   0.011274   0.000051   0.000247
    18  H    0.000595   0.000839   0.000000   0.002164   0.000000   0.006068
    19  H    0.009849   0.002297  -0.000001  -0.008176   0.000002  -0.003167
    20  H   -0.003806  -0.004190  -0.000001   0.007840   0.000032  -0.010085
               7          8          9         10         11         12
     1  C    1.014056  -1.860411  -0.106765   0.015078  -0.113732  -0.000494
     2  C   -0.824821   1.209809   0.051031  -0.034428  -0.078810  -0.003722
     3  H    0.001469   0.019293   0.000379  -0.000323   0.002187   0.000004
     4  C    0.515208  -0.839063  -0.026725   0.002002  -0.189157  -0.001316
     5  H    0.004739   0.013344   0.000159  -0.007065   0.007000   0.000024
     6  C    0.321698  -2.000773   0.004552   0.229526  -0.325375  -0.082330
     7  C    8.650184  -1.662788  -0.077853   0.094224  -1.973361  -0.233797
     8  C   -1.662788  10.280404   0.457859   0.013916   0.270602   0.115612
     9  H   -0.077853   0.457859   0.548332  -0.000304  -0.006249   0.004927
    10  H    0.094224   0.013916  -0.000304   0.496520   0.052200  -0.000059
    11  C   -1.973361   0.270602  -0.006249   0.052200   7.864133   0.591717
    12  H   -0.233797   0.115612   0.004927  -0.000059   0.591717   0.509210
    13  C    0.013999   0.096763   0.002299  -0.008195  -0.016527  -0.027319
    14  H   -0.024641   0.009426   0.000140   0.000042   0.006704  -0.005809
    15  H    0.086016   0.002506   0.000060  -0.000074  -0.167293  -0.006070
    16  H   -0.088706  -0.005040  -0.000018  -0.001753   0.098407   0.005653
    17  C    0.009674   0.105230   0.002325  -0.007916  -0.014543  -0.026927
    18  H    0.085461   0.002444   0.000061  -0.000076  -0.166621  -0.006068
    19  H   -0.025596   0.009131   0.000139   0.000041   0.007328  -0.005794
    20  H   -0.087989  -0.005163  -0.000018  -0.001767   0.097767   0.005651
              13         14         15         16         17         18
     1  C   -0.020982   0.009865   0.000612  -0.003875  -0.022006   0.000595
     2  C    0.025150   0.002205   0.000829  -0.004119   0.025900   0.000839
     3  H   -0.000127  -0.000001   0.000000  -0.000001  -0.000120   0.000000
     4  C    0.011629  -0.008112   0.002223   0.007612   0.011274   0.002164
     5  H    0.000041   0.000002   0.000000   0.000032   0.000051   0.000000
     6  C    0.005385  -0.004024   0.005954  -0.009790   0.000247   0.006068
     7  C    0.013999  -0.024641   0.086016  -0.088706   0.009674   0.085461
     8  C    0.096763   0.009426   0.002506  -0.005040   0.105230   0.002444
     9  H    0.002299   0.000140   0.000060  -0.000018   0.002325   0.000061
    10  H   -0.008195   0.000042  -0.000074  -0.001753  -0.007916  -0.000076
    11  C   -0.016527   0.006704  -0.167293   0.098407  -0.014543  -0.166621
    12  H   -0.027319  -0.005809  -0.006070   0.005653  -0.026927  -0.006068
    13  C    5.578282   0.379118   0.431767   0.399040  -0.247860   0.009841
    14  H    0.379118   0.497137  -0.023088  -0.028446   0.013155   0.000115
    15  H    0.431767  -0.023088   0.521972  -0.031254   0.009876   0.002799
    16  H    0.399040  -0.028446  -0.031254   0.504038  -0.014931  -0.000782
    17  C   -0.247860   0.013155   0.009876  -0.014931   5.577339   0.431653
    18  H    0.009841   0.000115   0.002799  -0.000782   0.431653   0.522100
    19  H    0.013184  -0.000324   0.000116  -0.000226   0.378771  -0.023095
    20  H   -0.015124  -0.000227  -0.000793   0.001299   0.399391  -0.031270
              19         20
     1  C    0.009849  -0.003806
     2  C    0.002297  -0.004190
     3  H   -0.000001  -0.000001
     4  C   -0.008176   0.007840
     5  H    0.000002   0.000032
     6  C   -0.003167  -0.010085
     7  C   -0.025596  -0.087989
     8  C    0.009131  -0.005163
     9  H    0.000139  -0.000018
    10  H    0.000041  -0.001767
    11  C    0.007328   0.097767
    12  H   -0.005794   0.005651
    13  C    0.013184  -0.015124
    14  H   -0.000324  -0.000227
    15  H    0.000116  -0.000793
    16  H   -0.000226   0.001299
    17  C    0.378771   0.399391
    18  H   -0.023095  -0.031270
    19  H    0.497220  -0.028373
    20  H   -0.028373   0.503825
 Mulliken charges:
               1
     1  C   -1.104132
     2  C    0.003431
     3  H    0.150153
     4  C   -0.334172
     5  H    0.152241
     6  C   -0.127823
     7  C    0.202825
     8  C   -0.233099
     9  H    0.145668
    10  H    0.158411
    11  C    0.053622
    12  H    0.166908
    13  C   -0.630366
    14  H    0.176764
    15  H    0.163843
    16  H    0.172858
    17  C   -0.630582
    18  H    0.163773
    19  H    0.176675
    20  H    0.173001
 Sum of Mulliken charges =  -1.00000
 Mulliken charges with hydrogens summed into heavy atoms:
               1
     1  C   -1.104132
     2  C    0.153584
     4  C   -0.181931
     6  C    0.030588
     7  C    0.202825
     8  C   -0.087431
    11  C    0.220531
    13  C   -0.116900
    17  C   -0.117133
 APT charges:
               1
     1  C   -1.926797
     2  C    0.268085
     3  H    0.295829
     4  C   -0.588395
     5  H   -0.108543
     6  C   -0.869408
     7  C    0.784382
     8  C    0.155337
     9  H    1.114666
    10  H    0.174374
    11  C   -0.726917
    12  H    1.024819
    13  C   -3.232009
    14  H    1.485865
    15  H    1.093142
    16  H   -0.167257
    17  C    0.307593
    18  H    1.030503
    19  H   -0.786937
    20  H   -0.328332
 Sum of APT charges =  -1.00000
 APT charges with hydrogens summed into heavy atoms:
               1
     1  C   -1.926797
     2  C    0.563913
     4  C   -0.696938
     6  C   -0.695034
     7  C    0.784382
     8  C    1.270003
    11  C    0.297903
    13  C   -0.820259
    17  C    0.222827
 Electronic spatial extent (au):  <R**2>=          27649.3965
 Charge=             -1.0000 electrons
 Dipole moment (field-independent basis, Debye):
    X=            -30.6345    Y=            -32.8513    Z=            -24.9912  Tot=             51.4027
 Quadrupole moment (field-independent basis, Debye-Ang):
   XX=           -259.5449   YY=           -287.3984   ZZ=           -191.6604
   XY=           -207.0837   XZ=           -161.8159   YZ=           -173.3213
 Traceless Quadrupole moment (field-independent basis, Debye-Ang):
   XX=            -13.3437   YY=            -41.1972   ZZ=             54.5408
   XY=           -207.0837   XZ=           -161.8159   YZ=           -173.3213
 Octapole moment (field-independent basis, Debye-Ang**2):
  XXX=          -2214.4199  YYY=          -3110.7809  ZZZ=          -1433.7503  XYY=          -1707.7845
  XXY=          -1837.2355  XXZ=          -1310.2392  XZZ=          -1154.9221  YZZ=          -1429.0120
  YYZ=          -1463.3777  XYZ=          -1108.3765
 Hexadecapole moment (field-independent basis, Debye-Ang**3):
 XXXX=         -18161.7653 YYYY=         -37745.6381 ZZZZ=         -10481.6697 XXXY=         -16147.9901
 XXXZ=         -10823.4611 YYYX=         -17098.8395 YYYZ=         -14622.8503 ZZZX=          -8264.5864
 ZZZY=         -10879.8018 XXYY=         -14868.6959 XXZZ=          -8349.9110 YYZZ=         -12079.6366
 XXYZ=          -9178.7085 YYXZ=          -8899.4245 ZZXY=          -8403.6634
 N-N= 4.121127922850D+02 E-N=-1.645570719163D+03  KE= 3.481679731155D+02
  Exact polarizability:       0.000       0.000       0.000       0.000       0.000       0.000
 Approx polarizability:     156.099      -7.225     137.382      -5.414     -26.221     134.573
 D2PCM: PCM CHGder 2nd derivatives, FixD1E=F FixD2E=F DoIter=F DoCFld=F I1PDM=0
 Calling FoFJK, ICntrl=    100127 FMM=F ISym2X=0 I1Cent= 0 IOpClX= 0 NMat=1 NMatS=1 NMatT=0.
 -------------------------------------------------------------------
 Center     Atomic                   Forces (Hartrees/Bohr)
 Number     Number              X              Y              Z
 -------------------------------------------------------------------
      1        6           0.073480791   -0.038204509    0.016619992
      2        6          -0.024376271    0.022208113   -0.014689740
      3        1          -0.001903417   -0.001644983    0.002027875
      4        6          -0.005101267   -0.007175256    0.008087727
      5        1          -0.005368011    0.001585582   -0.000189915
      6        6          -0.003065407    0.002852076   -0.001447562
      7        6           0.005261453    0.006504662   -0.007482761
      8        6          -0.034783477    0.008260589    0.001381750
      9        1           0.001051114    0.002348918   -0.002484694
     10        1          -0.001093684    0.000534325   -0.000231462
     11        6          -0.004716417   -0.000850204    0.001961638
     12        1           0.000652751    0.000093754   -0.000182890
     13        6           0.000167623    0.000382303   -0.002198341
     14        1           0.000072350   -0.000193446    0.000133574
     15        1          -0.000249433    0.001304750   -0.000031782
     16        1          -0.000064210   -0.000028942    0.000110307
     17        6           0.000615910    0.002133628   -0.000337611
     18        1          -0.000547761    0.000201779   -0.001190401
     19        1           0.000065120   -0.000164750    0.000177551
     20        1          -0.000097755   -0.000148388   -0.000033256
 -------------------------------------------------------------------
 Cartesian Forces:  Max     0.073480791 RMS     0.012977008
 FormGI is forming the generalized inverse of G from B-inverse, IUseBI=4.

 GradGradGradGradGradGradGradGradGradGradGradGradGradGradGradGradGradGrad
 Berny optimization.
 Internal  Forces:  Max     0.050894913 RMS     0.008051409
 Search for a local minimum.
 Step number   1 out of a maximum of  108
 All quantities printed in internal units (Hartrees-Bohrs-Radians)
 Mixed Optimization -- RFO/linear search
 Second derivative matrix not updated -- analytic derivatives used.
 ITU=  0
     Eigenvalues ---    0.00142   0.00264   0.00346   0.00872   0.01743
     Eigenvalues ---    0.01996   0.02397   0.02497   0.02920   0.03472
     Eigenvalues ---    0.03804   0.04108   0.04391   0.04486   0.04520
     Eigenvalues ---    0.04585   0.04648   0.04942   0.10677   0.11578
     Eigenvalues ---    0.11830   0.11843   0.12139   0.12300   0.12612
     Eigenvalues ---    0.12824   0.14147   0.14729   0.16896   0.17664
     Eigenvalues ---    0.18461   0.19096   0.20028   0.20674   0.28430
     Eigenvalues ---    0.29066   0.29339   0.32052   0.33701   0.33824
     Eigenvalues ---    0.33901   0.34027   0.34061   0.34677   0.34792
     Eigenvalues ---    0.34962   0.35267   0.35834   0.36105   0.42085
     Eigenvalues ---    0.42720   0.46122   0.50583   0.52836
 RFO step:  Lambda=-2.57875467D-02 EMin= 1.41615950D-03
 Linear search not attempted -- first point.
 Maximum step size (   0.300) exceeded in Quadratic search.
    -- Step size scaled by   0.892
 Iteration  1 RMS(Cart)=  0.03371558 RMS(Int)=  0.00206611
 Iteration  2 RMS(Cart)=  0.00319207 RMS(Int)=  0.00065261
 Iteration  3 RMS(Cart)=  0.00000442 RMS(Int)=  0.00065260
 Iteration  4 RMS(Cart)=  0.00000000 RMS(Int)=  0.00065260
 Variable       Old X    -DE/DX   Delta X   Delta X   Delta X     New X
                                 (Linear)    (Quad)   (Total)
    R1        2.59257   0.02688   0.00000   0.06066   0.06185   2.65443
    R2        2.59724   0.02587   0.00000   0.05896   0.06019   2.65742
    R3        2.04861   0.00251   0.00000   0.00920   0.00920   2.05782
    R4        2.64698   0.00758   0.00000  -0.00328  -0.00331   2.64367
    R5        2.05006   0.00399   0.00000   0.00442   0.00442   2.05448
    R6        2.62909  -0.00139   0.00000  -0.00107  -0.00233   2.62675
    R7        2.64658  -0.00267   0.00000  -0.00618  -0.00741   2.63916
    R8        2.05080   0.00124   0.00000   0.00285   0.00285   2.05365
    R9        2.65057   0.00776   0.00000  -0.00291  -0.00283   2.64774
   R10        2.86589   0.00320   0.00000   0.00386   0.00386   2.86974
   R11        2.05177   0.00267   0.00000   0.00965   0.00965   2.06142
   R12        2.06784   0.00068   0.00000   0.00178   0.00178   2.06962
   R13        2.89516   0.00048   0.00000   0.00002   0.00002   2.89518
   R14        2.89536   0.00054   0.00000   0.00098   0.00098   2.89633
   R15        2.06490   0.00006   0.00000   0.00033   0.00033   2.06523
   R16        2.06593   0.00097   0.00000   0.00181   0.00181   2.06774
   R17        2.06704   0.00012   0.00000   0.00060   0.00060   2.06764
   R18        2.06591   0.00096   0.00000   0.00178   0.00178   2.06769
   R19        2.06490   0.00011   0.00000   0.00057   0.00057   2.06547
   R20        2.06703   0.00009   0.00000   0.00056   0.00056   2.06759
    A1        2.19727  -0.05089   0.00000  -0.20033  -0.19669   2.00058
    A2        2.14113  -0.01113   0.00000  -0.04730  -0.04780   2.09333
    A3        2.02511   0.02641   0.00000   0.11455   0.11555   2.14066
    A4        2.11695  -0.01528   0.00000  -0.06725  -0.06775   2.04920
    A5        2.08749   0.00361   0.00000   0.00710   0.00787   2.09535
    A6        2.10197   0.00082   0.00000   0.00118  -0.00036   2.10161
    A7        2.09373  -0.00443   0.00000  -0.00828  -0.00751   2.08622
    A8        2.12125  -0.00391   0.00000  -0.03253  -0.03530   2.08595
    A9        2.07877   0.00192   0.00000   0.01595   0.01733   2.09610
   A10        2.08316   0.00199   0.00000   0.01658   0.01796   2.10113
   A11        2.06681   0.00137   0.00000   0.00053  -0.00092   2.06590
   A12        2.11263  -0.00423   0.00000  -0.00251  -0.00179   2.11083
   A13        2.10374   0.00286   0.00000   0.00198   0.00269   2.10644
   A14        2.05396   0.02621   0.00000   0.11660   0.11768   2.17164
   A15        2.13003  -0.01066   0.00000  -0.04891  -0.04946   2.08057
   A16        2.09920  -0.01555   0.00000  -0.06770  -0.06825   2.03095
   A17        1.87042  -0.00093   0.00000  -0.00281  -0.00280   1.86762
   A18        1.94140   0.00139   0.00000   0.00921   0.00921   1.95061
   A19        1.94014   0.00111   0.00000   0.00352   0.00353   1.94367
   A20        1.88891   0.00014   0.00000  -0.00209  -0.00210   1.88681
   A21        1.88867   0.00012   0.00000  -0.00310  -0.00311   1.88556
   A22        1.93173  -0.00185   0.00000  -0.00515  -0.00519   1.92655
   A23        1.94199  -0.00047   0.00000  -0.00163  -0.00163   1.94036
   A24        1.92540   0.00143   0.00000   0.00554   0.00554   1.93094
   A25        1.93416  -0.00024   0.00000  -0.00061  -0.00061   1.93355
   A26        1.89058  -0.00036   0.00000  -0.00090  -0.00090   1.88968
   A27        1.88678   0.00007   0.00000  -0.00110  -0.00110   1.88568
   A28        1.88316  -0.00046   0.00000  -0.00144  -0.00144   1.88171
   A29        1.92560   0.00145   0.00000   0.00663   0.00663   1.93223
   A30        1.94192  -0.00060   0.00000  -0.00286  -0.00287   1.93906
   A31        1.93306  -0.00003   0.00000   0.00011   0.00011   1.93317
   A32        1.89071  -0.00036   0.00000  -0.00108  -0.00107   1.88964
   A33        1.88358  -0.00050   0.00000  -0.00105  -0.00106   1.88252
   A34        1.88722   0.00000   0.00000  -0.00189  -0.00190   1.88533
    D1       -3.14116   0.00008   0.00000   0.00196   0.00178  -3.13939
    D2        0.00060   0.00015   0.00000   0.00183   0.00165   0.00225
    D3       -0.00097  -0.00025   0.00000  -0.00755  -0.00747  -0.00844
    D4        3.14125  -0.00002   0.00000  -0.00081  -0.00049   3.14076
    D5       -3.14140  -0.00008   0.00000   0.00068   0.00066  -3.14074
    D6       -0.00008  -0.00002   0.00000   0.00320   0.00302   0.00294
    D7        0.00036   0.00000   0.00000   0.00055   0.00053   0.00089
    D8       -3.14151   0.00006   0.00000   0.00307   0.00289  -3.13862
    D9       -0.00001  -0.00003   0.00000  -0.00245  -0.00237  -0.00238
   D10        3.14034  -0.00010   0.00000  -0.00452  -0.00426   3.13608
   D11        3.14131   0.00003   0.00000   0.00009  -0.00002   3.14129
   D12       -0.00153  -0.00004   0.00000  -0.00198  -0.00191  -0.00344
   D13       -0.00036  -0.00007   0.00000  -0.00332  -0.00297  -0.00333
   D14        3.13994  -0.00017   0.00000  -0.00806  -0.00771   3.13224
   D15       -3.14070   0.00000   0.00000  -0.00124  -0.00108   3.14141
   D16       -0.00040  -0.00010   0.00000  -0.00598  -0.00581  -0.00621
   D17        0.00080   0.00022   0.00000   0.00803   0.00838   0.00918
   D18       -3.14141   0.00000   0.00000   0.00142   0.00159  -3.13982
   D19       -3.13951   0.00032   0.00000   0.01275   0.01310  -3.12641
   D20        0.00147   0.00010   0.00000   0.00614   0.00631   0.00778
   D21        3.13967  -0.00007   0.00000  -0.00254  -0.00254   3.13713
   D22        1.07818  -0.00044   0.00000  -0.00345  -0.00343   1.07475
   D23       -1.08301   0.00014   0.00000  -0.00602  -0.00604  -1.08905
   D24       -0.00324  -0.00017   0.00000  -0.00738  -0.00738  -0.01062
   D25       -2.06473  -0.00055   0.00000  -0.00829  -0.00828  -2.07301
   D26        2.05726   0.00004   0.00000  -0.01086  -0.01088   2.04638
   D27        0.98867  -0.00065   0.00000  -0.00388  -0.00388   0.98479
   D28        3.08750  -0.00047   0.00000  -0.00239  -0.00239   3.08511
   D29       -1.11123  -0.00027   0.00000  -0.00100  -0.00099  -1.11222
   D30       -1.06163  -0.00041   0.00000  -0.00447  -0.00446  -1.06609
   D31        1.03720  -0.00022   0.00000  -0.00298  -0.00297   1.03422
   D32        3.12165  -0.00002   0.00000  -0.00158  -0.00158   3.12007
   D33       -3.12855   0.00044   0.00000   0.00355   0.00354  -3.12500
   D34       -1.02972   0.00062   0.00000   0.00504   0.00503  -1.02469
   D35        1.05473   0.00082   0.00000   0.00644   0.00643   1.06116
   D36       -3.08618   0.00062   0.00000   0.00544   0.00544  -3.08074
   D37       -0.98710   0.00075   0.00000   0.00663   0.00663  -0.98047
   D38        1.11258   0.00033   0.00000   0.00241   0.00241   1.11499
   D39       -1.03674   0.00020   0.00000   0.00216   0.00215  -1.03459
   D40        1.06234   0.00033   0.00000   0.00335   0.00334   1.06568
   D41       -3.12116  -0.00009   0.00000  -0.00088  -0.00088  -3.12205
   D42        1.03032  -0.00063   0.00000  -0.00524  -0.00523   1.02509
   D43        3.12941  -0.00050   0.00000  -0.00405  -0.00405   3.12536
   D44       -1.05410  -0.00092   0.00000  -0.00828  -0.00827  -1.06237
         Item               Value     Threshold  Converged?
 Maximum Force            0.050895     0.000015     NO 
 RMS     Force            0.008051     0.000010     NO 
 Maximum Displacement     0.214017     0.000060     NO 
 RMS     Displacement     0.034323     0.000040     NO 
 Predicted change in Energy=-1.391325D-02
 GradGradGradGradGradGradGradGradGradGradGradGradGradGradGradGradGradGrad

                          Input orientation:                          
 ---------------------------------------------------------------------
 Center     Atomic      Atomic             Coordinates (Angstroms)
 Number     Number       Type             X           Y           Z
 ---------------------------------------------------------------------
      1          6           0        6.351575    6.893491    5.138495
      2          6           0        5.151619    6.547644    5.781590
      3          1           0        5.144420    5.756365    6.529679
      4          6           0        3.936300    7.182468    5.503890
      5          1           0        3.032506    6.881301    6.027747
      6          6           0        3.873292    8.198506    4.557396
      7          6           0        5.034558    8.585377    3.884907
      8          6           0        6.233463    7.930340    4.195878
      9          1           0        7.120329    8.259459    3.652636
     10          1           0        2.925516    8.684660    4.342008
     11          6           0        5.000556    9.683181    2.836181
     12          1           0        6.023615    9.802320    2.463876
     13          6           0        4.550963   11.022092    3.429815
     14          1           0        5.190511   11.318216    4.265074
     15          1           0        4.587923   11.811348    2.672859
     16          1           0        3.522187   10.958184    3.796816
     17          6           0        4.106795    9.297059    1.652460
     18          1           0        4.138583   10.067498    0.876166
     19          1           0        4.427645    8.350801    1.209401
     20          1           0        3.066389    9.185564    1.972184
 ---------------------------------------------------------------------
                    Distance matrix (angstroms):
                    1          2          3          4          5
     1  C    0.000000
     2  C    1.404662   0.000000
     3  H    2.164641   1.088949   0.000000
     4  C    2.459791   1.398971   2.132033   0.000000
     5  H    3.436151   2.159296   2.444912   1.087185   0.000000
     6  C    2.860529   2.420355   3.386697   1.390019   2.145665
     7  C    2.483645   2.786300   3.874299   2.407369   3.391732
     8  C    1.406248   2.365739   3.370283   2.747210   3.834365
     9  H    2.159776   3.367281   4.295006   3.837329   4.924507
    10  H    3.947221   3.405109   4.276020   2.151333   2.470883
    11  C    3.861123   4.304631   5.392820   3.808264   4.680795
    12  H    3.965152   4.728691   5.802886   4.523515   5.493656
    13  C    4.817378   5.090415   6.139155   4.407074   5.118702
    14  H    4.657159   5.005966   6.005393   4.495789   5.239295
    15  H    5.777123   6.139100   7.200525   5.464968   6.162788
    16  H    5.131011   5.103650   6.095826   4.164327   4.673095
    17  C    4.792558   5.069582   6.115590   4.397053   5.112056
    18  H    5.756657   6.121994   7.180514   5.457119   6.157438
    19  H    4.611186   4.967940   5.962401   4.477617   5.227074
    20  H    5.106033   5.081180   6.070286   4.152359   4.664586
                    6          7          8          9         10
     6  C    0.000000
     7  C    1.396585   0.000000
     8  C    2.402710   1.401124   0.000000
     9  H    3.371285   2.123821   1.090854   0.000000
    10  H    1.086746   2.160291   3.396008   4.272293   0.000000
    11  C    2.537236   1.518604   2.537969   2.680862   2.751427
    12  H    3.402783   2.116250   2.558940   2.235252   3.791406
    13  C    3.115015   2.525580   3.602303   3.779343   2.989609
    14  H    3.398987   2.763559   3.545454   3.668143   3.474441
    15  H    4.137005   3.474972   4.482144   4.470901   3.914823
    16  H    2.884022   2.815181   4.083884   4.500059   2.412916
    17  C    3.114482   2.520130   3.586030   3.762805   3.000687
    18  H    4.137024   3.471596   4.469503   4.457421   3.923753
    19  H    3.396995   2.753489   3.515225   3.637071   3.490141
    20  H    2.882481   2.809346   4.068263   4.485089   2.426277
                   11         12         13         14         15
    11  C    0.000000
    12  H    1.095196   0.000000
    13  C    1.532063   2.142332   0.000000
    14  H    2.179716   2.497262   1.092872   0.000000
    15  H    2.173945   2.478120   1.094200   1.772411   0.000000
    16  H    2.175782   3.061028   1.094145   1.769800   1.768322
    17  C    1.532674   2.141934   2.516349   3.476387   2.755784
    18  H    2.175398   2.478808   2.757251   3.762386   2.543821
    19  H    2.179421   2.495543   3.475808   4.327200   3.760689
    20  H    2.176032   3.060610   2.775155   3.783840   3.114603
                   16         17         18         19         20
    16  H    0.000000
    17  C    2.774773   0.000000
    18  H    3.115039   1.094175   0.000000
    19  H    3.783255   1.093001   1.772470   0.000000
    20  H    2.584418   1.094121   1.768803   1.769657   0.000000
 Symmetry turned off by external request.
 Stoichiometry    C9H11(1-)
 Framework group  C1[X(C9H11)]
 Deg. of freedom    54
 Full point group                 C1      NOp   1
 Rotational constants (GHZ):           3.4353016           1.1017869           1.0154157
 Standard basis: 6-311+G(d,p) (5D, 7F)
   264 basis functions,   412 primitive gaussians,   273 cartesian basis functions
    33 alpha electrons       33 beta electrons
       nuclear repulsion energy       410.8152487646 Hartrees.
 NAtoms=   20 NActive=   20 NUniq=   20 SFac= 1.00D+00 NAtFMM=   60 NAOKFM=F Big=F
 Integral buffers will be    131072 words long.
 Raffenetti 2 integral format.
 Two-electron integral symmetry is turned off.
 ------------------------------------------------------------------------------
 Polarizable Continuum Model (PCM)
 =================================
 Model                : PCM.
 Atomic radii         : SMD-Coulomb.
 Polarization charges : Total charges.
 Charge compensation  : None.
 Solution method      : Matrix inversion.
 Cavity type          : VdW (van der Waals Surface) (Alpha=1.000).
 Cavity algorithm     : GePol (No added spheres)
                        Default sphere list used, NSphG=   20.
                        Lebedev-Laikov grids with approx.  5.0 points / Ang**2.
                        Smoothing algorithm: York/Karplus (Gamma=1.0000).
                        Polarization charges: spherical gaussians, with
                                              point-specific exponents (IZeta= 3).
                        Self-potential: point-specific (ISelfS= 7).
                        Self-field    : sphere-specific E.n sum rule (ISelfD= 2).
 1st derivatives      : Analytical E(r).r(x)/FMM algorithm (CHGder, D1EAlg=3).
                        Cavity 1st derivative terms included.
 Solvent              : TetraHydroFuran, Eps=   7.425700 Eps(inf)=   1.974025
 ------------------------------------------------------------------------------
 Spheres list:
 ISph  on   Nord     Re0    Alpha      Xe            Ye            Ze
    1   C      1    1.8500  1.000      6.351575      6.893491      5.138495
    2   C      2    1.8500  1.000      5.151619      6.547644      5.781590
    3   H      3    1.2000  1.000      5.144420      5.756365      6.529679
    4   C      4    1.8500  1.000      3.936300      7.182468      5.503890
    5   H      5    1.2000  1.000      3.032506      6.881301      6.027747
    6   C      6    1.8500  1.000      3.873292      8.198506      4.557396
    7   C      7    1.8500  1.000      5.034558      8.585377      3.884907
    8   C      8    1.8500  1.000      6.233463      7.930340      4.195878
    9   H      9    1.2000  1.000      7.120329      8.259459      3.652636
   10   H     10    1.2000  1.000      2.925516      8.684660      4.342008
   11   C     11    1.8500  1.000      5.000556      9.683181      2.836181
   12   H     12    1.2000  1.000      6.023615      9.802320      2.463876
   13   C     13    1.8500  1.000      4.550963     11.022092      3.429815
   14   H     14    1.2000  1.000      5.190511     11.318216      4.265074
   15   H     15    1.2000  1.000      4.587923     11.811348      2.672859
   16   H     16    1.2000  1.000      3.522187     10.958184      3.796816
   17   C     17    1.8500  1.000      4.106795      9.297059      1.652460
   18   H     18    1.2000  1.000      4.138583     10.067498      0.876166
   19   H     19    1.2000  1.000      4.427645      8.350801      1.209401
   20   H     20    1.2000  1.000      3.066389      9.185564      1.972184
 ------------------------------------------------------------------------------
 ------------------------------------------------------------------------------
 Atomic radii for non-electrostatic terms: SMD-CDS.
 ------------------------------------------------------------------------------
 Nuclear repulsion after PCM non-electrostatic terms =      410.8118459103 Hartrees.
 One-electron integrals computed using PRISM.
 NBasis=   264 RedAO= T EigKep=  2.88D-06  NBF=   264
 NBsUse=   264 1.00D-06 EigRej= -1.00D+00 NBFU=   264
 Initial guess from the checkpoint file:  "3-isopropyl-ph-anion-opt-freq-thf.chk"
 B after Tr=     0.009478   -0.008874    0.008901
         Rot=    0.999999   -0.000526   -0.001161   -0.000515 Ang=  -0.16 deg.
 ExpMin= 4.38D-02 ExpMax= 4.56D+03 ExpMxC= 6.82D+02 IAcc=3 IRadAn=         5 AccDes= 0.00D+00
 Harris functional with IExCor= 1009 and IRadAn=       5 diagonalized for initial guess.
 HarFok:  IExCor= 1009 AccDes= 0.00D+00 IRadAn=         5 IDoV= 1 UseB2=F ITyADJ=14
 ICtDFT=  3500011 ScaDFX=  1.000000  1.000000  1.000000  1.000000
 FoFCou: FMM=F IPFlag=           0 FMFlag=      100000 FMFlg1=           0
         NFxFlg=           0 DoJE=T BraDBF=F KetDBF=T FulRan=T
         wScrn=  0.000000 ICntrl=       500 IOpCl=  0 I1Cent=   200000004 NGrid=           0
         NMat0=    1 NMatS0=      1 NMatT0=    0 NMatD0=    1 NMtDS0=    0 NMtDT0=    0
 Symmetry not used in FoFCou.
 Requested convergence on RMS density matrix=1.00D-08 within 128 cycles.
 Requested convergence on MAX density matrix=1.00D-06.
 Requested convergence on             energy=1.00D-06.
 Level shift goal  0.100 maximum shift  0.100.
 No special actions if energy rises.
 Dynamic level shift is on during FON iterations.
 Inv3:  Mode=1 IEnd=     6986028.
 Iteration    1 A*A^-1 deviation from unit magnitude is 4.22D-15 for   1521.
 Iteration    1 A*A^-1 deviation from orthogonality  is 3.20D-15 for   1525   1363.
 Iteration    1 A^-1*A deviation from unit magnitude is 3.77D-15 for   1498.
 Iteration    1 A^-1*A deviation from orthogonality  is 2.05D-15 for   1513   1498.
 Error on total polarization charges =  0.07028
 SCF Done:  E(RM062X) =  -349.557587641     A.U. after   14 cycles
            NFock= 14  Conv=0.78D-08     -V/T= 2.0043
 SMD-CDS (non-electrostatic) energy       (kcal/mol) =      -2.14
 (included in total energy above)
 D1PCM: PCM CHGder 1st derivatives, ID1Alg=3 FixD1E=F DoIter=F DoCFld=F I1PDM=0.
 Calling FoFJK, ICntrl=      2127 FMM=F ISym2X=0 I1Cent= 0 IOpClX= 0 NMat=1 NMatS=1 NMatT=0.
 -------------------------------------------------------------------
 Center     Atomic                   Forces (Hartrees/Bohr)
 Number     Number              X              Y              Z
 -------------------------------------------------------------------
      1        6           0.012965312   -0.006675996    0.003405205
      2        6          -0.003810193    0.004035273   -0.002515214
      3        1          -0.000750817   -0.000849926    0.000905837
      4        6          -0.001745140   -0.002484631    0.002744150
      5        1          -0.001092317    0.000210580    0.000071801
      6        6          -0.001860790    0.001380322   -0.000538632
      7        6           0.002050548    0.002568504   -0.002531749
      8        6          -0.004921672    0.000117677   -0.000199540
      9        1           0.000577308    0.001022431   -0.001065032
     10        1          -0.000147662    0.000049883    0.000015490
     11        6          -0.001429973   -0.000537840    0.000570886
     12        1           0.000050260    0.000213072   -0.000064060
     13        6           0.000102751    0.000170489   -0.000695000
     14        1          -0.000024518   -0.000058854    0.000108894
     15        1          -0.000081311    0.000274248    0.000077838
     16        1          -0.000015351   -0.000019301    0.000124128
     17        6           0.000398318    0.000675155   -0.000289661
     18        1          -0.000151547    0.000037772   -0.000224728
     19        1          -0.000065913   -0.000035568    0.000070286
     20        1          -0.000047294   -0.000093292    0.000029103
 -------------------------------------------------------------------
 Cartesian Forces:  Max     0.012965312 RMS     0.002364048

 GradGradGradGradGradGradGradGradGradGradGradGradGradGradGradGradGradGrad
 Berny optimization.
 Using GEDIIS/GDIIS optimizer.
 FormGI is forming the generalized inverse of G from B-inverse, IUseBI=4.
 Internal  Forces:  Max     0.007537650 RMS     0.001495962
 Search for a local minimum.
 Step number   2 out of a maximum of  108
 All quantities printed in internal units (Hartrees-Bohrs-Radians)
 Mixed Optimization -- RFO/linear search
 Update second derivatives using D2CorX and points    1    2
 DE= -1.35D-02 DEPred=-1.39D-02 R= 9.74D-01
 TightC=F SS=  1.41D+00  RLast= 3.02D-01 DXNew= 5.0454D-01 9.0498D-01
 Trust test= 9.74D-01 RLast= 3.02D-01 DXMaxT set to 5.05D-01
 ITU=  1  0
 Use linear search instead of GDIIS.
     Eigenvalues ---    0.00142   0.00264   0.00346   0.00872   0.01743
     Eigenvalues ---    0.01996   0.02396   0.02493   0.02915   0.03458
     Eigenvalues ---    0.03801   0.04109   0.04391   0.04486   0.04520
     Eigenvalues ---    0.04585   0.04648   0.04942   0.10684   0.11570
     Eigenvalues ---    0.11830   0.11843   0.12140   0.12306   0.12611
     Eigenvalues ---    0.12824   0.14147   0.14730   0.16895   0.18430
     Eigenvalues ---    0.18469   0.19366   0.20346   0.20659   0.28405
     Eigenvalues ---    0.29066   0.29347   0.32051   0.33703   0.33824
     Eigenvalues ---    0.33901   0.34033   0.34061   0.34677   0.34792
     Eigenvalues ---    0.34995   0.35272   0.35822   0.36105   0.42100
     Eigenvalues ---    0.42631   0.46058   0.50545   0.51810
 RFO step:  Lambda=-1.70034773D-04 EMin= 1.41687791D-03
 Quartic linear search produced a step of  0.18709.
 Iteration  1 RMS(Cart)=  0.03579721 RMS(Int)=  0.00045859
 Iteration  2 RMS(Cart)=  0.00069213 RMS(Int)=  0.00014066
 Iteration  3 RMS(Cart)=  0.00000022 RMS(Int)=  0.00014066
 Variable       Old X    -DE/DX   Delta X   Delta X   Delta X     New X
                                 (Linear)    (Quad)   (Total)
    R1        2.65443   0.00623   0.01157   0.00334   0.01517   2.66959
    R2        2.65742   0.00624   0.01126   0.00368   0.01520   2.67262
    R3        2.05782   0.00125   0.00172   0.00281   0.00453   2.06235
    R4        2.64367   0.00193  -0.00062   0.00192   0.00131   2.64498
    R5        2.05448   0.00089   0.00083   0.00062   0.00145   2.05593
    R6        2.62675   0.00156  -0.00044   0.00447   0.00377   2.63053
    R7        2.63916   0.00152  -0.00139   0.00536   0.00371   2.64287
    R8        2.05365   0.00015   0.00053  -0.00018   0.00036   2.05401
    R9        2.64774   0.00285  -0.00053   0.00426   0.00374   2.65148
   R10        2.86974   0.00068   0.00072  -0.00007   0.00066   2.87040
   R11        2.06142   0.00131   0.00181   0.00279   0.00459   2.06601
   R12        2.06962   0.00009   0.00033   0.00027   0.00060   2.07022
   R13        2.89518   0.00020   0.00000   0.00054   0.00055   2.89573
   R14        2.89633   0.00007   0.00018   0.00010   0.00029   2.89662
   R15        2.06523   0.00004   0.00006   0.00018   0.00025   2.06547
   R16        2.06774   0.00014   0.00034  -0.00027   0.00006   2.06780
   R17        2.06764   0.00007   0.00011  -0.00009   0.00002   2.06765
   R18        2.06769   0.00018   0.00033   0.00003   0.00037   2.06806
   R19        2.06547  -0.00001   0.00011  -0.00005   0.00006   2.06553
   R20        2.06759   0.00004   0.00010   0.00042   0.00053   2.06812
    A1        2.00058  -0.00754  -0.03680   0.00230  -0.03376   1.96682
    A2        2.09333  -0.00150  -0.00894   0.00316  -0.00588   2.08745
    A3        2.14066   0.00454   0.02162   0.00081   0.02262   2.16328
    A4        2.04920  -0.00304  -0.01268  -0.00397  -0.01674   2.03245
    A5        2.09535   0.00087   0.00147   0.00222   0.00386   2.09922
    A6        2.10161  -0.00035  -0.00007  -0.00239  -0.00281   2.09880
    A7        2.08622  -0.00053  -0.00140   0.00018  -0.00105   2.08517
    A8        2.08595  -0.00045  -0.00660   0.00230  -0.00493   2.08102
    A9        2.09610   0.00018   0.00324  -0.00160   0.00196   2.09806
   A10        2.10113   0.00028   0.00336  -0.00070   0.00298   2.10410
   A11        2.06590  -0.00007  -0.00017  -0.00067  -0.00120   2.06470
   A12        2.11083  -0.00140  -0.00034  -0.00459  -0.00475   2.10609
   A13        2.10644   0.00147   0.00050   0.00525   0.00593   2.11237
   A14        2.17164   0.00387   0.02202  -0.00216   0.02002   2.19166
   A15        2.08057  -0.00101  -0.00925   0.00622  -0.00315   2.07742
   A16        2.03095  -0.00285  -0.01277  -0.00397  -0.01686   2.01409
   A17        1.86762  -0.00011  -0.00052   0.00121   0.00069   1.86831
   A18        1.95061  -0.00002   0.00172   0.00198   0.00371   1.95432
   A19        1.94367   0.00054   0.00066   0.00033   0.00099   1.94466
   A20        1.88681   0.00008  -0.00039  -0.00235  -0.00275   1.88406
   A21        1.88556  -0.00012  -0.00058  -0.00102  -0.00161   1.88395
   A22        1.92655  -0.00038  -0.00097  -0.00032  -0.00130   1.92525
   A23        1.94036  -0.00009  -0.00031  -0.00018  -0.00049   1.93987
   A24        1.93094   0.00044   0.00104   0.00105   0.00209   1.93302
   A25        1.93355  -0.00008  -0.00011   0.00138   0.00127   1.93481
   A26        1.88968  -0.00010  -0.00017   0.00022   0.00005   1.88973
   A27        1.88568  -0.00005  -0.00021  -0.00173  -0.00194   1.88374
   A28        1.88171  -0.00012  -0.00027  -0.00084  -0.00111   1.88060
   A29        1.93223   0.00032   0.00124   0.00116   0.00240   1.93464
   A30        1.93906  -0.00010  -0.00054  -0.00022  -0.00075   1.93830
   A31        1.93317  -0.00003   0.00002  -0.00163  -0.00161   1.93156
   A32        1.88964  -0.00006  -0.00020   0.00079   0.00059   1.89024
   A33        1.88252  -0.00009  -0.00020   0.00111   0.00091   1.88343
   A34        1.88533  -0.00004  -0.00035  -0.00119  -0.00155   1.88378
    D1       -3.13939  -0.00012   0.00033   0.00019   0.00051  -3.13887
    D2        0.00225  -0.00004   0.00031   0.00239   0.00274   0.00498
    D3       -0.00844   0.00023  -0.00140   0.01696   0.01560   0.00716
    D4        3.14076  -0.00007  -0.00009   0.00252   0.00236  -3.14006
    D5       -3.14074  -0.00005   0.00012  -0.01010  -0.01003   3.13242
    D6        0.00294  -0.00012   0.00057  -0.01430  -0.01375  -0.01081
    D7        0.00089   0.00003   0.00010  -0.00794  -0.00787  -0.00698
    D8       -3.13862  -0.00004   0.00054  -0.01214  -0.01159   3.13298
    D9       -0.00238   0.00008  -0.00044   0.00732   0.00680   0.00442
   D10        3.13608   0.00012  -0.00080   0.00866   0.00777  -3.13933
   D11        3.14129   0.00001   0.00000   0.00314   0.00311  -3.13879
   D12       -0.00344   0.00005  -0.00036   0.00448   0.00408   0.00064
   D13       -0.00333   0.00011  -0.00056   0.01070   0.01005   0.00672
   D14        3.13224   0.00016  -0.00144   0.00925   0.00774   3.13998
   D15        3.14141   0.00007  -0.00020   0.00936   0.00908  -3.13270
   D16       -0.00621   0.00012  -0.00109   0.00791   0.00677   0.00056
   D17        0.00918  -0.00025   0.00157  -0.02386  -0.02234  -0.01315
   D18       -3.13982   0.00005   0.00030  -0.00975  -0.00948   3.13389
   D19       -3.12641  -0.00029   0.00245  -0.02238  -0.01998   3.13680
   D20        0.00778   0.00002   0.00118  -0.00827  -0.00712   0.00065
   D21        3.13713  -0.00022  -0.00047  -0.05471  -0.05519   3.08194
   D22        1.07475  -0.00023  -0.00064  -0.05373  -0.05437   1.02038
   D23       -1.08905  -0.00013  -0.00113  -0.05503  -0.05617  -1.14522
   D24       -0.01062  -0.00017  -0.00138  -0.05622  -0.05759  -0.06821
   D25       -2.07301  -0.00019  -0.00155  -0.05523  -0.05677  -2.12977
   D26        2.04638  -0.00008  -0.00204  -0.05653  -0.05856   1.98782
   D27        0.98479  -0.00027  -0.00073  -0.00891  -0.00963   0.97516
   D28        3.08511  -0.00016  -0.00045  -0.00805  -0.00850   3.07661
   D29       -1.11222  -0.00009  -0.00019  -0.00752  -0.00771  -1.11993
   D30       -1.06609  -0.00017  -0.00084  -0.01008  -0.01091  -1.07700
   D31        1.03422  -0.00007  -0.00056  -0.00922  -0.00978   1.02445
   D32        3.12007   0.00001  -0.00030  -0.00870  -0.00899   3.11109
   D33       -3.12500   0.00014   0.00066  -0.00727  -0.00661  -3.13161
   D34       -1.02469   0.00025   0.00094  -0.00642  -0.00548  -1.03016
   D35        1.06116   0.00032   0.00120  -0.00589  -0.00469   1.05648
   D36       -3.08074  -0.00001   0.00102  -0.00864  -0.00762  -3.08836
   D37       -0.98047   0.00005   0.00124  -0.00700  -0.00577  -0.98623
   D38        1.11499  -0.00008   0.00045  -0.00972  -0.00927   1.10571
   D39       -1.03459   0.00010   0.00040  -0.00760  -0.00719  -1.04178
   D40        1.06568   0.00016   0.00062  -0.00596  -0.00534   1.06034
   D41       -3.12205   0.00002  -0.00017  -0.00868  -0.00885  -3.13090
   D42        1.02509  -0.00010  -0.00098  -0.01122  -0.01219   1.01290
   D43        3.12536  -0.00004  -0.00076  -0.00958  -0.01033   3.11502
   D44       -1.06237  -0.00017  -0.00155  -0.01230  -0.01384  -1.07621
         Item               Value     Threshold  Converged?
 Maximum Force            0.007538     0.000015     NO 
 RMS     Force            0.001496     0.000010     NO 
 Maximum Displacement     0.117009     0.000060     NO 
 RMS     Displacement     0.035904     0.000040     NO 
 Predicted change in Energy=-4.663205D-04
 GradGradGradGradGradGradGradGradGradGradGradGradGradGradGradGradGradGrad

                          Input orientation:                          
 ---------------------------------------------------------------------
 Center     Atomic      Atomic             Coordinates (Angstroms)
 Number     Number       Type             X           Y           Z
 ---------------------------------------------------------------------
      1          6           0        6.365233    6.852723    5.115615
      2          6           0        5.154744    6.551271    5.778584
      3          1           0        5.136629    5.767594    6.537900
      4          6           0        3.941375    7.200866    5.523993
      5          1           0        3.041822    6.914390    6.064709
      6          6           0        3.876517    8.220101    4.578129
      7          6           0        5.035159    8.582050    3.883520
      8          6           0        6.223189    7.890980    4.165845
      9          1           0        7.097578    8.207116    3.590717
     10          1           0        2.934339    8.725518    4.382474
     11          6           0        5.001087    9.688154    2.843047
     12          1           0        6.028215    9.827097    2.488285
     13          6           0        4.522082   11.017824    3.435192
     14          1           0        5.137455   11.313860    4.288616
     15          1           0        4.567713   11.814531    2.686510
     16          1           0        3.485772   10.940899    3.777710
     17          6           0        4.134647    9.298642    1.640084
     18          1           0        4.159960   10.078771    0.873011
     19          1           0        4.482685    8.364679    1.191417
     20          1           0        3.092545    9.158806    1.943699
 ---------------------------------------------------------------------
                    Distance matrix (angstroms):
                    1          2          3          4          5
     1  C    0.000000
     2  C    1.412687   0.000000
     3  H    2.170223   1.091347   0.000000
     4  C    2.482552   1.399663   2.123890   0.000000
     5  H    3.456826   2.162906   2.434599   1.087951   0.000000
     6  C    2.890039   2.420734   3.382807   1.392015   2.147445
     7  C    2.505539   2.780222   3.870038   2.407319   3.392944
     8  C    1.414290   2.353151   3.363930   2.743629   3.831515
     9  H    2.167031   3.362022   4.299125   3.835585   4.923509
    10  H    3.976920   3.406857   4.271447   2.154472   2.474197
    11  C    3.881383   4.298956   5.388980   3.807501   4.680982
    12  H    3.982881   4.724410   5.802919   4.524103   5.494835
    13  C    4.854802   5.083488   6.129387   4.389702   5.093496
    14  H    4.700331   4.990246   5.985010   4.457968   5.186667
    15  H    5.809576   6.132490   7.191823   5.452478   6.144262
    16  H    5.176338   5.104684   6.091557   4.152701   4.651906
    17  C    4.799724   5.071078   6.120529   4.418458   5.143562
    18  H    5.768041   6.123520   7.185478   5.473733   6.182012
    19  H    4.607530   4.978174   5.979747   4.518705   5.284733
    20  H    5.107794   5.075258   6.065087   4.168039   4.692835
                    6          7          8          9         10
     6  C    0.000000
     7  C    1.398549   0.000000
     8  C    2.405238   1.403104   0.000000
     9  H    3.369033   2.116573   1.093284   0.000000
    10  H    1.086934   2.164020   3.399988   4.269447   0.000000
    11  C    2.535813   1.518951   2.544242   2.673529   2.750991
    12  H    3.402894   2.117305   2.569197   2.232315   3.791239
    13  C    3.090358   2.529277   3.633838   3.815423   2.944985
    14  H    3.353375   2.763576   3.593049   3.739117   3.400300
    15  H    4.120182   3.478545   4.508136   4.497916   3.884097
    16  H    2.862882   2.824175   4.116565   4.533617   2.361722
    17  C    3.140380   2.521395   3.566930   3.711517   3.047935
    18  H    4.154863   3.474091   4.459383   4.417988   3.955979
    19  H    3.443567   2.756791   3.478645   3.552342   3.565168
    20  H    2.904479   2.805228   4.043050   4.433810   2.482013
                   11         12         13         14         15
    11  C    0.000000
    12  H    1.095515   0.000000
    13  C    1.532353   2.140771   0.000000
    14  H    2.179721   2.499021   1.093002   0.000000
    15  H    2.175729   2.474319   1.094234   1.772574   0.000000
    16  H    2.176958   3.060586   1.094155   1.768667   1.767639
    17  C    1.532826   2.141100   2.515573   3.475837   2.759031
    18  H    2.177410   2.482504   2.752766   3.761289   2.543207
    19  H    2.179038   2.491826   3.474947   4.326549   3.760853
    20  H    2.175217   3.059632   2.779222   3.784779   3.127422
                   16         17         18         19         20
    16  H    0.000000
    17  C    2.772632   0.000000
    18  H    3.104041   1.094369   0.000000
    19  H    3.784132   1.093032   1.773033   0.000000
    20  H    2.587292   1.094401   1.769770   1.768913   0.000000
 Symmetry turned off by external request.
 Stoichiometry    C9H11(1-)
 Framework group  C1[X(C9H11)]
 Deg. of freedom    54
[...]
 859,-0.00069179,-0.05771185,-0.01329313,0.03261604,-0.24975029,0.10892
 223,-0.04779815,0.62598410,0.02960670,-0.18047646,0.11252228,-0.050649
 22,-0.00530210,0.01874660,-0.00132951,0.00523035,0.00546312,0.02279400
 ,-0.03920771,0.02159899,0.00099467,-0.00071195,0.00021193,0.02713883,0
 .03849428,-0.03523973,0.04934150,-0.13943902,0.04971318,-0.04661421,0.
 39710856,-0.01161378,0.11741011,-0.16015710,0.03692099,0.01286779,-0.0
 2436651,0.00514917,0.00527711,0.00409899,-0.01722382,0.01981852,-0.023
 23654,-0.00099059,0.00027982,-0.00022163,-0.00541508,-0.02322176,0.033
 20770,0.00811892,0.03215694,-0.10313968,-0.10312771,-0.22969010,0.3876
 0077,0.00602081,-0.00096028,-0.00180431,0.00296405,0.00127280,0.001073
 02,-0.00003019,0.00007834,-0.00005311,0.00028212,0.00048365,-0.0009254
 3,-0.00009319,-0.00041932,-0.00014893,-0.00346968,0.00468405,-0.001302
 17,-0.02288027,-0.00863122,0.01642139,-0.22253836,-0.05301193,0.105192
 65,0.24027008,-0.01707794,-0.00902304,0.01082287,0.00037784,0.00180557
 ,0.00818776,-0.00091385,-0.00030345,0.00060631,0.00023713,-0.00135825,
 0.00001986,-0.00046123,-0.00076663,-0.00094938,0.00336858,0.00246944,0
 .00324761,0.01239427,0.00509409,-0.00392587,-0.05783142,-0.06494961,0.
 04233013,0.05783729,0.06872868,0.01345316,0.00599416,-0.01277010,0.001
 85862,0.00793561,0.00247803,0.00088871,0.00030556,-0.00051336,-0.00070
 183,-0.00006939,-0.00095399,-0.00010410,-0.00096175,-0.00097096,-0.000
 02529,0.00283909,0.00427007,-0.00337620,0.00221666,0.00380680,0.109582
 48,0.04091158,-0.11004180,-0.11883927,-0.05777355,0.11620067,-0.000159
 37,-0.00079896,-0.00027265,0.00265905,0.00081655,0.00076532,-0.0001228
 2,0.00004023,0.00010329,0.00181207,-0.00116956,0.00139754,0.00057587,-
 0.00038222,-0.00109973,-0.26461366,0.11359505,-0.03944952,-0.01781675,
 0.01367550,-0.00670347,-0.00191789,-0.00199960,0.00465389,-0.00134906,
 0.00069846,-0.00016548,0.27990597,-0.00066636,-0.00179523,-0.00150636,
 -0.00062630,0.00100126,0.00667333,0.00112856,-0.00051430,0.00047843,0.
 02133790,-0.00630617,0.00236871,-0.00114087,-0.00126523,-0.00258333,0.
 11277118,-0.10537628,0.03443183,-0.00604046,0.00724410,-0.00205361,-0.
 00087731,0.00353026,0.00381903,-0.00042739,0.00028001,0.00016282,-0.12
 454071,0.10654276,-0.00042694,-0.00149827,-0.00204549,0.00219534,0.006
 22854,0.00132370,-0.00092425,0.00080780,-0.00013601,-0.01994614,0.0090
 5095,0.00016619,-0.00037845,-0.00281939,-0.00158691,-0.03856570,0.0341
 0051,-0.05481181,0.01208567,-0.00792692,0.00713996,0.00353024,0.004210
 06,0.00228132,0.00089234,-0.00017545,0.00019651,0.04224042,-0.04077874
 ,0.04994302,-0.00369019,0.00316078,-0.00003801,-0.00085379,0.00062368,
 -0.00039973,0.00018877,-0.00028145,-0.00036239,-0.00480244,-0.00006143
 ,0.00368469,0.00003055,-0.00104309,0.00111588,0.00639949,-0.01995241,0
 .01769555,-0.09053355,-0.00078303,0.00685671,0.00304628,0.01930882,-0.
 01783292,0.00026478,0.00113121,-0.00207180,-0.00001602,-0.00023663,-0.
 00075135,0.58866387,0.00190256,0.00382360,0.00199803,0.00056375,-0.000
 20851,-0.00002978,-0.00036872,-0.00085471,-0.00095132,0.00027619,0.004
 87357,0.00185986,0.00036559,0.00038670,0.00001756,-0.00424463,-0.00654
 362,0.00909103,0.00348760,-0.13782219,0.06279205,0.00397595,-0.0118206
 9,0.01554078,-0.00236765,-0.00104837,-0.00159153,0.00058866,-0.0016262
 1,-0.00178145,0.00954058,0.47383787,0.00123761,0.00136415,0.00500158,-
 0.00002893,0.00010081,-0.00007834,-0.00030310,-0.00099794,-0.00098712,
 0.00295973,0.00206792,0.00406969,-0.00021364,0.00038064,0.00014843,0.0
 0269323,0.01372325,-0.01190346,0.00315742,0.06342142,-0.13219554,-0.00
 306299,0.01098952,-0.00371356,0.00097956,-0.00275413,-0.00141237,-0.00
 151235,-0.00153623,-0.00142953,-0.04167588,-0.01774257,0.48102831,0.00
 060500,-0.00057561,0.00042903,0.00017879,0.00014527,-0.00016475,0.0000
 5553,-0.00002051,-0.00001069,-0.00032702,0.00021575,-0.00007647,-0.000
 03368,-0.00009957,0.00005406,0.00082532,-0.00014551,0.00016164,-0.0013
 5706,-0.00055777,0.00086251,-0.00016736,0.00272850,-0.00243022,0.00003
 187,0.00025506,-0.00036154,0.00004779,0.00004056,-0.00008702,-0.272082
 10,-0.03140223,0.08024009,0.29782869,-0.00006065,0.00003481,-0.0002502
 3,0.00025212,-0.00004530,0.00007244,0.00006215,-0.00002257,0.00000965,
 -0.00114224,0.00026411,0.00035349,-0.00003854,-0.00035156,0.00022242,0
 .00176970,-0.00286035,0.00323716,-0.02252619,-0.00534379,0.00962154,-0
 .00187688,0.00032445,0.00027186,0.00115070,-0.00099190,0.00027485,-0.0
 0014205,0.00006346,-0.00021034,-0.02903404,-0.05072184,0.01027844,0.03
 073225,0.06242323,-0.00017756,-0.00008283,-0.00010684,-0.00020058,0.00
 009089,0.00009869,-0.00007050,0.00003554,0.00000506,0.00122783,-0.0000
 7719,-0.00020061,0.00000304,0.00022855,-0.00037589,-0.00165680,0.00384
 694,-0.00191481,0.02192520,0.00499231,-0.01039750,0.00175266,-0.001107
 37,0.00051590,-0.00103543,0.00048846,-0.00043314,0.00006655,-0.0002481
 4,0.00007368,0.07816643,0.01073687,-0.07407955,-0.08349361,-0.01297026
 ,0.08660722,0.00010640,-0.00035370,-0.00007489,0.00006807,-0.00020304,
 0.00007054,0.00002390,0.00007180,0.00001212,-0.00021933,0.00023504,-0.
 00020496,0.00002090,0.00004244,0.00008862,0.00004177,-0.00090461,0.001
 23391,-0.00044160,0.00237017,-0.00355815,-0.00038112,0.00053460,-0.000
 51006,0.00038011,0.00021843,0.00015359,-0.00022644,-0.00001158,0.00007
 989,-0.08997741,0.03242196,0.01927058,-0.00917908,0.02888627,0.0124610
 9,0.56275744,0.00021372,0.00018116,0.00099860,0.00042076,-0.00013766,0
 .00015786,-0.00003992,-0.00014180,-0.00012150,0.00064339,0.00069338,-0
 .00002911,-0.00003936,0.00002670,-0.00008950,0.00050408,-0.00005471,-0
 .00068240,0.00868889,-0.02987920,-0.00355439,-0.00201098,-0.00034877,0
 .00014291,0.00011506,-0.00008123,-0.00028753,0.00006507,-0.00051466,0.
 00020053,0.03124389,-0.16089850,-0.04240631,0.00012099,0.00073795,0.00
 054864,0.02883216,0.49561207,-0.00076203,-0.00005753,-0.00091578,-0.00
 028949,0.00050058,-0.00061024,0.00007499,0.00018751,0.00007618,-0.0001
 8267,-0.00063424,0.00006396,0.00007202,0.00004337,-0.00011470,0.000158
 83,0.00161116,-0.00093824,-0.00863085,0.01809183,0.01141527,0.00096705
 ,0.00196527,-0.00251489,-0.00011217,0.00017519,0.00025534,0.00003496,0
 .00023067,-0.00003099,0.01634318,-0.03663488,-0.09326456,0.00350741,-0
 .01055982,-0.00502685,0.01712491,-0.03217547,0.56535820,0.00002503,0.0
 0006964,-0.00005439,-0.00007710,-0.00002395,0.00005582,-0.00000356,-0.
 00001989,-0.00000169,0.00011703,-0.00004478,0.00009995,-0.00001222,-0.
 00000963,-0.00000448,-0.00030649,-0.00001181,0.00013248,0.00055214,-0.
 00006534,0.00015402,0.00007164,-0.00040798,0.00014166,-0.00005905,-0.0
 0001111,0.00003315,0.00005029,-0.00005856,-0.00008580,0.00616037,0.003
 07473,0.00927076,0.00057956,-0.00076278,-0.00011863,-0.13644862,-0.041
 27488,-0.12039640,0.14356394,0.00004566,-0.00006573,0.00001759,-0.0000
 0999,0.00000919,-0.00003373,0.00000843,0.00001119,0.00000224,-0.000032
 14,-0.00004377,0.00004133,0.00000145,-0.00001862,0.00000168,-0.0001253
 4,0.00011985,0.00030382,-0.00087637,0.00127657,-0.00122620,0.00022187,
 0.00015103,0.00017142,0.00001848,-0.00001799,-0.00001647,0.00002664,-0
 .00000706,-0.00005947,-0.01761707,-0.00774792,-0.02051779,0.00014645,0
 .00115106,0.00055191,-0.03987111,-0.06463095,-0.05264614,0.04289419,0.
 06994859,0.00008009,-0.00007419,-0.00005729,0.00004140,-0.00001545,0.0
 0000253,0.00000778,0.00002030,0.00002860,-0.00012274,-0.00005470,-0.00
 016469,-0.00000120,-0.00001422,0.00001236,-0.00006093,-0.00025774,0.00
 030384,0.00037492,0.00134770,0.00039577,0.00006047,-0.00030052,0.00033
 486,0.00001439,0.00000681,0.00000685,0.00006101,0.00002107,0.00006645,
 -0.00690782,-0.00168156,-0.00939007,0.00017925,0.00036251,0.00004575,-
 0.11978430,-0.05433711,-0.20859316,0.13092824,0.06132065,0.22397530,-0
 .00013612,-0.00019351,0.00004632,0.00025733,0.00003372,-0.00012438,0.0
 0003424,0.00005529,0.00004884,-0.00009174,-0.00003851,-0.00042303,0.00
 000261,0.00001006,-0.00003528,-0.00009010,-0.00011922,0.00002485,0.000
 11019,0.00154504,0.00195111,0.00004174,0.00023749,-0.00033810,-0.00002
 011,0.00003941,0.00005036,0.00028766,0.00012563,0.00013967,-0.00061414
 ,0.00890642,-0.00779753,0.00025770,-0.00041366,-0.00055814,-0.04788666
 ,-0.00998011,0.00807773,0.00100703,0.01436423,-0.01206599,0.04667070,0
 .00033047,-0.00002389,0.00047124,0.00015619,-0.00024215,0.00019210,-0.
 00003579,-0.00010344,-0.00002154,0.00000961,0.00020010,0.00004769,-0.0
 0004071,-0.00005319,0.00008366,0.00044588,-0.00016000,0.00014042,0.002
 42049,-0.00349046,-0.00402194,-0.00075891,-0.00079055,0.00067112,0.000
 08164,-0.00004407,-0.00010962,-0.00009263,0.00011518,-0.00004911,-0.00
 233808,-0.02012602,0.02009735,0.00013395,0.00123486,0.00005436,-0.0096
 3428,-0.18267712,0.13140057,0.00139978,0.00688184,-0.00627202,0.008389
 68,0.19972457,0.00014014,0.00007355,-0.00000601,-0.00009886,-0.0000145
 8,0.00003730,-0.00001617,-0.00001626,-0.00003123,0.00000499,0.00005158
 ,0.00015382,0.00000189,-0.00000672,-0.00000040,-0.00006073,0.00003470,
 0.00034249,0.00062167,-0.00164334,-0.00064453,0.00012670,-0.00022531,0
 .00050189,-0.00000340,-0.00002313,-0.00004345,-0.00012975,-0.00004588,
 -0.00009993,-0.00143149,-0.01069672,0.00822921,-0.00035950,0.00071390,
 0.00056082,0.00830153,0.13294571,-0.17508085,0.00269412,0.01713009,-0.
 01578353,-0.00990033,-0.14389029,0.18749903,-0.00011051,-0.00014766,0.
 00010615,0.00038255,-0.00003394,0.00001283,0.00004550,0.00001269,0.000
 04251,0.00010753,0.00014445,-0.00047545,-0.00000981,-0.00000043,-0.000
 03599,-0.00036449,-0.00053034,-0.00016300,0.00018277,-0.00088103,0.000
 95514,-0.00017936,0.00026088,-0.00019205,0.00010558,0.00004346,-0.0000
 4563,0.00047677,-0.00041441,0.00017422,-0.01110934,-0.00009568,0.00312
 575,0.00078133,0.00227359,0.00066963,-0.28408673,-0.02010880,0.0782292
 1,-0.01601625,-0.00135497,0.00608787,0.00013313,-0.00034938,-0.0002254
 4,0.30799079,0.00005226,0.00022429,-0.00023544,-0.00031469,0.00010944,
 0.00003073,-0.00003166,-0.00000318,-0.00000012,0.00001037,-0.00023962,
 0.00024717,0.00000556,-0.00003069,-0.00002885,0.00013103,-0.00039640,-
 0.00008017,-0.00011265,0.00187587,-0.00018963,0.00039555,-0.00030877,0
 .00046442,-0.00014864,-0.00003690,0.00001141,-0.00038204,-0.00141281,0
 .00036605,0.02820034,0.00152110,-0.01008512,0.00179225,-0.00489593,-0.
 00245405,-0.02142183,-0.04698382,0.00740524,-0.00713364,-0.00167186,0.
 00317882,-0.02205864,-0.00184503,0.00577626,0.02122187,0.05236165,0.00
 004250,0.00001814,-0.00004664,-0.00014516,0.00001393,0.00002584,-0.000
 01363,-0.00000735,-0.00000550,-0.00008896,-0.00006071,0.00013591,0.000
 00663,-0.00000339,0.00003509,0.00021021,0.00040453,-0.00004405,-0.0007
 2916,0.00032647,-0.00023019,0.00007161,-0.00003527,0.00010654,-0.00005
 219,-0.00001536,0.00000219,-0.00011444,0.00046821,-0.00011762,0.012267
 50,0.00085675,-0.00517064,0.00059243,-0.00257789,-0.00030876,0.0784542
 5,0.00695788,-0.07264887,-0.02391345,-0.00176225,0.00908586,0.02107704
 ,0.00078560,-0.00682664,-0.08804948,-0.00592320,0.07547314,0.00025319,
 -0.00006713,0.00036211,0.00017480,-0.00026560,0.00027522,-0.00000590,-
 0.00002803,-0.00005455,-0.00026556,0.00035455,-0.00024549,-0.00003654,
 -0.00012512,-0.00001804,-0.00047433,-0.00142457,0.00131695,-0.00015949
 ,0.00569555,-0.00449742,-0.00013427,0.00011017,-0.00009845,0.00017185,
 -0.00021535,-0.00025660,-0.00015546,0.00005290,-0.00001606,-0.11724170
 ,-0.02166075,-0.05091016,-0.01849274,-0.00866491,-0.02688466,0.0059161
 8,0.00170982,0.00756437,0.00013900,0.00290760,0.00179351,0.00000677,-0
 .00006687,0.00021568,0.00102126,0.00065528,0.00084647,0.53595354,0.000
 24479,-0.00098734,-0.00050566,0.00010305,-0.00071862,0.00044094,0.0000
 1468,0.00009717,0.00023735,0.00006091,-0.00014484,-0.00071495,-0.00008
 770,-0.00008504,0.00006889,0.00040839,-0.00045735,0.00121911,0.0153538
 7,0.00702422,0.01815793,-0.00099633,-0.00224240,0.00198536,0.00021794,
 0.00027449,0.00021945,-0.00001975,0.00001056,0.00018916,-0.01725278,-0
 .08151166,-0.01990843,-0.00280682,-0.00164008,-0.00381736,-0.01836053,
 -0.01274443,-0.02754025,0.00180312,-0.00525919,-0.00288573,-0.00065396
 ,0.00101557,-0.00020920,-0.00036005,0.00166693,0.00067756,-0.01704125,
 0.57448838,0.00024003,0.00093806,0.00010783,-0.00041850,0.00028770,-0.
 00003460,-0.00003784,-0.00011424,-0.00012551,-0.00022480,0.00012447,0.
 00091430,0.00002261,-0.00006837,0.00002477,-0.00067527,-0.00017348,0.0
 0034619,-0.01501999,0.00069585,-0.02590778,0.00174548,-0.00083145,-0.0
 0044685,-0.00024509,-0.00015206,0.00002496,-0.00001339,0.00012239,-0.0
 0034301,-0.05094860,-0.02570837,-0.14333950,0.00410592,0.00225638,0.00
 652243,-0.00934316,-0.01004826,-0.01595051,0.00071069,-0.00172017,-0.0
 0015122,-0.00029955,0.00138969,0.00092330,-0.00069122,0.00119713,0.000
 50993,-0.04678074,-0.01779499,0.50950433,-0.00015327,0.00001256,0.0003
 0773,0.00032862,0.00010666,-0.00018088,-0.00000244,-0.00005463,-0.0000
 8709,0.00000562,0.00053570,0.00008208,0.00001982,0.00005254,-0.0000268
 5,-0.00004254,0.00008123,0.00012362,-0.00157172,-0.00247394,-0.0023853
 8,0.00013503,0.00058090,-0.00043641,-0.00007667,-0.00006298,-0.0000394
 2,0.00013789,-0.00023274,-0.00022269,-0.00016485,0.01419589,-0.0145265
 8,0.00059067,0.00051903,0.00075611,0.00033107,0.00074905,0.00079998,-0
 .00016397,0.00005270,0.00014321,0.00019129,-0.00023165,0.00016867,-0.0
 0000699,-0.00012842,-0.00000533,-0.04719382,-0.00639115,0.00765577,0.0
 4744780,-0.00004732,0.00003899,0.00003051,-0.00001782,-0.00000311,-0.0
 0000248,-0.00000128,-0.00002038,-0.00000030,0.00007102,-0.00002511,0.0
 0006708,-0.00000881,-0.00001415,-0.00000199,0.00023256,0.00033570,-0.0
 0007916,-0.00063845,0.00021512,-0.00081873,-0.00010322,0.00038300,-0.0
 0003034,-0.00000104,-0.00003088,-0.00002024,0.00001658,-0.00006253,-0.
 00003458,0.00072809,0.00515413,-0.00730239,0.00048537,0.00029665,0.000
 47351,-0.00014947,0.00081293,-0.00035275,0.00008206,0.00027746,0.00007
 157,-0.00023806,0.00011041,-0.00007918,0.00011348,-0.00001069,0.000026
 99,-0.00626095,-0.18343181,0.13255922,0.00788036,0.19620487,-0.0000876
 3,0.00053985,0.00002986,-0.00021578,0.00025344,-0.00018207,-0.00000576
 ,-0.00001387,-0.00009934,0.00006364,-0.00004366,0.00022215,0.00004511,
 0.00006542,-0.00005999,-0.00041090,0.00028115,-0.00015392,-0.00374617,
 -0.00262496,-0.00254058,0.00062593,0.00035143,-0.00078833,-0.00011127,
 -0.00007820,-0.00001956,0.00007868,-0.00003931,0.00009489,0.00220109,0
 .01810937,-0.01751335,0.00005523,-0.00010383,0.00109701,0.00056517,0.0
 0119286,0.00083905,-0.00011350,-0.00012379,0.00035228,0.00001593,-0.00
 069751,0.00001048,0.00000466,-0.00008724,-0.00006722,0.00703703,0.1311
 7423,-0.17484784,-0.00467869,-0.14460839,0.18992946,-0.00001510,0.0000
 8589,-0.00010145,-0.00011629,-0.00004304,0.00004683,0.00000048,0.00000
 498,0.00002772,0.00010074,-0.00016688,0.00001262,-0.00000794,0.0000111
 1,0.00000840,-0.00020777,0.00013412,0.00004246,0.00060260,-0.00057220,
 0.00037753,0.00015364,-0.00009462,0.00027925,-0.00009061,-0.00002880,0
 .00004123,0.00006330,0.00005176,0.00005498,0.00620360,-0.01695228,-0.0
 0775225,0.00077880,0.00005368,0.00094366,-0.00184136,-0.00065752,-0.00
 327506,0.00052697,-0.00094003,-0.00069117,-0.00015122,0.00020934,0.000
 04779,0.00022231,-0.00010644,-0.00019970,-0.07506942,0.07526678,0.0361
 6485,-0.00037172,-0.00207846,-0.00124230,0.07787660,-0.00007481,0.0000
 1548,-0.00007274,-0.00009329,0.00003931,-0.00001438,0.00000596,0.00002
 463,0.00001200,0.00006407,-0.00021155,-0.00003073,0.00000479,0.0000118
 3,-0.00001449,0.00009647,0.00033404,-0.00032728,-0.00019403,0.00048350
 ,0.00137296,-0.00003508,0.00032818,-0.00030423,0.00001814,0.00001802,-
 0.00001778,-0.00001773,0.00006147,0.00005254,0.00267259,-0.00657475,-0
 .00162110,-0.00024088,0.00007285,0.00019942,-0.00193995,0.00060968,-0.
 00170213,0.00031893,-0.00041001,-0.00050485,-0.00000659,0.00033312,0.0
 0009433,0.00011324,0.00003209,0.00008770,0.07427935,-0.24471421,-0.092
 53449,0.00708244,-0.01776345,-0.00928854,-0.08069678,0.26286027,-0.000
 03390,0.00009419,-0.00007446,-0.00005876,-0.00001315,0.00000823,-0.000
 00636,0.00000305,0.00001097,0.00004154,-0.00003971,-0.00002155,-0.0000
 0516,0.00000232,-0.00001688,0.00028208,0.00028589,-0.00000633,0.000699
 11,-0.00134438,0.00095827,-0.00011486,0.00021611,0.00011786,-0.0000301
 0,-0.00001455,-0.00002920,-0.00006976,-0.00003809,0.00000433,0.0096825
 4,-0.02039647,-0.01063282,0.00008041,0.00050472,0.00105852,-0.00408560
 ,-0.00053121,-0.00402024,0.00033029,-0.00169619,-0.00051782,0.00001210
 ,-0.00016200,0.00028141,-0.00011711,0.00031397,0.00013238,0.03496585,-
 0.09064842,-0.08937784,-0.00812170,0.01899820,0.01023432,-0.03590568,0
 .10216809,0.09628326,-0.00014651,-0.00019158,0.00026411,0.00050946,-0.
 00011822,-0.00011313,0.00002323,-0.00004064,-0.00003145,0.00007224,0.0
 0056391,-0.00025384,0.00000044,0.00003619,-0.00000960,-0.00001360,0.00
 016156,0.00059632,0.00058074,-0.00110283,0.00123375,-0.00027102,0.0004
 7003,-0.00024734,0.00011594,0.00000156,-0.00007413,0.00036080,-0.00023
 516,0.00001164,-0.01987216,-0.00220794,0.00484870,-0.00092200,-0.00103
 754,-0.00377629,0.00104251,0.00080468,0.00069403,0.00029424,0.00013935
 ,-0.00013797,-0.00001027,-0.00002873,-0.00009753,0.00043397,-0.0006258
 7,-0.00025713,-0.28440736,-0.02950320,0.07405279,0.00056020,-0.0000646
 5,-0.00008047,-0.00865761,-0.00135685,0.00245507,0.31030675,-0.0000301
 6,-0.00001824,-0.00000279,0.00007724,0.00001199,-0.00001831,0.00000213
 ,0.00000272,-0.00000413,0.00003772,0.00002069,-0.00004519,0.00000240,0
 .00002846,-0.00000229,-0.00006124,0.00004840,0.00026208,0.00073763,-0.
 00014936,-0.00015223,0.00001530,0.00004790,0.00003911,0.00000937,-0.00
 001798,-0.00002334,0.00002252,0.00003143,0.00012758,-0.00800997,-0.002
 09199,0.00244851,-0.00094751,0.00026987,-0.00149020,-0.00076276,0.0004
 1897,0.00069182,0.00018189,0.00004631,0.00006867,-0.00000470,-0.000059
 72,0.00003050,0.00009304,0.00004433,-0.00023837,-0.02994467,-0.0506403
 3,0.00957496,-0.02227352,-0.00246716,0.00574153,0.02651937,0.00444949,
 -0.00770236,0.03433593,0.05002421,-0.00005581,-0.00020596,0.00019600,0
 .00023948,-0.00007114,0.00003519,0.00002243,0.00000143,-0.00000400,-0.
 00002118,0.00017504,-0.00019531,-0.00002169,-0.00002899,-0.00002614,-0
 .00022666,-0.00014510,-0.00016486,0.00031380,-0.00025090,0.00163635,-0
 .00026050,0.00052965,-0.00013893,0.00008953,-0.00002333,-0.00005348,0.
 00012887,0.00005318,-0.00068877,-0.02559357,-0.00378764,0.00663320,-0.
 00328419,-0.00150699,-0.00374114,-0.00025509,0.00111780,0.00170188,0.0
 0013715,0.00026148,0.00004733,0.00009838,-0.00010976,-0.00002317,0.000
 58741,0.00009262,-0.00004076,0.07538499,0.00965500,-0.06835337,0.02067
 386,0.00110345,-0.00653731,0.01112032,0.00244570,-0.00439243,-0.079077
 53,-0.00930555,0.07410970\\0.00000250,0.00000691,0.00000594,0.00000011
 ,-0.00000121,-0.00000153,0.00000004,-0.00000270,-0.00000306,-0.0000016
 2,-0.00000727,-0.00000744,-0.00000335,-0.00001311,-0.00001316,-0.00000
 157,-0.00000578,-0.00000564,0.00000044,0.00000151,0.00000178,0.0000022
 3,0.00000721,0.00000767,0.00000394,0.00001323,0.00001315,-0.00000322,-
 0.00001052,-0.00001040,0.00000067,0.00000351,0.00000358,0.00000199,0.0
 0000959,0.00000982,-0.00000999,-0.00000018,0.00000328,-0.00001654,0.00
 000153,0.00000747,-0.00000984,0.00000146,0.00000504,-0.00001162,-0.000
 00639,-0.00000292,0.00000972,0.00000100,-0.00000226,0.00001009,0.00000
 263,-0.00000065,0.00001737,0.00000371,-0.00000204,0.00000865,-0.000005
 12,-0.00000863\\\@
 The archive entry for this job was punched.


 SEEN ON A WALL AT THE UNIVERSITY OF ILLINOIS AT CHICAGO CIRCLE:

 TO DO IS TO BE  -- SOCRATES
 TO BE IS TO DO  -- SARTRE
 OO BE DO BE DO  -- SINATRA
 Job cpu time:       0 days  0 hours 58 minutes 49.9 seconds.
 Elapsed time:       0 days  0 hours  1 minutes 55.3 seconds.
 File lengths (MBytes):  RWF=    170 Int=      0 D2E=      0 Chk=     16 Scr=      1
 Normal termination of Gaussian 16 at Fri May 30 01:18:01 2025.
