/home/tahminaafroz
cn012.cluster.local
tahminaafroz
Sat Apr 26 20:10:35 CDT 2025
 Entering Gaussian System, Link 0=g16
 Initial command:
 /home/apps/g16/l1.exe "/tmp/3-OMe-phboh2-opt-freq-thf/Gau-3995936.inp" -scrdir="/tmp/3-OMe-phboh2-opt-freq-thf/"
 Entering Link 1 = /home/apps/g16/l1.exe PID=   3995937.
  
 Copyright (c) 1988-2019, Gaussian, Inc.  All Rights Reserved.
  
 This is part of the Gaussian(R) 16 program.  It is based on
 the Gaussian(R) 09 system (copyright 2009, Gaussian, Inc.),
 the Gaussian(R) 03 system (copyright 2003, Gaussian, Inc.),
 the Gaussian(R) 98 system (copyright 1998, Gaussian, Inc.),
 the Gaussian(R) 94 system (copyright 1995, Gaussian, Inc.),
 the Gaussian 92(TM) system (copyright 1992, Gaussian, Inc.),
 the Gaussian 90(TM) system (copyright 1990, Gaussian, Inc.),
 the Gaussian 88(TM) system (copyright 1988, Gaussian, Inc.),
 the Gaussian 86(TM) system (copyright 1986, Carnegie Mellon
 University), and the Gaussian 82(TM) system (copyright 1983,
 Carnegie Mellon University). Gaussian is a federally registered
 trademark of Gaussian, Inc.
  
 This software contains proprietary and confidential information,
 including trade secrets, belonging to Gaussian, Inc.
  
 This software is provided under written license and may be
 used, copied, transmitted, or stored only in accord with that
 written license.
  
 The following legend is applicable only to US Government
 contracts under FAR:
  
                    RESTRICTED RIGHTS LEGEND
  
 Use, reproduction and disclosure by the US Government is
 subject to restrictions as set forth in subparagraphs (a)
 and (c) of the Commercial Computer Software - Restricted
 Rights clause in FAR 52.227-19.
  
 Gaussian, Inc.
 340 Quinnipiac St., Bldg. 40, Wallingford CT 06492
  
  
 ---------------------------------------------------------------
 Warning -- This program may not be used in any manner that
 competes with the business of Gaussian, Inc. or will provide
 assistance to any competitor of Gaussian, Inc.  The licensee
 of this program is prohibited from giving any competitor of
 Gaussian, Inc. access to this program.  By using this program,
 the user acknowledges that Gaussian, Inc. is engaged in the
 business of creating and licensing software in the field of
 computational chemistry and represents and warrants to the
 licensee that it is not a competitor of Gaussian, Inc. and that
 it will not use this program in any manner prohibited above.
 ---------------------------------------------------------------
  

 Cite this work as:
 Gaussian 16, Revision C.01,
 M. J. Frisch, G. W. Trucks, H. B. Schlegel, G. E. Scuseria, 
 M. A. Robb, J. R. Cheeseman, G. Scalmani, V. Barone, 
 G. A. Petersson, H. Nakatsuji, X. Li, M. Caricato, A. V. Marenich, 
 J. Bloino, B. G. Janesko, R. Gomperts, B. Mennucci, H. P. Hratchian, 
 J. V. Ortiz, A. F. Izmaylov, J. L. Sonnenberg, D. Williams-Young, 
 F. Ding, F. Lipparini, F. Egidi, J. Goings, B. Peng, A. Petrone, 
 T. Henderson, D. Ranasinghe, V. G. Zakrzewski, J. Gao, N. Rega, 
 G. Zheng, W. Liang, M. Hada, M. Ehara, K. Toyota, R. Fukuda, 
 J. Hasegawa, M. Ishida, T. Nakajima, Y. Honda, O. Kitao, H. Nakai, 
 T. Vreven, K. Throssell, J. A. Montgomery, Jr., J. E. Peralta, 
 F. Ogliaro, M. J. Bearpark, J. J. Heyd, E. N. Brothers, K. N. Kudin, 
 V. N. Staroverov, T. A. Keith, R. Kobayashi, J. Normand, 
 K. Raghavachari, A. P. Rendell, J. C. Burant, S. S. Iyengar, 
 J. Tomasi, M. Cossi, J. M. Millam, M. Klene, C. Adamo, R. Cammi, 
 J. W. Ochterski, R. L. Martin, K. Morokuma, O. Farkas, 
 J. B. Foresman, and D. J. Fox, Gaussian, Inc., Wallingford CT, 2019.
 
 ******************************************
 Gaussian 16:  AS64L-G16RevC.01  3-Jul-2019
                26-Apr-2025 
 ******************************************
 %mem=20GB
 %nprocshared=32
 Will use up to   32 processors via shared memory.
 %chk=3-OMe-phboh2-opt-freq-thf.chk
 ----------------------------------------------------------------------
 # opt=(calcfc,tight) freq 6-311+g(d,p) scrf=(smd,solvent=thf) nosymm s
 cf=(qc,fermi,xqc) geom=connectivity int=ultrafine m062x
 ----------------------------------------------------------------------
 1/7=10,10=4,18=20,19=15,26=6,38=1,57=2/1,3;
 2/9=110,12=2,15=1,17=6,18=5,40=1/2;
 3/5=4,6=6,7=111,11=2,25=1,30=1,70=32201,71=2,72=20,74=-55,75=-5,140=1/1,2,3;
 4//1;
 5/5=2,22=13,38=5,53=20/2;
 8/6=4,10=90,11=11/1;
 11/6=1,8=1,9=11,15=111,16=1,31=1/1,2,10;
 10/6=1,13=1,31=1/2;
 6/7=2,8=2,9=2,10=2,28=1/1;
 7/10=1,25=1,30=1/1,2,3,16;
 1/7=10,10=4,18=20,19=15,26=6/3(2);
 2/9=110,15=1/2;
 99//99;
 2/9=110,15=1/2;
 3/5=4,6=6,7=111,11=2,25=1,30=1,70=32205,71=1,72=20,74=-55,75=-5/1,2,3;
 4/5=5,16=3,69=1/1;
 5/5=2,22=13,38=5,53=20/2;
 7/30=1/1,2,3,16;
 1/7=10,18=20,19=15,26=6/3(-5);
 2/9=110,15=1/2;
 6/7=2,8=2,9=2,10=2,19=2,28=1/1;
 99/9=1/99;
 -------------------------
 3-OMe-phboh2-opt-freq-thf
 -------------------------
 Symbolic Z-matrix:
 Charge =  0 Multiplicity = 1
 O                     8.62516   7.60942   5.61175 
 H                     9.46513   7.37996   6.01927 
 C                     6.23929   6.88687   5.23814 
 B                     7.66572   6.67352   5.85358 
 O                     8.00918   5.59297   6.62076 
 H                     7.30948   4.94624   6.7254 
 C                     5.15686   6.04545   5.53761 
 H                     5.2686    5.21495   6.22835 
 C                     3.91551   6.26708   4.96424 
 H                     3.08187   5.61601   5.20003 
 C                     3.71811   7.32838   4.08073 
 C                     4.78589   8.17218   3.779 
 C                     6.03566   7.94769   4.36098 
 H                     6.84928   8.61963   4.11291 
 H                     2.74052   7.48232   3.64414 
 O                     4.7057    9.23356   2.93562 
 C                     3.45982   9.50022   2.32858 
 H                     3.61048   10.37724   1.70342 
 H                     3.13501   8.66106   1.70523 
 H                     2.69197   9.71581   3.07837 
 

 GradGradGradGradGradGradGradGradGradGradGradGradGradGradGradGradGradGrad
 Berny optimization.
 Initialization pass.
                           ----------------------------
                           !    Initial Parameters    !
                           ! (Angstroms and Degrees)  !
 --------------------------                            --------------------------
 ! Name  Definition              Value          Derivative Info.                !
 --------------------------------------------------------------------------------
 ! R1    R(1,2)                  0.9614         calculate D2E/DX2 analytically  !
 ! R2    R(1,4)                  1.362          calculate D2E/DX2 analytically  !
 ! R3    R(3,4)                  1.5681         calculate D2E/DX2 analytically  !
 ! R4    R(3,7)                  1.4033         calculate D2E/DX2 analytically  !
 ! R5    R(3,13)                 1.3915         calculate D2E/DX2 analytically  !
 ! R6    R(4,5)                  1.369          calculate D2E/DX2 analytically  !
 ! R7    R(5,6)                  0.9585         calculate D2E/DX2 analytically  !
 ! R8    R(7,8)                  1.086          calculate D2E/DX2 analytically  !
 ! R9    R(7,9)                  1.3852         calculate D2E/DX2 analytically  !
 ! R10   R(9,10)                 1.0837         calculate D2E/DX2 analytically  !
 ! R11   R(9,11)                 1.395          calculate D2E/DX2 analytically  !
 ! R12   R(11,12)                1.394          calculate D2E/DX2 analytically  !
 ! R13   R(11,15)                1.0817         calculate D2E/DX2 analytically  !
 ! R14   R(12,13)                1.3968         calculate D2E/DX2 analytically  !
 ! R15   R(12,16)                1.358          calculate D2E/DX2 analytically  !
 ! R16   R(13,14)                1.084          calculate D2E/DX2 analytically  !
 ! R17   R(16,17)                1.4113         calculate D2E/DX2 analytically  !
 ! R18   R(17,18)                1.0875         calculate D2E/DX2 analytically  !
 ! R19   R(17,19)                1.0947         calculate D2E/DX2 analytically  !
 ! R20   R(17,20)                1.0946         calculate D2E/DX2 analytically  !
 ! A1    A(2,1,4)              112.0995         calculate D2E/DX2 analytically  !
 ! A2    A(4,3,7)              122.4328         calculate D2E/DX2 analytically  !
 ! A3    A(4,3,13)             118.9634         calculate D2E/DX2 analytically  !
 ! A4    A(7,3,13)             118.6038         calculate D2E/DX2 analytically  !
 ! A5    A(1,4,3)              118.5307         calculate D2E/DX2 analytically  !
 ! A6    A(1,4,5)              117.7204         calculate D2E/DX2 analytically  !
 ! A7    A(3,4,5)              123.7485         calculate D2E/DX2 analytically  !
 ! A8    A(4,5,6)              114.2424         calculate D2E/DX2 analytically  !
 ! A9    A(3,7,8)              120.9908         calculate D2E/DX2 analytically  !
 ! A10   A(3,7,9)              120.4618         calculate D2E/DX2 analytically  !
 ! A11   A(8,7,9)              118.5447         calculate D2E/DX2 analytically  !
 ! A12   A(7,9,10)             120.2101         calculate D2E/DX2 analytically  !
 ! A13   A(7,9,11)             120.7104         calculate D2E/DX2 analytically  !
 ! A14   A(10,9,11)            119.0793         calculate D2E/DX2 analytically  !
 ! A15   A(9,11,12)            119.2898         calculate D2E/DX2 analytically  !
 ! A16   A(9,11,15)            119.4601         calculate D2E/DX2 analytically  !
 ! A17   A(12,11,15)           121.25           calculate D2E/DX2 analytically  !
 ! A18   A(11,12,13)           119.8609         calculate D2E/DX2 analytically  !
 ! A19   A(11,12,16)           124.2135         calculate D2E/DX2 analytically  !
 ! A20   A(13,12,16)           115.9256         calculate D2E/DX2 analytically  !
 ! A21   A(3,13,12)            121.0721         calculate D2E/DX2 analytically  !
 ! A22   A(3,13,14)            120.464          calculate D2E/DX2 analytically  !
 ! A23   A(12,13,14)           118.4638         calculate D2E/DX2 analytically  !
 ! A24   A(12,16,17)           117.8347         calculate D2E/DX2 analytically  !
 ! A25   A(16,17,18)           106.1012         calculate D2E/DX2 analytically  !
 ! A26   A(16,17,19)           111.2246         calculate D2E/DX2 analytically  !
 ! A27   A(16,17,20)           111.2124         calculate D2E/DX2 analytically  !
 ! A28   A(18,17,19)           109.3889         calculate D2E/DX2 analytically  !
 ! A29   A(18,17,20)           109.3965         calculate D2E/DX2 analytically  !
 ! A30   A(19,17,20)           109.4444         calculate D2E/DX2 analytically  !
 ! D1    D(2,1,4,3)           -179.0518         calculate D2E/DX2 analytically  !
 ! D2    D(2,1,4,5)              0.7045         calculate D2E/DX2 analytically  !
 ! D3    D(7,3,4,1)           -173.7585         calculate D2E/DX2 analytically  !
 ! D4    D(7,3,4,5)              6.5009         calculate D2E/DX2 analytically  !
 ! D5    D(13,3,4,1)             6.3197         calculate D2E/DX2 analytically  !
 ! D6    D(13,3,4,5)          -173.4209         calculate D2E/DX2 analytically  !
 ! D7    D(4,3,7,8)              0.9876         calculate D2E/DX2 analytically  !
 ! D8    D(4,3,7,9)           -179.619          calculate D2E/DX2 analytically  !
 ! D9    D(13,3,7,8)          -179.0903         calculate D2E/DX2 analytically  !
 ! D10   D(13,3,7,9)             0.3031         calculate D2E/DX2 analytically  !
 ! D11   D(4,3,13,12)          179.4844         calculate D2E/DX2 analytically  !
 ! D12   D(4,3,13,14)           -0.4178         calculate D2E/DX2 analytically  !
 ! D13   D(7,3,13,12)           -0.4404         calculate D2E/DX2 analytically  !
 ! D14   D(7,3,13,14)          179.6573         calculate D2E/DX2 analytically  !
 ! D15   D(1,4,5,6)           -177.2949         calculate D2E/DX2 analytically  !
 ! D16   D(3,4,5,6)              2.4476         calculate D2E/DX2 analytically  !
 ! D17   D(3,7,9,10)          -179.8692         calculate D2E/DX2 analytically  !
 ! D18   D(3,7,9,11)            -0.0159         calculate D2E/DX2 analytically  !
 ! D19   D(8,7,9,10)            -0.4612         calculate D2E/DX2 analytically  !
 ! D20   D(8,7,9,11)           179.3921         calculate D2E/DX2 analytically  !
 ! D21   D(7,9,11,12)           -0.1402         calculate D2E/DX2 analytically  !
 ! D22   D(7,9,11,15)          179.9549         calculate D2E/DX2 analytically  !
 ! D23   D(10,9,11,12)         179.7147         calculate D2E/DX2 analytically  !
 ! D24   D(10,9,11,15)          -0.1902         calculate D2E/DX2 analytically  !
 ! D25   D(9,11,12,13)           0.0054         calculate D2E/DX2 analytically  !
 ! D26   D(9,11,12,16)        -179.9277         calculate D2E/DX2 analytically  !
 ! D27   D(15,11,12,13)        179.9086         calculate D2E/DX2 analytically  !
 ! D28   D(15,11,12,16)         -0.0245         calculate D2E/DX2 analytically  !
 ! D29   D(11,12,13,3)           0.2899         calculate D2E/DX2 analytically  !
 ! D30   D(11,12,13,14)       -179.806          calculate D2E/DX2 analytically  !
 ! D31   D(16,12,13,3)        -179.7717         calculate D2E/DX2 analytically  !
 ! D32   D(16,12,13,14)          0.1324         calculate D2E/DX2 analytically  !
 ! D33   D(11,12,16,17)          0.1514         calculate D2E/DX2 analytically  !
 ! D34   D(13,12,16,17)       -179.784          calculate D2E/DX2 analytically  !
 ! D35   D(12,16,17,18)        179.9248         calculate D2E/DX2 analytically  !
 ! D36   D(12,16,17,19)        -61.2079         calculate D2E/DX2 analytically  !
 ! D37   D(12,16,17,20)         61.055          calculate D2E/DX2 analytically  !
 --------------------------------------------------------------------------------
 Trust Radius=3.00D-01 FncErr=5.00D-06 GrdErr=5.00D-06 EigMax=2.50D+02 EigMin=1.00D-04
 Number of steps in this run=     97 maximum allowed number of steps=    120.
 GradGradGradGradGradGradGradGradGradGradGradGradGradGradGradGradGradGrad

                          Input orientation:                          
 ---------------------------------------------------------------------
 Center     Atomic      Atomic             Coordinates (Angstroms)
 Number     Number       Type             X           Y           Z
 ---------------------------------------------------------------------
      1          8           0        8.625164    7.609418    5.611754
      2          1           0        9.465126    7.379964    6.019273
      3          6           0        6.239290    6.886871    5.238140
      4          5           0        7.665719    6.673520    5.853582
      5          8           0        8.009175    5.592974    6.620759
      6          1           0        7.309480    4.946242    6.725404
      7          6           0        5.156858    6.045453    5.537607
      8          1           0        5.268605    5.214945    6.228347
      9          6           0        3.915510    6.267083    4.964243
     10          1           0        3.081870    5.616011    5.200025
     11          6           0        3.718111    7.328378    4.080735
     12          6           0        4.785894    8.172178    3.779000
     13          6           0        6.035658    7.947690    4.360976
     14          1           0        6.849275    8.619628    4.112908
     15          1           0        2.740523    7.482319    3.644137
     16          8           0        4.705698    9.233560    2.935622
     17          6           0        3.459817    9.500223    2.328581
     18          1           0        3.610477   10.377240    1.703418
     19          1           0        3.135010    8.661057    1.705232
     20          1           0        2.691970    9.715809    3.078368
 ---------------------------------------------------------------------
                    Distance matrix (angstroms):
                    1          2          3          4          5
     1  O    0.000000
     2  H    0.961383   0.000000
     3  C    2.520725   3.355492   0.000000
     4  B    1.361955   1.940202   1.568116   0.000000
     5  O    2.337430   2.382207   2.591968   1.368979   0.000000
     6  H    3.172341   3.326926   2.668951   1.967351   0.958533
     7  C    3.805342   4.535868   1.403326   2.605512   3.084423
     8  H    4.168954   4.726712   2.172113   2.830909   2.794211
     9  C    4.939835   5.757589   2.420560   3.875588   4.467277
    10  H    5.905193   6.672979   3.403798   4.749435   5.128094
    11  C    5.148026   6.065375   2.809067   4.376692   5.279828
    12  C    4.291349   5.248013   2.427646   3.852695   5.011729
    13  C    2.895585   3.851430   1.391481   2.551172   3.813932
    14  H    2.533939   3.466074   2.154223   2.735665   4.098209
    15  H    6.206180   7.132463   3.890601   5.458329   6.339448
    16  O    5.016147   5.966312   3.627732   4.881600   6.143864
    17  C    6.405871   7.360737   4.797980   6.172965   7.374689
    18  H    6.934192   7.866841   5.620284   6.883777   8.149723
    19  H    6.819725   7.766757   5.026503   6.456503   7.571857
    20  H    6.786584   7.744723   5.025036   6.457206   7.603879
                    6          7          8          9         10
     6  H    0.000000
     7  C    2.693122   0.000000
     8  H    2.117649   1.085980   0.000000
     9  C    4.045410   1.385212   2.129746   0.000000
    10  H    4.544013   2.145683   2.449512   1.083717   0.000000
    11  C    5.056360   2.416271   3.388638   1.394955   2.142385
    12  C    5.045438   2.784470   3.870082   2.406607   3.384819
    13  C    4.027634   2.403176   3.397549   2.771894   3.855593
    14  H    4.531080   3.394174   4.308766   3.855673   4.939320
    15  H    6.066404   3.389467   4.267356   2.144778   2.453653
    16  O    6.286750   4.139794   5.225722   3.679631   4.566289
    17  C    7.408826   5.011310   6.069884   4.196137   4.845115
    18  H    8.270351   5.988045   7.062129   5.255418   5.930850
    19  H    7.511869   5.061260   6.073424   4.118427   4.635591
    20  H    7.574367   5.059154   6.067882   4.116708   4.632688
                   11         12         13         14         15
    11  C    0.000000
    12  C    1.393988   0.000000
    13  C    2.415182   1.396782   0.000000
    14  H    3.387115   2.137580   1.083979   0.000000
    15  H    1.081663   2.162784   3.404166   4.288946   0.000000
    16  O    2.432351   1.358032   2.335356   2.521475   2.725940
    17  C    2.802440   2.371898   3.629868   3.930356   2.513963
    18  H    3.867658   3.248376   4.341294   4.402801   3.592183
    19  H    2.785508   2.695354   3.996952   4.426554   2.303127
    20  H    2.785235   2.694105   3.993943   4.422112   2.304545
                   16         17         18         19         20
    16  O    0.000000
    17  C    1.411321   0.000000
    18  H    2.006450   1.087514   0.000000
    19  H    2.075736   1.094652   1.780830   0.000000
    20  H    2.075582   1.094645   1.780908   1.787257   0.000000
 Symmetry turned off by external request.
 Stoichiometry    C7H9BO3
 Framework group  C1[X(C7H9BO3)]
 Deg. of freedom    54
 Full point group                 C1      NOp   1
 Rotational constants (GHZ):           2.3613875           0.6326537           0.5010753
 Standard basis: 6-311+G(d,p) (5D, 7F)
   296 basis functions,   468 primitive gaussians,   307 cartesian basis functions
    40 alpha electrons       40 beta electrons
       nuclear repulsion energy       567.2322176072 Hartrees.
 NAtoms=   20 NActive=   20 NUniq=   20 SFac= 1.00D+00 NAtFMM=   60 NAOKFM=F Big=F
 Integral buffers will be    131072 words long.
 Raffenetti 2 integral format.
 Two-electron integral symmetry is turned off.
 Force inversion solution in PCM.
 ------------------------------------------------------------------------------
 Polarizable Continuum Model (PCM)
 =================================
 Model                : PCM.
 Atomic radii         : SMD-Coulomb.
 Polarization charges : Total charges.
 Charge compensation  : None.
 Solution method      : Matrix inversion.
 Cavity type          : VdW (van der Waals Surface) (Alpha=1.000).
 Cavity algorithm     : GePol (No added spheres)
                        Default sphere list used, NSphG=   20.
                        Lebedev-Laikov grids with approx.  5.0 points / Ang**2.
                        Smoothing algorithm: York/Karplus (Gamma=1.0000).
                        Polarization charges: spherical gaussians, with
                                              point-specific exponents (IZeta= 3).
                        Self-potential: point-specific (ISelfS= 7).
                        Self-field    : sphere-specific E.n sum rule (ISelfD= 2).
 1st derivatives      : Analytical E(r).r(x)/FMM algorithm (CHGder, D1EAlg=3).
                        Cavity 1st derivative terms included.
 2nd derivatives      : Analytical E(r).r(xy)/FMM algorithm (CHGder, D2EAlg=3).
                        Cavity 2nd derivative terms included.
 Solvent              : TetraHydroFuran, Eps=   7.425700 Eps(inf)=   1.974025
 ------------------------------------------------------------------------------
 Spheres list:
 ISph  on   Nord     Re0    Alpha      Xe            Ye            Ze
    1   O      1    2.2940  1.000      8.625164      7.609418      5.611754
    2   H      2    1.2000  1.000      9.465126      7.379964      6.019273
    3   C      3    1.8500  1.000      6.239290      6.886871      5.238140
    4   B      4    1.8000  1.000      7.665719      6.673520      5.853582
    5   O      5    2.2940  1.000      8.009175      5.592974      6.620759
    6   H      6    1.2000  1.000      7.309480      4.946242      6.725404
    7   C      7    1.8500  1.000      5.156858      6.045453      5.537607
    8   H      8    1.2000  1.000      5.268605      5.214945      6.228347
    9   C      9    1.8500  1.000      3.915510      6.267083      4.964243
   10   H     10    1.2000  1.000      3.081870      5.616011      5.200025
   11   C     11    1.8500  1.000      3.718111      7.328378      4.080735
   12   C     12    1.8500  1.000      4.785894      8.172178      3.779000
   13   C     13    1.8500  1.000      6.035658      7.947690      4.360976
   14   H     14    1.2000  1.000      6.849275      8.619628      4.112908
   15   H     15    1.2000  1.000      2.740523      7.482319      3.644137
   16   O     16    2.2940  1.000      4.705698      9.233560      2.935622
   17   C     17    1.8500  1.000      3.459817      9.500223      2.328581
   18   H     18    1.2000  1.000      3.610477     10.377240      1.703418
   19   H     19    1.2000  1.000      3.135010      8.661057      1.705232
   20   H     20    1.2000  1.000      2.691970      9.715809      3.078368
 ------------------------------------------------------------------------------
 ------------------------------------------------------------------------------
 Atomic radii for non-electrostatic terms: SMD-CDS.
 ------------------------------------------------------------------------------
 Nuclear repulsion after PCM non-electrostatic terms =      567.2288100501 Hartrees.
 One-electron integrals computed using PRISM.
 NBasis=   296 RedAO= T EigKep=  2.17D-06  NBF=   296
 NBsUse=   296 1.00D-06 EigRej= -1.00D+00 NBFU=   296
 ExpMin= 3.15D-02 ExpMax= 8.59D+03 ExpMxC= 1.30D+03 IAcc=3 IRadAn=         5 AccDes= 0.00D+00
 Harris functional with IExCor= 1009 and IRadAn=       5 diagonalized for initial guess.
 HarFok:  IExCor= 1009 AccDes= 0.00D+00 IRadAn=         5 IDoV= 1 UseB2=F ITyADJ=14
 ICtDFT=  3500011 ScaDFX=  1.000000  1.000000  1.000000  1.000000
 FoFCou: FMM=F IPFlag=           0 FMFlag=      100000 FMFlg1=           0
         NFxFlg=           0 DoJE=T BraDBF=F KetDBF=T FulRan=T
         wScrn=  0.000000 ICntrl=       500 IOpCl=  0 I1Cent=   200000004 NGrid=           0
         NMat0=    1 NMatS0=      1 NMatT0=    0 NMatD0=    1 NMtDS0=    0 NMtDT0=    0
 Symmetry not used in FoFCou.
 Requested convergence on RMS density matrix=1.00D-08 within 128 cycles.
 Requested convergence on MAX density matrix=1.00D-06.
 Requested convergence on             energy=1.00D-06.
 Level shift goal  0.100 maximum shift  0.100.
 No special actions if energy rises.
 Dynamic level shift is on during FON iterations.
 Inv3:  Mode=1 IEnd=     8885523.
 Iteration    1 A*A^-1 deviation from unit magnitude is 5.33D-15 for   1717.
 Iteration    1 A*A^-1 deviation from orthogonality  is 1.96D-15 for    678    359.
 Iteration    1 A^-1*A deviation from unit magnitude is 5.55D-15 for   1702.
 Iteration    1 A^-1*A deviation from orthogonality  is 1.78D-15 for   1714   1479.
 Error on total polarization charges =  0.02596
 SCF Done:  E(RM062X) =  -522.752031284     A.U. after   14 cycles
            NFock= 14  Conv=0.63D-08     -V/T= 2.0036
 SMD-CDS (non-electrostatic) energy       (kcal/mol) =      -2.14
 (included in total energy above)
 DoSCS=F DFT=T ScalE2(SS,OS)=  1.000000  1.000000
 Range of M.O.s used for correlation:     1   296
 NBasis=   296 NAE=    40 NBE=    40 NFC=     0 NFV=     0
 NROrb=    296 NOA=    40 NOB=    40 NVA=   256 NVB=   256

 **** Warning!!: The largest alpha MO coefficient is  0.17765494D+03

 Symmetrizing basis deriv contribution to polar:
 IMax=3 JMax=2 DiffMx= 0.00D+00
 G2DrvN: will do    21 centers at a time, making    1 passes.
 Calling FoFCou, ICntrl=  3107 FMM=F I1Cent=   0 AccDes= 0.00D+00.
 NEqPCM:  Using equilibrium solvation (IEInf=0, Eps=   7.4257, EpsInf=   1.9740)
 G2PCM: DoFxE=T DoFxN=T DoGrad=T DoDP/DQ/DG/TGxP=FFFF NFrqRd=   0 IEInf=0 SqF1=F DoCFld=F IF1Alg=4.
 End of G2Drv F.D. properties file   721 does not exist.
 End of G2Drv F.D. properties file   722 does not exist.
 End of G2Drv F.D. properties file   788 does not exist.
          IDoAtm=11111111111111111111
 NEqPCM:  Using equilibrium solvation (IEInf=0, Eps=   7.4257, EpsInf=   1.9740)
          Differentiating once with respect to nuclear coordinates.
 Keep R1 ints in memory in canonical form, NReq=1002449809.
          There are    63 degrees of freedom in the 1st order CPHF.  IDoFFX=6 NUNeed=     0.
     57 vectors produced by pass  0 Test12= 1.63D-14 1.59D-09 XBig12= 2.04D-01 1.19D-01.
 AX will form    57 AO Fock derivatives at one time.
     57 vectors produced by pass  1 Test12= 1.63D-14 1.59D-09 XBig12= 1.52D-02 3.61D-02.
     57 vectors produced by pass  2 Test12= 1.63D-14 1.59D-09 XBig12= 3.56D-04 3.82D-03.
     57 vectors produced by pass  3 Test12= 1.63D-14 1.59D-09 XBig12= 2.43D-06 3.58D-04.
     57 vectors produced by pass  4 Test12= 1.63D-14 1.59D-09 XBig12= 1.28D-08 1.65D-05.
     57 vectors produced by pass  5 Test12= 1.63D-14 1.59D-09 XBig12= 6.16D-11 9.10D-07.
     49 vectors produced by pass  6 Test12= 1.63D-14 1.59D-09 XBig12= 2.71D-13 5.98D-08.
      9 vectors produced by pass  7 Test12= 1.63D-14 1.59D-09 XBig12= 1.12D-15 2.84D-09.
 InvSVY:  IOpt=1 It=  1 EMax= 5.00D-16
 Solved reduced A of dimension   400 with    63 vectors.
 End of Minotr F.D. properties file   721 does not exist.
 End of Minotr F.D. properties file   722 does not exist.
 End of Minotr F.D. properties file   788 does not exist.

 **********************************************************************

            Population analysis using the SCF Density.

 **********************************************************************

 Alpha  occ. eigenvalues --  -19.65295 -19.63483 -19.62990 -10.60581 -10.57993
 Alpha  occ. eigenvalues --  -10.54618 -10.54442 -10.54137 -10.54015 -10.53158
 Alpha  occ. eigenvalues --   -7.08273  -1.19486  -1.16654  -1.12977  -0.96070
 Alpha  occ. eigenvalues --   -0.85674  -0.84604  -0.78535  -0.69747  -0.68315
 Alpha  occ. eigenvalues --   -0.64765  -0.62944  -0.59900  -0.55806  -0.55740
 Alpha  occ. eigenvalues --   -0.54720  -0.52019  -0.49442  -0.48206  -0.47899
 Alpha  occ. eigenvalues --   -0.45564  -0.45182  -0.44719  -0.42665  -0.40522
 Alpha  occ. eigenvalues --   -0.40388  -0.39172  -0.37819  -0.31423  -0.28102
 Alpha virt. eigenvalues --   -0.00249   0.00165   0.02058   0.02131   0.02471
 Alpha virt. eigenvalues --    0.03135   0.03491   0.03872   0.05180   0.05733
 Alpha virt. eigenvalues --    0.06424   0.07211   0.08169   0.08825   0.10085
 Alpha virt. eigenvalues --    0.11353   0.11410   0.11947   0.12875   0.13504
 Alpha virt. eigenvalues --    0.13672   0.14913   0.15057   0.15150   0.15841
 Alpha virt. eigenvalues --    0.16822   0.17438   0.17819   0.18236   0.19168
 Alpha virt. eigenvalues --    0.19574   0.20609   0.21218   0.21981   0.22516
 Alpha virt. eigenvalues --    0.22746   0.23553   0.24037   0.24371   0.24882
 Alpha virt. eigenvalues --    0.25014   0.25329   0.25757   0.26205   0.26434
 Alpha virt. eigenvalues --    0.27527   0.27751   0.28914   0.29921   0.30392
 Alpha virt. eigenvalues --    0.30795   0.31235   0.32742   0.34662   0.34882
 Alpha virt. eigenvalues --    0.35716   0.36306   0.37571   0.39660   0.40674
 Alpha virt. eigenvalues --    0.42611   0.43111   0.44765   0.46081   0.46990
 Alpha virt. eigenvalues --    0.48929   0.50314   0.51368   0.52368   0.53557
 Alpha virt. eigenvalues --    0.54626   0.56536   0.57717   0.59135   0.59597
 Alpha virt. eigenvalues --    0.61000   0.61643   0.62947   0.63134   0.64753
 Alpha virt. eigenvalues --    0.65394   0.67047   0.67476   0.69275   0.69688
 Alpha virt. eigenvalues --    0.70471   0.71778   0.72488   0.73380   0.74589
 Alpha virt. eigenvalues --    0.76238   0.79070   0.80027   0.81061   0.82606
 Alpha virt. eigenvalues --    0.85788   0.86140   0.88712   0.88817   0.90791
 Alpha virt. eigenvalues --    0.92474   0.93944   0.95458   0.96351   0.98767
 Alpha virt. eigenvalues --    1.00710   1.03837   1.04296   1.05372   1.06215
 Alpha virt. eigenvalues --    1.08039   1.08895   1.09535   1.10020   1.12134
 Alpha virt. eigenvalues --    1.12473   1.13198   1.15450   1.15960   1.18418
 Alpha virt. eigenvalues --    1.20669   1.20992   1.29245   1.32727   1.33045
 Alpha virt. eigenvalues --    1.33557   1.34328   1.35505   1.40243   1.44799
 Alpha virt. eigenvalues --    1.46415   1.49090   1.49851   1.50040   1.52120
 Alpha virt. eigenvalues --    1.53825   1.58764   1.59406   1.61514   1.62028
 Alpha virt. eigenvalues --    1.62270   1.63789   1.64497   1.65233   1.69166
 Alpha virt. eigenvalues --    1.71052   1.72093   1.73962   1.74449   1.76987
 Alpha virt. eigenvalues --    1.78453   1.80219   1.80615   1.84231   1.86132
 Alpha virt. eigenvalues --    1.88517   1.90115   1.94346   1.95621   1.96755
 Alpha virt. eigenvalues --    1.97924   1.98125   2.01785   2.04431   2.05912
 Alpha virt. eigenvalues --    2.09623   2.10109   2.11058   2.12808   2.15605
 Alpha virt. eigenvalues --    2.16964   2.19159   2.21635   2.22814   2.28428
 Alpha virt. eigenvalues --    2.33755   2.36624   2.43570   2.46307   2.49726
 Alpha virt. eigenvalues --    2.51408   2.53671   2.55516   2.56996   2.58169
 Alpha virt. eigenvalues --    2.61153   2.61879   2.64235   2.66750   2.67620
 Alpha virt. eigenvalues --    2.70719   2.72386   2.74506   2.78255   2.79386
 Alpha virt. eigenvalues --    2.80952   2.82813   2.83769   2.85777   2.87041
 Alpha virt. eigenvalues --    2.90791   2.93633   2.95268   2.96418   3.07817
 Alpha virt. eigenvalues --    3.11564   3.12596   3.14557   3.16417   3.17873
 Alpha virt. eigenvalues --    3.24531   3.26856   3.28868   3.32111   3.32210
 Alpha virt. eigenvalues --    3.38482   3.43256   3.46551   3.49068   3.53646
 Alpha virt. eigenvalues --    3.57559   3.60963   3.65771   3.66771   3.69772
 Alpha virt. eigenvalues --    3.83576   3.89117   3.92134   3.96025   4.06451
 Alpha virt. eigenvalues --    4.09850   4.16577   4.19500   4.21761   4.29072
 Alpha virt. eigenvalues --    4.87473   5.08819   5.09594   5.14813   5.40131
 Alpha virt. eigenvalues --    5.50407   5.52549   5.69519   5.77055   5.89127
 Alpha virt. eigenvalues --   14.80057  23.69817  24.00760  24.01753  24.04894
 Alpha virt. eigenvalues --   24.15155  24.17943  24.26699  50.00951  50.05801
 Alpha virt. eigenvalues --   50.08331
          Condensed to atoms (all electrons):
               1          2          3          4          5          6
     1  O    7.766809   0.283305   0.028152   0.439007  -0.126861   0.017655
     2  H    0.283305   0.421522   0.064119  -0.004998  -0.031493   0.002801
     3  C    0.028152   0.064119   8.875892   0.250066  -0.217348   0.020656
     4  B    0.439007  -0.004998   0.250066   3.334802   0.360039   0.015659
     5  O   -0.126861  -0.031493  -0.217348   0.360039   8.003118   0.265607
     6  H    0.017655   0.002801   0.020656   0.015659   0.265607   0.400299
     7  C    0.059350   0.004644  -0.580222   0.090151  -0.010810  -0.032435
     8  H    0.001732  -0.000016   0.014006   0.008474  -0.003887   0.007788
     9  C    0.051039   0.005840  -0.086265   0.021781   0.000419   0.038731
    10  H   -0.000032  -0.000001  -0.003814  -0.000288   0.000306  -0.000048
    11  C   -0.021450  -0.002582  -1.106700   0.044519   0.009133  -0.003909
    12  C   -0.005713  -0.036130  -1.317464  -0.076976   0.113285  -0.018996
    13  C   -0.119394  -0.031894   0.438809   0.016144   0.038172   0.002963
    14  H    0.003891  -0.000443   0.042402  -0.007418   0.002173  -0.000081
    15  H   -0.000021   0.000000   0.011832  -0.000753   0.000008  -0.000002
    16  O    0.000978   0.000006   0.012941  -0.000817  -0.000062   0.000009
    17  C   -0.000139   0.000011   0.001970  -0.002167   0.000088  -0.000013
    18  H   -0.000001   0.000000  -0.000558  -0.000096   0.000000   0.000000
    19  H   -0.000005   0.000000   0.000143  -0.000034   0.000000   0.000000
    20  H   -0.000005   0.000000  -0.003407   0.000017   0.000000   0.000000
               7          8          9         10         11         12
     1  O    0.059350   0.001732   0.051039  -0.000032  -0.021450  -0.005713
     2  H    0.004644  -0.000016   0.005840  -0.000001  -0.002582  -0.036130
     3  C   -0.580222   0.014006  -0.086265  -0.003814  -1.106700  -1.317464
     4  B    0.090151   0.008474   0.021781  -0.000288   0.044519  -0.076976
     5  O   -0.010810  -0.003887   0.000419   0.000306   0.009133   0.113285
     6  H   -0.032435   0.007788   0.038731  -0.000048  -0.003909  -0.018996
     7  C   10.036385   0.350326  -1.129019   0.015623   0.465966   0.387213
     8  H    0.350326   0.490713   0.028082  -0.005406  -0.028564  -0.002295
     9  C   -1.129019   0.028082   8.466664   0.325314  -0.340728  -1.077273
    10  H    0.015623  -0.005406   0.325314   0.466640   0.027095   0.019379
    11  C    0.465966  -0.028564  -0.340728   0.027095   9.180415   0.575963
    12  C    0.387213  -0.002295  -1.077273   0.019379   0.575963  15.216257
    13  C   -3.553943  -0.028001   0.306714  -0.031843  -3.622672  -7.792725
    14  H   -0.005626  -0.000081  -0.010367   0.000047  -0.010228   0.092379
    15  H   -0.017346  -0.000257   0.012874  -0.005109   0.424135   0.045359
    16  O    0.008483   0.000250   0.030148  -0.000364   0.037709   0.174369
    17  C    0.023526   0.000141  -0.180142   0.002154  -0.159886   0.107231
    18  H   -0.001191   0.000000   0.012717  -0.000003   0.013847   0.035308
    19  H    0.000778   0.000000  -0.010802   0.000030   0.003451  -0.018683
    20  H    0.003402  -0.000001  -0.007099   0.000036   0.016997  -0.029147
              13         14         15         16         17         18
     1  O   -0.119394   0.003891  -0.000021   0.000978  -0.000139  -0.000001
     2  H   -0.031894  -0.000443   0.000000   0.000006   0.000011   0.000000
     3  C    0.438809   0.042402   0.011832   0.012941   0.001970  -0.000558
     4  B    0.016144  -0.007418  -0.000753  -0.000817  -0.002167  -0.000096
     5  O    0.038172   0.002173   0.000008  -0.000062   0.000088   0.000000
     6  H    0.002963  -0.000081  -0.000002   0.000009  -0.000013   0.000000
     7  C   -3.553943  -0.005626  -0.017346   0.008483   0.023526  -0.001191
     8  H   -0.028001  -0.000081  -0.000257   0.000250   0.000141   0.000000
     9  C    0.306714  -0.010367   0.012874   0.030148  -0.180142   0.012717
    10  H   -0.031843   0.000047  -0.005109  -0.000364   0.002154  -0.000003
    11  C   -3.622672  -0.010228   0.424135   0.037709  -0.159886   0.013847
    12  C   -7.792725   0.092379   0.045359   0.174369   0.107231   0.035308
    13  C   20.879403   0.250872  -0.111379  -0.361061  -0.039000  -0.028827
    14  H    0.250872   0.454201  -0.000023  -0.003135   0.001582  -0.000004
    15  H   -0.111379  -0.000023   0.461157  -0.015677   0.000839   0.000565
    16  O   -0.361061  -0.003135  -0.015677   8.278082   0.127704  -0.062963
    17  C   -0.039000   0.001582   0.000839   0.127704   5.212568   0.404818
    18  H   -0.028827  -0.000004   0.000565  -0.062963   0.404818   0.475801
    19  H    0.012575   0.000053  -0.000820  -0.034122   0.418548  -0.021473
    20  H    0.007966   0.000048  -0.000890  -0.033885   0.417290  -0.021394
              19         20
     1  O   -0.000005  -0.000005
     2  H    0.000000   0.000000
     3  C    0.000143  -0.003407
     4  B   -0.000034   0.000017
     5  O    0.000000   0.000000
     6  H    0.000000   0.000000
     7  C    0.000778   0.003402
     8  H    0.000000  -0.000001
     9  C   -0.010802  -0.007099
    10  H    0.000030   0.000036
    11  C    0.003451   0.016997
    12  C   -0.018683  -0.029147
    13  C    0.012575   0.007966
    14  H    0.000053   0.000048
    15  H   -0.000820  -0.000890
    16  O   -0.034122  -0.033885
    17  C    0.418548   0.417290
    18  H   -0.021473  -0.021394
    19  H    0.514734  -0.046375
    20  H   -0.046375   0.514247
 Mulliken charges:
               1
     1  O   -0.378297
     2  H    0.325309
     3  C   -0.445208
     4  B    0.512888
     5  O   -0.401886
     6  H    0.283316
     7  C   -0.115254
     8  H    0.166999
     9  C   -0.458627
    10  H    0.190284
    11  C    0.497489
    12  C   -0.391341
    13  C   -0.232879
    14  H    0.189760
    15  H    0.195509
    16  O   -0.158593
    17  C   -0.337122
    18  H    0.193454
    19  H    0.182001
    20  H    0.182199
 Sum of Mulliken charges =   0.00000
 Mulliken charges with hydrogens summed into heavy atoms:
               1
     1  O   -0.052988
     3  C   -0.445208
     4  B    0.512888
     5  O   -0.118570
     7  C    0.051745
     9  C   -0.268343
    11  C    0.692998
    12  C   -0.391341
    13  C   -0.043119
    16  O   -0.158593
    17  C    0.220532
 APT charges:
               1
     1  O   -0.692978
     2  H    2.235758
     3  C   -0.675623
     4  B   -0.337984
     5  O    1.340189
     6  H   -1.145984
     7  C   -0.854602
     8  H    0.149456
     9  C   -0.655375
    10  H   -0.627536
    11  C   -0.844765
    12  C   -2.563170
    13  C    3.106359
    14  H    1.767071
    15  H   -0.365376
    16  O   -0.202023
    17  C   -0.332704
    18  H    1.409886
    19  H   -1.077862
    20  H    0.367264
 Sum of APT charges =   0.00000
 APT charges with hydrogens summed into heavy atoms:
               1
     1  O    1.542780
     3  C   -0.675623
     4  B   -0.337984
     5  O    0.194204
     7  C   -0.705146
     9  C   -1.282912
    11  C   -1.210141
    12  C   -2.563170
    13  C    4.873431
    16  O   -0.202023
    17  C    0.366584
 Electronic spatial extent (au):  <R**2>=          33206.4510
 Charge=              0.0000 electrons
 Dipole moment (field-independent basis, Debye):
    X=             -2.8592    Y=             -1.3890    Z=             -0.2057  Tot=              3.1854
 Quadrupole moment (field-independent basis, Debye-Ang):
   XX=            -86.1306   YY=            -81.1597   ZZ=            -63.9731
   XY=            -31.2631   XZ=             -8.4333   YZ=            -14.1127
 Traceless Quadrupole moment (field-independent basis, Debye-Ang):
   XX=             -9.0428   YY=             -4.0719   ZZ=             13.1147
   XY=            -31.2631   XZ=             -8.4333   YZ=            -14.1127
 Octapole moment (field-independent basis, Debye-Ang**2):
  XXX=          -1178.6894  YYY=          -1585.3093  ZZZ=           -885.4297  XYY=           -659.6950
  XXY=           -695.0786  XXZ=           -348.5205  XZZ=           -377.2589  YZZ=           -556.5146
  YYZ=           -473.4863  XYZ=           -128.3885
 Hexadecapole moment (field-independent basis, Debye-Ang**3):
 XXXX=         -13288.2058 YYYY=         -23156.4855 ZZZZ=          -8965.5402 XXXY=          -8799.7226
 XXXZ=          -5356.9760 YYYX=         -10578.2121 YYYZ=          -8100.0021 ZZZX=          -5350.7842
 ZZZY=          -6773.7693 XXYY=          -7962.1340 XXZZ=          -3785.8094 YYZZ=          -6186.8570
 XXYZ=          -2777.7990 YYXZ=          -3149.8010 ZZXY=          -3120.3310
 N-N= 5.672288100501D+02 E-N=-2.357225778434D+03  KE= 5.208827860192D+02
  Exact polarizability:       0.000       0.000       0.000       0.000       0.000       0.000
 Approx polarizability:     139.985       6.620     125.688      13.922     -30.187     109.475
 D2PCM: PCM CHGder 2nd derivatives, FixD1E=F FixD2E=F DoIter=F DoCFld=F I1PDM=0
 Calling FoFJK, ICntrl=    100127 FMM=F ISym2X=0 I1Cent= 0 IOpClX= 0 NMat=1 NMatS=1 NMatT=0.
 -------------------------------------------------------------------
 Center     Atomic                   Forces (Hartrees/Bohr)
 Number     Number              X              Y              Z
 -------------------------------------------------------------------
      1        8          -0.001212355    0.001750947   -0.001303408
      2        1           0.002637293   -0.000412583    0.001113547
      3        6           0.000092196   -0.000159783    0.000204750
      4        5          -0.000315498   -0.002151177    0.001110140
      5        8           0.002143735    0.002768291   -0.000946856
      6        1          -0.002537024   -0.002388508    0.000628816
      7        6           0.000806559   -0.001280842    0.001420360
      8        1           0.000231741   -0.000155564   -0.000041594
      9        6          -0.000321897    0.000537643   -0.000446137
     10        1          -0.000217971   -0.000148116    0.000053940
     11        6          -0.000947804    0.000033512   -0.000366050
     12        6           0.000080747    0.001956279   -0.001481088
     13        6          -0.000083338    0.000246957   -0.000190621
     14        1           0.000217012    0.000335495   -0.000274763
     15        1          -0.000271004    0.000185666   -0.000208693
     16        8           0.003832466   -0.001869249    0.002679931
     17        6          -0.003842884   -0.000180965   -0.001100068
     18        1          -0.000273955    0.000410792   -0.000400704
     19        1          -0.000050997    0.000322214   -0.000137832
     20        1           0.000032977    0.000198990   -0.000313670
 -------------------------------------------------------------------
 Cartesian Forces:  Max     0.003842884 RMS     0.001297273
 FormGI is forming the generalized inverse of G from B-inverse, IUseBI=4.

 GradGradGradGradGradGradGradGradGradGradGradGradGradGradGradGradGradGrad
 Berny optimization.
 Internal  Forces:  Max     0.004619210 RMS     0.000846768
 Search for a local minimum.
 Step number   1 out of a maximum of   97
 All quantities printed in internal units (Hartrees-Bohrs-Radians)
 Mixed Optimization -- En-DIIS/RFO-DIIS
 Second derivative matrix not updated -- analytic derivatives used.
 ITU=  0
     Eigenvalues ---    0.00255   0.00435   0.01031   0.01366   0.01529
     Eigenvalues ---    0.01531   0.01776   0.02034   0.02176   0.02390
     Eigenvalues ---    0.02447   0.02715   0.02838   0.03240   0.03894
     Eigenvalues ---    0.08643   0.08704   0.10625   0.11078   0.11183
     Eigenvalues ---    0.11489   0.12057   0.12365   0.13287   0.16141
     Eigenvalues ---    0.17755   0.18400   0.18877   0.18935   0.19103
     Eigenvalues ---    0.19440   0.20490   0.22232   0.27621   0.29181
     Eigenvalues ---    0.33121   0.33509   0.34286   0.35243   0.35654
     Eigenvalues ---    0.36411   0.36528   0.36971   0.37837   0.38510
     Eigenvalues ---    0.40465   0.42506   0.46749   0.48153   0.48982
     Eigenvalues ---    0.51146   0.54635   0.55631   0.56789
 RFO step:  Lambda=-1.68305086D-04 EMin= 2.54978729D-03
 Linear search not attempted -- first point.
 Iteration  1 RMS(Cart)=  0.00914597 RMS(Int)=  0.00005095
 Iteration  2 RMS(Cart)=  0.00005700 RMS(Int)=  0.00000075
 Iteration  3 RMS(Cart)=  0.00000000 RMS(Int)=  0.00000075
 Variable       Old X    -DE/DX   Delta X   Delta X   Delta X     New X
                                 (Linear)    (Quad)   (Total)
    R1        1.81675   0.00288   0.00000   0.00514   0.00514   1.82189
    R2        2.57372   0.00195   0.00000   0.00446   0.00446   2.57818
    R3        2.96331   0.00094   0.00000   0.00369   0.00369   2.96700
    R4        2.65190   0.00054   0.00000   0.00112   0.00112   2.65303
    R5        2.62952   0.00176   0.00000   0.00321   0.00321   2.63273
    R6        2.58699  -0.00057   0.00000  -0.00271  -0.00271   2.58428
    R7        1.81137   0.00354   0.00000   0.00631   0.00631   1.81768
    R8        2.05220   0.00012   0.00000   0.00010   0.00010   2.05230
    R9        2.61767   0.00161   0.00000   0.00344   0.00344   2.62111
   R10        2.04793   0.00027   0.00000   0.00091   0.00091   2.04884
   R11        2.63608   0.00083   0.00000   0.00073   0.00073   2.63682
   R12        2.63426   0.00060   0.00000   0.00244   0.00244   2.63670
   R13        2.04405   0.00036   0.00000   0.00078   0.00078   2.04482
   R14        2.63954   0.00110   0.00000   0.00218   0.00217   2.64171
   R15        2.56631  -0.00129   0.00000  -0.00410  -0.00410   2.56221
   R16        2.04842   0.00043   0.00000   0.00130   0.00130   2.04972
   R17        2.66701   0.00462   0.00000   0.01461   0.01461   2.68162
   R18        2.05510   0.00053   0.00000   0.00122   0.00122   2.05632
   R19        2.06859  -0.00016   0.00000  -0.00134  -0.00134   2.06725
   R20        2.06858  -0.00020   0.00000  -0.00147  -0.00147   2.06711
    A1        1.95651   0.00057   0.00000   0.00286   0.00286   1.95937
    A2        2.13685  -0.00068   0.00000  -0.00382  -0.00382   2.13304
    A3        2.07630   0.00078   0.00000   0.00379   0.00379   2.08010
    A4        2.07003  -0.00009   0.00000   0.00002   0.00002   2.07005
    A5        2.06875  -0.00003   0.00000  -0.00174  -0.00174   2.06701
    A6        2.05461   0.00021   0.00000   0.00142   0.00142   2.05602
    A7        2.15982  -0.00019   0.00000   0.00033   0.00033   2.16014
    A8        1.99391   0.00030   0.00000   0.00253   0.00253   1.99644
    A9        2.11169   0.00008   0.00000   0.00111   0.00111   2.11279
   A10        2.10245  -0.00052   0.00000  -0.00270  -0.00270   2.09975
   A11        2.06900   0.00044   0.00000   0.00162   0.00162   2.07062
   A12        2.09806  -0.00031   0.00000  -0.00151  -0.00151   2.09655
   A13        2.10679   0.00066   0.00000   0.00314   0.00314   2.10993
   A14        2.07833  -0.00035   0.00000  -0.00163  -0.00163   2.07670
   A15        2.08200  -0.00019   0.00000  -0.00060  -0.00060   2.08140
   A16        2.08497   0.00026   0.00000   0.00105   0.00105   2.08602
   A17        2.11621  -0.00007   0.00000  -0.00045  -0.00045   2.11577
   A18        2.09197  -0.00014   0.00000  -0.00182  -0.00183   2.09014
   A19        2.16794  -0.00055   0.00000  -0.00059  -0.00059   2.16735
   A20        2.02328   0.00069   0.00000   0.00241   0.00241   2.02569
   A21        2.11311   0.00028   0.00000   0.00197   0.00197   2.11508
   A22        2.10249   0.00007   0.00000   0.00032   0.00032   2.10282
   A23        2.06758  -0.00035   0.00000  -0.00230  -0.00230   2.06529
   A24        2.05660  -0.00028   0.00000  -0.00161  -0.00161   2.05499
   A25        1.85182   0.00033   0.00000  -0.00110  -0.00110   1.85072
   A26        1.94124   0.00027   0.00000  -0.00097  -0.00098   1.94026
   A27        1.94102   0.00026   0.00000  -0.00089  -0.00089   1.94013
   A28        1.90920  -0.00040   0.00000  -0.00050  -0.00050   1.90870
   A29        1.90933  -0.00040   0.00000  -0.00072  -0.00072   1.90861
   A30        1.91017  -0.00007   0.00000   0.00398   0.00398   1.91414
    D1       -3.12504  -0.00006   0.00000  -0.00455  -0.00455  -3.12960
    D2        0.01230   0.00003   0.00000  -0.00313  -0.00313   0.00917
    D3       -3.03266   0.00002   0.00000  -0.01002  -0.01002  -3.04268
    D4        0.11346  -0.00008   0.00000  -0.01154  -0.01154   0.10192
    D5        0.11030   0.00004   0.00000  -0.01004  -0.01004   0.10026
    D6       -3.02677  -0.00006   0.00000  -0.01156  -0.01156  -3.03833
    D7        0.01724  -0.00009   0.00000  -0.00522  -0.00522   0.01201
    D8       -3.13494  -0.00003   0.00000  -0.00150  -0.00150  -3.13644
    D9       -3.12572  -0.00010   0.00000  -0.00520  -0.00520  -3.13092
   D10        0.00529  -0.00004   0.00000  -0.00148  -0.00148   0.00381
   D11        3.13259   0.00001   0.00000   0.00102   0.00102   3.13362
   D12       -0.00729   0.00003   0.00000   0.00214   0.00214  -0.00515
   D13       -0.00769   0.00002   0.00000   0.00101   0.00101  -0.00668
   D14        3.13561   0.00005   0.00000   0.00212   0.00213   3.13774
   D15       -3.09438  -0.00020   0.00000  -0.01697  -0.01697  -3.11135
   D16        0.04272  -0.00010   0.00000  -0.01547  -0.01547   0.02725
   D17       -3.13931   0.00000   0.00000  -0.00035  -0.00035  -3.13966
   D18       -0.00028   0.00003   0.00000   0.00076   0.00076   0.00049
   D19       -0.00805   0.00006   0.00000   0.00328   0.00328  -0.00477
   D20        3.13098   0.00008   0.00000   0.00440   0.00440   3.13538
   D21       -0.00245   0.00000   0.00000   0.00043   0.00043  -0.00201
   D22        3.14081  -0.00001   0.00000  -0.00008  -0.00008   3.14073
   D23        3.13661   0.00003   0.00000   0.00153   0.00153   3.13815
   D24       -0.00332   0.00002   0.00000   0.00102   0.00102  -0.00230
   D25        0.00009  -0.00002   0.00000  -0.00089  -0.00089  -0.00080
   D26       -3.14033  -0.00003   0.00000  -0.00110  -0.00110  -3.14143
   D27        3.14000  -0.00001   0.00000  -0.00037  -0.00037   3.13963
   D28       -0.00043  -0.00001   0.00000  -0.00058  -0.00058  -0.00101
   D29        0.00506   0.00000   0.00000   0.00016   0.00016   0.00522
   D30       -3.13821  -0.00002   0.00000  -0.00093  -0.00093  -3.13914
   D31       -3.13761   0.00001   0.00000   0.00035   0.00035  -3.13725
   D32        0.00231  -0.00001   0.00000  -0.00074  -0.00074   0.00157
   D33        0.00264  -0.00002   0.00000  -0.00283  -0.00283  -0.00018
   D34       -3.13782  -0.00003   0.00000  -0.00303  -0.00303  -3.14085
   D35        3.14028  -0.00001   0.00000   0.00110   0.00110   3.14138
   D36       -1.06828  -0.00015   0.00000  -0.00069  -0.00069  -1.06897
   D37        1.06561   0.00014   0.00000   0.00310   0.00310   1.06871
         Item               Value     Threshold  Converged?
 Maximum Force            0.004619     0.000015     NO 
 RMS     Force            0.000847     0.000010     NO 
 Maximum Displacement     0.049836     0.000060     NO 
 RMS     Displacement     0.009147     0.000040     NO 
 Predicted change in Energy=-8.429254D-05
 GradGradGradGradGradGradGradGradGradGradGradGradGradGradGradGradGradGrad

                          Input orientation:                          
 ---------------------------------------------------------------------
 Center     Atomic      Atomic             Coordinates (Angstroms)
 Number     Number       Type             X           Y           Z
 ---------------------------------------------------------------------
      1          8           0        8.634193    7.600558    5.606393
      2          1           0        9.475696    7.374112    6.018814
      3          6           0        6.242788    6.886121    5.236371
      4          5           0        7.669362    6.668535    5.854963
      5          8           0        8.005954    5.593032    6.629672
      6          1           0        7.297304    4.954199    6.751776
      7          6           0        5.161153    6.042176    5.534389
      8          1           0        5.274270    5.207211    6.219593
      9          6           0        3.918715    6.267488    4.960425
     10          1           0        3.084998    5.614941    5.194060
     11          6           0        3.718802    7.330962    4.079492
     12          6           0        4.786813    8.176731    3.778102
     13          6           0        6.037288    7.949745    4.360345
     14          1           0        6.850716    8.622790    4.111662
     15          1           0        2.740465    7.485743    3.643850
     16          8           0        4.704690    9.237585    2.937741
     17          6           0        3.451019    9.501355    2.327459
     18          1           0        3.599737   10.379661    1.702520
     19          1           0        3.131197    8.661956    1.703091
     20          1           0        2.684068    9.715661    3.077393
 ---------------------------------------------------------------------
                    Distance matrix (angstroms):
                    1          2          3          4          5
     1  O    0.000000
     2  H    0.964103   0.000000
     3  C    2.523124   3.361851   0.000000
     4  B    1.364314   1.946158   1.570068   0.000000
     5  O    2.339219   2.388626   2.592705   1.367543   0.000000
     6  H    3.178426   3.337455   2.672224   1.970190   0.961874
     7  C    3.807328   4.541366   1.403920   2.605035   3.081278
     8  H    4.170516   4.731570   2.173359   2.829291   2.789108
     9  C    4.942680   5.764099   2.420779   3.876647   4.466184
    10  H    5.908152   6.679516   3.404311   4.750079   5.126137
    11  C    5.154142   6.074920   2.811896   4.381556   5.282376
    12  C    4.298483   5.258385   2.431479   3.859676   5.016954
    13  C    2.901462   3.860637   1.393180   2.557157   3.818323
    14  H    2.541647   3.476628   2.156517   2.743791   4.105409
    15  H    6.212953   7.142566   3.893833   5.463595   6.342150
    16  O    5.024197   5.977293   3.630265   4.888709   6.149102
    17  C    6.421038   7.378889   4.805747   6.185675   7.384542
    18  H    6.950495   7.886102   5.628379   6.897615   8.161090
    19  H    6.829737   7.780532   5.031865   6.465811   7.579760
    20  H    6.802463   7.762797   5.033088   6.469392   7.611651
                    6          7          8          9         10
     6  H    0.000000
     7  C    2.688656   0.000000
     8  H    2.107107   1.086033   0.000000
     9  C    4.043332   1.387030   2.132422   0.000000
    10  H    4.539448   2.146806   2.451709   1.084199   0.000000
    11  C    5.059228   2.420345   3.392614   1.395344   2.142125
    12  C    5.052724   2.789444   3.875119   2.407632   3.385836
    13  C    4.034834   2.405163   3.400073   2.770999   3.855180
    14  H    4.541828   3.396813   4.312161   3.855447   4.939573
    15  H    6.068995   3.393781   4.271572   2.146109   2.453926
    16  O    6.294117   4.142653   5.228660   3.678380   4.564858
    17  C    7.419240   5.017457   6.075577   4.196326   4.843097
    18  H    8.282670   5.994582   7.068398   5.256012   5.929449
    19  H    7.522841   5.065848   6.076744   4.118724   4.633929
    20  H    7.579879   5.066288   6.075253   4.118260   4.632163
                   11         12         13         14         15
    11  C    0.000000
    12  C    1.395281   0.000000
    13  C    2.416019   1.397933   0.000000
    14  H    3.388029   2.137739   1.084665   0.000000
    15  H    1.082074   2.164030   3.405540   4.290208   0.000000
    16  O    2.431209   1.355861   2.336268   2.522200   2.725017
    17  C    2.802130   2.375571   3.637156   3.938680   2.510073
    18  H    3.867653   3.251167   4.348583   4.411284   3.589133
    19  H    2.786415   2.698551   4.001701   4.431431   2.302758
    20  H    2.785977   2.698303   4.001064   4.430016   2.301432
                   16         17         18         19         20
    16  O    0.000000
    17  C    1.419053   0.000000
    18  H    2.012717   1.088157   0.000000
    19  H    2.081248   1.093944   1.780461   0.000000
    20  H    2.081100   1.093866   1.780343   1.788554   0.000000
 Symmetry turned off by external request.
 Stoichiometry    C7H9BO3
 Framework group  C1[X(C7H9BO3)]
 Deg. of freedom    54
 Full point group                 C1      NOp   1
 Rotational constants (GHZ):           2.3641051           0.6308237           0.4999586
 Standard basis: 6-311+G(d,p) (5D, 7F)
   296 basis functions,   468 primitive gaussians,   307 cartesian basis functions
    40 alpha electrons       40 beta electrons
       nuclear repulsion energy       566.7234826631 Hartrees.
 NAtoms=   20 NActive=   20 NUniq=   20 SFac= 1.00D+00 NAtFMM=   60 NAOKFM=F Big=F
 Integral buffers will be    131072 words long.
 Raffenetti 2 integral format.
 Two-electron integral symmetry is turned off.
 ------------------------------------------------------------------------------
 Polarizable Continuum Model (PCM)
 =================================
 Model                : PCM.
 Atomic radii         : SMD-Coulomb.
 Polarization charges : Total charges.
 Charge compensation  : None.
 Solution method      : Matrix inversion.
 Cavity type          : VdW (van der Waals Surface) (Alpha=1.000).
 Cavity algorithm     : GePol (No added spheres)
                        Default sphere list used, NSphG=   20.
                        Lebedev-Laikov grids with approx.  5.0 points / Ang**2.
                        Smoothing algorithm: York/Karplus (Gamma=1.0000).
                        Polarization charges: spherical gaussians, with
                                              point-specific exponents (IZeta= 3).
                        Self-potential: point-specific (ISelfS= 7).
                        Self-field    : sphere-specific E.n sum rule (ISelfD= 2).
 1st derivatives      : Analytical E(r).r(x)/FMM algorithm (CHGder, D1EAlg=3).
                        Cavity 1st derivative terms included.
 Solvent              : TetraHydroFuran, Eps=   7.425700 Eps(inf)=   1.974025
 ------------------------------------------------------------------------------
 Spheres list:
 ISph  on   Nord     Re0    Alpha      Xe            Ye            Ze
    1   O      1    2.2940  1.000      8.634193      7.600558      5.606393
    2   H      2    1.2000  1.000      9.475696      7.374112      6.018814
    3   C      3    1.8500  1.000      6.242788      6.886121      5.236371
    4   B      4    1.8000  1.000      7.669362      6.668535      5.854963
    5   O      5    2.2940  1.000      8.005954      5.593032      6.629672
    6   H      6    1.2000  1.000      7.297304      4.954199      6.751776
    7   C      7    1.8500  1.000      5.161153      6.042176      5.534389
    8   H      8    1.2000  1.000      5.274270      5.207211      6.219593
    9   C      9    1.8500  1.000      3.918715      6.267488      4.960425
   10   H     10    1.2000  1.000      3.084998      5.614941      5.194060
   11   C     11    1.8500  1.000      3.718802      7.330962      4.079492
   12   C     12    1.8500  1.000      4.786813      8.176731      3.778102
   13   C     13    1.8500  1.000      6.037288      7.949745      4.360345
   14   H     14    1.2000  1.000      6.850716      8.622790      4.111662
   15   H     15    1.2000  1.000      2.740465      7.485743      3.643850
   16   O     16    2.2940  1.000      4.704690      9.237585      2.937741
   17   C     17    1.8500  1.000      3.451019      9.501355      2.327459
   18   H     18    1.2000  1.000      3.599737     10.379661      1.702520
   19   H     19    1.2000  1.000      3.131197      8.661956      1.703091
   20   H     20    1.2000  1.000      2.684068      9.715661      3.077393
 ------------------------------------------------------------------------------
 ------------------------------------------------------------------------------
 Atomic radii for non-electrostatic terms: SMD-CDS.
 ------------------------------------------------------------------------------
 Nuclear repulsion after PCM non-electrostatic terms =      566.7200786018 Hartrees.
 One-electron integrals computed using PRISM.
 NBasis=   296 RedAO= T EigKep=  2.18D-06  NBF=   296
 NBsUse=   296 1.00D-06 EigRej= -1.00D+00 NBFU=   296
 Initial guess from the checkpoint file:  "3-OMe-phboh2-opt-freq-thf.chk"
 B after Tr=    -0.008793    0.005842    0.002391
         Rot=    1.000000   -0.000030   -0.000171    0.000270 Ang=  -0.04 deg.
 ExpMin= 3.15D-02 ExpMax= 8.59D+03 ExpMxC= 1.30D+03 IAcc=3 IRadAn=         5 AccDes= 0.00D+00
 Harris functional with IExCor= 1009 and IRadAn=       5 diagonalized for initial guess.
 HarFok:  IExCor= 1009 AccDes= 0.00D+00 IRadAn=         5 IDoV= 1 UseB2=F ITyADJ=14
 ICtDFT=  3500011 ScaDFX=  1.000000  1.000000  1.000000  1.000000
 FoFCou: FMM=F IPFlag=           0 FMFlag=      100000 FMFlg1=           0
         NFxFlg=           0 DoJE=T BraDBF=F KetDBF=T FulRan=T
         wScrn=  0.000000 ICntrl=       500 IOpCl=  0 I1Cent=   200000004 NGrid=           0
         NMat0=    1 NMatS0=      1 NMatT0=    0 NMatD0=    1 NMtDS0=    0 NMtDT0=    0
 Symmetry not used in FoFCou.
 Requested convergence on RMS density matrix=1.00D-08 within 128 cycles.
 Requested convergence on MAX density matrix=1.00D-06.
 Requested convergence on             energy=1.00D-06.
 Level shift goal  0.100 maximum shift  0.100.
 No special actions if energy rises.
 Dynamic level shift is on during FON iterations.
 Inv3:  Mode=1 IEnd=     8885523.
 Iteration    1 A*A^-1 deviation from unit magnitude is 6.00D-15 for   1719.
 Iteration    1 A*A^-1 deviation from orthogonality  is 2.86D-15 for    678    361.
 Iteration    1 A^-1*A deviation from unit magnitude is 6.22D-15 for   1719.
 Iteration    1 A^-1*A deviation from orthogonality  is 2.02D-15 for   1710   1575.
 Error on total polarization charges =  0.02596
 SCF Done:  E(RM062X) =  -522.752115823     A.U. after   11 cycles
            NFock= 11  Conv=0.63D-08     -V/T= 2.0037
 SMD-CDS (non-electrostatic) energy       (kcal/mol) =      -2.14
 (included in total energy above)
 D1PCM: PCM CHGder 1st derivatives, ID1Alg=3 FixD1E=F DoIter=F DoCFld=F I1PDM=0.
 Calling FoFJK, ICntrl=      2127 FMM=F ISym2X=0 I1Cent= 0 IOpClX= 0 NMat=1 NMatS=1 NMatT=0.
 -------------------------------------------------------------------
 Center     Atomic                   Forces (Hartrees/Bohr)
 Number     Number              X              Y              Z
 -------------------------------------------------------------------
      1        8          -0.000011011    0.000015492   -0.000026516
      2        1           0.000028634   -0.000004432   -0.000001395
      3        6           0.000003150   -0.000002347    0.000004869
      4        5          -0.000001739    0.000000272   -0.000002170
      5        8           0.000037563    0.000016688   -0.000008982
      6        1          -0.000026241   -0.000015770    0.000014818
      7        6           0.000008346   -0.000003291    0.000009395
      8        1           0.000006642    0.000005126    0.000000979
      9        6          -0.000005660    0.000006948    0.000006072
     10        1           0.000000171    0.000003568    0.000013113
     11        6          -0.000005981   -0.000002661    0.000004794
     12        6          -0.000000212   -0.000004417    0.000001665
     13        6          -0.000000151    0.000004304   -0.000007147
     14        1          -0.000000081   -0.000001580   -0.000010084
     15        1          -0.000003114   -0.000000004    0.000007899
     16        8          -0.000026581    0.000007503   -0.000016920
     17        6           0.000023345   -0.000009917    0.000011082
     18        1          -0.000008744   -0.000004462   -0.000006089
     19        1          -0.000010094   -0.000010845   -0.000000372
     20        1          -0.000008243   -0.000000173    0.000004987
 -------------------------------------------------------------------
 Cartesian Forces:  Max     0.000037563 RMS     0.000011559

 GradGradGradGradGradGradGradGradGradGradGradGradGradGradGradGradGradGrad
 Berny optimization.
 Using GEDIIS/GDIIS optimizer.
 FormGI is forming the generalized inverse of G from B-inverse, IUseBI=4.
 Internal  Forces:  Max     0.000039059 RMS     0.000006838
 Search for a local minimum.
 Step number   2 out of a maximum of   97
 All quantities printed in internal units (Hartrees-Bohrs-Radians)
 Mixed Optimization -- En-DIIS/RFO-DIIS
 Swapping is turned off.
 Update second derivatives using D2CorX and points    1    2
 DE= -8.45D-05 DEPred=-8.43D-05 R= 1.00D+00
 TightC=F SS=  1.41D+00  RLast= 4.08D-02 DXNew= 5.0454D-01 1.2226D-01
 Trust test= 1.00D+00 RLast= 4.08D-02 DXMaxT set to 3.00D-01
 ITU=  1  0
     Eigenvalues ---    0.00254   0.00435   0.01030   0.01366   0.01529
     Eigenvalues ---    0.01531   0.01776   0.02034   0.02175   0.02390
     Eigenvalues ---    0.02447   0.02715   0.02838   0.03240   0.03894
     Eigenvalues ---    0.08643   0.08704   0.10625   0.11079   0.11183
     Eigenvalues ---    0.11489   0.12057   0.12366   0.13306   0.16139
     Eigenvalues ---    0.17755   0.18400   0.18877   0.18935   0.19103
     Eigenvalues ---    0.19442   0.20492   0.22230   0.27617   0.29181
     Eigenvalues ---    0.33165   0.33509   0.34298   0.35257   0.35655
     Eigenvalues ---    0.36411   0.36529   0.36985   0.37894   0.38516
     Eigenvalues ---    0.40484   0.42504   0.46748   0.48149   0.48972
     Eigenvalues ---    0.51104   0.54531   0.55525   0.56787
 En-DIIS/RFO-DIIS/Sim-DIIS IScMMF=       -3 using points:     2    1
 RFO step:  Lambda=-8.67448430D-08.
 DidBck=F Rises=F RFO-DIIS coefs:    1.09366   -0.09366
 Iteration  1 RMS(Cart)=  0.00137104 RMS(Int)=  0.00000110
 Iteration  2 RMS(Cart)=  0.00000148 RMS(Int)=  0.00000007
 Iteration  3 RMS(Cart)=  0.00000000 RMS(Int)=  0.00000007
 Variable       Old X    -DE/DX   Delta X   Delta X   Delta X     New X
                                 (Linear)    (Quad)   (Total)
    R1        1.82189   0.00003   0.00048  -0.00043   0.00005   1.82194
    R2        2.57818   0.00001   0.00042  -0.00039   0.00003   2.57821
    R3        2.96700   0.00001   0.00035  -0.00032   0.00003   2.96702
    R4        2.65303   0.00000   0.00011  -0.00011   0.00000   2.65302
    R5        2.63273   0.00001   0.00030  -0.00027   0.00003   2.63276
    R6        2.58428   0.00001  -0.00025   0.00026   0.00001   2.58429
    R7        1.81768   0.00004   0.00059  -0.00052   0.00007   1.81775
    R8        2.05230   0.00000   0.00001  -0.00001  -0.00001   2.05230
    R9        2.62111   0.00001   0.00032  -0.00030   0.00002   2.62113
   R10        2.04884   0.00000   0.00009  -0.00008   0.00000   2.04884
   R11        2.63682   0.00000   0.00007  -0.00007   0.00000   2.63681
   R12        2.63670   0.00000   0.00023  -0.00022   0.00001   2.63671
   R13        2.04482   0.00000   0.00007  -0.00007   0.00000   2.04482
   R14        2.64171   0.00001   0.00020  -0.00020   0.00000   2.64171
   R15        2.56221   0.00001  -0.00038   0.00041   0.00003   2.56223
   R16        2.04972   0.00000   0.00012  -0.00012   0.00000   2.04972
   R17        2.68162  -0.00002   0.00137  -0.00144  -0.00008   2.68155
   R18        2.05632   0.00000   0.00011  -0.00010   0.00001   2.05633
   R19        2.06725   0.00001  -0.00013   0.00015   0.00002   2.06728
   R20        2.06711   0.00001  -0.00014   0.00016   0.00002   2.06713
    A1        1.95937   0.00000   0.00027  -0.00028  -0.00001   1.95936
    A2        2.13304   0.00000  -0.00036   0.00036   0.00000   2.13304
    A3        2.08010   0.00001   0.00036  -0.00034   0.00002   2.08011
    A4        2.07005   0.00000   0.00000  -0.00002  -0.00002   2.07003
    A5        2.06701   0.00000  -0.00016   0.00015  -0.00002   2.06700
    A6        2.05602   0.00000   0.00013  -0.00014  -0.00001   2.05601
    A7        2.16014   0.00000   0.00003   0.00000   0.00003   2.16017
    A8        1.99644   0.00000   0.00024  -0.00019   0.00005   1.99648
    A9        2.11279   0.00000   0.00010  -0.00009   0.00002   2.11281
   A10        2.09975   0.00000  -0.00025   0.00026   0.00001   2.09976
   A11        2.07062   0.00000   0.00015  -0.00018  -0.00003   2.07059
   A12        2.09655   0.00000  -0.00014   0.00014  -0.00001   2.09655
   A13        2.10993   0.00000   0.00029  -0.00029   0.00000   2.10994
   A14        2.07670   0.00000  -0.00015   0.00015   0.00000   2.07670
   A15        2.08140   0.00000  -0.00006   0.00005  -0.00001   2.08139
   A16        2.08602   0.00000   0.00010  -0.00009   0.00001   2.08603
   A17        2.11577   0.00000  -0.00004   0.00004   0.00000   2.11577
   A18        2.09014   0.00000  -0.00017   0.00018   0.00000   2.09015
   A19        2.16735   0.00000  -0.00005   0.00004  -0.00002   2.16733
   A20        2.02569   0.00000   0.00023  -0.00021   0.00001   2.02571
   A21        2.11508   0.00000   0.00018  -0.00018   0.00001   2.11509
   A22        2.10282   0.00000   0.00003  -0.00003   0.00000   2.10282
   A23        2.06529   0.00000  -0.00022   0.00021  -0.00001   2.06528
   A24        2.05499   0.00000  -0.00015   0.00016   0.00001   2.05500
   A25        1.85072   0.00000  -0.00010   0.00014   0.00003   1.85075
   A26        1.94026   0.00000  -0.00009   0.00010   0.00001   1.94027
   A27        1.94013   0.00000  -0.00008   0.00012   0.00003   1.94017
   A28        1.90870   0.00000  -0.00005   0.00002  -0.00002   1.90867
   A29        1.90861   0.00000  -0.00007   0.00003  -0.00004   1.90858
   A30        1.91414   0.00000   0.00037  -0.00039  -0.00002   1.91413
    D1       -3.12960   0.00000  -0.00043   0.00007  -0.00036  -3.12996
    D2        0.00917   0.00000  -0.00029  -0.00014  -0.00044   0.00873
    D3       -3.04268  -0.00001  -0.00094  -0.00156  -0.00250  -3.04518
    D4        0.10192  -0.00001  -0.00108  -0.00134  -0.00242   0.09950
    D5        0.10026   0.00000  -0.00094  -0.00139  -0.00233   0.09793
    D6       -3.03833   0.00000  -0.00108  -0.00116  -0.00224  -3.04057
    D7        0.01201   0.00000  -0.00049   0.00047  -0.00002   0.01199
    D8       -3.13644   0.00000  -0.00014   0.00029   0.00015  -3.13629
    D9       -3.13092   0.00000  -0.00049   0.00029  -0.00020  -3.13111
   D10        0.00381   0.00000  -0.00014   0.00012  -0.00002   0.00379
   D11        3.13362   0.00000   0.00010  -0.00017  -0.00007   3.13355
   D12       -0.00515   0.00000   0.00020  -0.00027  -0.00007  -0.00522
   D13       -0.00668   0.00000   0.00009   0.00000   0.00010  -0.00658
   D14        3.13774   0.00000   0.00020  -0.00010   0.00010   3.13784
   D15       -3.11135  -0.00001  -0.00159   0.00022  -0.00137  -3.11273
   D16        0.02725  -0.00001  -0.00145  -0.00001  -0.00146   0.02579
   D17       -3.13966   0.00000  -0.00003  -0.00006  -0.00010  -3.13975
   D18        0.00049   0.00000   0.00007  -0.00010  -0.00003   0.00046
   D19       -0.00477   0.00000   0.00031  -0.00023   0.00008  -0.00469
   D20        3.13538   0.00000   0.00041  -0.00027   0.00014   3.13552
   D21       -0.00201   0.00000   0.00004  -0.00004   0.00000  -0.00202
   D22        3.14073   0.00000  -0.00001   0.00000  -0.00001   3.14071
   D23        3.13815   0.00000   0.00014  -0.00008   0.00006   3.13821
   D24       -0.00230   0.00000   0.00010  -0.00004   0.00005  -0.00224
   D25       -0.00080   0.00000  -0.00008   0.00016   0.00008  -0.00072
   D26       -3.14143   0.00000  -0.00010   0.00014   0.00004  -3.14139
   D27        3.13963   0.00000  -0.00003   0.00012   0.00009   3.13972
   D28       -0.00101   0.00000  -0.00005   0.00011   0.00005  -0.00095
   D29        0.00522   0.00000   0.00002  -0.00014  -0.00013   0.00509
   D30       -3.13914   0.00000  -0.00009  -0.00004  -0.00013  -3.13927
   D31       -3.13725   0.00000   0.00003  -0.00013  -0.00009  -3.13735
   D32        0.00157   0.00000  -0.00007  -0.00003  -0.00010   0.00148
   D33       -0.00018   0.00000  -0.00026  -0.00003  -0.00030  -0.00048
   D34       -3.14085   0.00000  -0.00028  -0.00005  -0.00033  -3.14118
   D35        3.14138   0.00000   0.00010   0.00004   0.00015   3.14152
   D36       -1.06897   0.00000  -0.00006   0.00021   0.00014  -1.06883
   D37        1.06871   0.00000   0.00029  -0.00014   0.00015   1.06887
         Item               Value     Threshold  Converged?
 Maximum Force            0.000039     0.000015     NO 
 RMS     Force            0.000007     0.000010     YES
 Maximum Displacement     0.007485     0.000060     NO 
 RMS     Displacement     0.001371     0.000040     NO 
 Predicted change in Energy=-4.337260D-08
 GradGradGradGradGradGradGradGradGradGradGradGradGradGradGradGradGradGrad

                          Input orientation:                          
 ---------------------------------------------------------------------
 Center     Atomic      Atomic             Coordinates (Angstroms)
 Number     Number       Type             X           Y           Z
 ---------------------------------------------------------------------
      1          8           0        8.634955    7.599232    5.604231
      2          1           0        9.476342    7.373004    6.017070
      3          6           0        6.242848    6.886045    5.236240
      4          5           0        7.669451    6.668412    5.854783
      5          8           0        8.005477    5.593988    6.631242
      6          1           0        7.295999    4.956482    6.755737
      7          6           0        5.161353    6.041766    5.533810
      8          1           0        5.274582    5.206475    6.218594
      9          6           0        3.918927    6.267015    4.959770
     10          1           0        3.085349    5.614144    5.193002
     11          6           0        3.718876    7.330781    4.079225
     12          6           0        4.786738    8.176915    3.778300
     13          6           0        6.037217    7.949938    4.360543
     14          1           0        6.850547    8.623200    4.112127
     15          1           0        2.740562    7.485502    3.643509
     16          8           0        4.704448    9.238109    2.938365
     17          6           0        3.450907    9.501625    2.327797
     18          1           0        3.599479   10.380178    1.703159
     19          1           0        3.131554    8.662304    1.703062
     20          1           0        2.683620    9.715447    3.077543
 ---------------------------------------------------------------------
                    Distance matrix (angstroms):
                    1          2          3          4          5
     1  O    0.000000
     2  H    0.964131   0.000000
     3  C    2.523139   3.361891   0.000000
     4  B    1.364331   1.946186   1.570082   0.000000
     5  O    2.339231   2.388630   2.592741   1.367548   0.000000
     6  H    3.178506   3.337529   2.672305   1.970251   0.961910
     7  C    3.807436   4.541460   1.403918   2.605046   3.081218
     8  H    4.170711   4.731727   2.173365   2.829313   2.788947
     9  C    4.942778   5.764196   2.420794   3.876674   4.466170
    10  H    5.908283   6.679631   3.404321   4.750098   5.126071
    11  C    5.154176   6.074984   2.811922   4.381596   5.282441
    12  C    4.298432   5.258398   2.431500   3.859715   5.017078
    13  C    2.901378   3.860637   1.393197   2.557196   3.818458
    14  H    2.541455   3.476578   2.156533   2.743839   4.105598
    15  H    6.212989   7.142631   3.893860   5.463636   6.342216
    16  O    5.024106   5.977291   3.630304   4.888771   6.149289
    17  C    6.420939   7.378863   4.805749   6.185696   7.384671
    18  H    6.950398   7.886091   5.628412   6.897671   8.161276
    19  H    6.829104   7.780057   5.031758   6.465671   7.580016
    20  H    6.803006   7.763306   5.033248   6.469621   7.611659
                    6          7          8          9         10
     6  H    0.000000
     7  C    2.688431   0.000000
     8  H    2.106453   1.086030   0.000000
     9  C    4.043218   1.387041   2.132413   0.000000
    10  H    4.539189   2.146813   2.451689   1.084200   0.000000
    11  C    5.059330   2.420355   3.392610   1.395342   2.142125
    12  C    5.052990   2.789447   3.875118   2.407630   3.385838
    13  C    4.035129   2.405163   3.400081   2.771002   3.855184
    14  H    4.542238   3.396816   4.312178   3.855451   4.939578
    15  H    6.069094   3.393794   4.271567   2.146112   2.453933
    16  O    6.294505   4.142669   5.228674   3.678386   4.564865
    17  C    7.419549   5.017446   6.075558   4.196311   4.843091
    18  H    8.283072   5.994593   7.068403   5.256012   5.929452
    19  H    7.523646   5.065761   6.076624   4.118679   4.633907
    20  H    7.579637   5.066393   6.075369   4.118305   4.632195
                   11         12         13         14         15
    11  C    0.000000
    12  C    1.395287   0.000000
    13  C    2.416029   1.397935   0.000000
    14  H    3.388037   2.137738   1.084666   0.000000
    15  H    1.082075   2.164037   3.405550   4.290214   0.000000
    16  O    2.431216   1.355875   2.336290   2.522216   2.725015
    17  C    2.802118   2.375554   3.637140   3.938657   2.510067
    18  H    3.867656   3.251178   4.348600   4.411297   3.589128
    19  H    2.786405   2.698490   4.001568   4.431257   2.302840
    20  H    2.785992   2.698378   4.001215   4.430198   2.301350
                   16         17         18         19         20
    16  O    0.000000
    17  C    1.419013   0.000000
    18  H    2.012712   1.088164   0.000000
    19  H    2.081230   1.093955   1.780461   0.000000
    20  H    2.081098   1.093878   1.780336   1.788561   0.000000
 Symmetry turned off by external request.
 Stoichiometry    C7H9BO3
 Framework group  C1[X(C7H9BO3)]
 Deg. of freedom    54
 Full point group                 C1      NOp   1
 Rotational constants (GHZ):           2.3641349           0.6308257           0.4999423
 Standard basis: 6-311+G(d,p) (5D, 7F)
   296 basis functions,   468 primitive gaussians,   307 cartesian basis functions
    40 alpha electrons       40 beta electrons
       nuclear repulsion energy       566.7214090085 Hartrees.
 NAtoms=   20 NActive=   20 NUniq=   20 SFac= 1.00D+00 NAtFMM=   60 NAOKFM=F Big=F
 Integral buffers will be    131072 words long.
 Raffenetti 2 integral format.
 Two-electron integral symmetry is turned off.
 ------------------------------------------------------------------------------
 Polarizable Continuum Model (PCM)
 =================================
 Model                : PCM.
 Atomic radii         : SMD-Coulomb.
 Polarization charges : Total charges.
 Charge compensation  : None.
 Solution method      : Matrix inversion.
 Cavity type          : VdW (van der Waals Surface) (Alpha=1.000).
 Cavity algorithm     : GePol (No added spheres)
                        Default sphere list used, NSphG=   20.
                        Lebedev-Laikov grids with approx.  5.0 points / Ang**2.
                        Smoothing algorithm: York/Karplus (Gamma=1.0000).
                        Polarization charges: spherical gaussians, with
                                              point-specific exponents (IZeta= 3).
                        Self-potential: point-specific (ISelfS= 7).
                        Self-field    : sphere-specific E.n sum rule (ISelfD= 2).
 1st derivatives      : Analytical E(r).r(x)/FMM algorithm (CHGder, D1EAlg=3).
                        Cavity 1st derivative terms included.
 Solvent              : TetraHydroFuran, Eps=   7.425700 Eps(inf)=   1.974025
 ------------------------------------------------------------------------------
 Spheres list:
 ISph  on   Nord     Re0    Alpha      Xe            Ye            Ze
    1   O      1    2.2940  1.000      8.634955      7.599232      5.604231
    2   H      2    1.2000  1.000      9.476342      7.373004      6.017070
[...]
 0002833,-0.00003436,0.00764635,-0.01684052,0.01534877,-0.00016023,-0.0
 0012972,0.00097219,-0.00071354,-0.00173651,0.00073081,-0.00246982,0.00
 072119,-0.00088245,-0.06047429,0.01751162,-0.02176959,0.06275462,-0.00
 032650,0.00032277,-0.00021232,-0.00011210,0.00000054,0.00008458,0.0033
 7960,-0.01052096,0.00930622,0.00161285,-0.00242352,0.00006406,-0.00080
 091,0.00024405,-0.00162924,-0.00103862,0.00094023,0.00000294,0.0212107
 7,-0.21456692,0.14587281,-0.01921461,0.22360896,0.00012148,-0.00015510
 ,0.00027651,0.00003018,0.00009352,0.00010894,-0.00056345,0.00254734,-0
 .00199304,-0.00029263,-0.00028800,-0.00255019,0.00005610,-0.00186764,-
 0.00008369,0.00028356,0.00009523,0.00097291,-0.02404376,0.14553039,-0.
 15511962,0.02694233,-0.15964803,0.15752468,-0.00241235,-0.00009247,-0.
 00072568,-0.00006780,-0.00008477,0.00019014,-0.05394842,-0.04434230,0.
 01300843,0.00015733,-0.00578117,0.00259300,0.00088549,0.00069381,-0.00
 007030,-0.00040131,0.00032025,-0.00024290,-0.30313890,0.05050014,-0.11
 613713,0.00058407,-0.00158126,0.00031436,0.69408724,-0.00046448,0.0003
 2134,-0.00062440,-0.00019942,-0.00024616,-0.00030225,-0.00223587,0.037
 27041,-0.02156342,-0.00288924,0.00034775,0.00303817,-0.00010533,0.0004
 5050,-0.00038071,-0.00070392,-0.00003571,-0.00032886,-0.00629932,-0.11
 093943,0.03406166,0.02327392,-0.00085535,0.01053115,0.11224846,0.50903
 535,-0.00005581,-0.00053552,-0.00008279,0.00029034,-0.00007836,-0.0001
 3002,-0.01891165,-0.03567581,0.03036936,0.00051727,0.00221648,0.004235
 11,0.00040819,-0.00008521,0.00015383,0.00038029,-0.00014074,-0.0003831
 9,-0.07275962,0.05253208,-0.12733030,-0.01882796,0.00269596,-0.0047200
 4,0.09400109,-0.24924872,0.35981720,-0.00082421,-0.00010238,-0.0001833
 2,-0.00002274,-0.00004635,0.00002982,-0.00389091,0.00089015,-0.0042391
 7,0.00057748,-0.00091500,0.00082564,-0.00022210,0.00033896,-0.00031414
 ,-0.00000335,-0.00013002,0.00007943,-0.01520175,-0.01800221,0.00760142
 ,0.00075369,0.00087369,0.00097396,-0.22626340,-0.13539395,0.04337178,0
 .23575814,0.00001771,-0.00007261,-0.00003544,0.00004303,-0.00000586,-0
 .00001416,0.00039531,0.00330839,0.00322252,0.00031727,0.00022190,0.000
 05907,-0.00008511,0.00004034,-0.00002004,0.00002654,-0.00002041,0.0000
 1489,0.00560042,0.00712450,-0.00049624,0.00035698,-0.00110997,-0.00236
 079,-0.13519151,-0.15530296,0.04602415,0.14577300,0.15757222,-0.000236
 46,-0.00007630,-0.00015644,-0.00001123,-0.00004731,-0.00002604,-0.0039
 7860,0.00333372,0.00354275,-0.00012671,-0.00034658,0.00040032,-0.00000
 726,0.00009043,-0.00002294,-0.00001821,-0.00002162,0.00001166,-0.01042
 985,-0.00802014,0.00692732,0.00139528,-0.00223909,-0.00219027,0.043214
 43,0.04602074,-0.06042711,-0.04435760,-0.05374973,0.05369812,-0.001520
 27,-0.00029130,-0.00035281,0.00019425,0.00004640,0.00006406,-0.0119178
 8,-0.01672967,0.01007814,0.00262956,-0.00113734,0.00199822,-0.00041411
 ,0.00057879,-0.00055463,0.00012934,-0.00023514,0.00008402,0.02062071,0
 .02738305,-0.01647761,-0.00424483,0.00007875,-0.00367685,-0.12814557,0
 .04094790,-0.05388688,0.00702559,-0.01868898,0.01531562,0.70052551,-0.
 00028473,0.00001950,-0.00030761,-0.00003383,-0.00000489,0.00014894,-0.
 02262031,-0.04644865,0.02488352,-0.00151370,-0.00247480,0.00079504,0.0
 0093961,-0.00030594,0.00061103,-0.00009287,0.00038654,-0.00027346,0.07
 217630,0.00898501,0.02178283,-0.00061968,0.00361654,0.00250957,-0.0157
 7207,-0.22656228,0.12377037,0.00462992,-0.00980601,0.01185529,0.064735
 41,0.48681966,-0.00023072,-0.00021375,-0.00000683,0.00004090,0.0000833
 2,0.00001123,0.01473374,0.02729487,-0.01963645,0.00231856,0.00088088,-
 0.00082723,-0.00091024,0.00046920,-0.00059204,0.00013964,-0.00030906,0
 .00035270,-0.05087876,0.00710953,-0.01515255,-0.00322101,0.00283627,0.
 00403419,-0.01039337,0.14207879,-0.17155286,-0.00252242,0.00441777,-0.
 00035178,0.13705431,-0.25544273,0.36635443,0.00130934,0.00002160,0.000
 63417,-0.00005050,0.00005246,-0.00012198,0.02644756,0.07327765,-0.0484
 8531,0.00255054,0.00108429,-0.00245402,-0.00036598,0.00034018,-0.00006
 785,-0.00005037,-0.00020101,0.00014091,-0.08182529,-0.01957891,-0.0099
 0601,-0.00137224,-0.00038334,0.00003495,0.05897066,-0.05205420,0.05873
 679,0.00152653,0.00097178,-0.00267256,-0.25437671,-0.06201706,-0.01354
 711,0.67498204,-0.00195779,-0.00001960,-0.00067880,0.00033177,0.000146
 97,-0.00015448,0.02795851,0.00852558,0.00675112,0.00144804,-0.00049366
 ,0.00628497,0.00019067,0.00017610,-0.00128948,0.00024223,-0.00019545,0
 .00042438,-0.01888337,-0.00194233,-0.00876501,-0.00051816,0.00022151,-
 0.00055900,-0.00689566,-0.03628139,0.02561724,0.00072407,0.00077352,0.
 00555546,-0.11975212,-0.16590246,0.03770093,0.08323380,0.50254430,0.00
 219059,0.00012853,0.00079479,-0.00019248,-0.00019326,-0.00015329,-0.01
 440707,0.02057821,-0.01536926,-0.00276127,0.00627234,0.00155154,0.0000
 6486,-0.00094111,-0.00067231,-0.00031252,0.00019273,0.00001337,-0.0104
 0689,-0.00900612,-0.00205693,0.00005567,-0.00052871,0.00013502,0.02443
 018,0.01084008,-0.00044152,-0.00254738,0.00563874,0.00255317,0.0305904
 2,0.05649897,-0.09921235,0.10353658,-0.23330233,0.37539193,-0.00293168
 ,-0.00037279,-0.00062255,0.00066822,0.00030839,0.00014486,-0.12572434,
 -0.00749811,-0.01699238,0.00137507,0.01773893,-0.01369457,-0.00573697,
 0.00222386,-0.00322467,-0.00013328,-0.00099046,0.00045614,0.04958140,-
 0.00776743,0.02034765,-0.00328514,-0.00413827,-0.00016654,-0.03096798,
 0.02217347,-0.02592590,0.00018330,0.00078399,-0.00022451,-0.04299636,-
 0.04047117,0.01487001,-0.28376464,0.03397369,-0.09616717,0.66671210,-0
 .00235969,-0.00225730,0.00017441,-0.00018497,-0.00023741,0.00011312,0.
 03621826,-0.22995974,0.14174056,0.00904116,0.00070711,0.00431948,-0.00
 238257,0.00221051,-0.00125829,-0.00030094,-0.00038003,0.00013585,-0.04
 635612,-0.03492643,0.01599799,-0.00356697,0.00156185,0.00291021,0.0256
 8077,-0.02161171,0.02255446,0.00087912,-0.00063541,-0.00009803,-0.0041
 8578,0.03735364,-0.02510398,-0.02448289,-0.10392629,0.01764181,0.10933
 257,0.52981570,0.00084457,0.00102569,-0.00105891,0.00039368,0.00031821
 ,-0.00007986,-0.04988436,0.12765079,-0.17280482,-0.00670952,0.00694323
 ,-0.00526398,-0.00047765,-0.00003380,0.00123916,0.00032990,-0.00000946
 ,-0.00005585,0.04950734,0.02858910,0.00014890,-0.00053035,0.00275433,0
 .00449236,-0.02855458,0.02153925,-0.02854615,-0.00023821,-0.00016469,-
 0.00116877,-0.01277865,-0.03653862,0.03029399,-0.05171717,0.03630614,-
 0.11582153,0.09127929,-0.26665575,0.36704774,-0.00066678,0.00038631,-0
 .00052035,-0.00007118,-0.00001254,0.00006953,0.00793866,0.00350441,-0.
 00038966,-0.00013827,0.00108495,0.00027688,0.00016830,-0.00038941,0.00
 009841,0.00001895,0.00001664,0.00001792,0.00183275,0.00073228,-0.00255
 207,0.00038942,0.00023140,-0.00021105,-0.00029920,0.00114387,-0.000629
 10,-0.00006028,0.00005014,0.00021533,-0.00373217,0.00072517,-0.0036667
 9,-0.01577241,-0.01873010,0.00733847,-0.21928671,-0.13546181,0.0440358
 3,0.22831353,-0.00029304,0.00064632,-0.00044149,0.00024154,0.00018534,
 -0.00025903,-0.01665605,-0.01058381,0.00342104,-0.00101821,-0.00245704
 ,-0.00119214,0.00017862,0.00042614,0.00019143,-0.00005930,0.00004922,-
 0.00008761,0.00089221,0.00027513,0.00602774,-0.00095236,-0.00040397,0.
 00034018,0.00060990,-0.00038657,-0.00030417,0.00001728,-0.00027218,-0.
 00042200,0.00043813,0.00225221,0.00279869,0.00454549,0.00631996,0.0009
 9732,-0.13641225,-0.15860983,0.04804796,0.14739982,0.16313009,-0.00015
 556,-0.00029024,0.00021455,-0.00014001,-0.00034203,0.00004517,0.015174
 81,0.01003705,-0.00171026,0.00172189,-0.00042717,-0.00242410,-0.000172
 19,-0.00019410,0.00056540,0.00009468,-0.00004825,-0.00001433,-0.002578
 10,0.00599956,0.00241500,0.00068523,0.00072595,0.00012091,-0.00019137,
 -0.00012129,-0.00103452,0.00023363,-0.00041813,-0.00044588,-0.00344580
 ,0.00292912,0.00240074,-0.01046339,-0.00657027,0.00724759,0.04467544,0
 .04845113,-0.05939051,-0.04649572,-0.05669451,0.05352765,-0.00007706,0
 .00001752,-0.00006655,0.00001961,0.00001761,-0.00000718,0.00017761,-0.
 00055884,0.00087893,-0.00005516,0.00003889,0.00018145,-0.00004133,0.00
 005933,-0.00005027,0.00001584,-0.00002368,0.00000407,0.00249074,-0.000
 61445,-0.00108823,-0.00005374,-0.00013559,0.00000642,0.00088219,-0.000
 74846,-0.00006353,0.00034578,0.00083569,0.00084458,-0.29662720,0.03160
 607,-0.10914360,-0.01489307,0.00567309,-0.01044079,-0.00184547,-0.0040
 4647,0.00048806,-0.00076860,0.00043625,-0.00044087,0.30908801,-0.00001
 691,0.00008743,-0.00000599,0.00001458,0.00001061,-0.00000649,-0.000153
 69,-0.00122251,-0.00006443,0.00006214,-0.00035682,-0.00026646,0.000045
 50,0.00005147,-0.00001041,-0.00009630,0.00005088,-0.00001798,-0.000726
 86,-0.00069888,0.00588359,0.00105247,-0.00010232,0.00059731,0.02237062
 ,0.00055437,0.00901997,0.00040736,-0.00065180,-0.00260976,0.03227177,-
 0.05528904,0.02597612,-0.01596818,0.00826231,-0.00839851,-0.00386487,-
 0.00026370,0.00362930,-0.00079214,0.00004288,-0.00062982,-0.03609046,0
 .05387808,-0.00008313,-0.00000867,0.00005595,0.00000090,-0.00001189,0.
 00000166,0.00061464,-0.00012868,-0.00092141,0.00014909,-0.00025907,-0.
 00046101,-0.00004050,-0.00003206,0.00002244,0.00007780,-0.00002902,0.0
 0006335,-0.00098140,0.00591401,0.00242471,-0.00091019,0.00023705,-0.00
 020223,-0.01778340,0.00150640,-0.00406380,0.00116700,-0.00247851,-0.00
 194187,-0.10955867,0.02575288,-0.08969402,0.00603924,-0.00142696,0.007
 06015,0.00034422,0.00356808,0.00351706,0.00050649,-0.00023149,-0.00009
 482,0.12015156,-0.03433755,0.08909611,-0.00112797,-0.00033216,-0.00020
 378,0.00011664,0.00001560,0.00004070,-0.00838259,-0.00569331,-0.000121
 13,0.00232892,0.00063699,0.00023871,-0.00119522,0.00090362,-0.00088980
 ,0.00007116,-0.00033725,0.00020647,0.00505954,0.00256632,0.00004990,0.
 00022596,0.00033631,0.00007009,-0.00820819,-0.00001064,-0.00489972,0.0
 0039090,-0.00090933,0.00087478,0.01012260,-0.02480250,0.01934012,-0.10
 713206,0.00527255,-0.02413714,-0.00300365,0.04263690,-0.03589069,0.001
 93167,0.00056973,0.00129421,0.00019908,0.00203923,-0.00067252,0.382640
 94,0.00194969,0.00063116,0.00036178,-0.00018648,-0.00006772,-0.0000349
 1,-0.00057315,0.00600511,-0.00084947,-0.00332656,0.00000524,-0.0010559
 2,0.00129224,-0.00086923,0.00091917,-0.00041421,0.00049664,-0.00041260
 ,0.00032670,-0.00614922,0.00387616,0.00039231,-0.00041121,-0.00014585,
 -0.00458875,0.00457891,0.00034516,0.00006089,-0.00134065,0.00091312,-0
 .00488906,-0.03173303,0.02947532,-0.02277922,-0.20723858,0.11668914,0.
 01716852,-0.01633390,0.02340746,-0.00024125,-0.00053174,-0.00214962,0.
 00141702,0.00000245,-0.00137377,-0.03207928,0.32653826,-0.00190102,-0.
 00053090,-0.00026930,0.00018920,0.00004753,0.00002878,-0.00394666,-0.0
 0255605,0.00565746,0.00330499,0.00025175,0.00097984,-0.00137279,0.0009
 2041,-0.00111067,0.00033027,-0.00050599,0.00038461,0.00173749,0.004723
 00,-0.00403936,0.00002250,-0.00017594,-0.00063567,-0.00147788,0.001840
 16,0.00516251,0.00013835,0.00059747,-0.00056980,0.00423093,0.02304525,
 -0.00761066,-0.00279500,0.12580091,-0.14246137,-0.01633440,0.03176472,
 -0.02268737,0.00192416,-0.00183846,-0.00111287,-0.00023821,-0.00124762
 ,-0.00159931,0.12615269,-0.20680507,0.26978683,0.00086919,0.00019047,0
 .00020201,-0.00010588,-0.00002748,-0.00002961,0.00046070,-0.00074841,0
 .00027020,-0.00161314,0.00009969,-0.00052610,0.00066974,-0.00056780,0.
 00058833,-0.00013073,0.00025663,-0.00019388,0.00152225,-0.00154361,0.0
 0154867,0.00003514,-0.00003862,0.00015547,-0.00205377,0.00092633,-0.00
 159293,-0.00010124,-0.00044820,0.00032958,0.00262882,-0.00722821,0.006
 51375,-0.00349781,0.01942903,-0.01436626,0.00269619,-0.00357583,0.0027
 4289,-0.00007676,0.00009331,0.00009464,-0.00014017,-0.00039903,0.00051
 579,-0.20868475,0.01994887,-0.06363482,0.49444568,-0.00015366,-0.00002
 529,-0.00006900,0.00001944,0.00001813,0.00002366,0.00084516,0.00017954
 ,0.00118026,0.00019602,-0.00030515,0.00014905,0.00000004,0.00003988,-0
 .00003906,0.00003169,-0.00002269,0.00002618,0.00012591,0.00062775,-0.0
 0020082,0.00005393,-0.00011293,-0.00016293,0.00087256,0.00041899,0.000
 41991,-0.00000191,0.00014830,-0.00016661,0.00110550,-0.00122664,0.0007
 8079,0.03280828,-0.01668942,0.01956203,-0.00305833,-0.00147279,0.00224
 561,0.00040088,-0.00009079,-0.00026481,0.00147385,-0.00234507,0.001343
 52,-0.00303246,-0.07914514,0.01356673,0.02966243,0.61240839,0.00039145
 ,0.00005348,0.00008599,-0.00006243,0.00000271,0.00001036,-0.00095673,0
 .00070189,0.00051403,-0.00059440,0.00011884,-0.00047495,0.00022290,-0.
 00021855,0.00022019,-0.00007360,0.00010115,-0.00008415,0.00030673,-0.0
 0077928,0.00096006,0.00008533,-0.00019478,-0.00017076,-0.00152197,0.00
 045026,-0.00023083,-0.00000820,-0.00031179,0.00016527,0.00007766,-0.00
 178557,0.00094265,-0.02460001,0.01508320,-0.02471399,0.00234403,0.0020
 6280,0.00191816,-0.00013268,-0.00036525,-0.00037572,-0.00082801,0.0008
 4894,-0.00204637,-0.04606695,0.02116579,-0.09119505,-0.05143103,-0.012
 42711,0.57593175,-0.00008671,-0.00002434,-0.00000614,0.00000966,0.0000
 0170,-0.00000210,-0.00052316,-0.00020346,0.00001028,0.00016671,0.00006
 024,0.00001817,-0.00008792,0.00006146,-0.00006606,0.00000381,-0.000025
 15,0.00001428,0.00014096,0.00003021,0.00003865,0.00004249,0.00000997,0
 .00001157,0.00042459,0.00019361,-0.00006101,-0.00000713,0.00003914,-0.
 00004313,-0.00105925,-0.00063652,0.00008119,-0.00481801,-0.00061625,-0
 .00130817,0.00008866,0.00133323,-0.00109216,-0.00000916,-0.00003632,0.
 00002023,0.00075057,-0.00015300,0.00040863,-0.00372753,0.03416088,-0.0
 2756446,-0.05593146,-0.04644829,0.03408843,0.06598695,0.00010128,0.000
 02756,0.00001189,-0.00001164,-0.00000279,0.00000033,0.00019926,-0.0000
 4333,0.00002828,-0.00019443,-0.00001369,-0.00008008,0.00006971,-0.0000
 5449,0.00006487,-0.00000943,0.00002410,-0.00001797,0.00004499,-0.00009
 957,0.00006707,0.00002073,-0.00002144,0.00000618,0.00005218,0.00011408
 ,0.00004593,-0.00001514,-0.00000918,0.00002643,-0.00027187,-0.00002644
 ,0.00008120,0.00061957,0.00237084,-0.00112045,-0.00006020,-0.00019627,
 0.00035491,-0.00000065,0.00000327,0.00000745,0.00028566,-0.00004371,-0
 .00004548,0.00302807,-0.00493955,0.00510433,-0.03512223,-0.23451438,0.
 12833224,0.03523338,0.24718566,-0.00010225,-0.00003705,-0.00002170,0.0
 0001020,0.00000559,0.00000507,-0.00029655,-0.00009545,-0.00010928,0.00
 021431,0.00000231,0.00003084,-0.00008223,0.00006663,-0.00005873,0.0000
 0865,-0.00002686,0.00001576,0.00002251,0.00006137,-0.00006825,0.000004
 34,0.00000381,-0.00002111,0.00004599,0.00009515,0.00009701,-0.00000130
 ,0.00004417,-0.00000219,-0.00019578,-0.00002190,0.00014128,-0.00225210
 ,-0.00150144,0.00105280,-0.00001571,0.00080207,-0.00033319,-0.00000775
 ,-0.00000355,0.00001410,0.00006676,-0.00020410,-0.00003075,-0.00371811
 ,0.01522707,-0.01241883,0.02541081,0.12466575,-0.13904333,-0.02044402,
 -0.14211968,0.14865605,-0.00014726,-0.00001883,-0.00002020,0.00001716,
 0.00000578,0.00000010,-0.00022894,-0.00023982,0.00039994,0.00024002,-0
 .00006373,0.00004807,-0.00009339,0.00008578,-0.00006550,0.00002280,-0.
 00003636,0.00001955,0.00029289,0.00036517,-0.00021833,0.00000215,-0.00
 000242,-0.00005673,-0.00018328,0.00018202,0.00000379,0.00001940,0.0000
 5150,-0.00003779,0.00068316,0.00084739,-0.00005840,0.00118795,-0.00563
 656,0.00375015,-0.00089231,0.00105752,-0.00050394,0.00016883,-0.000080
 43,-0.00007167,0.00011242,0.00002522,-0.00006847,-0.02385724,-0.019549
 32,-0.02806436,-0.06575356,-0.04842585,-0.03418982,-0.00019677,-0.0043
 0252,-0.00224865,0.08031762,-0.00000615,0.00000553,-0.00000401,0.00000
 388,-0.00000028,-0.00000404,0.00031668,0.00042178,-0.00030419,0.000015
 25,0.00003815,-0.00000058,-0.00002846,0.00001810,-0.00001823,0.0000080
 1,-0.00001270,0.00000826,-0.00070292,-0.00010952,-0.00025211,-0.000002
 91,0.00004071,0.00007934,0.00085750,-0.00065424,0.00023642,-0.00000955
 ,0.00005402,0.00002706,-0.00137269,0.00026516,-0.00019969,-0.00001278,
 0.00179360,0.00064380,0.00049536,-0.00043166,-0.00007838,-0.00000609,0
 .00002112,0.00004231,0.00039384,-0.00027172,0.00174345,0.00143215,0.01
 139240,0.00678552,-0.05367075,-0.21617011,-0.11812515,-0.00504887,-0.0
 1719701,-0.01482689,0.05908639,0.22462179,-0.00002786,0.00001213,-0.00
 000749,0.00000494,-0.00000028,0.00000002,-0.00016595,-0.00044497,0.000
 41049,0.00001761,-0.00004368,-0.00000382,-0.00001931,0.00002606,-0.000
 00996,0.00000539,-0.00000989,0.00000229,0.00049099,0.00021506,0.000007
 80,0.00004491,-0.00002577,-0.00002609,-0.00007848,0.00044627,-0.000074
 41,-0.00000103,0.00000714,-0.00003437,-0.00001617,-0.00034670,-0.00028
 231,0.00031991,-0.00409651,0.00228128,-0.00070148,0.00087323,-0.000620
 99,0.00011453,-0.00004255,-0.00001776,0.00047585,0.00046522,-0.0012389
 4,-0.01413004,-0.00553008,-0.01113498,-0.03624397,-0.11326037,-0.13402
 615,0.00553767,0.01395937,0.01288656,0.04942317,0.12573675,0.14301483,
 -0.00013477,-0.00003843,-0.00005837,0.00001610,0.00000993,0.00000617,-
 0.00006436,-0.00051422,0.00008657,0.00020539,0.00000912,0.00013704,-0.
 00009575,0.00007402,-0.00009968,0.00002274,-0.00003371,0.00003556,0.00
 021195,0.00043174,-0.00019918,0.00000048,0.00003886,0.00001053,0.00009
 863,0.00001526,-0.00009543,0.00001629,0.00006063,-0.00004569,0.0004748
 0,0.00043277,-0.00051980,0.00094446,-0.00548745,0.00509025,-0.00073639
 ,0.00072452,-0.00124429,0.00011940,0.00008569,0.00015992,0.00041997,-0
 .00002742,0.00012293,-0.03776822,0.01191016,0.00929903,-0.16523845,0.0
 3352478,0.12294933,-0.00116728,0.00033330,0.00358089,0.00828835,-0.001
 74786,-0.00505067,0.19438666,-0.00002883,-0.00001351,0.00000485,0.0000
 0274,0.00000214,-0.00000096,0.00014627,0.00053103,-0.00028086,0.000082
 41,0.00000968,-0.00000605,-0.00002415,0.00001513,-0.00001317,0.0000050
 0,-0.00000809,0.00000544,-0.00059790,-0.00007637,-0.00009683,-0.000017
 11,-0.00002858,-0.00005309,0.00012376,-0.00021590,0.00059041,0.0000220
 6,-0.00001616,-0.00002507,-0.00003176,0.00008190,-0.00071446,0.0005224
 8,0.00155447,-0.00219322,0.00043510,-0.00040634,0.00066871,-0.00004189
 ,-0.00001577,-0.00004235,-0.00003684,-0.00169491,0.00029777,0.00775947
 ,-0.00089020,-0.00078772,0.03276342,-0.06172059,-0.03471381,-0.0179316
 4,0.00743635,0.01786301,0.01664908,-0.00382512,-0.01794043,-0.03980167
 ,0.05928084,-0.00003132,-0.00001495,-0.00000813,0.00000160,0.00000005,
 -0.00000051,-0.00026419,-0.00056304,0.00017087,0.00003616,-0.00000875,
 0.00006604,-0.00000239,0.00000464,-0.00000769,0.00000156,0.00000058,-0
 .00000124,0.00069628,0.00012423,0.00005147,-0.00004558,0.00006991,0.00
 004719,-0.00062058,0.00012158,-0.00081750,-0.00000824,0.00002357,0.000
 03881,0.00145049,0.00013380,0.00038785,-0.00036002,-0.00118007,0.00282
 092,-0.00039175,0.00000614,-0.00082545,0.00000763,0.00005791,0.0000696
 5,-0.00073047,0.00137866,0.00005312,-0.01753778,0.00597712,0.01484519,
 0.12964647,-0.03737276,-0.18838718,0.01035814,-0.00470679,-0.01079211,
 0.01195910,-0.00148964,-0.01112601,-0.13416510,0.03743781,0.19341470\\
 -0.00000407,-0.00000020,0.00001206,-0.00000527,-0.00000068,0.00001428,
 -0.00000204,-0.00000150,0.00000134,-0.00000398,-0.00000202,0.00000561,
 -0.00000555,-0.00000423,0.00000329,-0.00000537,-0.00000540,-0.00000129
 ,-0.00000218,-0.00000360,-0.00000523,-0.00000372,-0.00000573,-0.000007
 57,-0.00000041,-0.00000300,-0.00000887,-0.00000054,-0.00000465,-0.0000
 1392,0.00000159,-0.00000035,-0.00000605,0.00000175,0.00000173,0.000000
 48,-0.00000011,0.00000115,0.00000409,0.00000010,0.00000282,0.00000916,
 0.00000294,0.00000007,-0.00000899,0.00000356,0.00000445,0.00000364,0.0
 0000546,0.00000512,0.00000011,0.00000672,0.00000733,0.00000351,0.00000
 852,0.00000683,-0.00000376,0.00000259,0.00000186,-0.00000188\\\@
 The archive entry for this job was punched.


 AN AIRPLANE IS A COLLECTION OF SPARE PARTS
 FLYING IN CLOSE FORMATION.
 Job cpu time:       0 days  1 hours  3 minutes 24.7 seconds.
 Elapsed time:       0 days  0 hours  2 minutes  4.6 seconds.
 File lengths (MBytes):  RWF=    221 Int=      0 D2E=      0 Chk=     17 Scr=      1
 Normal termination of Gaussian 16 at Sat Apr 26 20:15:47 2025.
