/home/tahminaafroz
cn018.cluster.local
tahminaafroz
Wed Apr 30 05:30:48 CDT 2025
 Entering Gaussian System, Link 0=g16
 Initial command:
 /home/apps/g16/l1.exe "/tmp/4-beta-nap-phboh2-opt-freq-thf/Gau-2176878.inp" -scrdir="/tmp/4-beta-nap-phboh2-opt-freq-thf/"
 Entering Link 1 = /home/apps/g16/l1.exe PID=   2176885.
  
 Copyright (c) 1988-2019, Gaussian, Inc.  All Rights Reserved.
  
 This is part of the Gaussian(R) 16 program.  It is based on
 the Gaussian(R) 09 system (copyright 2009, Gaussian, Inc.),
 the Gaussian(R) 03 system (copyright 2003, Gaussian, Inc.),
 the Gaussian(R) 98 system (copyright 1998, Gaussian, Inc.),
 the Gaussian(R) 94 system (copyright 1995, Gaussian, Inc.),
 the Gaussian 92(TM) system (copyright 1992, Gaussian, Inc.),
 the Gaussian 90(TM) system (copyright 1990, Gaussian, Inc.),
 the Gaussian 88(TM) system (copyright 1988, Gaussian, Inc.),
 the Gaussian 86(TM) system (copyright 1986, Carnegie Mellon
 University), and the Gaussian 82(TM) system (copyright 1983,
 Carnegie Mellon University). Gaussian is a federally registered
 trademark of Gaussian, Inc.
  
 This software contains proprietary and confidential information,
 including trade secrets, belonging to Gaussian, Inc.
  
 This software is provided under written license and may be
 used, copied, transmitted, or stored only in accord with that
 written license.
  
 The following legend is applicable only to US Government
 contracts under FAR:
  
                    RESTRICTED RIGHTS LEGEND
  
 Use, reproduction and disclosure by the US Government is
 subject to restrictions as set forth in subparagraphs (a)
 and (c) of the Commercial Computer Software - Restricted
 Rights clause in FAR 52.227-19.
  
 Gaussian, Inc.
 340 Quinnipiac St., Bldg. 40, Wallingford CT 06492
  
  
 ---------------------------------------------------------------
 Warning -- This program may not be used in any manner that
 competes with the business of Gaussian, Inc. or will provide
 assistance to any competitor of Gaussian, Inc.  The licensee
 of this program is prohibited from giving any competitor of
 Gaussian, Inc. access to this program.  By using this program,
 the user acknowledges that Gaussian, Inc. is engaged in the
 business of creating and licensing software in the field of
 computational chemistry and represents and warrants to the
 licensee that it is not a competitor of Gaussian, Inc. and that
 it will not use this program in any manner prohibited above.
 ---------------------------------------------------------------
  

 Cite this work as:
 Gaussian 16, Revision C.01,
 M. J. Frisch, G. W. Trucks, H. B. Schlegel, G. E. Scuseria, 
 M. A. Robb, J. R. Cheeseman, G. Scalmani, V. Barone, 
 G. A. Petersson, H. Nakatsuji, X. Li, M. Caricato, A. V. Marenich, 
 J. Bloino, B. G. Janesko, R. Gomperts, B. Mennucci, H. P. Hratchian, 
 J. V. Ortiz, A. F. Izmaylov, J. L. Sonnenberg, D. Williams-Young, 
 F. Ding, F. Lipparini, F. Egidi, J. Goings, B. Peng, A. Petrone, 
 T. Henderson, D. Ranasinghe, V. G. Zakrzewski, J. Gao, N. Rega, 
 G. Zheng, W. Liang, M. Hada, M. Ehara, K. Toyota, R. Fukuda, 
 J. Hasegawa, M. Ishida, T. Nakajima, Y. Honda, O. Kitao, H. Nakai, 
 T. Vreven, K. Throssell, J. A. Montgomery, Jr., J. E. Peralta, 
 F. Ogliaro, M. J. Bearpark, J. J. Heyd, E. N. Brothers, K. N. Kudin, 
 V. N. Staroverov, T. A. Keith, R. Kobayashi, J. Normand, 
 K. Raghavachari, A. P. Rendell, J. C. Burant, S. S. Iyengar, 
 J. Tomasi, M. Cossi, J. M. Millam, M. Klene, C. Adamo, R. Cammi, 
 J. W. Ochterski, R. L. Martin, K. Morokuma, O. Farkas, 
 J. B. Foresman, and D. J. Fox, Gaussian, Inc., Wallingford CT, 2019.
 
 ******************************************
 Gaussian 16:  AS64L-G16RevC.01  3-Jul-2019
                30-Apr-2025 
 ******************************************
 %mem=20GB
 %nprocshared=32
 Will use up to   32 processors via shared memory.
 %chk=4-beta-nap-phboh2-opt-freq-thf.chk
 ----------------------------------------------------------------------
 # opt=(calcfc,tight) freq 6-311+g(d,p) scrf=(smd,solvent=thf) nosymm s
 cf=(qc,fermi,xqc) geom=connectivity int=ultrafine m062x
 ----------------------------------------------------------------------
 1/7=10,10=4,18=20,19=15,26=6,38=1,57=2/1,3;
 2/9=110,12=2,15=1,17=6,18=5,40=1/2;
 3/5=4,6=6,7=111,11=2,25=1,30=1,70=32201,71=2,72=20,74=-55,75=-5,140=1/1,2,3;
 4//1;
 5/5=2,22=13,38=5,53=20/2;
 8/6=4,10=90,11=11/1;
 11/6=1,8=1,9=11,15=111,16=1,31=1/1,2,10;
 10/6=1,13=1,31=1/2;
 6/7=2,8=2,9=2,10=2,28=1/1;
 7/10=1,25=1,30=1/1,2,3,16;
 1/7=10,10=4,18=20,19=15,26=6/3(2);
 2/9=110,15=1/2;
 99//99;
 2/9=110,15=1/2;
 3/5=4,6=6,7=111,11=2,25=1,30=1,70=32205,71=1,72=20,74=-55,75=-5/1,2,3;
 4/5=5,16=3,69=1/1;
 5/5=2,22=13,38=5,53=20/2;
 7/30=1/1,2,3,16;
 1/7=10,18=20,19=15,26=6/3(-5);
 2/9=110,15=1/2;
 6/7=2,8=2,9=2,10=2,19=2,28=1/1;
 99/9=1/99;
 ------------------------------
 4-beta-nap-phboh2-opt-freq-thf
 ------------------------------
 Symbolic Z-matrix:
 Charge =  0 Multiplicity = 1
 O                     8.33526   7.46732   6.5787 
 H                     9.15899   7.09852   6.91009 
 C                     6.23478   6.99979   5.27416 
 B                     7.60357   6.54884   5.88709 
 O                     8.1171    5.28512   5.77095 
 H                     7.57556   4.68166   5.25997 
 C                     5.38063   6.12212   4.60046 
 H                     5.64536   5.07476   4.4789 
 C                     4.17229   6.55308   4.06557 
 H                     3.52719   5.85915   3.53815 
 C                     3.78194   7.88803   4.18786 
 C                     4.6269    8.77514   4.86309 
 H                     4.32415   9.8105    4.97737 
 C                     5.82909   8.33502   5.39807 
 H                     6.47132   9.02963   5.92798 
 C                     2.47049   8.33799   3.65118 
 C                     2.37638   9.41215   2.70856 
 C                     1.3232    7.71279   4.08152 
 C                     3.51782   10.05521   2.15638 
 C                     1.08769   9.83275   2.27366 
 C                     0.04772   8.12693   3.63763 
 H                     1.40301   6.9046    4.80018 
 C                     3.38264   11.07704   1.25374 
 H                     4.50563   9.71932   2.44544 
 C                     0.98233   10.8997   1.34356 
 C                    -0.06815   9.17088   2.76196 
 H                    -0.83583   7.62006   4.00671 
 C                     2.10047   11.51352   0.8482 
 H                     4.26502   11.55086   0.84028 
 H                    -0.00636   11.21484   1.02748 
 H                    -1.04267   9.50537   2.42312 
 H                     2.00827   12.32568   0.13703 
 

 GradGradGradGradGradGradGradGradGradGradGradGradGradGradGradGradGradGrad
 Berny optimization.
 Initialization pass.
                           ----------------------------
                           !    Initial Parameters    !
                           ! (Angstroms and Degrees)  !
 --------------------------                            --------------------------
 ! Name  Definition              Value          Derivative Info.                !
 --------------------------------------------------------------------------------
 ! R1    R(1,2)                  0.9614         calculate D2E/DX2 analytically  !
 ! R2    R(1,4)                  1.3628         calculate D2E/DX2 analytically  !
 ! R3    R(3,4)                  1.5661         calculate D2E/DX2 analytically  !
 ! R4    R(3,7)                  1.3978         calculate D2E/DX2 analytically  !
 ! R5    R(3,14)                 1.401          calculate D2E/DX2 analytically  !
 ! R6    R(4,5)                  1.369          calculate D2E/DX2 analytically  !
 ! R7    R(5,6)                  0.9584         calculate D2E/DX2 analytically  !
 ! R8    R(7,8)                  1.0871         calculate D2E/DX2 analytically  !
 ! R9    R(7,9)                  1.3899         calculate D2E/DX2 analytically  !
 ! R10   R(9,10)                 1.0844         calculate D2E/DX2 analytically  !
 ! R11   R(9,11)                 1.3962         calculate D2E/DX2 analytically  !
 ! R12   R(11,12)                1.3989         calculate D2E/DX2 analytically  !
 ! R13   R(11,16)                1.4867         calculate D2E/DX2 analytically  !
 ! R14   R(12,13)                1.0848         calculate D2E/DX2 analytically  !
 ! R15   R(12,14)                1.3875         calculate D2E/DX2 analytically  !
 ! R16   R(14,15)                1.0843         calculate D2E/DX2 analytically  !
 ! R17   R(16,17)                1.4322         calculate D2E/DX2 analytically  !
 ! R18   R(16,18)                1.3756         calculate D2E/DX2 analytically  !
 ! R19   R(17,19)                1.4217         calculate D2E/DX2 analytically  !
 ! R20   R(17,20)                1.4236         calculate D2E/DX2 analytically  !
 ! R21   R(18,21)                1.4126         calculate D2E/DX2 analytically  !
 ! R22   R(18,22)                1.0844         calculate D2E/DX2 analytically  !
 ! R23   R(19,23)                1.3701         calculate D2E/DX2 analytically  !
 ! R24   R(19,24)                1.0827         calculate D2E/DX2 analytically  !
 ! R25   R(20,25)                1.4194         calculate D2E/DX2 analytically  !
 ! R26   R(20,26)                1.4186         calculate D2E/DX2 analytically  !
 ! R27   R(21,26)                1.3675         calculate D2E/DX2 analytically  !
 ! R28   R(21,27)                1.0834         calculate D2E/DX2 analytically  !
 ! R29   R(23,28)                1.4138         calculate D2E/DX2 analytically  !
 ! R30   R(23,29)                1.0835         calculate D2E/DX2 analytically  !
 ! R31   R(25,28)                1.3684         calculate D2E/DX2 analytically  !
 ! R32   R(25,30)                1.0848         calculate D2E/DX2 analytically  !
 ! R33   R(26,31)                1.0846         calculate D2E/DX2 analytically  !
 ! R34   R(28,32)                1.0834         calculate D2E/DX2 analytically  !
 ! A1    A(2,1,4)              112.1107         calculate D2E/DX2 analytically  !
 ! A2    A(4,3,7)              122.8153         calculate D2E/DX2 analytically  !
 ! A3    A(4,3,14)             119.532          calculate D2E/DX2 analytically  !
 ! A4    A(7,3,14)             117.6526         calculate D2E/DX2 analytically  !
 ! A5    A(1,4,3)              118.2819         calculate D2E/DX2 analytically  !
 ! A6    A(1,4,5)              117.6308         calculate D2E/DX2 analytically  !
 ! A7    A(3,4,5)              124.0872         calculate D2E/DX2 analytically  !
 ! A8    A(4,5,6)              114.4876         calculate D2E/DX2 analytically  !
 ! A9    A(3,7,8)              120.6656         calculate D2E/DX2 analytically  !
 ! A10   A(3,7,9)              121.4692         calculate D2E/DX2 analytically  !
 ! A11   A(8,7,9)              117.8653         calculate D2E/DX2 analytically  !
 ! A12   A(7,9,10)             120.3935         calculate D2E/DX2 analytically  !
 ! A13   A(7,9,11)             120.3841         calculate D2E/DX2 analytically  !
 ! A14   A(10,9,11)            119.2185         calculate D2E/DX2 analytically  !
 ! A15   A(9,11,12)            118.6686         calculate D2E/DX2 analytically  !
 ! A16   A(9,11,16)            120.2888         calculate D2E/DX2 analytically  !
 ! A17   A(12,11,16)           121.006          calculate D2E/DX2 analytically  !
 ! A18   A(11,12,13)           119.1802         calculate D2E/DX2 analytically  !
 ! A19   A(11,12,14)           120.5511         calculate D2E/DX2 analytically  !
 ! A20   A(13,12,14)           120.2621         calculate D2E/DX2 analytically  !
 ! A21   A(3,14,12)            121.2725         calculate D2E/DX2 analytically  !
 ! A22   A(3,14,15)            118.8319         calculate D2E/DX2 analytically  !
 ! A23   A(12,14,15)           119.895          calculate D2E/DX2 analytically  !
 ! A24   A(11,16,17)           121.5027         calculate D2E/DX2 analytically  !
 ! A25   A(11,16,18)           119.0259         calculate D2E/DX2 analytically  !
 ! A26   A(17,16,18)           119.469          calculate D2E/DX2 analytically  !
 ! A27   A(16,17,19)           122.8264         calculate D2E/DX2 analytically  !
 ! A28   A(16,17,20)           118.8242         calculate D2E/DX2 analytically  !
 ! A29   A(19,17,20)           118.3249         calculate D2E/DX2 analytically  !
 ! A30   A(16,18,21)           121.4337         calculate D2E/DX2 analytically  !
 ! A31   A(16,18,22)           118.9891         calculate D2E/DX2 analytically  !
 ! A32   A(21,18,22)           119.551          calculate D2E/DX2 analytically  !
 ! A33   A(17,19,23)           120.9307         calculate D2E/DX2 analytically  !
 ! A34   A(17,19,24)           119.242          calculate D2E/DX2 analytically  !
 ! A35   A(23,19,24)           119.8211         calculate D2E/DX2 analytically  !
 ! A36   A(17,20,25)           119.3053         calculate D2E/DX2 analytically  !
 ! A37   A(17,20,26)           119.6395         calculate D2E/DX2 analytically  !
 ! A38   A(25,20,26)           121.0507         calculate D2E/DX2 analytically  !
 ! A39   A(18,21,26)           120.1021         calculate D2E/DX2 analytically  !
 ! A40   A(18,21,27)           119.4819         calculate D2E/DX2 analytically  !
 ! A41   A(26,21,27)           120.4108         calculate D2E/DX2 analytically  !
 ! A42   A(19,23,28)           120.5766         calculate D2E/DX2 analytically  !
 ! A43   A(19,23,29)           119.8138         calculate D2E/DX2 analytically  !
 ! A44   A(28,23,29)           119.6079         calculate D2E/DX2 analytically  !
 ! A45   A(20,25,28)           120.9158         calculate D2E/DX2 analytically  !
 ! A46   A(20,25,30)           118.4882         calculate D2E/DX2 analytically  !
 ! A47   A(28,25,30)           120.5947         calculate D2E/DX2 analytically  !
 ! A48   A(20,26,21)           120.5006         calculate D2E/DX2 analytically  !
 ! A49   A(20,26,31)           118.728          calculate D2E/DX2 analytically  !
 ! A50   A(21,26,31)           120.7706         calculate D2E/DX2 analytically  !
 ! A51   A(23,28,25)           119.9151         calculate D2E/DX2 analytically  !
 ! A52   A(23,28,32)           119.7926         calculate D2E/DX2 analytically  !
 ! A53   A(25,28,32)           120.2884         calculate D2E/DX2 analytically  !
 ! D1    D(2,1,4,3)           -179.6257         calculate D2E/DX2 analytically  !
 ! D2    D(2,1,4,5)              0.2728         calculate D2E/DX2 analytically  !
 ! D3    D(7,3,4,1)           -177.0085         calculate D2E/DX2 analytically  !
 ! D4    D(7,3,4,5)              3.1001         calculate D2E/DX2 analytically  !
 ! D5    D(14,3,4,1)             2.8426         calculate D2E/DX2 analytically  !
 ! D6    D(14,3,4,5)          -177.0487         calculate D2E/DX2 analytically  !
 ! D7    D(4,3,7,8)              0.0596         calculate D2E/DX2 analytically  !
 ! D8    D(4,3,7,9)           -179.9139         calculate D2E/DX2 analytically  !
 ! D9    D(14,3,7,8)          -179.7942         calculate D2E/DX2 analytically  !
 ! D10   D(14,3,7,9)             0.2323         calculate D2E/DX2 analytically  !
 ! D11   D(4,3,14,12)          179.6733         calculate D2E/DX2 analytically  !
 ! D12   D(4,3,14,15)           -0.6171         calculate D2E/DX2 analytically  !
 ! D13   D(7,3,14,12)           -0.4679         calculate D2E/DX2 analytically  !
 ! D14   D(7,3,14,15)          179.2417         calculate D2E/DX2 analytically  !
 ! D15   D(1,4,5,6)           -178.7146         calculate D2E/DX2 analytically  !
 ! D16   D(3,4,5,6)              1.1774         calculate D2E/DX2 analytically  !
 ! D17   D(3,7,9,10)           179.4278         calculate D2E/DX2 analytically  !
 ! D18   D(3,7,9,11)             0.1584         calculate D2E/DX2 analytically  !
 ! D19   D(8,7,9,10)            -0.5464         calculate D2E/DX2 analytically  !
 ! D20   D(8,7,9,11)          -179.8159         calculate D2E/DX2 analytically  !
 ! D21   D(7,9,11,12)           -0.3179         calculate D2E/DX2 analytically  !
 ! D22   D(7,9,11,16)         -178.1418         calculate D2E/DX2 analytically  !
 ! D23   D(10,9,11,12)        -179.5959         calculate D2E/DX2 analytically  !
 ! D24   D(10,9,11,16)           2.5802         calculate D2E/DX2 analytically  !
 ! D25   D(9,11,12,13)        -178.9885         calculate D2E/DX2 analytically  !
 ! D26   D(9,11,12,14)           0.0851         calculate D2E/DX2 analytically  !
 ! D27   D(16,11,12,13)         -1.1808         calculate D2E/DX2 analytically  !
 ! D28   D(16,11,12,14)        177.8928         calculate D2E/DX2 analytically  !
 ! D29   D(9,11,16,17)        -124.2423         calculate D2E/DX2 analytically  !
 ! D30   D(9,11,16,18)          56.3223         calculate D2E/DX2 analytically  !
 ! D31   D(12,11,16,17)         57.9854         calculate D2E/DX2 analytically  !
 ! D32   D(12,11,16,18)       -121.45           calculate D2E/DX2 analytically  !
 ! D33   D(11,12,14,3)           0.3153         calculate D2E/DX2 analytically  !
 ! D34   D(11,12,14,15)       -179.3913         calculate D2E/DX2 analytically  !
 ! D35   D(13,12,14,3)         179.3788         calculate D2E/DX2 analytically  !
 ! D36   D(13,12,14,15)         -0.3278         calculate D2E/DX2 analytically  !
 ! D37   D(11,16,17,19)          4.3867         calculate D2E/DX2 analytically  !
 ! D38   D(11,16,17,20)       -177.4482         calculate D2E/DX2 analytically  !
 ! D39   D(18,16,17,19)       -176.1803         calculate D2E/DX2 analytically  !
 ! D40   D(18,16,17,20)          1.9847         calculate D2E/DX2 analytically  !
 ! D41   D(11,16,18,21)        177.9629         calculate D2E/DX2 analytically  !
 ! D42   D(11,16,18,22)         -0.164          calculate D2E/DX2 analytically  !
 ! D43   D(17,16,18,21)         -1.4842         calculate D2E/DX2 analytically  !
 ! D44   D(17,16,18,22)       -179.6111         calculate D2E/DX2 analytically  !
 ! D45   D(16,17,19,23)        179.7988         calculate D2E/DX2 analytically  !
 ! D46   D(16,17,19,24)          0.703          calculate D2E/DX2 analytically  !
 ! D47   D(20,17,19,23)          1.6251         calculate D2E/DX2 analytically  !
 ! D48   D(20,17,19,24)       -177.4708         calculate D2E/DX2 analytically  !
 ! D49   D(16,17,20,25)        179.7627         calculate D2E/DX2 analytically  !
 ! D50   D(16,17,20,26)         -1.0046         calculate D2E/DX2 analytically  !
 ! D51   D(19,17,20,25)         -1.9889         calculate D2E/DX2 analytically  !
 ! D52   D(19,17,20,26)        177.2437         calculate D2E/DX2 analytically  !
 ! D53   D(16,18,21,26)         -0.0536         calculate D2E/DX2 analytically  !
 ! D54   D(16,18,21,27)       -179.2282         calculate D2E/DX2 analytically  !
 ! D55   D(22,18,21,26)        178.063          calculate D2E/DX2 analytically  !
 ! D56   D(22,18,21,27)         -1.1116         calculate D2E/DX2 analytically  !
 ! D57   D(17,19,23,28)         -0.1452         calculate D2E/DX2 analytically  !
 ! D58   D(17,19,23,29)       -179.6734         calculate D2E/DX2 analytically  !
 ! D59   D(24,19,23,28)        178.9455         calculate D2E/DX2 analytically  !
 ! D60   D(24,19,23,29)         -0.5827         calculate D2E/DX2 analytically  !
 ! D61   D(17,20,25,28)          0.9128         calculate D2E/DX2 analytically  !
 ! D62   D(17,20,25,30)       -179.4991         calculate D2E/DX2 analytically  !
 ! D63   D(26,20,25,28)       -178.3088         calculate D2E/DX2 analytically  !
 ! D64   D(26,20,25,30)          1.2794         calculate D2E/DX2 analytically  !
 ! D65   D(17,20,26,21)         -0.516          calculate D2E/DX2 analytically  !
 ! D66   D(17,20,26,31)        179.8201         calculate D2E/DX2 analytically  !
 ! D67   D(25,20,26,21)        178.703          calculate D2E/DX2 analytically  !
 ! D68   D(25,20,26,31)         -0.9609         calculate D2E/DX2 analytically  !
 ! D69   D(18,21,26,20)          1.0659         calculate D2E/DX2 analytically  !
 ! D70   D(18,21,26,31)       -179.2771         calculate D2E/DX2 analytically  !
 ! D71   D(27,21,26,20)       -179.7672         calculate D2E/DX2 analytically  !
 ! D72   D(27,21,26,31)         -0.1102         calculate D2E/DX2 analytically  !
 ! D73   D(19,23,28,25)         -0.9896         calculate D2E/DX2 analytically  !
 ! D74   D(19,23,28,32)        179.7248         calculate D2E/DX2 analytically  !
 ! D75   D(29,23,28,25)        178.5395         calculate D2E/DX2 analytically  !
 ! D76   D(29,23,28,32)         -0.746          calculate D2E/DX2 analytically  !
 ! D77   D(20,25,28,23)          0.5902         calculate D2E/DX2 analytically  !
 ! D78   D(20,25,28,32)        179.8721         calculate D2E/DX2 analytically  !
 ! D79   D(30,25,28,23)       -178.9893         calculate D2E/DX2 analytically  !
 ! D80   D(30,25,28,32)          0.2926         calculate D2E/DX2 analytically  !
 --------------------------------------------------------------------------------
 Trust Radius=3.00D-01 FncErr=5.00D-06 GrdErr=5.00D-06 EigMax=2.50D+02 EigMin=1.00D-04
 Number of steps in this run=    177 maximum allowed number of steps=    192.
 GradGradGradGradGradGradGradGradGradGradGradGradGradGradGradGradGradGrad

                          Input orientation:                          
 ---------------------------------------------------------------------
 Center     Atomic      Atomic             Coordinates (Angstroms)
 Number     Number       Type             X           Y           Z
 ---------------------------------------------------------------------
      1          8           0        8.335259    7.467317    6.578702
      2          1           0        9.158988    7.098524    6.910093
      3          6           0        6.234782    6.999790    5.274163
      4          5           0        7.603565    6.548840    5.887093
      5          8           0        8.117104    5.285116    5.770945
      6          1           0        7.575557    4.681659    5.259966
      7          6           0        5.380626    6.122119    4.600459
      8          1           0        5.645363    5.074763    4.478898
      9          6           0        4.172287    6.553081    4.065567
     10          1           0        3.527185    5.859145    3.538148
     11          6           0        3.781940    7.888030    4.187864
     12          6           0        4.626900    8.775144    4.863091
     13          1           0        4.324151    9.810503    4.977374
     14          6           0        5.829094    8.335024    5.398070
     15          1           0        6.471318    9.029631    5.927978
     16          6           0        2.470493    8.337986    3.651175
     17          6           0        2.376376    9.412148    2.708556
     18          6           0        1.323195    7.712787    4.081524
     19          6           0        3.517815   10.055214    2.156380
     20          6           0        1.087691    9.832750    2.273661
     21          6           0        0.047716    8.126931    3.637628
     22          1           0        1.403006    6.904597    4.800180
     23          6           0        3.382641   11.077037    1.253739
     24          1           0        4.505630    9.719325    2.445435
     25          6           0        0.982332   10.899697    1.343559
     26          6           0       -0.068150    9.170881    2.761955
     27          1           0       -0.835832    7.620064    4.006712
     28          6           0        2.100466   11.513518    0.848198
     29          1           0        4.265021   11.550856    0.840279
     30          1           0       -0.006357   11.214837    1.027482
     31          1           0       -1.042671    9.505366    2.423116
     32          1           0        2.008273   12.325678    0.137033
 ---------------------------------------------------------------------
                    Distance matrix (angstroms):
                    1          2          3          4          5
     1  O    0.000000
     2  H    0.961435   0.000000
     3  C    2.516427   3.352163   0.000000
     4  B    1.362828   1.941139   1.566080   0.000000
     5  O    2.337106   2.381518   2.594231   1.369018   0.000000
     6  H    3.174288   3.327373   2.677986   1.969883   0.958401
     7  C    3.801692   4.534732   1.397772   2.603647   3.091751
     8  H    4.167617   4.727777   2.164622   2.826742   2.796987
     9  C    4.947930   5.766804   2.431900   3.884796   4.480807
    10  H    5.911748   6.680066   3.412609   4.755007   5.136365
    11  C    5.160021   6.078363   2.825854   4.391540   5.298580
    12  C    4.290182   5.247961   2.430256   3.855586   5.018567
    13  H    4.913630   5.870765   3.411554   4.713872   5.957800
    14  C    2.903045   3.860484   1.400994   2.564828   3.830922
    15  H    2.517646   3.452143   2.145618   2.727266   4.093246
    16  C    6.612409   7.542730   4.312161   5.877823   6.760004
    17  C    7.366728   8.307201   5.223898   6.754638   7.704971
    18  C    7.447496   8.353309   5.104355   6.637612   7.409786
    19  C    7.032916   7.947492   5.141799   6.550285   7.548005
    20  C    8.755335   9.701460   6.597061   8.142332   9.073291
    21  C    8.818638   9.735601   6.498344   8.039982   8.817141
    22  H    7.178853   8.040186   4.855902   6.305147   6.974541
    23  C    8.118727   9.010499   6.397067   7.732318   8.738801
    24  H    6.068072   6.960999   4.288069   5.611968   6.615434
    25  C    9.656785  10.596835   7.631982   9.133148  10.101002
    26  C    9.385466  10.326751   7.124028   8.688889   9.547333
    27  H    9.526142  10.421039   7.210045   8.712449   9.419106
    28  C    9.385258  10.298615   7.553507   8.962287   9.961243
    29  H    8.134594   8.978687   6.652179   7.850883   8.854914
    30  H   10.697780  11.642710   8.645967  10.163575  11.119921
    31  H   10.457921  11.401741   8.207783   9.772286  10.626380
    32  H   10.253269  11.150346   8.521653   9.886473  10.891662
                    6          7          8          9         10
     6  H    0.000000
     7  C    2.706953   0.000000
     8  H    2.119020   1.087114   0.000000
     9  C    4.063380   1.389936   2.127491   0.000000
    10  H    4.554168   2.152418   2.446823   1.084378   0.000000
    11  C    5.081510   2.417535   3.386963   1.396215   2.145555
    12  C    5.060505   2.770491   3.857161   2.404222   3.386428
    13  H    6.079189   3.855176   4.941792   3.386038   4.280158
    14  C    4.051701   2.394631   3.392335   2.774148   3.858506
    15  H    4.535465   3.377209   4.292204   3.858422   4.942792
    16  C    6.482177   3.778899   4.627478   2.500742   2.697040
    17  C    7.477881   4.840362   5.712556   3.638824   3.825757
    18  C    7.047588   4.388880   5.079194   3.076117   2.930669
    19  C    7.414352   4.991275   5.892830   4.042062   4.417733
    20  C    8.805916   6.132867   6.947941   4.845811   4.831107
    21  C    8.436247   5.778083   6.430950   4.435338   4.154450
    22  H    6.576720   4.058771   4.631318   2.886544   2.682877
    23  C    8.633149   6.304260   7.179753   5.384802   5.697878
    24  H    6.536369   4.283648   5.196722   3.572261   4.129451
    25  C    9.872834   7.264822   8.093458   6.039719   6.058025
    26  C    9.209746   6.508779   7.236733   5.151076   4.949394
    27  H    8.997574   6.421894   6.979069   5.120857   4.728245
    28  C    9.803806   7.342077   8.197917   6.264969   6.422094
    29  H    8.813578   6.697366   7.555440   5.948852   6.341804
    30  H   10.866543   8.229309   9.030765   6.958663   6.890051
    31  H   10.275686   7.579309   8.281683   6.213648   5.951622
    32  H   10.755004   8.353387   9.200869   7.310213   7.462622
                   11         12         13         14         15
    11  C    0.000000
    12  C    1.398878   0.000000
    13  H    2.147841   1.084752   0.000000
    14  C    2.419761   1.387508   2.149157   0.000000
    15  H    3.400589   2.144907   2.474618   1.084312   0.000000
    16  C    1.486738   2.511959   2.713514   3.785743   4.654976
    17  C    2.546939   3.180040   3.016629   4.507210   5.222983
    18  C    2.467275   3.557234   3.769442   4.735356   5.625535
    19  C    2.982176   3.192951   2.944158   4.337006   4.898975
    20  C    3.834721   4.511062   4.217254   5.872480   6.556102
    21  C    3.782098   4.784440   4.787194   6.047048   6.879188
    22  H    2.646016   3.727787   4.124170   4.689760   5.610302
    23  C    4.351815   4.458062   4.044256   5.538885   5.964923
    24  H    2.629340   2.598316   2.540071   3.519361   4.058043
    25  C    4.999801   5.493970   5.055562   6.819656   7.392091
    26  C    4.301409   5.158961   4.960797   6.513467   7.266932
    27  H    4.629086   5.648808   5.689080   6.846041   7.685869
    28  C    5.208156   5.477310   4.989502   6.686316   7.146902
    29  H    4.985578   4.900872   4.488639   5.793217   6.091716
    30  H    5.950366   6.490845   6.027197   7.838868   8.411317
    31  H    5.385813   6.215363   5.951481   7.578998   8.304843
    32  H    6.264810   6.465224   5.926069   7.629056   8.019834
                   16         17         18         19         20
    16  C    0.000000
    17  C    1.432205   0.000000
    18  C    1.375633   2.425296   0.000000
    19  C    2.506026   1.421730   3.742927   0.000000
    20  C    2.458456   1.423639   2.796082   2.443102   0.000000
    21  C    2.431990   2.817377   1.412588   4.237211   2.419044
    22  H    2.124699   3.407367   1.084439   4.624768   3.880309
    23  C    3.752614   2.429180   4.853438   1.370093   2.802728
    24  H    2.739286   2.167329   4.102545   1.082660   3.424132
    25  C    3.755273   2.453442   4.215333   2.793296   1.419354
    26  C    2.815872   2.456984   2.408971   3.742714   1.418616
    27  H    3.402000   3.900648   2.162312   5.320519   3.405787
    28  C    4.251777   2.820073   5.050159   2.418030   2.425415
    29  H    4.630767   3.410500   5.821579   2.127765   3.886116
    30  H    4.614631   3.428281   4.833139   3.878005   2.158719
    31  H    3.900414   3.432207   3.400144   4.601251   2.160546
    32  H    5.335216   3.903446   6.107954   3.392858   3.409889
                   21         22         23         24         25
    21  C    0.000000
    22  H    2.163894   0.000000
    23  C    5.050522   5.822839   0.000000
    24  H    4.881602   4.805600   2.127117   0.000000
    25  C    3.718130   5.299624   2.408527   3.875698   0.000000
    26  C    1.367501   3.384480   4.220913   4.617406   2.470661
    27  H    1.083418   2.480702   6.109422   5.947747   4.599358
    28  C    4.843932   6.111200   1.413843   3.399281   1.368350
    29  H    6.110162   6.742379   1.083535   2.447228   3.384279
    30  H    4.043631   5.898959   3.399336   4.960360   1.084769
    31  H    2.136368   4.289029   4.839523   5.552470   2.685189
    32  H    5.807532   7.176309   2.166800   4.284692   2.131122
                   26         27         28         29         30
    26  C    0.000000
    27  H    2.131617   0.000000
    28  C    3.722003   5.810081   0.000000
    29  H    5.304101   7.176080   2.164891   0.000000
    30  H    2.681412   4.741965   2.135429   4.288662   0.000000
    31  H    1.084612   2.470814   4.048747   5.904320   2.438039
    32  H    4.599401   6.723552   1.083448   2.487532   2.466901
                   31         32
    31  H    0.000000
    32  H    4.742214   0.000000
 Symmetry turned off by external request.
 Stoichiometry    C16H13BO2
 Framework group  C1[X(C16H13BO2)]
 Deg. of freedom    90
 Full point group                 C1      NOp   1
 Rotational constants (GHZ):           0.9307868           0.1810163           0.1603023
 Standard basis: 6-311+G(d,p) (5D, 7F)
   496 basis functions,   788 primitive gaussians,   515 cartesian basis functions
    65 alpha electrons       65 beta electrons
       nuclear repulsion energy      1239.5401635925 Hartrees.
 NAtoms=   32 NActive=   32 NUniq=   32 SFac= 1.00D+00 NAtFMM=   60 NAOKFM=F Big=F
 Integral buffers will be    131072 words long.
 Raffenetti 2 integral format.
 Two-electron integral symmetry is turned off.
 Force inversion solution in PCM.
 ------------------------------------------------------------------------------
 Polarizable Continuum Model (PCM)
 =================================
 Model                : PCM.
 Atomic radii         : SMD-Coulomb.
 Polarization charges : Total charges.
 Charge compensation  : None.
 Solution method      : Matrix inversion.
 Cavity type          : VdW (van der Waals Surface) (Alpha=1.000).
 Cavity algorithm     : GePol (No added spheres)
                        Default sphere list used, NSphG=   32.
                        Lebedev-Laikov grids with approx.  5.0 points / Ang**2.
                        Smoothing algorithm: York/Karplus (Gamma=1.0000).
                        Polarization charges: spherical gaussians, with
                                              point-specific exponents (IZeta= 3).
                        Self-potential: point-specific (ISelfS= 7).
                        Self-field    : sphere-specific E.n sum rule (ISelfD= 2).
 1st derivatives      : Analytical E(r).r(x)/FMM algorithm (CHGder, D1EAlg=3).
                        Cavity 1st derivative terms included.
 2nd derivatives      : Analytical E(r).r(xy)/FMM algorithm (CHGder, D2EAlg=3).
                        Cavity 2nd derivative terms included.
 Solvent              : TetraHydroFuran, Eps=   7.425700 Eps(inf)=   1.974025
 ------------------------------------------------------------------------------
 ------------------------------------------------------------------------------
 Atomic radii for non-electrostatic terms: SMD-CDS.
 ------------------------------------------------------------------------------
 Nuclear repulsion after PCM non-electrostatic terms =     1239.5318359529 Hartrees.
 One-electron integrals computed using PRISM.
 NBasis=   496 RedAO= T EigKep=  1.35D-06  NBF=   496
 NBsUse=   491 1.00D-06 EigRej=  9.78D-07 NBFU=   491
 ExpMin= 3.15D-02 ExpMax= 8.59D+03 ExpMxC= 1.30D+03 IAcc=3 IRadAn=         5 AccDes= 0.00D+00
 Harris functional with IExCor= 1009 and IRadAn=       5 diagonalized for initial guess.
 HarFok:  IExCor= 1009 AccDes= 0.00D+00 IRadAn=         5 IDoV= 1 UseB2=F ITyADJ=14
 ICtDFT=  3500011 ScaDFX=  1.000000  1.000000  1.000000  1.000000
 FoFCou: FMM=F IPFlag=           0 FMFlag=      100000 FMFlg1=           0
         NFxFlg=           0 DoJE=T BraDBF=F KetDBF=T FulRan=T
         wScrn=  0.000000 ICntrl=       500 IOpCl=  0 I1Cent=   200000004 NGrid=           0
         NMat0=    1 NMatS0=      1 NMatT0=    0 NMatD0=    1 NMtDS0=    0 NMtDT0=    0
 Symmetry not used in FoFCou.
 Requested convergence on RMS density matrix=1.00D-08 within 128 cycles.
 Requested convergence on MAX density matrix=1.00D-06.
 Requested convergence on             energy=1.00D-06.
 Level shift goal  0.100 maximum shift  0.100.
 No special actions if energy rises.
 Dynamic level shift is on during FON iterations.
 Inv3:  Mode=1 IEnd=    20311212.
 Iteration    1 A*A^-1 deviation from unit magnitude is 9.66D-15 for   2592.
 Iteration    1 A*A^-1 deviation from orthogonality  is 2.45D-15 for   2592   2500.
 Iteration    1 A^-1*A deviation from unit magnitude is 9.77D-15 for   2592.
 Iteration    1 A^-1*A deviation from orthogonality  is 2.32D-15 for   2597   2473.
 Error on total polarization charges =  0.04377
 SCF Done:  E(RM062X) =  -792.879820683     A.U. after   15 cycles
            NFock= 15  Conv=0.33D-08     -V/T= 2.0039
 SMD-CDS (non-electrostatic) energy       (kcal/mol) =      -5.23
 (included in total energy above)
 DoSCS=F DFT=T ScalE2(SS,OS)=  1.000000  1.000000
 Range of M.O.s used for correlation:     1   491
 NBasis=   496 NAE=    65 NBE=    65 NFC=     0 NFV=     0
 NROrb=    491 NOA=    65 NOB=    65 NVA=   426 NVB=   426

 **** Warning!!: The largest alpha MO coefficient is  0.19404227D+03

 Symmetrizing basis deriv contribution to polar:
 IMax=3 JMax=2 DiffMx= 0.00D+00
 G2DrvN: will do    33 centers at a time, making    1 passes.
 Calling FoFCou, ICntrl=  3107 FMM=F I1Cent=   0 AccDes= 0.00D+00.
 NEqPCM:  Using equilibrium solvation (IEInf=0, Eps=   7.4257, EpsInf=   1.9740)
 G2PCM: DoFxE=T DoFxN=T DoGrad=T DoDP/DQ/DG/TGxP=FFFF NFrqRd=   0 IEInf=0 SqF1=F DoCFld=F IF1Alg=4.
 End of G2Drv F.D. properties file   721 does not exist.
 End of G2Drv F.D. properties file   722 does not exist.
 End of G2Drv F.D. properties file   788 does not exist.
          IDoAtm=11111111111111111111111111111111
 NEqPCM:  Using equilibrium solvation (IEInf=0, Eps=   7.4257, EpsInf=   1.9740)
          Differentiating once with respect to nuclear coordinates.
 CalDSu exits because no D1Ps are significant.
          There are    99 degrees of freedom in the 1st order CPHF.  IDoFFX=6 NUNeed=     0.
     93 vectors produced by pass  0 Test12= 2.80D-14 1.01D-09 XBig12= 3.09D-01 9.63D-02.
 AX will form    93 AO Fock derivatives at one time.
     93 vectors produced by pass  1 Test12= 2.80D-14 1.01D-09 XBig12= 1.49D-02 3.59D-02.
     93 vectors produced by pass  2 Test12= 2.80D-14 1.01D-09 XBig12= 6.00D-04 3.06D-03.
     93 vectors produced by pass  3 Test12= 2.80D-14 1.01D-09 XBig12= 3.79D-06 1.87D-04.
     93 vectors produced by pass  4 Test12= 2.80D-14 1.01D-09 XBig12= 2.24D-08 1.16D-05.
     93 vectors produced by pass  5 Test12= 2.80D-14 1.01D-09 XBig12= 1.10D-10 9.61D-07.
     89 vectors produced by pass  6 Test12= 2.80D-14 1.01D-09 XBig12= 4.70D-13 5.60D-08.
     22 vectors produced by pass  7 Test12= 2.80D-14 1.01D-09 XBig12= 2.00D-15 3.08D-09.
 InvSVY:  IOpt=1 It=  1 EMax= 6.11D-16
 Solved reduced A of dimension   669 with    99 vectors.
 End of Minotr F.D. properties file   721 does not exist.
 End of Minotr F.D. properties file   722 does not exist.
 End of Minotr F.D. properties file   788 does not exist.

 **********************************************************************

            Population analysis using the SCF Density.

 **********************************************************************

 Alpha  occ. eigenvalues --  -19.63533 -19.63035 -10.56043 -10.55982 -10.55918
 Alpha  occ. eigenvalues --  -10.55617 -10.54999 -10.54574 -10.54562 -10.54538
 Alpha  occ. eigenvalues --  -10.54530 -10.54517 -10.54463 -10.54431 -10.54427
 Alpha  occ. eigenvalues --  -10.54389 -10.54333 -10.53044  -7.08300  -1.16690
 Alpha  occ. eigenvalues --   -1.13009  -0.99305  -0.96648  -0.92987  -0.89100
 Alpha  occ. eigenvalues --   -0.84880  -0.84523  -0.84021  -0.80907  -0.72053
 Alpha  occ. eigenvalues --   -0.70570  -0.70026  -0.68895  -0.66166  -0.64841
 Alpha  occ. eigenvalues --   -0.62780  -0.60010  -0.58772  -0.57181  -0.56455
 Alpha  occ. eigenvalues --   -0.53141  -0.52385  -0.51390  -0.50756  -0.49353
 Alpha  occ. eigenvalues --   -0.48952  -0.48436  -0.47942  -0.47025  -0.46588
 Alpha  occ. eigenvalues --   -0.45985  -0.45532  -0.43849  -0.43132  -0.40542
 Alpha  occ. eigenvalues --   -0.40441  -0.39912  -0.39705  -0.39342  -0.37629
 Alpha  occ. eigenvalues --   -0.35177  -0.31421  -0.31090  -0.30180  -0.26637
 Alpha virt. eigenvalues --   -0.02610  -0.00326   0.00050   0.00463   0.01513
 Alpha virt. eigenvalues --    0.01828   0.02046   0.02554   0.02809   0.03309
 Alpha virt. eigenvalues --    0.04057   0.04352   0.04509   0.04821   0.05236
 Alpha virt. eigenvalues --    0.05544   0.06844   0.06969   0.07648   0.07807
 Alpha virt. eigenvalues --    0.08539   0.09353   0.09856   0.10002   0.10189
 Alpha virt. eigenvalues --    0.10377   0.11301   0.11696   0.12489   0.12908
 Alpha virt. eigenvalues --    0.13044   0.13312   0.13609   0.13778   0.14539
 Alpha virt. eigenvalues --    0.14696   0.15343   0.15839   0.16462   0.16841
 Alpha virt. eigenvalues --    0.17062   0.17237   0.17380   0.17649   0.17993
 Alpha virt. eigenvalues --    0.18626   0.18981   0.19580   0.20090   0.20305
 Alpha virt. eigenvalues --    0.20635   0.21009   0.21262   0.21417   0.21891
 Alpha virt. eigenvalues --    0.22016   0.22276   0.22810   0.23047   0.23440
 Alpha virt. eigenvalues --    0.23923   0.24178   0.24246   0.24521   0.24707
 Alpha virt. eigenvalues --    0.24970   0.25429   0.25478   0.25856   0.26537
 Alpha virt. eigenvalues --    0.26716   0.26931   0.27141   0.27382   0.27683
 Alpha virt. eigenvalues --    0.28091   0.28403   0.28974   0.29178   0.29822
 Alpha virt. eigenvalues --    0.30094   0.30452   0.30679   0.31239   0.31535
 Alpha virt. eigenvalues --    0.31930   0.32431   0.32554   0.33325   0.33365
 Alpha virt. eigenvalues --    0.34249   0.34883   0.35586   0.36509   0.36747
 Alpha virt. eigenvalues --    0.37084   0.37939   0.38549   0.38885   0.39075
 Alpha virt. eigenvalues --    0.40875   0.41835   0.43514   0.45085   0.46043
 Alpha virt. eigenvalues --    0.47192   0.49906   0.50024   0.50780   0.52023
 Alpha virt. eigenvalues --    0.52251   0.52830   0.53432   0.54532   0.55649
 Alpha virt. eigenvalues --    0.56143   0.57143   0.57670   0.58427   0.59459
 Alpha virt. eigenvalues --    0.59622   0.60064   0.60307   0.61067   0.61934
 Alpha virt. eigenvalues --    0.62463   0.62801   0.63150   0.63665   0.64148
 Alpha virt. eigenvalues --    0.64856   0.65090   0.65538   0.66274   0.66646
 Alpha virt. eigenvalues --    0.66977   0.68149   0.69156   0.69563   0.70466
 Alpha virt. eigenvalues --    0.71332   0.71428   0.71674   0.72664   0.73320
 Alpha virt. eigenvalues --    0.73961   0.75613   0.75923   0.76157   0.76448
 Alpha virt. eigenvalues --    0.77054   0.77270   0.77902   0.77981   0.78771
 Alpha virt. eigenvalues --    0.79314   0.79693   0.80579   0.81118   0.81544
 Alpha virt. eigenvalues --    0.82758   0.83610   0.85118   0.85988   0.86160
 Alpha virt. eigenvalues --    0.86779   0.87615   0.88761   0.89550   0.90842
 Alpha virt. eigenvalues --    0.91638   0.92332   0.93216   0.94360   0.95272
 Alpha virt. eigenvalues --    0.95787   0.96401   0.96439   0.97588   0.97912
 Alpha virt. eigenvalues --    0.99363   1.00006   1.00455   1.01590   1.02630
 Alpha virt. eigenvalues --    1.03716   1.04861   1.06462   1.07045   1.07812
 Alpha virt. eigenvalues --    1.08369   1.09137   1.09509   1.10886   1.10914
 Alpha virt. eigenvalues --    1.12190   1.12336   1.12995   1.13610   1.14321
 Alpha virt. eigenvalues --    1.14669   1.15856   1.17203   1.18234   1.18684
 Alpha virt. eigenvalues --    1.20519   1.21494   1.21808   1.22322   1.23592
 Alpha virt. eigenvalues --    1.28350   1.29582   1.34423   1.34803   1.36163
 Alpha virt. eigenvalues --    1.37173   1.40153   1.40433   1.41088   1.44377
 Alpha virt. eigenvalues --    1.46215   1.47958   1.51242   1.51449   1.52140
 Alpha virt. eigenvalues --    1.52686   1.54114   1.54853   1.55893   1.56369
 Alpha virt. eigenvalues --    1.57046   1.57750   1.58245   1.60693   1.61303
 Alpha virt. eigenvalues --    1.62149   1.62304   1.62868   1.63580   1.65930
 Alpha virt. eigenvalues --    1.66481   1.67034   1.68904   1.70421   1.70446
 Alpha virt. eigenvalues --    1.71330   1.72185   1.72844   1.74320   1.76080
 Alpha virt. eigenvalues --    1.77543   1.78648   1.79283   1.79972   1.80550
 Alpha virt. eigenvalues --    1.81617   1.82397   1.82814   1.83622   1.85652
 Alpha virt. eigenvalues --    1.86432   1.87842   1.90192   1.90754   1.92575
 Alpha virt. eigenvalues --    1.93505   1.94796   1.95260   1.95369   1.95931
 Alpha virt. eigenvalues --    1.97318   1.98249   1.99238   1.99422   2.00308
 Alpha virt. eigenvalues --    2.01083   2.01355   2.02516   2.03047   2.03647
 Alpha virt. eigenvalues --    2.05770   2.06140   2.06479   2.07313   2.10786
 Alpha virt. eigenvalues --    2.12315   2.12934   2.15287   2.16027   2.17358
 Alpha virt. eigenvalues --    2.18367   2.20366   2.22215   2.22775   2.24040
 Alpha virt. eigenvalues --    2.24376   2.26813   2.31169   2.33012   2.37480
 Alpha virt. eigenvalues --    2.38709   2.42994   2.44753   2.45638   2.45973
 Alpha virt. eigenvalues --    2.47313   2.48326   2.49214   2.50810   2.53119
 Alpha virt. eigenvalues --    2.56932   2.58150   2.58898   2.59618   2.63097
 Alpha virt. eigenvalues --    2.65129   2.67214   2.68795   2.70118   2.70778
 Alpha virt. eigenvalues --    2.72603   2.72730   2.73361   2.74517   2.74674
 Alpha virt. eigenvalues --    2.75949   2.77073   2.77903   2.78151   2.78584
 Alpha virt. eigenvalues --    2.79073   2.79456   2.80099   2.81603   2.83036
 Alpha virt. eigenvalues --    2.83854   2.85178   2.86923   2.87490   2.88110
 Alpha virt. eigenvalues --    2.88662   2.90029   2.90657   2.92016   2.94396
 Alpha virt. eigenvalues --    2.96411   2.98476   2.99016   2.99554   3.00097
 Alpha virt. eigenvalues --    3.02662   3.07610   3.08120   3.09972   3.11633
 Alpha virt. eigenvalues --    3.14059   3.17312   3.18265   3.24595   3.25856
 Alpha virt. eigenvalues --    3.26874   3.28702   3.30745   3.31986   3.33081
 Alpha virt. eigenvalues --    3.40210   3.42061   3.43771   3.45334   3.46358
 Alpha virt. eigenvalues --    3.46635   3.50637   3.53047   3.56197   3.57306
 Alpha virt. eigenvalues --    3.58254   3.60493   3.61723   3.64004   3.64770
 Alpha virt. eigenvalues --    3.67167   3.67712   3.72210   3.78778   3.90534
 Alpha virt. eigenvalues --    3.93971   3.96472   4.05354   4.08489   4.08997
 Alpha virt. eigenvalues --    4.10215   4.11560   4.17841   4.19919   4.22195
 Alpha virt. eigenvalues --    4.26570   4.38841   4.52757   4.85449   4.86219
 Alpha virt. eigenvalues --    4.88577   5.09028   5.09836   5.40579   5.50701
 Alpha virt. eigenvalues --    5.69505   5.77352  14.80021  23.63263  23.78721
 Alpha virt. eigenvalues --   23.90236  24.00615  24.02133  24.03656  24.04786
 Alpha virt. eigenvalues --   24.06558  24.09598  24.13437  24.18915  24.20795
 Alpha virt. eigenvalues --   24.22124  24.26324  24.28026  24.28474  50.01565
 Alpha virt. eigenvalues --   50.05964
          Condensed to atoms (all electrons):
               1          2          3          4          5          6
     1  O    7.755236   0.287069   0.068690   0.434559  -0.132324   0.018271
     2  H    0.287069   0.420153   0.049015  -0.004354  -0.031338   0.002812
     3  C    0.068690   0.049015  11.869530   0.300548  -0.198431   0.014537
     4  B    0.434559  -0.004354   0.300548   3.341781   0.362161   0.013774
     5  O   -0.132324  -0.031338  -0.198431   0.362161   7.968544   0.271776
     6  H    0.018271   0.002812   0.014537   0.013774   0.271776   0.390679
     7  C   -0.012753   0.004651  -1.488898   0.097245   0.082255  -0.069066
     8  H    0.002219  -0.000001  -0.010839   0.012705  -0.006737   0.009691
     9  C    0.086867   0.007791   0.714448   0.042042  -0.037037   0.077827
    10  H   -0.000059  -0.000001  -0.039299  -0.000308   0.000274  -0.000059
    11  C   -0.012748  -0.002466  -4.085328  -0.005001   0.024373  -0.006198
    12  C   -0.013462  -0.027782  -1.279199  -0.030059   0.100443  -0.021786
    13  H    0.000434   0.000004  -0.015277   0.000294  -0.000033   0.000002
    14  C   -0.106901  -0.029691   1.232834  -0.080198  -0.034210   0.018270
    15  H    0.002689  -0.000307   0.019059  -0.008151   0.002150  -0.000070
    16  C   -0.007212  -0.000101  -0.457681  -0.001628   0.005576  -0.002071
    17  C   -0.001930   0.000008  -0.314042  -0.006193   0.000598  -0.000318
    18  C    0.000003  -0.000007   0.038700  -0.009112  -0.000880  -0.000109
    19  C    0.000074  -0.000054   0.122035   0.004782   0.000877   0.000070
    20  C   -0.000004   0.000002  -0.003902   0.001328  -0.000067   0.000002
    21  C   -0.000095  -0.000001  -0.014266  -0.001324   0.000082  -0.000038
    22  H   -0.000001   0.000000   0.006407  -0.000114  -0.000002   0.000000
    23  C    0.000138  -0.000007  -0.022560   0.002076   0.000064   0.000028
    24  H    0.000028   0.000000  -0.000092   0.000320  -0.000003   0.000000
    25  C    0.000020   0.000000  -0.002130   0.000545  -0.000012   0.000000
    26  C   -0.000032  -0.000001  -0.042296  -0.001432  -0.000002   0.000001
    27  H    0.000000   0.000000   0.000021  -0.000002   0.000000   0.000000
    28  C    0.000010   0.000000   0.009816   0.000218   0.000008   0.000000
    29  H    0.000000   0.000000   0.000402  -0.000008   0.000000   0.000000
    30  H    0.000000   0.000000   0.000006   0.000000   0.000000   0.000000
    31  H    0.000000   0.000000   0.000004   0.000000   0.000000   0.000000
    32  H    0.000000   0.000000  -0.000010   0.000000   0.000000   0.000000
               7          8          9         10         11         12
     1  O   -0.012753   0.002219   0.086867  -0.000059  -0.012748  -0.013462
     2  H    0.004651  -0.000001   0.007791  -0.000001  -0.002466  -0.027782
     3  C   -1.488898  -0.010839   0.714448  -0.039299  -4.085328  -1.279199
     4  B    0.097245   0.012705   0.042042  -0.000308  -0.005001  -0.030059
     5  O    0.082255  -0.006737  -0.037037   0.000274   0.024373   0.100443
     6  H   -0.069066   0.009691   0.077827  -0.000059  -0.006198  -0.021786
     7  C   16.893939   0.326273  -4.497732   0.047702  -2.378210  -0.221048
     8  H    0.326273   0.488561   0.004464  -0.005462   0.029424  -0.007856
     9  C   -4.497732   0.004464  27.531251   0.145911   0.988676 -13.111687
    10  H    0.047702  -0.005462   0.145911   0.459882   0.074821   0.077775
    11  C   -2.378210   0.029424   0.988676   0.074821  20.418850  -4.110254
    12  C   -0.221048  -0.007856 -13.111687   0.077775  -4.110254  26.887362
    13  H   -0.020467   0.000073   0.043513  -0.000109   0.096612   0.204725
    14  C   -3.936870  -0.007647  -0.803905  -0.035687  -2.234801  -6.100967
    15  H    0.010104  -0.000101  -0.020156   0.000057   0.006923   0.042055
    16  C    0.964749  -0.004912  -2.714170   0.050069  -0.456798   1.978559
    17  C    0.427916   0.000031  -3.963334   0.041738  -2.385687   3.289554
    18  C    0.039335   0.002019   2.154285   0.003257  -1.282069  -1.298945
    19  C   -0.069074  -0.002083  -0.548316  -0.003516   0.055253   1.258091
    20  C    0.072591  -0.000243  -0.342678  -0.006987  -0.195814  -0.053223
    21  C    0.010529   0.000036  -0.285903   0.001382  -0.377779   0.350446
    22  H   -0.006244   0.000014   0.132591  -0.001130  -0.004135  -0.055901
    23  C   -0.007097  -0.000294   0.653465  -0.000342   0.459777  -0.836769
    24  H   -0.003498   0.000005  -0.006288  -0.000026  -0.019459   0.033061
    25  C    0.013958   0.000002  -0.064022  -0.001217   0.110303  -0.113875
    26  C    0.078023   0.000019   0.419512   0.003574   0.245016  -0.568763
    27  H   -0.000300   0.000000   0.002960   0.000012   0.001250  -0.002661
    28  C   -0.016027   0.000002  -0.115733  -0.000031  -0.184311   0.209513
    29  H   -0.000604   0.000000   0.000529   0.000000   0.002358   0.003648
    30  H    0.000028   0.000000   0.000319   0.000000   0.002420  -0.000364
    31  H   -0.000008   0.000000  -0.000713  -0.000001   0.001420  -0.000009
    32  H   -0.000003   0.000000   0.000218   0.000000   0.001321  -0.000867
              13         14         15         16         17         18
     1  O    0.000434  -0.106901   0.002689  -0.007212  -0.001930   0.000003
     2  H    0.000004  -0.029691  -0.000307  -0.000101   0.000008  -0.000007
     3  C   -0.015277   1.232834   0.019059  -0.457681  -0.314042   0.038700
     4  B    0.000294  -0.080198  -0.008151  -0.001628  -0.006193  -0.009112
     5  O   -0.000033  -0.034210   0.002150   0.005576   0.000598  -0.000880
     6  H    0.000002   0.018270  -0.000070  -0.002071  -0.000318  -0.000109
     7  C   -0.020467  -3.936870   0.010104   0.964749   0.427916   0.039335
     8  H    0.000073  -0.007647  -0.000101  -0.004912   0.000031   0.002019
     9  C    0.043513  -0.803905  -0.020156  -2.714170  -3.963334   2.154285
    10  H   -0.000109  -0.035687   0.000057   0.050069   0.041738   0.003257
    11  C    0.096612  -2.234801   0.006923  -0.456798  -2.385687  -1.282069
    12  C    0.204725  -6.100967   0.042055   1.978559   3.289554  -1.298945
    13  H    0.448372   0.037394  -0.005079   0.012845   0.040796   0.013397
    14  C    0.037394  18.534784   0.293397  -0.517436   0.084543  -0.218256
    15  H   -0.005079   0.293397   0.460450   0.001429   0.001615  -0.000430
    16  C    0.012845  -0.517436   0.001429   9.433478   1.206699  -1.091327
    17  C    0.040796   0.084543   0.001615   1.206699  11.462067   0.423704
    18  C    0.013397  -0.218256  -0.000430  -1.091327   0.423704   8.995083
    19  C   -0.033298   0.153517  -0.000596  -0.816915  -0.469034  -1.153002
    20  C   -0.004097   0.248643  -0.000746  -1.512889   0.434082   0.661354
    21  C   -0.005356  -0.097158  -0.000095  -1.575943  -0.015945   0.715788
    22  H    0.000022  -0.010642   0.000005  -0.042132  -0.026625   0.402015
    23  C   -0.009145   0.041510  -0.000109  -0.153165  -3.477432  -0.104993
    24  H   -0.002390  -0.001180  -0.000033   0.022013   0.042924   0.008577
    25  C    0.001582   0.138069  -0.000182  -0.776605  -0.548484  -0.252245
    26  C    0.004182  -0.046270   0.000022   1.911344  -1.545672  -1.598203
    27  H    0.000004  -0.000292   0.000000   0.049729  -0.005105  -0.033462
    28  C   -0.000549  -0.011865   0.000056  -0.069329   0.901235  -0.076470
    29  H    0.000028  -0.002652   0.000000  -0.000146   0.026472  -0.001937
    30  H    0.000000  -0.000010   0.000000  -0.002773   0.002243   0.004957
    31  H    0.000000   0.000025   0.000000  -0.024866  -0.000656  -0.011049
    32  H    0.000001  -0.000108   0.000000   0.002601  -0.020724  -0.000964
              19         20         21         22         23         24
     1  O    0.000074  -0.000004  -0.000095  -0.000001   0.000138   0.000028
     2  H   -0.000054   0.000002  -0.000001   0.000000  -0.000007   0.000000
     3  C    0.122035  -0.003902  -0.014266   0.006407  -0.022560  -0.000092
     4  B    0.004782   0.001328  -0.001324  -0.000114   0.002076   0.000320
     5  O    0.000877  -0.000067   0.000082  -0.000002   0.000064  -0.000003
     6  H    0.000070   0.000002  -0.000038   0.000000   0.000028   0.000000
     7  C   -0.069074   0.072591   0.010529  -0.006244  -0.007097  -0.003498
     8  H   -0.002083  -0.000243   0.000036   0.000014  -0.000294   0.000005
     9  C   -0.548316  -0.342678  -0.285903   0.132591   0.653465  -0.006288
    10  H   -0.003516  -0.006987   0.001382  -0.001130  -0.000342  -0.000026
    11  C    0.055253  -0.195814  -0.377779  -0.004135   0.459777  -0.019459
    12  C    1.258091  -0.053223   0.350446  -0.055901  -0.836769   0.033061
    13  H   -0.033298  -0.004097  -0.005356   0.000022  -0.009145  -0.002390
    14  C    0.153517   0.248643  -0.097158  -0.010642   0.041510  -0.001180
    15  H   -0.000596  -0.000746  -0.000095   0.000005  -0.000109  -0.000033
    16  C   -0.816915  -1.512889  -1.575943  -0.042132  -0.153165   0.022013
    17  C   -0.469034   0.434082  -0.015945  -0.026625  -3.477432   0.042924
    18  C   -1.153002   0.661354   0.715788   0.402015  -0.104993   0.008577
    19  C    9.657046  -1.064506   0.114789   0.004506  -1.696475   0.389197
    20  C   -1.064506   9.595680   0.199174  -0.006332   0.965468   0.003049
    21  C    0.114789   0.199174   7.650621  -0.040839  -0.071635   0.004205
    22  H    0.004506  -0.006332  -0.040839   0.461190   0.000766  -0.000041
    23  C   -1.696475   0.965468  -0.071635   0.000766  10.486710  -0.124064
    24  H    0.389197   0.003049   0.004205  -0.000041  -0.124064   0.457507
    25  C    1.100092  -0.710464   0.076209   0.001470  -1.322935  -0.006972
    26  C   -0.224021  -1.884887  -0.307166   0.001079   0.867709  -0.001605
    27  H    0.001810  -0.008609   0.375040  -0.004474  -0.000146   0.000000
    28  C   -0.364296  -0.636355  -0.315540  -0.000533   0.486902  -0.006825
    29  H   -0.076460   0.001174  -0.001057   0.000000   0.423196  -0.005325
    30  H    0.000828  -0.099239   0.025604  -0.000001  -0.013502   0.000052
    31  H    0.007998  -0.078161  -0.003543  -0.000215   0.002084   0.000004
    32  H   -0.015094   0.044128   0.000809   0.000000  -0.002252  -0.000222
              25         26         27         28         29         30
     1  O    0.000020  -0.000032   0.000000   0.000010   0.000000   0.000000
     2  H    0.000000  -0.000001   0.000000   0.000000   0.000000   0.000000
     3  C   -0.002130  -0.042296   0.000021   0.009816   0.000402   0.000006
     4  B    0.000545  -0.001432  -0.000002   0.000218  -0.000008   0.000000
     5  O   -0.000012  -0.000002   0.000000   0.000008   0.000000   0.000000
     6  H    0.000000   0.000001   0.000000   0.000000   0.000000   0.000000
     7  C    0.013958   0.078023  -0.000300  -0.016027  -0.000604   0.000028
     8  H    0.000002   0.000019   0.000000   0.000002   0.000000   0.000000
     9  C   -0.064022   0.419512   0.002960  -0.115733   0.000529   0.000319
    10  H   -0.001217   0.003574   0.000012  -0.000031   0.000000   0.000000
    11  C    0.110303   0.245016   0.001250  -0.184311   0.002358   0.002420
    12  C   -0.113875  -0.568763  -0.002661   0.209513   0.003648  -0.000364
    13  H    0.001582   0.004182   0.000004  -0.000549   0.000028   0.000000
    14  C    0.138069  -0.046270  -0.000292  -0.011865  -0.002652  -0.000010
    15  H   -0.000182   0.000022   0.000000   0.000056   0.000000   0.000000
    16  C   -0.776605   1.911344   0.049729  -0.069329  -0.000146  -0.002773
    17  C   -0.548484  -1.545672  -0.005105   0.901235   0.026472   0.002243
    18  C   -0.252245  -1.598203  -0.033462  -0.076470  -0.001937   0.004957
    19  C    1.100092  -0.224021   0.001810  -0.364296  -0.076460   0.000828
    20  C   -0.710464  -1.884887  -0.008609  -0.636355   0.001174  -0.099239
    21  C    0.076209  -0.307166   0.375040  -0.315540  -0.001057   0.025604
    22  H    0.001470   0.001079  -0.004474  -0.000533   0.000000  -0.000001
    23  C   -1.322935   0.867709  -0.000146   0.486902   0.423196  -0.013502
    24  H   -0.006972  -0.001605   0.000000  -0.006825  -0.005325   0.000052
    25  C    8.996484  -1.172353  -0.001998   0.309287  -0.023621   0.425865
    26  C   -1.172353  10.576868  -0.022226  -0.678326   0.002969   0.041397
    27  H   -0.001998  -0.022226   0.463587   0.000189   0.000000  -0.000008
    28  C    0.309287  -0.678326   0.000189   6.633788   0.002924  -0.041345
    29  H   -0.023621   0.002969   0.000000   0.002924   0.464672  -0.000175
    30  H    0.425865   0.041397  -0.000008  -0.041345  -0.000175   0.466179
    31  H    0.075774   0.361789  -0.005603   0.015565  -0.000002   0.001599
    32  H   -0.060323   0.015657   0.000000   0.391039  -0.005287  -0.005302
              31         32
     1  O    0.000000   0.000000
     2  H    0.000000   0.000000
     3  C    0.000004  -0.000010
     4  B    0.000000   0.000000
     5  O    0.000000   0.000000
     6  H    0.000000   0.000000
     7  C   -0.000008  -0.000003
     8  H    0.000000   0.000000
     9  C   -0.000713   0.000218
    10  H   -0.000001   0.000000
    11  C    0.001420   0.001321
    12  C   -0.000009  -0.000867
    13  H    0.000000   0.000001
    14  C    0.000025  -0.000108
    15  H    0.000000   0.000000
    16  C   -0.024866   0.002601
    17  C   -0.000656  -0.020724
    18  C   -0.011049  -0.000964
    19  C    0.007998  -0.015094
    20  C   -0.078161   0.044128
    21  C   -0.003543   0.000809
    22  H   -0.000215   0.000000
    23  C    0.002084  -0.002252
    24  H    0.000004  -0.000222
    25  C    0.075774  -0.060323
    26  C    0.361789   0.015657
    27  H   -0.005603   0.000000
    28  C    0.015565   0.391039
    29  H   -0.000002  -0.005287
    30  H    0.001599  -0.005302
    31  H    0.467344  -0.000014
    32  H   -0.000014   0.464794
 Mulliken charges:
               1
     1  O   -0.368787
     2  H    0.324603
     3  C   -0.471798
     4  B    0.533505
     5  O   -0.378104
     6  H    0.281974
     7  C   -0.341396
     8  H    0.170637
     9  C   -0.494993
    10  H    0.187784
    11  C    1.222263
    12  C   -0.579752
    13  H    0.191524
    14  C   -0.506241
    15  H    0.196046
    16  C    0.589008
    17  C    0.394954
    18  C   -0.329016
    19  C   -0.334223
    20  C    0.382530
    21  C   -0.411028
    22  H    0.189296
    23  C   -0.546967
    24  H    0.217082
    25  C   -0.192221
    26  C   -0.435906
    27  H    0.190285
    28  C   -0.443017
    29  H    0.188900
    30  H    0.191220
    31  H    0.191235
    32  H    0.190604
 Sum of Mulliken charges =   0.00000
 Mulliken charges with hydrogens summed into heavy atoms:
               1
     1  O   -0.044183
     3  C   -0.471798
     4  B    0.533505
     5  O   -0.096129
     7  C   -0.170760
     9  C   -0.307209
    11  C    1.222263
    12  C   -0.388228
    14  C   -0.310195
    16  C    0.589008
    17  C    0.394954
    18  C   -0.139719
    19  C   -0.117142
    20  C    0.382530
    21  C   -0.220743
    23  C   -0.358067
    25  C   -0.001001
    26  C   -0.244671
    28  C   -0.252413
 APT charges:
               1
     1  O   -0.016390
     2  H    2.020181
     3  C   -0.658737
     4  B   -0.382708
     5  O    1.471323
     6  H   -1.738698
     7  C   -0.498790
     8  H   -0.576509
     9  C    2.515979
    10  H   -1.162443
    11  C   -1.752066
    12  C   -2.065698
    13  H    1.682850
    14  C   -0.049615
    15  H    2.223721
    16  C   -0.036877
    17  C   -2.809685
    18  C    0.438797
    19  C   -0.721404
    20  C    0.139456
    21  C   -0.849118
    22  H   -0.115241
    23  C   -0.282188
    24  H    0.479200
    25  C   -1.065937
    26  C    0.424662
    27  H   -0.105190
    28  C   -0.986767
    29  H    1.522179
    30  H    0.674958
    31  H    0.628092
    32  H    1.652660
 Sum of APT charges =   0.00000
 APT charges with hydrogens summed into heavy atoms:
               1
     1  O    2.003791
     3  C   -0.658737
     4  B   -0.382708
     5  O   -0.267376
     7  C   -1.075299
     9  C    1.353537
    11  C   -1.752066
    12  C   -0.382848
    14  C    2.174106
    16  C   -0.036877
    17  C   -2.809685
    18  C    0.323556
    19  C   -0.242203
    20  C    0.139456
    21  C   -0.954308
    23  C    1.239992
    25  C   -0.390978
    26  C    1.052754
    28  C    0.665893
 Electronic spatial extent (au):  <R**2>=          52655.4349
 Charge=              0.0000 electrons
 Dipole moment (field-independent basis, Debye):
    X=             -0.9025    Y=             -1.2265    Z=             -0.9874  Tot=              1.8148
 Quadrupole moment (field-independent basis, Debye-Ang):
   XX=           -105.7878   YY=           -117.3112   ZZ=           -119.6926
   XY=            -14.8139   XZ=             -5.9281   YZ=            -19.5841
 Traceless Quadrupole moment (field-independent basis, Debye-Ang):
   XX=              8.4761   YY=             -3.0473   ZZ=             -5.4288
   XY=            -14.8139   XZ=             -5.9281   YZ=            -19.5841
 Octapole moment (field-independent basis, Debye-Ang**2):
  XXX=          -1187.9266  YYY=          -2735.1638  ZZZ=          -1311.2437  XYY=           -539.3995
  XXY=           -926.0019  XXZ=           -400.1288  XZZ=           -449.3987  YZZ=          -1049.5861
  YYZ=           -645.3142  XYZ=            -86.8909
 Hexadecapole moment (field-independent basis, Debye-Ang**3):
 XXXX=         -13108.3613 YYYY=         -47116.2921 ZZZZ=         -11765.5959 XXXY=          -9307.7325
 XXXZ=          -5280.2046 YYYX=         -10306.1972 YYYZ=         -12114.1948 ZZZX=          -5913.6748
 ZZZY=         -10349.0058 XXYY=         -10491.2699 XXZZ=          -4045.1605 YYZZ=         -11331.3962
 XXYZ=          -3293.0780 YYXZ=          -2799.5411 ZZXY=          -3603.7789
 N-N= 1.239531835953D+03 E-N=-4.325342596375D+03  KE= 7.897926553095D+02
  Exact polarizability:       0.000       0.000       0.000       0.000       0.000       0.000
 Approx polarizability:     300.362       2.573     271.598      22.436     -50.482     215.823
 D2PCM: PCM CHGder 2nd derivatives, FixD1E=F FixD2E=F DoIter=F DoCFld=F I1PDM=0
 Calling FoFJK, ICntrl=    100127 FMM=F ISym2X=0 I1Cent= 0 IOpClX= 0 NMat=1 NMatS=1 NMatT=0.
 -------------------------------------------------------------------
 Center     Atomic                   Forces (Hartrees/Bohr)
 Number     Number              X              Y              Z
 -------------------------------------------------------------------
      1        8          -0.001443516    0.001953775   -0.000081317
      2        1           0.002495248   -0.000809550    0.001098054
      3        6          -0.000357209    0.000575947    0.000043860
      4        5           0.000136877   -0.002142494   -0.000656880
      5        8           0.001808075    0.002629727    0.001675131
      6        1          -0.001992850   -0.002323637   -0.001808700
      7        6           0.000436825   -0.001951635   -0.000327431
      8        1          -0.000211265    0.000079341   -0.000016532
      9        6          -0.000521467    0.000170327   -0.000291253
     10        1           0.000111879   -0.000560258    0.000140353
     11        6           0.000363204   -0.000107787    0.000207382
     12        6          -0.000509535    0.001098146    0.000128256
     13        1           0.000362068    0.000345795    0.000158408
     14        6           0.000371666   -0.000239708    0.000237619
     15        1          -0.000447082    0.000840800   -0.000099984
     16        6           0.000298018    0.000163751    0.000111216
     17        6           0.000206006   -0.000010304   -0.000048898
     18        6           0.000192941   -0.000433082    0.000526037
     19        6           0.000320041   -0.000489674    0.000355529
     20        6           0.000183690   -0.000210246    0.000139715
     21        6          -0.000143028   -0.000323986    0.000331073
     22        1          -0.000319433   -0.000387187    0.000026667
     23        6           0.000619383    0.000269968   -0.000295512
     24        1           0.000364281    0.000360505   -0.000165567
     25        6          -0.001006626    0.000389533   -0.000277762
     26        6          -0.000997383    0.000363990   -0.000364398
     27        1          -0.000211261   -0.000199311    0.000132303
     28        6           0.000166235    0.000337663   -0.000310855
     29        1           0.000268984    0.000172498   -0.000149480
     30        1          -0.000340968   -0.000019278   -0.000006993
     31        1          -0.000218795    0.000194761   -0.000182347
     32        1           0.000014997    0.000261611   -0.000227692
 -------------------------------------------------------------------
 Cartesian Forces:  Max     0.002629727 RMS     0.000784072
 FormGI is forming the generalized inverse of G from B-inverse, IUseBI=4.

 GradGradGradGradGradGradGradGradGradGradGradGradGradGradGradGradGradGrad
 Berny optimization.
 Internal  Forces:  Max     0.003552017 RMS     0.000550917
 Search for a local minimum.
 Step number   1 out of a maximum of  177
 All quantities printed in internal units (Hartrees-Bohrs-Radians)
 Mixed Optimization -- En-DIIS/RFO-DIIS
 Second derivative matrix not updated -- analytic derivatives used.
 ITU=  0
     Eigenvalues ---    0.00115   0.00562   0.01002   0.01301   0.01428
     Eigenvalues ---    0.01464   0.01536   0.01702   0.01731   0.01811
     Eigenvalues ---    0.01841   0.01967   0.02017   0.02176   0.02230
     Eigenvalues ---    0.02280   0.02384   0.02434   0.02442   0.02516
     Eigenvalues ---    0.02603   0.02665   0.02693   0.02765   0.02818
     Eigenvalues ---    0.02825   0.02847   0.02889   0.03906   0.10547
     Eigenvalues ---    0.10704   0.10907   0.11286   0.11349   0.11499
     Eigenvalues ---    0.11617   0.11900   0.12068   0.12149   0.12230
     Eigenvalues ---    0.12331   0.12753   0.15715   0.17074   0.17743
     Eigenvalues ---    0.18258   0.18358   0.18579   0.18852   0.19189
     Eigenvalues ---    0.19299   0.19340   0.19703   0.19983   0.20198
     Eigenvalues ---    0.22709   0.26615   0.27818   0.28665   0.29500
     Eigenvalues ---    0.32420   0.35743   0.35925   0.36195   0.36278
     Eigenvalues ---    0.36326   0.36421   0.36426   0.36473   0.36539
     Eigenvalues ---    0.36598   0.36670   0.37736   0.38642   0.40500
     Eigenvalues ---    0.40741   0.41971   0.42839   0.44421   0.46560
     Eigenvalues ---    0.47214   0.47598   0.49012   0.50583   0.50876
     Eigenvalues ---    0.51693   0.52104   0.52939   0.54626   0.55683
 RFO step:  Lambda=-1.70723379D-04 EMin= 1.15431735D-03
 Linear search not attempted -- first point.
 Iteration  1 RMS(Cart)=  0.01995642 RMS(Int)=  0.00012772
 Iteration  2 RMS(Cart)=  0.00023768 RMS(Int)=  0.00000227
 Iteration  3 RMS(Cart)=  0.00000003 RMS(Int)=  0.00000227
 Variable       Old X    -DE/DX   Delta X   Delta X   Delta X     New X
                                 (Linear)    (Quad)   (Total)
    R1        1.81685   0.00283   0.00000   0.00508   0.00508   1.82193
    R2        2.57537   0.00185   0.00000   0.00406   0.00406   2.57943
    R3        2.95946   0.00116   0.00000   0.00410   0.00410   2.96356
    R4        2.64141   0.00109   0.00000   0.00266   0.00266   2.64407
    R5        2.64750   0.00131   0.00000   0.00125   0.00125   2.64875
    R6        2.58707  -0.00034   0.00000  -0.00203  -0.00203   2.58504
    R7        1.81112   0.00355   0.00000   0.00650   0.00650   1.81762
    R8        2.05435  -0.00013   0.00000  -0.00048  -0.00048   2.05386
    R9        2.62660   0.00070   0.00000   0.00149   0.00149   2.62809
   R10        2.04918   0.00022   0.00000   0.00063   0.00063   2.04981
   R11        2.63846   0.00111   0.00000   0.00223   0.00223   2.64070
   R12        2.64350   0.00072   0.00000   0.00136   0.00136   2.64486
   R13        2.80953   0.00081   0.00000   0.00189   0.00189   2.81142
   R14        2.04988   0.00025   0.00000   0.00040   0.00040   2.05028
   R15        2.62201   0.00045   0.00000   0.00149   0.00149   2.62350
   R16        2.04905   0.00022   0.00000   0.00068   0.00068   2.04973
   R17        2.70648   0.00129   0.00000   0.00299   0.00299   2.70947
   R18        2.59957   0.00109   0.00000   0.00222   0.00222   2.60179
   R19        2.68668   0.00110   0.00000   0.00200   0.00200   2.68868
   R20        2.69029   0.00119   0.00000   0.00248   0.00248   2.69277
   R21        2.66940   0.00074   0.00000   0.00132   0.00132   2.67072
   R22        2.04929   0.00028   0.00000   0.00068   0.00068   2.04998
   R23        2.58910   0.00095   0.00000   0.00180   0.00180   2.59091
   R24        2.04593   0.00018   0.00000   0.00036   0.00036   2.04629
   R25        2.68219   0.00096   0.00000   0.00237   0.00237   2.68456
   R26        2.68079   0.00081   0.00000   0.00184   0.00184   2.68264
   R27        2.58420   0.00098   0.00000   0.00165   0.00165   2.58586
   R28        2.04736   0.00031   0.00000   0.00086   0.00086   2.04822
   R29        2.67178   0.00084   0.00000   0.00166   0.00166   2.67344
   R30        2.04758   0.00035   0.00000   0.00091   0.00091   2.04850
   R31        2.58581   0.00105   0.00000   0.00168   0.00168   2.58749
   R32        2.04992   0.00031   0.00000   0.00073   0.00073   2.05065
   R33        2.04962   0.00031   0.00000   0.00073   0.00073   2.05035
   R34        2.04742   0.00035   0.00000   0.00093   0.00093   2.04835
    A1        1.95670   0.00057   0.00000   0.00297   0.00297   1.95967
    A2        2.14353  -0.00060   0.00000  -0.00409  -0.00409   2.13944
    A3        2.08623   0.00052   0.00000   0.00397   0.00397   2.09020
    A4        2.05343   0.00008   0.00000   0.00012   0.00012   2.05355
    A5        2.06441  -0.00011   0.00000  -0.00147  -0.00147   2.06294
    A6        2.05304   0.00015   0.00000   0.00205   0.00205   2.05510
    A7        2.16573  -0.00004   0.00000  -0.00059  -0.00059   2.16514
    A8        1.99818   0.00015   0.00000  -0.00013  -0.00013   1.99805
    A9        2.10601   0.00042   0.00000   0.00198   0.00198   2.10799
   A10        2.12004  -0.00049   0.00000  -0.00205  -0.00205   2.11798
   A11        2.05714   0.00006   0.00000   0.00007   0.00007   2.05720
   A12        2.10126  -0.00066   0.00000  -0.00509  -0.00509   2.09617
   A13        2.10110   0.00027   0.00000   0.00187   0.00186   2.10296
   A14        2.08075   0.00039   0.00000   0.00325   0.00325   2.08401
   A15        2.07116   0.00020   0.00000  -0.00031  -0.00031   2.07084
   A16        2.09944  -0.00016   0.00000  -0.00108  -0.00108   2.09836
   A17        2.11195  -0.00003   0.00000   0.00130   0.00130   2.11325
   A18        2.08009   0.00063   0.00000   0.00514   0.00514   2.08522
   A19        2.10401  -0.00034   0.00000  -0.00124  -0.00125   2.10277
   A20        2.09897  -0.00029   0.00000  -0.00388  -0.00388   2.09509
   A21        2.11660   0.00028   0.00000   0.00159   0.00159   2.11819
   A22        2.07401   0.00081   0.00000   0.00665   0.00665   2.08066
   A23        2.09256  -0.00109   0.00000  -0.00823  -0.00823   2.08433
   A24        2.12062   0.00042   0.00000   0.00284   0.00284   2.12346
   A25        2.07739  -0.00028   0.00000  -0.00166  -0.00166   2.07573
   A26        2.08513  -0.00014   0.00000  -0.00116  -0.00117   2.08396
   A27        2.14373   0.00045   0.00000   0.00239   0.00239   2.14612
   A28        2.07387  -0.00019   0.00000  -0.00070  -0.00070   2.07317
   A29        2.06516  -0.00026   0.00000  -0.00172  -0.00172   2.06344
   A30        2.11942   0.00010   0.00000   0.00107   0.00107   2.12049
   A31        2.07675   0.00032   0.00000   0.00277   0.00277   2.07952
   A32        2.08656  -0.00041   0.00000  -0.00376  -0.00376   2.08280
   A33        2.11064   0.00007   0.00000   0.00054   0.00054   2.11118
   A34        2.08117   0.00047   0.00000   0.00418   0.00418   2.08534
   A35        2.09127  -0.00055   0.00000  -0.00471  -0.00471   2.08657
   A36        2.08227   0.00023   0.00000   0.00157   0.00157   2.08384
   A37        2.08810   0.00028   0.00000   0.00167   0.00167   2.08977
   A38        2.11273  -0.00051   0.00000  -0.00325  -0.00325   2.10949
   A39        2.09618   0.00018   0.00000   0.00064   0.00064   2.09682
   A40        2.08535  -0.00016   0.00000  -0.00122  -0.00122   2.08413
   A41        2.10156  -0.00002   0.00000   0.00060   0.00060   2.10216
   A42        2.10446   0.00006   0.00000   0.00062   0.00062   2.10508
   A43        2.09115   0.00000   0.00000  -0.00030  -0.00030   2.09085
   A44        2.08755  -0.00006   0.00000  -0.00032  -0.00032   2.08723
   A45        2.11038  -0.00017   0.00000  -0.00078  -0.00078   2.10959
   A46        2.06801  -0.00007   0.00000  -0.00118  -0.00118   2.06683
   A47        2.10478   0.00023   0.00000   0.00196   0.00196   2.10673
   A48        2.10313  -0.00023   0.00000  -0.00159  -0.00159   2.10154
   A49        2.07219  -0.00004   0.00000  -0.00069  -0.00069   2.07150
   A50        2.10784   0.00026   0.00000   0.00228   0.00228   2.11012
   A51        2.09291   0.00006   0.00000  -0.00025  -0.00025   2.09266
   A52        2.09078  -0.00008   0.00000  -0.00039  -0.00039   2.09038
   A53        2.09943   0.00002   0.00000   0.00065   0.00065   2.10008
    D1       -3.13506   0.00000   0.00000   0.00514   0.00514  -3.12992
    D2        0.00476  -0.00001   0.00000   0.00314   0.00314   0.00790
    D3       -3.08938   0.00004   0.00000   0.03697   0.03697  -3.05241
    D4        0.05411   0.00005   0.00000   0.03911   0.03910   0.09321
    D5        0.04961   0.00009   0.00000   0.04006   0.04006   0.08968
    D6       -3.09008   0.00010   0.00000   0.04220   0.04220  -3.04789
    D7        0.00104   0.00010   0.00000   0.00789   0.00788   0.00892
    D8       -3.14009   0.00009   0.00000   0.00491   0.00491  -3.13518
    D9       -3.13800   0.00006   0.00000   0.00484   0.00484  -3.13316
   D10        0.00405   0.00004   0.00000   0.00187   0.00187   0.00592
   D11        3.13589  -0.00009   0.00000  -0.00644  -0.00645   3.12944
   D12       -0.01077  -0.00001   0.00000  -0.00380  -0.00380  -0.01457
   D13       -0.00817  -0.00005   0.00000  -0.00351  -0.00351  -0.01168
   D14        3.12836   0.00003   0.00000  -0.00087  -0.00086   3.12750
   D15       -3.11916  -0.00007   0.00000   0.00415   0.00415  -3.11501
   D16        0.02055  -0.00008   0.00000   0.00202   0.00202   0.02257
   D17        3.13161   0.00007   0.00000   0.00402   0.00401   3.13562
   D18        0.00276   0.00001   0.00000   0.00189   0.00189   0.00465
   D19       -0.00954   0.00005   0.00000   0.00112   0.00112  -0.00842
   D20       -3.13838   0.00000   0.00000  -0.00100  -0.00100  -3.13938
   D21       -0.00555  -0.00006   0.00000  -0.00402  -0.00402  -0.00957
   D22       -3.10916  -0.00006   0.00000  -0.00131  -0.00131  -3.11047
   D23       -3.13454  -0.00011   0.00000  -0.00606  -0.00607  -3.14061
   D24        0.04503  -0.00010   0.00000  -0.00335  -0.00336   0.04168
   D25       -3.12394  -0.00003   0.00000   0.00140   0.00140  -3.12254
   D26        0.00148   0.00006   0.00000   0.00241   0.00241   0.00389
   D27       -0.02061  -0.00004   0.00000  -0.00139  -0.00139  -0.02200
   D28        3.10481   0.00005   0.00000  -0.00038  -0.00038   3.10443
   D29       -2.16844  -0.00013   0.00000  -0.02756  -0.02756  -2.19600
   D30        0.98301  -0.00021   0.00000  -0.02998  -0.02998   0.95303
   D31        1.01204  -0.00013   0.00000  -0.02475  -0.02475   0.98729
   D32       -2.11970  -0.00020   0.00000  -0.02717  -0.02717  -2.14687
   D33        0.00550   0.00000   0.00000   0.00140   0.00140   0.00690
   D34       -3.13097  -0.00009   0.00000  -0.00131  -0.00130  -3.13227
   D35        3.13075   0.00010   0.00000   0.00250   0.00249   3.13324
   D36       -0.00572   0.00001   0.00000  -0.00021  -0.00021  -0.00593
   D37        0.07656  -0.00008   0.00000   0.00116   0.00116   0.07772
   D38       -3.09706  -0.00006   0.00000   0.00000  -0.00001  -3.09706
   D39       -3.07493   0.00000   0.00000   0.00359   0.00359  -3.07134
   D40        0.03464   0.00002   0.00000   0.00242   0.00242   0.03706
   D41        3.10604   0.00006   0.00000  -0.00015  -0.00016   3.10588
   D42       -0.00286  -0.00005   0.00000  -0.00289  -0.00290  -0.00576
   D43       -0.02590  -0.00002   0.00000  -0.00255  -0.00255  -0.02845
   D44       -3.13481  -0.00013   0.00000  -0.00528  -0.00529  -3.14009
   D45        3.13808  -0.00001   0.00000  -0.00133  -0.00133   3.13675
   D46        0.01227  -0.00005   0.00000  -0.00225  -0.00226   0.01001
   D47        0.02836  -0.00003   0.00000  -0.00019  -0.00019   0.02817
   D48       -3.09745  -0.00007   0.00000  -0.00111  -0.00112  -3.09856
   D49        3.13745  -0.00002   0.00000  -0.00006  -0.00006   3.13739
   D50       -0.01753  -0.00001   0.00000  -0.00068  -0.00068  -0.01821
   D51       -0.03471   0.00002   0.00000  -0.00110  -0.00110  -0.03581
   D52        3.09349   0.00002   0.00000  -0.00171  -0.00171   3.09177
   D53       -0.00094   0.00000   0.00000   0.00080   0.00080  -0.00014
   D54       -3.12812  -0.00004   0.00000  -0.00007  -0.00007  -3.12819
   D55        3.10779   0.00013   0.00000   0.00367   0.00366   3.11145
   D56       -0.01940   0.00008   0.00000   0.00280   0.00280  -0.01660
   D57       -0.00253   0.00001   0.00000   0.00100   0.00100  -0.00154
   D58       -3.13589  -0.00001   0.00000   0.00021   0.00021  -3.13569
   D59        3.12319   0.00006   0.00000   0.00200   0.00200   3.12519
   D60       -0.01017   0.00004   0.00000   0.00121   0.00121  -0.00896
   D61        0.01593   0.00001   0.00000   0.00161   0.00161   0.01754
   D62       -3.13285   0.00000   0.00000   0.00063   0.00064  -3.13221
   D63       -3.11208   0.00000   0.00000   0.00219   0.00219  -3.10989
   D64        0.02233  -0.00001   0.00000   0.00122   0.00122   0.02355
   D65       -0.00901   0.00000   0.00000  -0.00105  -0.00105  -0.01006
   D66        3.13845   0.00002   0.00000  -0.00001  -0.00001   3.13844
[...]
 27018,0.00099858,-0.00136013,-0.24882651,-0.11162361,0.07796329,0.0011
 0067,0.00025366,0.00014439,-0.00011213,0.00009269,-0.00009242,0.000007
 60,0.00001482,-0.00001906,0.00008782,-0.00005058,0.00003742,0.00662217
 ,0.00323812,-0.00249352,0.25992807,0.00000089,-0.00000315,-0.00000126,
 0.00000005,0.00000065,0.00000048,0.00000749,-0.00001878,-0.00001231,-0
 .00000471,0.00001034,-0.00000587,0.00000234,-0.00000897,-0.00000041,0.
 00000124,0.00000315,0.00000105,0.00001106,-0.00000686,0.00003985,0.000
 00426,-0.00000329,0.00000207,-0.00000521,0.00001405,-0.00004002,0.0000
 2917,-0.00000618,-0.00002070,0.00033870,0.00028860,-0.00014303,0.00011
 453,-0.00004905,0.00008036,0.00001331,0.00000013,-0.00001456,-0.000023
 99,0.00000575,0.00005295,0.00001116,0.00000125,-0.00000104,0.00205145,
 0.00226330,0.00282577,0.00032465,-0.00076329,-0.00008579,0.00907659,0.
 00787556,-0.00328002,0.00001316,-0.00012817,-0.00060384,0.00158620,0.0
 0093241,0.00706859,-0.11112656,-0.11476666,0.05546005,-0.00035474,-0.0
 0091419,-0.00175400,0.00019974,-0.00007996,0.00016686,-0.00003549,0.00
 000660,0.00002968,-0.00109416,0.00006336,-0.00002122,-0.02073627,-0.00
 627388,0.00754027,0.11933427,0.11357891,-0.00001226,-0.00000687,-0.000
 01246,-0.00000014,0.00000012,0.00000209,-0.00004703,-0.00000827,-0.000
 03393,0.00003375,-0.00000516,0.00001659,-0.00000642,0.00000675,-0.0000
 0356,0.00000023,-0.00000106,0.00000152,0.00004908,0.00000339,0.0000382
 0,-0.00000437,0.00000181,0.00000505,0.00001847,0.00005915,-0.00009582,
 0.00002959,0.00000643,0.00000808,-0.00016681,-0.00038249,0.00029621,-0
 .00004570,0.00005414,-0.00003650,0.00000708,-0.00001734,-0.00000087,-0
 .00000737,-0.00003410,-0.00001973,-0.00000956,0.00000494,-0.00000363,-
 0.00256962,0.00312390,0.00279172,-0.00019466,-0.00009468,-0.00080189,-
 0.00922128,-0.00474647,0.00657434,0.00002144,-0.00066243,-0.00031694,-
 0.00153684,0.00700600,0.00345180,0.07774812,0.05556609,-0.07921598,0.0
 0064614,-0.00176150,-0.00142845,-0.00015844,0.00016381,-0.00002940,0.0
 0003560,0.00004785,0.00000712,0.00083890,0.00003302,0.00015503,0.01712
 332,0.00900548,-0.00169328,-0.08279277,-0.06426087,0.07350878,-0.00002
 642,-0.00001060,-0.00002195,0.00000249,0.00000061,-0.00000007,-0.00009
 378,0.00022364,0.00006189,0.00005517,-0.00001371,0.00007233,-0.0000223
 2,0.00003045,-0.00001299,0.00000379,-0.00000920,-0.00000090,-0.0001178
 9,-0.00005558,-0.00021258,-0.00000070,0.00000724,-0.00000064,-0.000007
 50,0.00004837,0.00012304,-0.00002917,-0.00010002,0.00004442,0.00070981
 ,-0.00013608,0.00041430,-0.00038112,-0.00026887,-0.00010303,-0.0001068
 2,0.00012503,0.00001041,0.00029549,-0.00010519,0.00000095,0.00001998,0
 .00000562,-0.00004314,0.00814744,0.01838546,-0.01515756,-0.05325476,-0
 .02273193,0.01866003,-0.02543417,-0.00185992,-0.00034068,0.02296038,0.
 06387918,-0.05536975,0.01426524,-0.05585875,0.04778056,0.01571999,-0.0
 1654199,0.01529618,-0.00035441,-0.00018462,-0.00009573,-0.26915434,0.0
 2130350,-0.02134946,0.00179946,-0.00075690,0.00008540,-0.31210570,-0.0
 7798413,0.05667539,0.01683169,0.02234123,-0.01782850,0.00020026,-0.000
 08296,0.00011666,0.67473292,0.00004792,0.00002295,0.00002477,-0.000004
 74,-0.00000303,-0.00000024,0.00007787,-0.00011163,-0.00000929,-0.00010
 565,0.00000795,-0.00004865,0.00003437,-0.00002524,0.00000579,-0.000009
 07,0.00000901,0.00000395,0.00008638,0.00000400,0.00002851,0.00000754,-
 0.00000925,0.00000848,-0.00001262,0.00007350,0.00003005,0.00000309,0.0
 0001333,0.00001367,-0.00008412,-0.00020662,-0.00010336,0.00010755,-0.0
 0008385,0.00026480,0.00001560,-0.00007435,-0.00000277,-0.00014901,0.00
 007380,-0.00001084,0.00000843,-0.00000151,0.00001453,0.00005253,-0.000
 09259,-0.00104469,-0.00380058,-0.00233623,-0.00282520,-0.00137812,-0.0
 0033655,0.00059175,0.02635229,-0.00506744,0.01040533,-0.02200428,-0.01
 812209,0.01926199,0.00088754,-0.00178014,0.00126231,0.00000754,0.00010
 452,0.00006907,0.07354168,-0.11633380,0.04765845,-0.00009271,0.0009523
 0,0.00700259,-0.12814105,-0.15909183,0.07902565,0.00393847,0.00229719,
 0.00401970,0.00000577,-0.00064406,-0.00007186,0.03625346,0.49629803,-0
 .00002525,-0.00000568,-0.00000956,0.00000256,0.00000018,-0.00000096,-0
 .00005708,-0.00003772,-0.00002964,0.00005893,-0.00001517,0.00000285,-0
 .00001912,0.00001616,0.00000390,0.00000211,-0.00000459,-0.00000205,0.0
 0004026,-0.00000982,0.00004527,-0.00000748,0.00000389,0.00000639,0.000
 02225,0.00005049,-0.00005133,0.00000851,-0.00001023,-0.00001318,0.0002
 5754,-0.00025654,-0.00025108,-0.00004465,0.00004695,0.00018535,0.00003
 692,-0.00002848,-0.00000544,-0.00004298,0.00000861,-0.00003099,-0.0000
 1525,0.00000277,0.00000344,0.00014816,-0.00031062,-0.00042793,0.001454
 78,-0.00303048,-0.00268975,0.00058074,0.00077588,0.00004004,-0.0224574
 6,0.01199008,-0.00415852,0.01960994,0.01794805,-0.00941585,-0.00027791
 ,0.00081001,-0.00108885,-0.00002958,0.00001396,0.00006424,-0.06811495,
 0.04620860,-0.10558282,-0.00000271,0.00708530,0.00274266,0.10110262,0.
 08124467,-0.12842799,-0.00346854,0.00426165,0.00253000,0.00004538,-0.0
 0000427,-0.00064072,-0.01489281,-0.30927774,0.40308010,0.00001227,0.00
 000203,0.00000962,-0.00000188,0.00000018,-0.00000167,0.00001654,-0.000
 01590,0.00000629,-0.00002651,0.00000926,-0.00001552,0.00000904,-0.0000
 1145,0.00000339,-0.00000176,0.00000409,-0.00000014,0.00000753,-0.00000
 065,0.00000253,0.00000318,-0.00000264,0.00000079,0.00000948,0.00000732
 ,0.00000607,-0.00000083,0.00000269,-0.00000003,-0.00003832,-0.00001634
 ,0.00001561,0.00001757,-0.00001675,0.00001692,0.00000118,-0.00000920,-
 0.00000480,-0.00001838,0.00001013,-0.00000225,0.00000333,-0.00000016,0
 .00000010,0.00010045,-0.00003532,0.00001309,0.00121673,0.00124893,-0.0
 0121306,0.00022180,-0.00002090,0.00004334,0.00664115,0.00338396,-0.002
 99580,0.00018727,0.00068015,-0.00054157,-0.00012107,0.00010605,-0.0000
 9492,0.00001762,0.00001413,-0.00000404,-0.24816000,-0.10306119,0.08857
 173,0.00067547,-0.00021066,0.00025391,-0.00366360,0.00268287,-0.002460
 85,-0.00001835,-0.00023493,0.00020576,-0.00000832,-0.00001885,0.000012
 86,-0.01663695,-0.01371699,0.01184215,0.25934250,0.00001064,0.00000131
 ,-0.00000561,-0.00000104,-0.00000043,0.00000368,0.00002832,0.00003045,
 0.00001971,-0.00002450,0.00000568,0.00001113,0.00000984,-0.00000518,-0
 .00000965,-0.00000345,0.00000005,0.00000605,-0.00002700,-0.00001863,-0
 .00004459,0.00000670,-0.00000562,0.00000239,0.00004414,-0.00003268,0.0
 0003064,-0.00001011,-0.00000529,0.00000995,-0.00014053,0.00017519,0.00
 008699,-0.00000566,0.00000437,-0.00010404,-0.00002690,0.00000753,-0.00
 000240,0.00005792,-0.00001319,0.00001379,0.00000815,-0.00000192,0.0000
 0608,-0.00097062,0.00026036,-0.00006482,0.00135326,0.00116029,0.007224
 51,-0.00017688,-0.00068003,-0.00006873,-0.01977765,-0.00537273,0.00845
 729,0.00030973,-0.00090189,-0.00002952,0.00024579,-0.00013109,0.000252
 74,-0.00010250,-0.00007862,0.00001035,-0.10214287,-0.10593804,0.057867
 80,0.00018175,-0.00171496,-0.00330010,0.00227593,0.00235461,0.00303477
 ,0.00011597,-0.00006698,-0.00072278,-0.00001818,0.00004207,0.00005816,
 0.00902813,0.00782274,-0.00399127,0.10983872,0.10375994,-0.00002973,-0
 .00002029,-0.00001520,0.00000182,0.00000227,-0.00000069,-0.00006174,0.
 00007775,-0.00000059,0.00006569,0.00000610,0.00003246,-0.00001658,0.00
 000725,-0.00000498,0.00000324,-0.00000288,-0.00000035,-0.00004293,-0.0
 0000646,-0.00002974,-0.00000550,0.00000429,-0.00000500,-0.00002015,-0.
 00004112,-0.00001494,-0.00000283,-0.00000558,0.00000380,0.00008369,0.0
 0012154,0.00017877,-0.00007511,0.00005479,-0.00012571,0.00000652,0.000
 02243,0.00000363,0.00007749,-0.00004666,0.00002238,-0.00000666,0.00000
 279,-0.00001460,0.00097403,0.00021085,0.00006261,-0.00174006,0.0067783
 4,0.00321750,-0.00005992,-0.00006572,-0.00064675,0.01755732,0.00934276
 ,-0.00357601,-0.00032681,-0.00021731,-0.00068980,-0.00006934,0.0000653
 8,0.00005392,0.00008512,0.00003860,-0.00004862,0.08837003,0.05736876,-
 0.08816662,-0.00005110,-0.00338805,-0.00249855,-0.00200736,0.00307396,
 0.00291057,0.00010700,-0.00055014,-0.00041358,0.00001042,0.00004990,0.
 00006127,-0.00883744,-0.00414742,0.00678340,-0.09414591,-0.06685363,0.
 08414267,-0.00001741,-0.00000266,-0.00001223,0.00000226,-0.00000039,0.
 00000187,-0.00002733,0.00001651,-0.00001181,0.00003970,-0.00001382,0.0
 0001969,-0.00001295,0.00001651,-0.00000370,0.00000214,-0.00000559,-0.0
 0000016,-0.00000169,0.00000781,0.00000115,-0.00000672,0.00000403,-0.00
 000084,-0.00002160,-0.00000714,-0.00002403,0.00000220,-0.00000078,0.00
 000053,0.00007899,0.00000145,-0.00000551,-0.00002344,0.00002296,-0.000
 01194,0.00000201,0.00000331,0.00000767,0.00000699,-0.00001216,0.000000
 68,-0.00000523,0.00000027,-0.00000097,-0.00019045,-0.00031453,0.000278
 41,0.00138548,-0.00016356,-0.00005758,0.00030069,0.00004187,0.00000865
 ,0.00024713,-0.00025823,0.00027647,0.00025156,-0.00079057,0.00054520,0
 .00004526,0.00028181,-0.00022993,0.00001646,0.00001247,-0.00001193,-0.
 00187045,-0.00332262,0.00240332,-0.00004869,0.00011262,-0.00003723,-0.
 29394072,0.07427175,-0.07626431,0.00081105,-0.00124265,0.00115499,-0.0
 0000156,0.00003484,-0.00003700,-0.01731437,0.00895823,-0.00880135,-0.0
 0094047,0.00049949,-0.00042338,0.31002576,0.00002713,0.00000526,0.0000
 1437,-0.00000310,0.00000078,-0.00000080,0.00005582,-0.00003418,0.00002
 954,-0.00006745,0.00002305,-0.00002603,0.00002047,-0.00002642,0.000002
 25,-0.00000271,0.00000819,0.00000204,0.00000948,-0.00000637,-0.0000294
 8,0.00001266,-0.00000798,0.00000151,0.00007239,-0.00000394,0.00004369,
 -0.00001044,-0.00000500,0.00000874,-0.00019377,-0.00011054,0.00028035,
 0.00006745,-0.00006322,-0.00001977,-0.00001140,0.00001354,-0.00000760,
 -0.00000533,0.00002753,-0.00001812,0.00000775,-0.00000158,0.00000685,0
 .00122489,-0.00006870,0.00019311,-0.00073247,-0.00057545,0.00512185,0.
 00014837,-0.00005508,-0.00005411,-0.00060699,-0.00110501,-0.00003710,0
 .02112469,-0.00269655,0.00608538,-0.00018860,0.00011568,-0.00016384,-0
 .00004357,0.00000426,0.00002333,-0.00270298,0.00279974,0.00514991,0.00
 009862,-0.00039266,-0.00059321,0.07397113,-0.07336262,0.03369454,0.001
 19125,-0.00074499,-0.00184722,-0.00001908,0.00005555,0.00009298,-0.014
 00451,0.00860445,-0.00394670,-0.00074271,0.00027767,-0.00021441,-0.078
 65956,0.06911513,-0.00001913,-0.00000683,-0.00001398,0.00000159,0.0000
 0017,0.00000203,-0.00003306,-0.00001065,-0.00001898,0.00004076,-0.0000
 0719,0.00001860,-0.00001165,0.00001057,-0.00000472,0.00000303,-0.00000
 431,0.00000106,0.00001269,0.00003410,0.00003380,-0.00001140,0.00000855
 ,-0.00000924,-0.00013444,0.00001434,-0.00005536,0.00000266,-0.00000007
 ,-0.00000186,0.00018602,0.00034187,0.00001231,0.00001082,-0.00003822,-
 0.00000022,0.00000594,0.00001624,-0.00002110,-0.00002181,0.00000940,-0
 .00000257,-0.00000757,0.00000083,-0.00000150,-0.00111218,0.00001168,-0
 .00017708,0.00106330,0.00519158,0.00094981,-0.00005656,-0.00007133,-0.
 00006320,0.00032840,-0.00038198,-0.00075345,-0.01875299,0.00571947,-0.
 00260662,0.00013551,-0.00011377,0.00003267,0.00003884,0.00002978,0.000
 01500,0.00172891,0.00523776,0.00433313,-0.00006682,-0.00062261,-0.0005
 5218,-0.07650225,0.03322441,-0.07024357,-0.00080564,-0.00205740,-0.001
 22881,0.00000480,0.00009299,0.00008869,0.01178500,-0.00273459,0.007700
 86,0.00054276,-0.00017039,0.00014629,0.08139536,-0.04078819,0.06502715
 ,-0.00001825,-0.00000296,-0.00001259,0.00000226,-0.00000042,0.00000200
 ,-0.00003231,0.00001182,-0.00001505,0.00004227,-0.00001424,0.00001962,
 -0.00001375,0.00001726,-0.00000383,0.00000223,-0.00000614,-0.00000005,
 0.00000134,0.00000917,0.00001834,-0.00000726,0.00000506,-0.00000110,-0
 .00003355,0.00000574,-0.00002967,0.00000324,0.00000316,-0.00000385,0.0
 0007272,0.00008422,0.00000356,-0.00000303,-0.00000302,-0.00000469,0.00
 000396,0.00000927,0.00001036,0.00001061,0.00000046,-0.00000022,-0.0000
 0467,-0.00000053,0.,0.00009142,-0.00051222,0.00048723,-0.00161607,-0.0
 0312456,0.00225476,0.00184881,-0.00027753,-0.00021557,-0.00090441,0.00
 084331,-0.00078999,-0.01810076,0.00903169,-0.00897891,0.00238682,-0.00
 141143,0.00097015,-0.00003159,-0.00010361,0.00009476,0.00007765,-0.000
 06677,0.00005918,-0.00029322,-0.00021022,0.00017796,0.00091977,0.00131
 799,-0.00091154,-0.28776009,0.07738533,-0.08069742,0.00053862,0.000434
 12,0.00004414,0.00007447,-0.00015985,0.00014506,0.00002059,-0.00004564
 ,0.00004046,0.00021865,-0.00066590,0.00054755,0.30253093,0.00002567,0.
 00000559,0.00001347,-0.00000289,0.00000088,-0.00000076,0.00007623,0.00
 001852,0.00004037,-0.00006417,0.00002563,-0.00002536,0.00001902,-0.000
 02467,-0.00000011,-0.00000254,0.00000701,0.00000303,-0.00008426,-0.000
 01067,-0.00001137,0.00001043,-0.00000654,-0.00000155,0.00013962,-0.000
 01496,0.00002641,-0.00000647,0.00000067,0.00000526,0.00019641,-0.00034
 717,-0.00056073,-0.00011219,-0.00002303,0.00001294,0.00000440,0.000011
 68,-0.00000787,-0.00000401,-0.00004669,0.00001274,0.00000111,0.0000033
 9,-0.00000237,-0.00035340,-0.00080644,-0.00019108,-0.00242223,0.000897
 84,0.00345120,-0.00103715,0.00028105,0.00693206,-0.00071055,0.00025906
 ,-0.00029486,-0.01322162,0.00715247,-0.00419755,0.02238068,-0.00206945
 ,0.00717658,0.00110844,-0.00021416,0.00031162,-0.00011908,0.00008829,-
 0.00017334,-0.00020847,0.00000130,0.00018934,-0.00096823,-0.00070623,-
 0.00187029,0.07729484,-0.07636073,0.03684141,-0.00011371,-0.00141542,-
 0.00321664,0.00027429,0.00005478,-0.00012430,0.00001273,0.00000202,0.0
 0003085,0.00038553,0.00002207,0.00009207,-0.08251451,0.07314209,-0.000
 00341,-0.00000124,-0.00000453,0.00000002,0.00000062,0.00000123,0.00002
 074,0.00002204,0.00001393,-0.00000078,0.00000566,0.00000349,-0.0000005
 4,-0.00000260,-0.00000376,0.00000149,-0.00000023,0.00000195,-0.0000571
 0,-0.00002383,-0.00000176,0.00000432,-0.00000021,-0.00000397,0.0001129
 6,-0.00000882,0.00003537,0.00000308,-0.00002477,-0.00000891,0.00011492
 ,-0.00067803,-0.00052716,-0.00019215,0.00004207,0.00002501,-0.00000008
 ,0.00000046,-0.00000944,-0.00001808,-0.00006535,-0.00001817,-0.0000080
 2,0.00000678,-0.00001181,0.00024806,-0.00009929,-0.00084661,0.00127164
 ,0.00364425,0.00224109,0.00026588,0.00686232,0.00316940,0.00059173,-0.
 00018109,0.00014710,0.00987048,-0.00270300,0.00616247,-0.01855621,0.00
 566017,-0.00114627,-0.00085900,0.00020752,-0.00022830,0.00015666,-0.00
 022119,0.00007182,0.00010356,0.00019778,0.00003969,0.00102906,-0.00170
 789,-0.00135834,-0.08065773,0.03683534,-0.07382428,0.00048755,-0.00319
 994,-0.00262846,-0.00031804,-0.00015450,0.00001669,-0.00001165,0.00002
 753,0.00001531,-0.00034928,0.00001295,0.00007559,0.08676866,-0.0445378
 4,0.06849894,-0.00001083,-0.00000307,-0.00000689,0.00000150,0.00000045
 ,0.00000062,-0.00000736,0.00003670,0.00001055,0.00002278,-0.00000384,0
 .00001375,-0.00000847,0.00000855,-0.00000274,0.00000150,-0.00000326,0.
 00000009,-0.00003435,-0.00000006,-0.00001791,-0.00000036,0.00000128,-0
 .00000032,0.00003916,-0.00004302,0.00000315,-0.00000130,0.00000125,0.0
 0000365,-0.00001063,0.00000092,0.00000181,-0.00000633,0.00001461,-0.00
 005324,-0.00000805,0.00001734,0.00001690,0.00005110,-0.00002211,0.0000
 0114,-0.00000061,-0.00000036,-0.00000008,0.00033803,0.00027590,-0.0001
 9441,-0.00095181,-0.00042967,0.00038916,-0.00035831,0.00001880,-0.0000
 5156,-0.00510247,0.00122366,-0.00121180,-0.00421649,-0.00211854,0.0012
 8490,-0.00018676,-0.00035007,0.00029683,0.00001890,-0.00000159,-0.0000
 0012,0.00235809,0.02165084,-0.01892051,0.00000132,0.00102780,-0.000911
 02,0.00665926,-0.02023770,0.01769669,0.00078592,-0.00056332,0.00053403
 ,0.00001512,-0.00010628,0.00008490,-0.06077816,0.01927251,-0.01710080,
 0.00113273,-0.00054093,0.00053970,0.00098678,0.00062846,-0.00029844,-0
 .00002740,0.00001608,-0.00001871,0.05929749,0.00002037,0.00000174,0.00
 001147,-0.00000283,0.00000068,-0.00000108,0.00003462,-0.00003449,0.000
 00523,-0.00004856,0.00001866,-0.00002079,0.00001722,-0.00002225,0.0000
 0191,-0.00000295,0.00000694,0.00000182,0.00001547,-0.00000655,0.000009
 10,0.00000554,-0.00000566,0.00000220,0.00001493,0.00001023,0.00000855,
 -0.00000012,0.00000056,-0.00000152,-0.00003717,0.00001141,-0.00003114,
 0.00004603,-0.00001722,0.00005462,0.00000556,-0.00001787,-0.00000691,-
 0.00003137,0.00002032,-0.00000207,0.00000313,0.00000049,0.00000252,0.0
 0006024,-0.00032320,-0.00045841,-0.00002953,-0.00014686,-0.00063978,-0
 .00010330,0.00005596,0.00004629,0.00168300,0.00307109,0.00230958,-0.00
 258863,0.00433545,0.00432395,-0.00022051,-0.00044833,-0.00022251,-0.00
 000816,0.00003224,0.00006902,-0.00150003,-0.00254554,0.00487886,-0.000
 12996,-0.00025160,0.00021871,0.00312358,-0.00570187,0.00890698,0.00044
 024,-0.00025604,0.00034233,0.00001067,-0.00005977,0.00003571,0.0187987
 4,-0.21201833,0.15058633,0.00011139,-0.00093699,-0.00169893,0.00012278
 ,-0.00181260,-0.00302829,-0.00003906,0.00007182,0.00008432,-0.01977133
 ,0.21696758,-0.00001885,-0.00000736,-0.00001429,0.00000209,0.00000058,
 0.00000198,-0.00002815,0.00001391,-0.00001162,0.00003967,-0.00000586,0
 .00002293,-0.00001150,0.00001051,-0.00000560,0.00000229,-0.00000411,0.
 00000119,0.00000101,0.00000575,0.00000143,-0.00000502,0.00000335,-0.00
 000179,-0.00002726,-0.00001797,-0.00001606,0.00000344,-0.00000098,0.00
 000186,0.00005575,0.00002509,-0.00002955,0.00000686,0.00003095,0.00000
 133,0.00000602,-0.00000270,0.00001379,0.00000828,-0.00001095,0.0000065
 7,-0.00000609,0.00000098,-0.00000188,0.00001191,-0.00044422,-0.0005033
 4,0.00014468,-0.00064916,-0.00030574,-0.00001171,0.00003679,0.00007755
 ,-0.00164919,0.00230341,0.00373370,0.00152571,0.00443009,0.00570248,0.
 00029764,-0.00023779,-0.00044079,-0.00000702,0.00006993,0.00005596,0.0
 0122308,0.00556060,-0.00171617,0.00009252,0.00025059,-0.00023265,-0.00
 284094,0.00795497,-0.00262017,-0.00033143,0.00038977,-0.00025846,-0.00
 000838,0.00003826,-0.00004484,-0.01654131,0.15073972,-0.17037855,-0.00
 005471,-0.00175599,-0.00138287,0.00018920,-0.00301680,-0.00268254,0.00
 002070,0.00007671,0.00010268,0.01791069,-0.16578806,0.17092345\\-0.000
 00264,-0.00000153,0.00000373,-0.00000287,-0.00000150,0.00000414,-0.000
 00098,-0.00000084,0.00000080,-0.00000141,-0.00000090,0.00000169,-0.000
 00060,-0.00000051,0.00000046,0.00000033,-0.00000001,-0.00000085,0.0000
 0023,-0.00000036,-0.00000137,0.00000091,-0.00000011,-0.00000250,0.0000
 0058,-0.00000029,-0.00000209,0.00000151,0.00000006,-0.00000378,-0.0000
 0024,-0.00000064,-0.00000069,-0.00000143,-0.00000110,0.00000149,-0.000
 00213,-0.00000137,0.00000259,-0.00000181,-0.00000118,0.00000220,-0.000
 00274,-0.00000155,0.00000388,0.00000009,-0.00000059,-0.00000151,0.0000
 0055,0.00000064,-0.00000012,-0.00000002,-0.00000179,-0.00000365,0.0000
 0083,0.00000201,0.00000203,0.00000082,0.00000055,-0.00000098,0.0000002
 6,-0.00000187,-0.00000448,-0.00000036,-0.00000273,-0.00000467,0.000001
 27,0.00000318,0.00000326,0.00000069,0.00000214,0.00000268,0.00000128,0
 .00000175,0.00000037,0.00000067,-0.00000073,-0.00000317,0.00000013,-0.
 00000284,-0.00000616,0.00000148,0.00000304,0.00000245,0.00000147,0.000
 00421,0.00000490,0.00000146,0.00000167,-0.00000030,0.00000085,-0.00000
 079,-0.00000379,0.00000183,0.00000396,0.00000346\\\@
 The archive entry for this job was punched.


 FROM WHENCE IT HAPPENS, THAT THEY WHICH TRUST TO BOOKS, DO AS THEY THAT CAST UP MANY LITTLE SUMMS INTO GREATER,
 WITHOUT CONSIDERING WETHER THOSE LITTLE SUMMES WERE RIGHTLY CAST UP OR NOT...
 AND AT LAST FINDING THE ERROUR VISIBLE, AND NOT MISTRUSTING THEIR FIRST GROUNDS,
 KNOW NOT WHICH WAY TO CLEERE THEMSELVES...
 BUT SPEND TIME IN FLUTTERING OVER THEIR BOOKES....
 AS BIRDS THAT ENTERING BY THE CHIMNEY, AND FINDING THEMSELVES INCLOSED IN A CHAMBER,
 FLUTTER AT THE FALSE LIGHT OF A GLASSE WINDOW,
 FOR WANT OF WIT TO CONSIDER WHICH WAY THEY CAME IN....
           LEVIATHAN
 Job cpu time:       0 days  5 hours 16 minutes 39.5 seconds.
 Elapsed time:       0 days  0 hours 10 minutes 13.0 seconds.
 File lengths (MBytes):  RWF=    828 Int=      0 D2E=      0 Chk=     35 Scr=      1
 Normal termination of Gaussian 16 at Wed Apr 30 05:55:42 2025.
