/home/tahminaafroz
cn018.cluster.local
tahminaafroz
Tue May 27 08:00:37 CDT 2025
 Entering Gaussian System, Link 0=g16
 Initial command:
 /home/apps/g16/l1.exe "/tmp/4-beta-nap-ph-anion-opt-freq-thf/Gau-771726.inp" -scrdir="/tmp/4-beta-nap-ph-anion-opt-freq-thf/"
 Entering Link 1 = /home/apps/g16/l1.exe PID=    771727.
  
 Copyright (c) 1988-2019, Gaussian, Inc.  All Rights Reserved.
  
 This is part of the Gaussian(R) 16 program.  It is based on
 the Gaussian(R) 09 system (copyright 2009, Gaussian, Inc.),
 the Gaussian(R) 03 system (copyright 2003, Gaussian, Inc.),
 the Gaussian(R) 98 system (copyright 1998, Gaussian, Inc.),
 the Gaussian(R) 94 system (copyright 1995, Gaussian, Inc.),
 the Gaussian 92(TM) system (copyright 1992, Gaussian, Inc.),
 the Gaussian 90(TM) system (copyright 1990, Gaussian, Inc.),
 the Gaussian 88(TM) system (copyright 1988, Gaussian, Inc.),
 the Gaussian 86(TM) system (copyright 1986, Carnegie Mellon
 University), and the Gaussian 82(TM) system (copyright 1983,
 Carnegie Mellon University). Gaussian is a federally registered
 trademark of Gaussian, Inc.
  
 This software contains proprietary and confidential information,
 including trade secrets, belonging to Gaussian, Inc.
  
 This software is provided under written license and may be
 used, copied, transmitted, or stored only in accord with that
 written license.
  
 The following legend is applicable only to US Government
 contracts under FAR:
  
                    RESTRICTED RIGHTS LEGEND
  
 Use, reproduction and disclosure by the US Government is
 subject to restrictions as set forth in subparagraphs (a)
 and (c) of the Commercial Computer Software - Restricted
 Rights clause in FAR 52.227-19.
  
 Gaussian, Inc.
 340 Quinnipiac St., Bldg. 40, Wallingford CT 06492
  
  
 ---------------------------------------------------------------
 Warning -- This program may not be used in any manner that
 competes with the business of Gaussian, Inc. or will provide
 assistance to any competitor of Gaussian, Inc.  The licensee
 of this program is prohibited from giving any competitor of
 Gaussian, Inc. access to this program.  By using this program,
 the user acknowledges that Gaussian, Inc. is engaged in the
 business of creating and licensing software in the field of
 computational chemistry and represents and warrants to the
 licensee that it is not a competitor of Gaussian, Inc. and that
 it will not use this program in any manner prohibited above.
 ---------------------------------------------------------------
  

 Cite this work as:
 Gaussian 16, Revision C.01,
 M. J. Frisch, G. W. Trucks, H. B. Schlegel, G. E. Scuseria, 
 M. A. Robb, J. R. Cheeseman, G. Scalmani, V. Barone, 
 G. A. Petersson, H. Nakatsuji, X. Li, M. Caricato, A. V. Marenich, 
 J. Bloino, B. G. Janesko, R. Gomperts, B. Mennucci, H. P. Hratchian, 
 J. V. Ortiz, A. F. Izmaylov, J. L. Sonnenberg, D. Williams-Young, 
 F. Ding, F. Lipparini, F. Egidi, J. Goings, B. Peng, A. Petrone, 
 T. Henderson, D. Ranasinghe, V. G. Zakrzewski, J. Gao, N. Rega, 
 G. Zheng, W. Liang, M. Hada, M. Ehara, K. Toyota, R. Fukuda, 
 J. Hasegawa, M. Ishida, T. Nakajima, Y. Honda, O. Kitao, H. Nakai, 
 T. Vreven, K. Throssell, J. A. Montgomery, Jr., J. E. Peralta, 
 F. Ogliaro, M. J. Bearpark, J. J. Heyd, E. N. Brothers, K. N. Kudin, 
 V. N. Staroverov, T. A. Keith, R. Kobayashi, J. Normand, 
 K. Raghavachari, A. P. Rendell, J. C. Burant, S. S. Iyengar, 
 J. Tomasi, M. Cossi, J. M. Millam, M. Klene, C. Adamo, R. Cammi, 
 J. W. Ochterski, R. L. Martin, K. Morokuma, O. Farkas, 
 J. B. Foresman, and D. J. Fox, Gaussian, Inc., Wallingford CT, 2019.
 
 ******************************************
 Gaussian 16:  AS64L-G16RevC.01  3-Jul-2019
                27-May-2025 
 ******************************************
 %mem=20GB
 %nprocshared=32
 Will use up to   32 processors via shared memory.
 %chk=4-beta-nap-ph-anion-opt-freq-thf.chk
 ----------------------------------------------------------------------
 # opt=(calcfc,tight) freq 6-311+g(d,p) scrf=(smd,solvent=thf) nosymm s
 cf=(qc,fermi,xqc) geom=connectivity int=ultrafine m062x
 ----------------------------------------------------------------------
 1/7=10,10=4,18=20,19=15,26=6,38=1,57=2/1,3;
 2/9=110,12=2,15=1,17=6,18=5,40=1/2;
 3/5=4,6=6,7=111,11=2,25=1,30=1,70=32201,71=2,72=20,74=-55,75=-5,140=1/1,2,3;
 4//1;
 5/5=2,22=13,38=5,53=20/2;
 8/6=4,10=90,11=11/1;
 11/6=1,8=1,9=11,15=111,16=1,31=1/1,2,10;
 10/6=1,13=1,31=1/2;
 6/7=2,8=2,9=2,10=2,28=1/1;
 7/10=1,25=1,30=1/1,2,3,16;
 1/7=10,10=4,18=20,19=15,26=6/3(2);
 2/9=110,15=1/2;
 99//99;
 2/9=110,15=1/2;
 3/5=4,6=6,7=111,11=2,25=1,30=1,70=32205,71=1,72=20,74=-55,75=-5/1,2,3;
 4/5=5,16=3,69=1/1;
 5/5=2,22=13,38=5,53=20/2;
 7/30=1/1,2,3,16;
 1/7=10,18=20,19=15,26=6/3(-5);
 2/9=110,15=1/2;
 6/7=2,8=2,9=2,10=2,19=2,28=1/1;
 99/9=1/99;
 --------------------------------
 4-beta-nap-ph-anion-opt-freq-thf
 --------------------------------
 Symbolic Z-matrix:
 Charge = -1 Multiplicity = 1
 C                     6.15673   7.02294   5.24578 
 C                     5.37674   6.09392   4.60335 
 H                     5.67293   5.05572   4.50322 
 C                     4.16639   6.54786   4.06973 
 H                     3.51589   5.85491   3.54613 
 C                     3.78833   7.88885   4.19181 
 C                     4.63193   8.78343   4.86157 
 H                     4.33436   9.82141   4.97104 
 C                     5.84376   8.3516    5.40529 
 H                     6.49364   9.04211   5.93102 
 C                     2.47474   8.34133   3.65524 
 C                     2.37882   9.41462   2.70967 
 C                     1.32652   7.71494   4.08435 
 C                     3.5185    10.06214   2.15626 
 C                     1.08815   9.83198   2.27296 
 C                     0.04993   8.12461   3.6367 
 H                     1.40346   6.90453   4.80141 
 C                     3.37997   11.08275   1.25127 
 H                     4.50957   9.73422   2.44431 
 C                     0.97869   10.89884   1.34131 
 C                    -0.06848   9.16813   2.75955 
 H                    -0.8323    7.6136    4.00458 
 C                     2.09585   11.51542   0.84463 
 H                     4.26129   11.55905   0.83711 
 H                    -0.01207   11.20963   1.02604 
 H                    -1.04286   9.50078   2.4173 
 H                     2.00195   12.32686   0.13211 
 

 GradGradGradGradGradGradGradGradGradGradGradGradGradGradGradGradGradGrad
 Berny optimization.
 Initialization pass.
                           ----------------------------
                           !    Initial Parameters    !
                           ! (Angstroms and Degrees)  !
 --------------------------                            --------------------------
 ! Name  Definition              Value          Derivative Info.                !
 --------------------------------------------------------------------------------
 ! R1    R(1,2)                  1.3727         calculate D2E/DX2 analytically  !
 ! R2    R(1,9)                  1.3743         calculate D2E/DX2 analytically  !
 ! R3    R(2,3)                  1.0843         calculate D2E/DX2 analytically  !
 ! R4    R(2,4)                  1.3985         calculate D2E/DX2 analytically  !
 ! R5    R(4,5)                  1.0851         calculate D2E/DX2 analytically  !
 ! R6    R(4,6)                  1.3986         calculate D2E/DX2 analytically  !
 ! R7    R(6,7)                  1.4002         calculate D2E/DX2 analytically  !
 ! R8    R(6,11)                 1.4894         calculate D2E/DX2 analytically  !
 ! R9    R(7,8)                  1.0853         calculate D2E/DX2 analytically  !
 ! R10   R(7,9)                  1.3966         calculate D2E/DX2 analytically  !
 ! R11   R(9,10)                 1.0842         calculate D2E/DX2 analytically  !
 ! R12   R(11,12)                1.4336         calculate D2E/DX2 analytically  !
 ! R13   R(11,13)                1.3766         calculate D2E/DX2 analytically  !
 ! R14   R(12,14)                1.4228         calculate D2E/DX2 analytically  !
 ! R15   R(12,15)                1.425          calculate D2E/DX2 analytically  !
 ! R16   R(13,16)                1.4135         calculate D2E/DX2 analytically  !
 ! R17   R(13,17)                1.0848         calculate D2E/DX2 analytically  !
 ! R18   R(14,18)                1.3711         calculate D2E/DX2 analytically  !
 ! R19   R(14,19)                1.0829         calculate D2E/DX2 analytically  !
 ! R20   R(15,20)                1.4206         calculate D2E/DX2 analytically  !
 ! R21   R(15,21)                1.4196         calculate D2E/DX2 analytically  !
 ! R22   R(16,21)                1.3683         calculate D2E/DX2 analytically  !
 ! R23   R(16,22)                1.0839         calculate D2E/DX2 analytically  !
 ! R24   R(18,23)                1.4148         calculate D2E/DX2 analytically  !
 ! R25   R(18,24)                1.084          calculate D2E/DX2 analytically  !
 ! R26   R(20,23)                1.3693         calculate D2E/DX2 analytically  !
 ! R27   R(20,25)                1.0852         calculate D2E/DX2 analytically  !
 ! R28   R(21,26)                1.085          calculate D2E/DX2 analytically  !
 ! R29   R(23,27)                1.0839         calculate D2E/DX2 analytically  !
 ! A1    A(2,1,9)              125.3967         calculate D2E/DX2 analytically  !
 ! A2    A(1,2,3)              122.4151         calculate D2E/DX2 analytically  !
 ! A3    A(1,2,4)              116.7879         calculate D2E/DX2 analytically  !
 ! A4    A(3,2,4)              120.7966         calculate D2E/DX2 analytically  !
 ! A5    A(2,4,5)              119.7132         calculate D2E/DX2 analytically  !
 ! A6    A(2,4,6)              120.7883         calculate D2E/DX2 analytically  !
 ! A7    A(5,4,6)              119.4959         calculate D2E/DX2 analytically  !
 ! A8    A(4,6,7)              119.4374         calculate D2E/DX2 analytically  !
 ! A9    A(4,6,11)             119.8852         calculate D2E/DX2 analytically  !
 ! A10   A(7,6,11)             120.6384         calculate D2E/DX2 analytically  !
 ! A11   A(6,7,8)              119.6094         calculate D2E/DX2 analytically  !
 ! A12   A(6,7,9)              120.76           calculate D2E/DX2 analytically  !
 ! A13   A(8,7,9)              119.6255         calculate D2E/DX2 analytically  !
 ! A14   A(1,9,7)              116.829          calculate D2E/DX2 analytically  !
 ! A15   A(1,9,10)             122.3773         calculate D2E/DX2 analytically  !
 ! A16   A(7,9,10)             120.7926         calculate D2E/DX2 analytically  !
 ! A17   A(6,11,12)            121.6066         calculate D2E/DX2 analytically  !
 ! A18   A(6,11,13)            119.0212         calculate D2E/DX2 analytically  !
 ! A19   A(12,11,13)           119.3716         calculate D2E/DX2 analytically  !
 ! A20   A(11,12,14)           122.9331         calculate D2E/DX2 analytically  !
 ! A21   A(11,12,15)           118.8156         calculate D2E/DX2 analytically  !
 ! A22   A(14,12,15)           118.2286         calculate D2E/DX2 analytically  !
 ! A23   A(11,13,16)           121.5155         calculate D2E/DX2 analytically  !
 ! A24   A(11,13,17)           119.1323         calculate D2E/DX2 analytically  !
 ! A25   A(16,13,17)           119.3346         calculate D2E/DX2 analytically  !
 ! A26   A(12,14,18)           120.9689         calculate D2E/DX2 analytically  !
 ! A27   A(12,14,19)           119.4587         calculate D2E/DX2 analytically  !
 ! A28   A(18,14,19)           119.567          calculate D2E/DX2 analytically  !
 ! A29   A(12,15,20)           119.3873         calculate D2E/DX2 analytically  !
 ! A30   A(12,15,21)           119.7311         calculate D2E/DX2 analytically  !
 ! A31   A(20,15,21)           120.877          calculate D2E/DX2 analytically  !
 ! A32   A(13,16,21)           120.1462         calculate D2E/DX2 analytically  !
 ! A33   A(13,16,22)           119.4058         calculate D2E/DX2 analytically  !
 ! A34   A(21,16,22)           120.443          calculate D2E/DX2 analytically  !
 ! A35   A(14,18,23)           120.6025         calculate D2E/DX2 analytically  !
 ! A36   A(14,18,24)           119.8093         calculate D2E/DX2 analytically  !
 ! A37   A(23,18,24)           119.5868         calculate D2E/DX2 analytically  !
 ! A38   A(15,20,23)           120.8761         calculate D2E/DX2 analytically  !
 ! A39   A(15,20,25)           118.4218         calculate D2E/DX2 analytically  !
 ! A40   A(23,20,25)           120.7006         calculate D2E/DX2 analytically  !
 ! A41   A(15,21,16)           120.3875         calculate D2E/DX2 analytically  !
 ! A42   A(15,21,26)           118.6988         calculate D2E/DX2 analytically  !
 ! A43   A(16,21,26)           120.9125         calculate D2E/DX2 analytically  !
 ! A44   A(18,23,20)           119.9055         calculate D2E/DX2 analytically  !
 ! A45   A(18,23,27)           119.7696         calculate D2E/DX2 analytically  !
 ! A46   A(20,23,27)           120.3213         calculate D2E/DX2 analytically  !
 ! D1    D(9,1,2,3)            179.8411         calculate D2E/DX2 analytically  !
 ! D2    D(9,1,2,4)              0.0645         calculate D2E/DX2 analytically  !
 ! D3    D(2,1,9,7)             -0.2187         calculate D2E/DX2 analytically  !
 ! D4    D(2,1,9,10)           179.4085         calculate D2E/DX2 analytically  !
 ! D5    D(1,2,4,5)            179.5894         calculate D2E/DX2 analytically  !
 ! D6    D(1,2,4,6)              0.1777         calculate D2E/DX2 analytically  !
 ! D7    D(3,2,4,5)             -0.1911         calculate D2E/DX2 analytically  !
 ! D8    D(3,2,4,6)           -179.6027         calculate D2E/DX2 analytically  !
 ! D9    D(2,4,6,7)             -0.2533         calculate D2E/DX2 analytically  !
 ! D10   D(2,4,6,11)          -177.9968         calculate D2E/DX2 analytically  !
 ! D11   D(5,4,6,7)           -179.6662         calculate D2E/DX2 analytically  !
 ! D12   D(5,4,6,11)             2.5903         calculate D2E/DX2 analytically  !
 ! D13   D(4,6,7,8)           -179.0781         calculate D2E/DX2 analytically  !
 ! D14   D(4,6,7,9)              0.0916         calculate D2E/DX2 analytically  !
 ! D15   D(11,6,7,8)            -1.352          calculate D2E/DX2 analytically  !
 ! D16   D(11,6,7,9)           177.8177         calculate D2E/DX2 analytically  !
 ! D17   D(4,6,11,12)         -124.4023         calculate D2E/DX2 analytically  !
 ! D18   D(4,6,11,13)           55.8741         calculate D2E/DX2 analytically  !
 ! D19   D(7,6,11,12)           57.8817         calculate D2E/DX2 analytically  !
 ! D20   D(7,6,11,13)         -121.8419         calculate D2E/DX2 analytically  !
 ! D21   D(6,7,9,1)              0.1337         calculate D2E/DX2 analytically  !
 ! D22   D(6,7,9,10)          -179.4998         calculate D2E/DX2 analytically  !
 ! D23   D(8,7,9,1)            179.3032         calculate D2E/DX2 analytically  !
 ! D24   D(8,7,9,10)            -0.3303         calculate D2E/DX2 analytically  !
 ! D25   D(6,11,12,14)           4.0664         calculate D2E/DX2 analytically  !
 ! D26   D(6,11,12,15)        -177.6969         calculate D2E/DX2 analytically  !
 ! D27   D(13,11,12,14)       -176.2109         calculate D2E/DX2 analytically  !
 ! D28   D(13,11,12,15)          2.0257         calculate D2E/DX2 analytically  !
 ! D29   D(6,11,13,16)         178.3128         calculate D2E/DX2 analytically  !
 ! D30   D(6,11,13,17)          -0.1507         calculate D2E/DX2 analytically  !
 ! D31   D(12,11,13,16)         -1.4171         calculate D2E/DX2 analytically  !
 ! D32   D(12,11,13,17)       -179.8805         calculate D2E/DX2 analytically  !
 ! D33   D(11,12,14,18)        179.8112         calculate D2E/DX2 analytically  !
 ! D34   D(11,12,14,19)          0.6633         calculate D2E/DX2 analytically  !
 ! D35   D(15,12,14,18)          1.5647         calculate D2E/DX2 analytically  !
 ! D36   D(15,12,14,19)       -177.5832         calculate D2E/DX2 analytically  !
 ! D37   D(11,12,15,20)        179.6862         calculate D2E/DX2 analytically  !
 ! D38   D(11,12,15,21)         -1.0933         calculate D2E/DX2 analytically  !
 ! D39   D(14,12,15,20)         -1.9935         calculate D2E/DX2 analytically  !
 ! D40   D(14,12,15,21)        177.227          calculate D2E/DX2 analytically  !
 ! D41   D(11,13,16,21)         -0.1864         calculate D2E/DX2 analytically  !
 ! D42   D(11,13,16,22)       -179.3812         calculate D2E/DX2 analytically  !
 ! D43   D(17,13,16,21)        178.274          calculate D2E/DX2 analytically  !
 ! D44   D(17,13,16,22)         -0.9209         calculate D2E/DX2 analytically  !
 ! D45   D(12,14,18,23)         -0.0802         calculate D2E/DX2 analytically  !
 ! D46   D(12,14,18,24)       -179.6437         calculate D2E/DX2 analytically  !
 ! D47   D(19,14,18,23)        179.0668         calculate D2E/DX2 analytically  !
 ! D48   D(19,14,18,24)         -0.4967         calculate D2E/DX2 analytically  !
 ! D49   D(12,15,20,23)          0.9779         calculate D2E/DX2 analytically  !
 ! D50   D(12,15,20,25)       -179.4722         calculate D2E/DX2 analytically  !
 ! D51   D(21,15,20,23)       -178.2335         calculate D2E/DX2 analytically  !
 ! D52   D(21,15,20,25)          1.3165         calculate D2E/DX2 analytically  !
 ! D53   D(12,15,21,16)         -0.4909         calculate D2E/DX2 analytically  !
 ! D54   D(12,15,21,26)        179.8947         calculate D2E/DX2 analytically  !
 ! D55   D(20,15,21,16)        178.7177         calculate D2E/DX2 analytically  !
 ! D56   D(20,15,21,26)         -0.8967         calculate D2E/DX2 analytically  !
 ! D57   D(13,16,21,15)          1.1503         calculate D2E/DX2 analytically  !
 ! D58   D(13,16,21,26)       -179.2439         calculate D2E/DX2 analytically  !
 ! D59   D(22,16,21,15)       -179.6633         calculate D2E/DX2 analytically  !
 ! D60   D(22,16,21,26)         -0.0575         calculate D2E/DX2 analytically  !
 ! D61   D(14,18,23,20)         -0.9953         calculate D2E/DX2 analytically  !
 ! D62   D(14,18,23,27)        179.6951         calculate D2E/DX2 analytically  !
 ! D63   D(24,18,23,20)        178.5691         calculate D2E/DX2 analytically  !
 ! D64   D(24,18,23,27)         -0.7404         calculate D2E/DX2 analytically  !
 ! D65   D(15,20,23,18)          0.5306         calculate D2E/DX2 analytically  !
 ! D66   D(15,20,23,27)        179.8363         calculate D2E/DX2 analytically  !
 ! D67   D(25,20,23,18)       -179.009          calculate D2E/DX2 analytically  !
 ! D68   D(25,20,23,27)          0.2967         calculate D2E/DX2 analytically  !
 --------------------------------------------------------------------------------
 Trust Radius=3.00D-01 FncErr=5.00D-06 GrdErr=5.00D-06 EigMax=2.50D+02 EigMin=1.00D-04
 Number of steps in this run=    153 maximum allowed number of steps=    162.
 GradGradGradGradGradGradGradGradGradGradGradGradGradGradGradGradGradGrad

                          Input orientation:                          
 ---------------------------------------------------------------------
 Center     Atomic      Atomic             Coordinates (Angstroms)
 Number     Number       Type             X           Y           Z
 ---------------------------------------------------------------------
      1          6           0        6.156734    7.022943    5.245785
      2          6           0        5.376737    6.093922    4.603352
      3          1           0        5.672928    5.055716    4.503218
      4          6           0        4.166391    6.547864    4.069728
      5          1           0        3.515893    5.854912    3.546125
      6          6           0        3.788332    7.888847    4.191805
      7          6           0        4.631933    8.783425    4.861572
      8          1           0        4.334361    9.821412    4.971037
      9          6           0        5.843759    8.351599    5.405290
     10          1           0        6.493639    9.042112    5.931021
     11          6           0        2.474737    8.341329    3.655238
     12          6           0        2.378817    9.414624    2.709671
     13          6           0        1.326518    7.714935    4.084353
     14          6           0        3.518497   10.062141    2.156261
     15          6           0        1.088148    9.831985    2.272960
     16          6           0        0.049932    8.124611    3.636703
     17          1           0        1.403455    6.904529    4.801405
     18          6           0        3.379974   11.082752    1.251274
     19          1           0        4.509574    9.734220    2.444311
     20          6           0        0.978686   10.898837    1.341311
     21          6           0       -0.068479    9.168135    2.759554
     22          1           0       -0.832302    7.613599    4.004580
     23          6           0        2.095854   11.515422    0.844631
     24          1           0        4.261286   11.559053    0.837113
     25          1           0       -0.012070   11.209627    1.026044
     26          1           0       -1.042863    9.500776    2.417304
     27          1           0        2.001951   12.326856    0.132111
 ---------------------------------------------------------------------
                    Distance matrix (angstroms):
                    1          2          3          4          5
     1  C    0.000000
     2  C    1.372660   0.000000
     3  H    2.157651   1.084264   0.000000
     4  C    2.360143   1.398483   2.164272   0.000000
     5  H    3.350699   2.153508   2.491494   1.085122   0.000000
     6  C    2.733129   2.431904   3.416915   1.398595   2.151283
     7  C    2.360495   2.802648   3.886889   2.416915   3.398843
     8  H    3.350815   3.887920   4.972170   3.399513   4.293412
     9  C    1.374308   2.440967   3.421368   2.801919   3.887017
    10  H    2.158726   3.420819   4.313182   3.886099   4.971212
    11  C    4.221976   3.790958   4.662912   2.500002   2.697810
    12  C    5.140493   4.858046   5.750483   3.641907   3.829379
    13  C    5.015851   4.393326   5.112551   3.070366   2.922796
    14  C    5.073675   5.018772   5.934145   4.053550   4.430858
    15  C    6.512985   6.147832   6.986201   4.846587   4.830321
    16  C    6.410604   5.782124   6.464290   4.429320   4.143986
    17  H    4.775475   4.059960   4.662127   2.880343   2.672044
    18  C    6.336289   6.333397   7.222045   5.396975   5.710965
    19  H    4.232306   4.320324   5.242222   3.593413   4.153363
    20  C    7.555108   7.284983   8.134840   6.044559   6.061337
    21  C    7.038215   6.519260   7.274346   5.149417   4.944074
    22  H    7.122927   6.420289   7.007812   5.111454   4.712744
    23  C    7.486205   7.367825   8.240663   6.274154   6.430860
    24  H    6.603439   6.730263   7.597793   5.964128   6.358583
    25  H    8.566719   8.246624   9.070863   6.961004   6.889870
    26  H    8.122448   7.589251   8.319342   6.211805   5.945487
    27  H    8.458332   8.380372   9.244032   7.320272   7.472187
                    6          7          8          9         10
     6  C    0.000000
     7  C    1.400186   0.000000
     8  H    2.154103   1.085333   0.000000
     9  C    2.431351   1.396648   2.151095   0.000000
    10  H    3.416662   2.162542   2.488244   1.084226   0.000000
    11  C    1.489354   2.510814   2.716648   3.796458   4.671387
    12  C    2.551754   3.178934   3.017185   4.516880   5.239048
    13  C    2.470287   3.559706   3.777641   4.749282   5.645416
    14  C    2.989892   3.192736   2.940501   4.346146   4.913323
    15  C    3.840409   4.512073   4.221093   5.883780   6.574545
    16  C    3.786734   4.788431   4.797490   6.062001   6.901236
    17  H    2.651063   3.735899   4.138501   4.709033   5.635181
    18  C    4.360563   4.459659   4.042087   5.548449   5.979896
    19  H    2.641842   2.600410   2.534294   3.529743   4.070955
    20  C    5.007940   5.496673   5.059280   6.831785   7.411314
    21  C    4.308470   5.163367   4.970154   6.528492   7.289409
    22  H    4.632610   5.653388   5.701130   6.861226   7.708517
    23  C    5.217289   5.480084   4.990772   6.697476   7.164436
    24  H    4.994803   4.902832   4.484871   5.801743   6.104612
    25  H    5.957573   6.493419   6.031714   7.850914   8.430965
    26  H    5.393293   6.220317   5.961451   7.594355   8.327991
    27  H    6.274408   6.468424   5.927275   7.639933   8.036925
                   11         12         13         14         15
    11  C    0.000000
    12  C    1.433618   0.000000
    13  C    1.376559   2.426113   0.000000
    14  C    2.509494   1.422818   3.745889   0.000000
    15  C    2.460768   1.425038   2.796402   2.444010   0.000000
    16  C    2.434541   2.819083   1.413470   4.239891   2.419259
    17  H    2.127378   3.409877   1.084823   4.630411   3.881037
    18  C    3.756847   2.431437   4.856461   1.371071   2.803699
    19  H    2.747190   2.170871   4.110851   1.082931   3.427109
    20  C    3.759425   2.456759   4.216930   2.795504   1.420607
    21  C    2.820249   2.460183   2.410995   3.745612   1.419597
    22  H    3.404135   3.902789   2.162669   5.323635   3.407033
    23  C    4.256516   2.823437   5.052858   2.419982   2.426841
    24  H    4.635443   3.413025   5.825348   2.128998   3.887573
    25  H    4.617792   3.431177   4.833006   3.880595   2.159439
    26  H    3.905164   3.435228   3.403270   4.603181   2.161421
    27  H    5.340447   3.907293   6.111157   3.395001   3.412133
                   16         17         18         19         20
    16  C    0.000000
    17  H    2.162673   0.000000
    18  C    5.052727   5.828173   0.000000
    19  H    4.888870   4.817781   2.125529   0.000000
    20  C    3.718567   5.301620   2.410003   3.878158   0.000000
    21  C    1.368340   3.385212   4.222854   4.623678   2.470485
    22  H    1.083884   2.477160   6.112200   5.955427   4.600594
    23  C    4.845520   6.115211   1.414753   3.399662   1.369282
    24  H    6.112986   6.748882   1.084022   2.444330   3.386084
    25  H    4.041869   5.898384   3.401880   4.963222   1.085164
    26  H    2.138917   4.290560   4.839810   5.557408   2.683094
    27  H    5.809596   7.180678   2.167780   4.284414   2.132715
                   21         22         23         24         25
    21  C    0.000000
    22  H    2.133096   0.000000
    23  C    3.723040   5.812366   0.000000
    24  H    5.306518   7.179422   2.165885   0.000000
    25  H    2.678792   4.740873   2.137701   4.291779   0.000000
    26  H    1.084993   2.474918   4.047671   5.904871   2.432758
    27  H    4.600832   6.726351   1.083941   2.488201   2.470546
                   26         27
    26  H    0.000000
    27  H    4.741279   0.000000
 Symmetry turned off by external request.
 Stoichiometry    C16H11(1-)
 Framework group  C1[X(C16H11)]
 Deg. of freedom    75
 Full point group                 C1      NOp   1
 Rotational constants (GHZ):           1.0733822           0.3883468           0.3059670
 Standard basis: 6-311+G(d,p) (5D, 7F)
   418 basis functions,   664 primitive gaussians,   434 cartesian basis functions
    54 alpha electrons       54 beta electrons
       nuclear repulsion energy       941.9636950094 Hartrees.
 NAtoms=   27 NActive=   27 NUniq=   27 SFac= 1.00D+00 NAtFMM=   60 NAOKFM=F Big=F
 Integral buffers will be    131072 words long.
 Raffenetti 2 integral format.
 Two-electron integral symmetry is turned off.
 Force inversion solution in PCM.
 ------------------------------------------------------------------------------
 Polarizable Continuum Model (PCM)
 =================================
 Model                : PCM.
 Atomic radii         : SMD-Coulomb.
 Polarization charges : Total charges.
 Charge compensation  : None.
 Solution method      : Matrix inversion.
 Cavity type          : VdW (van der Waals Surface) (Alpha=1.000).
 Cavity algorithm     : GePol (No added spheres)
                        Default sphere list used, NSphG=   27.
                        Lebedev-Laikov grids with approx.  5.0 points / Ang**2.
                        Smoothing algorithm: York/Karplus (Gamma=1.0000).
                        Polarization charges: spherical gaussians, with
                                              point-specific exponents (IZeta= 3).
                        Self-potential: point-specific (ISelfS= 7).
                        Self-field    : sphere-specific E.n sum rule (ISelfD= 2).
 1st derivatives      : Analytical E(r).r(x)/FMM algorithm (CHGder, D1EAlg=3).
                        Cavity 1st derivative terms included.
 2nd derivatives      : Analytical E(r).r(xy)/FMM algorithm (CHGder, D2EAlg=3).
                        Cavity 2nd derivative terms included.
 Solvent              : TetraHydroFuran, Eps=   7.425700 Eps(inf)=   1.974025
 ------------------------------------------------------------------------------
 ------------------------------------------------------------------------------
 Atomic radii for non-electrostatic terms: SMD-CDS.
 ------------------------------------------------------------------------------
 Nuclear repulsion after PCM non-electrostatic terms =      941.9565590389 Hartrees.
 One-electron integrals computed using PRISM.
 NBasis=   418 RedAO= T EigKep=  1.11D-06  NBF=   418
 NBsUse=   414 1.00D-06 EigRej=  8.48D-07 NBFU=   414
 ExpMin= 4.38D-02 ExpMax= 4.56D+03 ExpMxC= 6.82D+02 IAcc=3 IRadAn=         5 AccDes= 0.00D+00
 Harris functional with IExCor= 1009 and IRadAn=       5 diagonalized for initial guess.
 HarFok:  IExCor= 1009 AccDes= 0.00D+00 IRadAn=         5 IDoV= 1 UseB2=F ITyADJ=14
 ICtDFT=  3500011 ScaDFX=  1.000000  1.000000  1.000000  1.000000
 FoFCou: FMM=F IPFlag=           0 FMFlag=      100000 FMFlg1=           0
         NFxFlg=           0 DoJE=T BraDBF=F KetDBF=T FulRan=T
         wScrn=  0.000000 ICntrl=       500 IOpCl=  0 I1Cent=   200000004 NGrid=           0
         NMat0=    1 NMatS0=      1 NMatT0=    0 NMatD0=    1 NMtDS0=    0 NMtDT0=    0
 Symmetry not used in FoFCou.
 Requested convergence on RMS density matrix=1.00D-08 within 128 cycles.
 Requested convergence on MAX density matrix=1.00D-06.
 Requested convergence on             energy=1.00D-06.
 Level shift goal  0.100 maximum shift  0.100.
 No special actions if energy rises.
 Dynamic level shift is on during FON iterations.
 Inv3:  Mode=1 IEnd=    13906227.
 Iteration    1 A*A^-1 deviation from unit magnitude is 3.55D-15 for    989.
 Iteration    1 A*A^-1 deviation from orthogonality  is 2.66D-15 for   2146   2104.
 Iteration    1 A^-1*A deviation from unit magnitude is 3.66D-15 for    989.
 Iteration    1 A^-1*A deviation from orthogonality  is 2.44D-15 for   2153   2088.
 Error on total polarization charges =  0.07721
 SCF Done:  E(RM062X) =  -616.272127031     A.U. after   17 cycles
            NFock= 17  Conv=0.45D-08     -V/T= 2.0039
 SMD-CDS (non-electrostatic) energy       (kcal/mol) =      -4.48
 (included in total energy above)
 DoSCS=F DFT=T ScalE2(SS,OS)=  1.000000  1.000000
 Range of M.O.s used for correlation:     1   414
 NBasis=   418 NAE=    54 NBE=    54 NFC=     0 NFV=     0
 NROrb=    414 NOA=    54 NOB=    54 NVA=   360 NVB=   360

 **** Warning!!: The largest alpha MO coefficient is  0.16028422D+03

 Symmetrizing basis deriv contribution to polar:
 IMax=3 JMax=2 DiffMx= 0.00D+00
 G2DrvN: will do    28 centers at a time, making    1 passes.
 Calling FoFCou, ICntrl=  3107 FMM=F I1Cent=   0 AccDes= 0.00D+00.
 NEqPCM:  Using equilibrium solvation (IEInf=0, Eps=   7.4257, EpsInf=   1.9740)
 G2PCM: DoFxE=T DoFxN=T DoGrad=T DoDP/DQ/DG/TGxP=FFFF NFrqRd=   0 IEInf=0 SqF1=F DoCFld=F IF1Alg=4.
 End of G2Drv F.D. properties file   721 does not exist.
 End of G2Drv F.D. properties file   722 does not exist.
 End of G2Drv F.D. properties file   788 does not exist.
          IDoAtm=111111111111111111111111111
 NEqPCM:  Using equilibrium solvation (IEInf=0, Eps=   7.4257, EpsInf=   1.9740)
          Differentiating once with respect to nuclear coordinates.
 CalDSu exits because no D1Ps are significant.
          There are    84 degrees of freedom in the 1st order CPHF.  IDoFFX=6 NUNeed=     0.
     78 vectors produced by pass  0 Test12= 2.31D-14 1.19D-09 XBig12= 2.13D-01 8.95D-02.
 AX will form    78 AO Fock derivatives at one time.
     78 vectors produced by pass  1 Test12= 2.31D-14 1.19D-09 XBig12= 1.39D-02 2.76D-02.
     78 vectors produced by pass  2 Test12= 2.31D-14 1.19D-09 XBig12= 5.20D-04 4.40D-03.
     78 vectors produced by pass  3 Test12= 2.31D-14 1.19D-09 XBig12= 4.68D-06 3.62D-04.
     78 vectors produced by pass  4 Test12= 2.31D-14 1.19D-09 XBig12= 3.89D-08 2.15D-05.
     78 vectors produced by pass  5 Test12= 2.31D-14 1.19D-09 XBig12= 2.59D-10 1.76D-06.
     75 vectors produced by pass  6 Test12= 2.31D-14 1.19D-09 XBig12= 1.29D-12 1.47D-07.
     22 vectors produced by pass  7 Test12= 2.31D-14 1.19D-09 XBig12= 5.22D-15 7.62D-09.
 InvSVY:  IOpt=1 It=  1 EMax= 6.11D-16
 Solved reduced A of dimension   565 with    84 vectors.
 End of Minotr F.D. properties file   721 does not exist.
 End of Minotr F.D. properties file   722 does not exist.
 End of Minotr F.D. properties file   788 does not exist.

 **********************************************************************

            Population analysis using the SCF Density.

 **********************************************************************

 Alpha  occ. eigenvalues --  -10.54339 -10.54260 -10.54009 -10.53365 -10.53254
 Alpha  occ. eigenvalues --  -10.53135 -10.53118 -10.53023 -10.53023 -10.52656
 Alpha  occ. eigenvalues --  -10.51464 -10.50438 -10.50428 -10.48848 -10.48797
 Alpha  occ. eigenvalues --  -10.43544  -0.97466  -0.92626  -0.90843  -0.86402
 Alpha  occ. eigenvalues --   -0.82671  -0.81503  -0.79946  -0.76795  -0.69733
 Alpha  occ. eigenvalues --   -0.68640  -0.66449  -0.64237  -0.61466  -0.57703
 Alpha  occ. eigenvalues --   -0.57196  -0.55534  -0.52462  -0.50159  -0.48407
 Alpha  occ. eigenvalues --   -0.47578  -0.47425  -0.46815  -0.45493  -0.45133
 Alpha  occ. eigenvalues --   -0.44380  -0.43641  -0.41017  -0.39972  -0.38468
 Alpha  occ. eigenvalues --   -0.38105  -0.36683  -0.35931  -0.33392  -0.28851
 Alpha  occ. eigenvalues --   -0.27152  -0.26780  -0.23866  -0.16824
 Alpha virt. eigenvalues --   -0.00640   0.01934   0.02595   0.03657   0.03839
 Alpha virt. eigenvalues --    0.04471   0.04966   0.05294   0.05478   0.05713
 Alpha virt. eigenvalues --    0.06623   0.07044   0.07170   0.07959   0.08253
 Alpha virt. eigenvalues --    0.08357   0.09150   0.09590   0.10194   0.11013
 Alpha virt. eigenvalues --    0.11269   0.11688   0.11925   0.12322   0.12970
 Alpha virt. eigenvalues --    0.13446   0.14489   0.14689   0.15220   0.15422
 Alpha virt. eigenvalues --    0.16179   0.16659   0.17114   0.17434   0.17779
 Alpha virt. eigenvalues --    0.17942   0.18516   0.18534   0.19566   0.19978
 Alpha virt. eigenvalues --    0.20084   0.20856   0.21058   0.21382   0.21792
 Alpha virt. eigenvalues --    0.22250   0.22524   0.22796   0.23412   0.23926
 Alpha virt. eigenvalues --    0.24217   0.24431   0.24635   0.25060   0.25657
 Alpha virt. eigenvalues --    0.25853   0.26221   0.26461   0.26976   0.27229
 Alpha virt. eigenvalues --    0.27517   0.27778   0.28043   0.28258   0.28602
 Alpha virt. eigenvalues --    0.28753   0.29063   0.29767   0.30408   0.30696
 Alpha virt. eigenvalues --    0.31132   0.31301   0.31848   0.32070   0.33132
 Alpha virt. eigenvalues --    0.33667   0.33807   0.34136   0.34765   0.36047
 Alpha virt. eigenvalues --    0.36384   0.38204   0.38282   0.38890   0.40415
 Alpha virt. eigenvalues --    0.40645   0.41419   0.43689   0.44741   0.44882
 Alpha virt. eigenvalues --    0.47307   0.51555   0.53338   0.54447   0.56351
 Alpha virt. eigenvalues --    0.56896   0.57248   0.58529   0.58763   0.60133
 Alpha virt. eigenvalues --    0.60391   0.60818   0.61275   0.62001   0.63144
 Alpha virt. eigenvalues --    0.63774   0.64052   0.64397   0.65118   0.65752
 Alpha virt. eigenvalues --    0.66529   0.66751   0.67145   0.67784   0.68405
 Alpha virt. eigenvalues --    0.68621   0.69615   0.70401   0.71958   0.72141
 Alpha virt. eigenvalues --    0.72785   0.74038   0.74837   0.75819   0.76232
 Alpha virt. eigenvalues --    0.77191   0.77616   0.78112   0.78610   0.78835
 Alpha virt. eigenvalues --    0.79181   0.79919   0.80403   0.80546   0.80842
 Alpha virt. eigenvalues --    0.81515   0.82718   0.83181   0.83695   0.84316
 Alpha virt. eigenvalues --    0.85595   0.86529   0.87374   0.87568   0.88497
 Alpha virt. eigenvalues --    0.89952   0.91136   0.92489   0.93608   0.94083
 Alpha virt. eigenvalues --    0.94883   0.95740   0.96012   0.97864   0.98134
 Alpha virt. eigenvalues --    0.98738   1.00389   1.01403   1.02205   1.02581
 Alpha virt. eigenvalues --    1.03570   1.04114   1.06390   1.08423   1.09216
 Alpha virt. eigenvalues --    1.10242   1.10885   1.12475   1.13063   1.13495
 Alpha virt. eigenvalues --    1.13918   1.16989   1.17324   1.18859   1.19423
 Alpha virt. eigenvalues --    1.20614   1.21874   1.23736   1.23942   1.24692
 Alpha virt. eigenvalues --    1.29917   1.32302   1.34918   1.38491   1.39108
 Alpha virt. eigenvalues --    1.41945   1.44478   1.49756   1.52676   1.54104
 Alpha virt. eigenvalues --    1.55635   1.55972   1.57460   1.57541   1.58633
 Alpha virt. eigenvalues --    1.59397   1.60743   1.61838   1.62427   1.62829
 Alpha virt. eigenvalues --    1.64250   1.65489   1.66900   1.68138   1.69063
 Alpha virt. eigenvalues --    1.71455   1.71597   1.72877   1.73334   1.74401
 Alpha virt. eigenvalues --    1.75964   1.77200   1.78026   1.79645   1.80298
 Alpha virt. eigenvalues --    1.80514   1.82374   1.83857   1.84132   1.85601
 Alpha virt. eigenvalues --    1.85878   1.87590   1.90445   1.92134   1.94153
 Alpha virt. eigenvalues --    1.94574   1.96110   1.96524   1.96915   1.97984
 Alpha virt. eigenvalues --    1.98616   1.99416   2.00272   2.01089   2.02260
 Alpha virt. eigenvalues --    2.02675   2.03353   2.03671   2.05562   2.05787
 Alpha virt. eigenvalues --    2.07023   2.08203   2.09540   2.10250   2.12720
 Alpha virt. eigenvalues --    2.13091   2.16435   2.17485   2.19141   2.21041
 Alpha virt. eigenvalues --    2.23686   2.24872   2.25339   2.27919   2.33065
 Alpha virt. eigenvalues --    2.34695   2.38708   2.42401   2.44192   2.44912
 Alpha virt. eigenvalues --    2.46710   2.47170   2.49560   2.50623   2.51766
 Alpha virt. eigenvalues --    2.52295   2.54782   2.58313   2.60246   2.65129
 Alpha virt. eigenvalues --    2.68003   2.68570   2.70542   2.73657   2.73849
 Alpha virt. eigenvalues --    2.74517   2.75512   2.76108   2.76731   2.77269
 Alpha virt. eigenvalues --    2.78676   2.79003   2.79320   2.79964   2.80837
 Alpha virt. eigenvalues --    2.81143   2.83422   2.85058   2.85340   2.87417
 Alpha virt. eigenvalues --    2.88216   2.89126   2.89475   2.90174   2.91787
 Alpha virt. eigenvalues --    2.93678   2.95315   2.95944   2.99137   2.99606
 Alpha virt. eigenvalues --    3.00326   3.00530   3.01928   3.06800   3.10116
 Alpha virt. eigenvalues --    3.13337   3.14254   3.15382   3.19721   3.21627
 Alpha virt. eigenvalues --    3.28980   3.29927   3.33512   3.35258   3.42087
 Alpha virt. eigenvalues --    3.45433   3.46252   3.48145   3.50626   3.52523
 Alpha virt. eigenvalues --    3.54847   3.59477   3.61355   3.61875   3.65556
 Alpha virt. eigenvalues --    3.67376   3.72599   3.73865   3.79220   3.84245
 Alpha virt. eigenvalues --    3.95435   4.07878   4.09554   4.10207   4.11414
 Alpha virt. eigenvalues --    4.19040   4.23062   4.24912   4.27535   4.40100
 Alpha virt. eigenvalues --    4.53539   4.86625   4.87830   4.90924  23.63554
 Alpha virt. eigenvalues --   23.79535  23.91483  24.01964  24.03681  24.06217
 Alpha virt. eigenvalues --   24.08440  24.10543  24.11336  24.18793  24.22552
 Alpha virt. eigenvalues --   24.22891  24.24791  24.28904  24.29353  24.34846
          Condensed to atoms (all electrons):
               1          2          3          4          5          6
     1  C    9.336386  -1.178973  -0.147259   1.370518  -0.043528  -1.587806
     2  C   -1.178973   7.740702   0.534255  -1.002505   0.035016  -0.538576
     3  H   -0.147259   0.534255   0.544477  -0.156969  -0.000641   0.049887
     4  C    1.370518  -1.002505  -0.156969  17.602866   0.183229  -0.752962
     5  H   -0.043528   0.035016  -0.000641   0.183229   0.502029   0.052441
     6  C   -1.587806  -0.538576   0.049887  -0.752962   0.052441  16.017842
     7  C    1.525103  -1.373763  -0.046473  -7.403157   0.008765  -2.125073
     8  H   -0.048018   0.008701   0.000165   0.013205   0.000019   0.033021
     9  C   -1.294420   1.161623   0.046105  -1.330389   0.005582  -0.766219
    10  H   -0.151512   0.047632   0.000431  -0.043536   0.000155   0.055177
    11  C   -0.545330   0.313781   0.019147  -1.842114   0.076145  -2.769262
    12  C   -0.120672  -0.033712   0.004582  -1.370039   0.027800  -4.536686
    13  C    0.222482   0.076510  -0.005256   1.633326  -0.006350   3.160932
    14  C   -0.167006   0.108732   0.003044  -0.610098   0.007434  -1.618279
    15  C   -0.016134   0.054538  -0.000479  -0.199419  -0.007566   0.088529
    16  C   -0.019817   0.060758   0.000048   0.132949  -0.007289  -0.944926
    17  H    0.004941  -0.005887   0.000058   0.088699  -0.000856  -0.023799
    18  C   -0.092604   0.065302   0.000608   0.006216   0.003966  -0.248894
    19  H    0.002772  -0.000939  -0.000005  -0.011057   0.000003   0.007617
    20  C    0.007610   0.009295  -0.000083   0.045543  -0.001486   0.851683
    21  C   -0.019057   0.041619   0.000314   0.248750   0.009339   0.825090
    22  H    0.000057  -0.000078   0.000000   0.000244   0.000029   0.016325
    23  C   -0.002786  -0.002665   0.000010  -0.041502  -0.000248  -0.292754
    24  H    0.000284  -0.000349   0.000000   0.000584  -0.000001   0.002644
    25  H   -0.000005   0.000025   0.000000   0.000097   0.000000   0.001182
    26  H   -0.000014   0.000039   0.000000  -0.000584  -0.000001   0.000379
    27  H    0.000001   0.000001   0.000000   0.000067   0.000000   0.002078
               7          8          9         10         11         12
     1  C    1.525103  -0.048018  -1.294420  -0.151512  -0.545330  -0.120672
     2  C   -1.373763   0.008701   1.161623   0.047632   0.313781  -0.033712
     3  H   -0.046473   0.000165   0.046105   0.000431   0.019147   0.004582
     4  C   -7.403157   0.013205  -1.330389  -0.043536  -1.842114  -1.370039
     5  H    0.008765   0.000019   0.005582   0.000155   0.076145   0.027800
     6  C   -2.125073   0.033021  -0.766219   0.055177  -2.769262  -4.536686
     7  C   17.738424   0.174923  -1.862798  -0.162848   0.055967   0.988442
     8  H    0.174923   0.494589   0.025599   0.000086   0.064853   0.070523
     9  C   -1.862798   0.025599   8.521983   0.534281   0.656284   0.208560
    10  H   -0.162848   0.000086   0.534281   0.543964   0.012471   0.002690
    11  C    0.055967   0.064853   0.656284   0.012471  14.118882   2.917220
    12  C    0.988442   0.070523   0.208560   0.002690   2.917220  16.569403
    13  C   -0.402862  -0.028321  -0.382262  -0.003194  -5.009278  -6.536515
    14  C    0.320784   0.024565   0.411996   0.006241  -0.852167   2.959353
    15  C    0.032688  -0.003934   0.083978   0.000000  -2.006007   0.623177
    16  C   -0.105123   0.000727   0.024284  -0.000146  -0.908514   2.382859
    17  H   -0.034064   0.000104  -0.005703   0.000007  -0.002371   0.023674
    18  C   -0.332139   0.011963   0.126868   0.003997   0.144080  -2.379047
    19  H    0.047143  -0.002800  -0.009944   0.000001   0.046031   0.030653
    20  C   -0.048022  -0.006586  -0.003011  -0.000271   0.280854  -2.706798
    21  C   -0.381674   0.004313   0.007407   0.000404   1.279747  -4.307838
    22  H   -0.000806   0.000000  -0.000252   0.000000   0.015117  -0.062920
    23  C    0.059479   0.003205   0.011748   0.000078  -0.449071   0.995110
    24  H    0.002014   0.000023  -0.001364   0.000000  -0.002628   0.020498
    25  H   -0.000171   0.000000   0.000016   0.000000  -0.001981   0.000818
    26  H   -0.000152   0.000000   0.000032   0.000000  -0.026907   0.009505
    27  H   -0.000414   0.000000  -0.000062   0.000000   0.012518  -0.010952
              13         14         15         16         17         18
     1  C    0.222482  -0.167006  -0.016134  -0.019817   0.004941  -0.092604
     2  C    0.076510   0.108732   0.054538   0.060758  -0.005887   0.065302
     3  H   -0.005256   0.003044  -0.000479   0.000048   0.000058   0.000608
     4  C    1.633326  -0.610098  -0.199419   0.132949   0.088699   0.006216
     5  H   -0.006350   0.007434  -0.007566  -0.007289  -0.000856   0.003966
     6  C    3.160932  -1.618279   0.088529  -0.944926  -0.023799  -0.248894
     7  C   -0.402862   0.320784   0.032688  -0.105123  -0.034064  -0.332139
     8  H   -0.028321   0.024565  -0.003934   0.000727   0.000104   0.011963
     9  C   -0.382262   0.411996   0.083978   0.024284  -0.005703   0.126868
    10  H   -0.003194   0.006241   0.000000  -0.000146   0.000007   0.003997
    11  C   -5.009278  -0.852167  -2.006007  -0.908514  -0.002371   0.144080
    12  C   -6.536515   2.959353   0.623177   2.382859   0.023674  -2.379047
    13  C   15.926929  -4.204285   1.124380  -1.286218   0.344273  -0.049378
    14  C   -4.204285  11.692101  -0.475415   1.089096   0.011883  -1.172078
    15  C    1.124380  -0.475415   9.650202   0.332203  -0.006721   0.601265
    16  C   -1.286218   1.089096   0.332203   8.203605  -0.022084  -0.080607
    17  H    0.344273   0.011883  -0.006721  -0.022084   0.464684   0.000366
    18  C   -0.049378  -1.172078   0.601265  -0.080607   0.000366   9.337465
    19  H    0.030490   0.328388   0.005687  -0.000830  -0.000037  -0.127632
    20  C    1.287798  -0.462363  -1.671162  -0.965804   0.000667  -0.946827
    21  C    0.616408  -1.157484  -2.331065  -1.462324  -0.017742   0.794142
    22  H    0.023967  -0.006199  -0.001383   0.316716  -0.004822   0.000033
    23  C   -0.368225   0.316607  -0.165223  -0.119705  -0.000334   0.384965
    24  H   -0.002296  -0.084814   0.004090  -0.000953   0.000000   0.438449
    25  H    0.004932  -0.001076  -0.098541   0.024149  -0.000001  -0.010119
    26  H   -0.014600   0.010181  -0.073903   0.011003  -0.000217   0.001985
    27  H    0.001759  -0.024234  -0.000126  -0.002299   0.000000   0.030791
              19         20         21         22         23         24
     1  C    0.002772   0.007610  -0.019057   0.000057  -0.002786   0.000284
     2  C   -0.000939   0.009295   0.041619  -0.000078  -0.002665  -0.000349
     3  H   -0.000005  -0.000083   0.000314   0.000000   0.000010   0.000000
     4  C   -0.011057   0.045543   0.248750   0.000244  -0.041502   0.000584
     5  H    0.000003  -0.001486   0.009339   0.000029  -0.000248  -0.000001
     6  C    0.007617   0.851683   0.825090   0.016325  -0.292754   0.002644
     7  C    0.047143  -0.048022  -0.381674  -0.000806   0.059479   0.002014
     8  H   -0.002800  -0.006586   0.004313   0.000000   0.003205   0.000023
     9  C   -0.009944  -0.003011   0.007407  -0.000252   0.011748  -0.001364
    10  H    0.000001  -0.000271   0.000404   0.000000   0.000078   0.000000
    11  C    0.046031   0.280854   1.279747   0.015117  -0.449071  -0.002628
    12  C    0.030653  -2.706798  -4.307838  -0.062920   0.995110   0.020498
    13  C    0.030490   1.287798   0.616408   0.023967  -0.368225  -0.002296
    14  C    0.328388  -0.462363  -1.157484  -0.006199   0.316607  -0.084814
    15  C    0.005687  -1.671162  -2.331065  -0.001383  -0.165223   0.004090
    16  C   -0.000830  -0.965804  -1.462324   0.316716  -0.119705  -0.000953
    17  H   -0.000037   0.000667  -0.017742  -0.004822  -0.000334   0.000000
    18  C   -0.127632  -0.946827   0.794142   0.000033   0.384965   0.438449
    19  H    0.453610   0.003251   0.003520   0.000000  -0.018513  -0.005432
    20  C    0.003251   9.700514   0.388502   0.014964  -0.076348  -0.016846
    21  C    0.003520   0.388502  11.787635   0.035366  -0.674113   0.004312
    22  H    0.000000   0.014964   0.035366   0.471687   0.000351   0.000000
    23  C   -0.018513  -0.076348  -0.674113   0.000351   6.616285  -0.006685
    24  H   -0.005432  -0.016846   0.004312   0.000000  -0.006685   0.468123
    25  H    0.000050   0.419667   0.051091  -0.000011  -0.044775  -0.000177
    26  H    0.000004   0.066237   0.348216  -0.005666   0.014088  -0.000002
    27  H   -0.000220  -0.048398   0.017742   0.000000   0.375380  -0.005297
              25         26         27
     1  C   -0.000005  -0.000014   0.000001
     2  C    0.000025   0.000039   0.000001
     3  H    0.000000   0.000000   0.000000
     4  C    0.000097  -0.000584   0.000067
     5  H    0.000000  -0.000001   0.000000
     6  C    0.001182   0.000379   0.002078
     7  C   -0.000171  -0.000152  -0.000414
     8  H    0.000000   0.000000   0.000000
     9  C    0.000016   0.000032  -0.000062
    10  H    0.000000   0.000000   0.000000
    11  C   -0.001981  -0.026907   0.012518
    12  C    0.000818   0.009505  -0.010952
    13  C    0.004932  -0.014600   0.001759
    14  C   -0.001076   0.010181  -0.024234
    15  C   -0.098541  -0.073903  -0.000126
    16  C    0.024149   0.011003  -0.002299
    17  H   -0.000001  -0.000217   0.000000
    18  C   -0.010119   0.001985   0.030791
    19  H    0.000050   0.000004  -0.000220
    20  C    0.419667   0.066237  -0.048398
    21  C    0.051091   0.348216   0.017742
    22  H   -0.000011  -0.005666   0.000000
    23  C   -0.044775   0.014088   0.375380
    24  H   -0.000177  -0.000002  -0.005297
    25  H    0.471669   0.001603  -0.005436
    26  H    0.001603   0.474478  -0.000013
    27  H   -0.005436  -0.000013   0.470731
 Mulliken charges:
               1
     1  C   -1.035211
     2  C   -0.121081
     3  H    0.154034
     4  C   -0.561962
     5  H    0.156015
     6  C    1.040407
     7  C   -0.674195
     8  H    0.159074
     9  C   -0.169921
    10  H    0.153893
    11  C    0.402533
    12  C    0.230313
    13  C   -0.155146
    14  C   -0.454908
    15  C    0.456341
    16  C   -0.651757
    17  H    0.185282
    18  C   -0.513135
    19  H    0.218191
    20  C   -0.122582
    21  C   -0.112619
    22  H    0.187281
    23  C   -0.514357
    24  H    0.185824
    25  H    0.186995
    26  H    0.184310
    27  H    0.186382
 Sum of Mulliken charges =  -1.00000
 Mulliken charges with hydrogens summed into heavy atoms:
               1
     1  C   -1.035211
     2  C    0.032953
     4  C   -0.405947
     6  C    1.040407
     7  C   -0.515120
     9  C   -0.016028
    11  C    0.402533
    12  C    0.230313
    13  C    0.030135
    14  C   -0.236717
    15  C    0.456341
    16  C   -0.464477
    18  C   -0.327311
    20  C    0.064413
    21  C    0.071691
    23  C   -0.327975
 APT charges:
               1
     1  C   -1.987689
     2  C    0.981205
     3  H   -0.240564
     4  C    0.965056
     5  H   -1.079135
     6  C   -0.959421
     7  C   -1.153511
     8  H    1.586963
     9  C   -0.503127
    10  H    2.024083
    11  C   -0.271685
    12  C   -1.336159
    13  C   -0.149566
    14  C   -0.525595
    15  C   -0.126045
    16  C   -0.392573
    17  H   -0.125768
    18  C   -0.468819
    19  H    0.503702
    20  C   -1.321209
    21  C   -0.020156
    22  H   -0.112031
    23  C   -0.705908
    24  H    1.514896
    25  H    0.655142
    26  H    0.613976
    27  H    1.633937
 Sum of APT charges =  -1.00000
 APT charges with hydrogens summed into heavy atoms:
               1
     1  C   -1.987689
     2  C    0.740641
     4  C   -0.114079
     6  C   -0.959421
     7  C    0.433451
     9  C    1.520957
    11  C   -0.271685
    12  C   -1.336159
    13  C   -0.275333
    14  C   -0.021893
    15  C   -0.126045
    16  C   -0.504604
    18  C    1.046077
    20  C   -0.666067
    21  C    0.593820
    23  C    0.928030
 Electronic spatial extent (au):  <R**2>=          41133.1657
 Charge=             -1.0000 electrons
 Dipole moment (field-independent basis, Debye):
    X=            -29.3409    Y=            -33.9537    Z=            -24.9853  Tot=             51.3615
 Quadrupole moment (field-independent basis, Debye-Ang):
   XX=           -278.5594   YY=           -334.9753   ZZ=           -231.8238
   XY=           -202.1555   XZ=           -155.8220   YZ=           -180.0640
 Traceless Quadrupole moment (field-independent basis, Debye-Ang):
   XX=              3.2268   YY=            -53.1892   ZZ=             49.9624
   XY=           -202.1555   XZ=           -155.8220   YZ=           -180.0640
 Octapole moment (field-independent basis, Debye-Ang**2):
  XXX=          -2108.1892  YYY=          -4186.7741  ZZZ=          -1728.8740  XYY=          -1676.4560
  XXY=          -2065.5456  XXZ=          -1324.3817  XZZ=          -1145.5786  YZZ=          -1802.5933
  YYZ=          -1652.8440  XYZ=          -1072.4105
 Hexadecapole moment (field-independent basis, Debye-Ang**3):
 XXXX=         -16278.6843 YYYY=         -57155.0229 ZZZZ=         -12233.0529 XXXY=         -15498.2413
 XXXZ=         -10217.1715 YYYX=         -16637.2057 YYYZ=         -18096.1680 ZZZX=          -8244.4457
 ZZZY=         -13201.5672 XXYY=         -17036.4789 XXZZ=          -8166.6011 YYZZ=         -15882.8639
 XXYZ=          -9401.1709 YYXZ=          -8570.4049 ZZXY=          -8221.5175
 N-N= 9.419565590389D+02 E-N=-3.328146971851D+03  KE= 6.138577990882D+02
  Exact polarizability:       0.000       0.000       0.000       0.000       0.000       0.000
 Approx polarizability:     291.986       4.326     266.931      18.728     -51.676     213.627
 D2PCM: PCM CHGder 2nd derivatives, FixD1E=F FixD2E=F DoIter=F DoCFld=F I1PDM=0
 Calling FoFJK, ICntrl=    100127 FMM=F ISym2X=0 I1Cent= 0 IOpClX= 0 NMat=1 NMatS=1 NMatT=0.
 -------------------------------------------------------------------
 Center     Atomic                   Forces (Hartrees/Bohr)
 Number     Number              X              Y              Z
 -------------------------------------------------------------------
      1        6           0.073428551   -0.026345326    0.032717247
      2        6          -0.026989604    0.021089833   -0.009536825
      3        1          -0.001065207   -0.002630289   -0.001205439
      4        6          -0.002769105   -0.010235025   -0.003565226
      5        1          -0.004798946    0.000453761   -0.002390460
      6        6          -0.002482059    0.001198484   -0.001691749
      7        6           0.001139368    0.010813400    0.003094212
      8        1          -0.004225103    0.002788964   -0.001679172
      9        6          -0.031313240   -0.000382325   -0.016626795
     10        1           0.000105342    0.002980745    0.000742960
     11        6           0.004048635   -0.001091380    0.002012355
     12        6          -0.001758914   -0.000078042    0.000049075
     13        6          -0.002334740    0.000442077   -0.000773966
     14        6           0.000350271    0.000164694   -0.000332641
     15        6          -0.000174557    0.000159329   -0.000155295
     16        6           0.000501664   -0.000439168   -0.000036775
     17        1           0.000256881    0.000275969   -0.000090799
     18        6           0.000067916    0.000073677   -0.000091712
     19        1          -0.000382046   -0.000423844    0.000493034
     20        6          -0.000138282    0.000157258   -0.000127515
     21        6          -0.000782940    0.000527207   -0.000499289
     22        1          -0.000349933    0.000013974    0.000027905
     23        6          -0.000142339    0.000169375   -0.000081746
     24        1           0.000083533   -0.000021702   -0.000042126
     25        1          -0.000107668    0.000115799   -0.000090004
     26        1          -0.000118200    0.000104315   -0.000024624
     27        1          -0.000049280    0.000118240   -0.000094630
 -------------------------------------------------------------------
 Cartesian Forces:  Max     0.073428551 RMS     0.011139551
 FormGI is forming the generalized inverse of G from B-inverse, IUseBI=4.

 GradGradGradGradGradGradGradGradGradGradGradGradGradGradGradGradGradGrad
 Berny optimization.
 Internal  Forces:  Max     0.050691653 RMS     0.006662907
 Search for a local minimum.
 Step number   1 out of a maximum of  153
 All quantities printed in internal units (Hartrees-Bohrs-Radians)
 Mixed Optimization -- RFO/linear search
 Second derivative matrix not updated -- analytic derivatives used.
 ITU=  0
     Eigenvalues ---    0.00527   0.01025   0.01420   0.01506   0.01695
     Eigenvalues ---    0.01753   0.01809   0.01967   0.02030   0.02202
     Eigenvalues ---    0.02259   0.02353   0.02381   0.02399   0.02478
     Eigenvalues ---    0.02549   0.02607   0.02749   0.02790   0.02815
     Eigenvalues ---    0.02853   0.02993   0.03657   0.03964   0.10664
     Eigenvalues ---    0.10829   0.11117   0.11176   0.11399   0.11790
     Eigenvalues ---    0.11857   0.12090   0.12134   0.12239   0.12285
     Eigenvalues ---    0.17638   0.17905   0.18439   0.18710   0.18912
     Eigenvalues ---    0.19277   0.19604   0.19915   0.20069   0.20206
     Eigenvalues ---    0.22528   0.26798   0.28416   0.28479   0.32070
     Eigenvalues ---    0.35241   0.35368   0.35747   0.35916   0.35995
     Eigenvalues ---    0.36188   0.36251   0.36316   0.36425   0.36475
     Eigenvalues ---    0.36566   0.37464   0.40276   0.40593   0.41936
     Eigenvalues ---    0.42955   0.44192   0.45738   0.46397   0.50243
     Eigenvalues ---    0.50406   0.50610   0.51815   0.52628   0.52718
 RFO step:  Lambda=-2.50105763D-02 EMin= 5.26635482D-03
 Linear search not attempted -- first point.
 Maximum step size (   0.300) exceeded in Quadratic search.
    -- Step size scaled by   0.919
 Iteration  1 RMS(Cart)=  0.02828502 RMS(Int)=  0.00165930
 Iteration  2 RMS(Cart)=  0.00241970 RMS(Int)=  0.00053529
 Iteration  3 RMS(Cart)=  0.00000242 RMS(Int)=  0.00053529
 Iteration  4 RMS(Cart)=  0.00000000 RMS(Int)=  0.00053529
 Variable       Old X    -DE/DX   Delta X   Delta X   Delta X     New X
                                 (Linear)    (Quad)   (Total)
    R1        2.59395   0.02686   0.00000   0.06157   0.06278   2.65673
    R2        2.59707   0.02637   0.00000   0.06112   0.06233   2.65939
    R3        2.04896   0.00234   0.00000   0.00883   0.00883   2.05779
    R4        2.64275   0.00794   0.00000  -0.00155  -0.00155   2.64120
    R5        2.05058   0.00374   0.00000   0.00448   0.00448   2.05506
    R6        2.64296  -0.00233   0.00000  -0.00425  -0.00549   2.63748
    R7        2.64597  -0.00276   0.00000  -0.00472  -0.00595   2.64002
    R8        2.81447   0.00094   0.00000  -0.00223  -0.00223   2.81224
    R9        2.05098   0.00366   0.00000   0.00408   0.00408   2.05506
   R10        2.63928   0.00808   0.00000  -0.00118  -0.00116   2.63812
   R11        2.04889   0.00232   0.00000   0.00889   0.00889   2.05778
   R12        2.70914   0.00120   0.00000   0.00342   0.00343   2.71257
   R13        2.60132   0.00168   0.00000   0.00303   0.00304   2.60436
   R14        2.68874  -0.00013   0.00000   0.00035   0.00035   2.68909
   R15        2.69293   0.00083   0.00000   0.00097   0.00097   2.69390
   R16        2.67107   0.00067   0.00000   0.00012   0.00012   2.67119
   R17        2.05002  -0.00025   0.00000  -0.00019  -0.00019   2.04982
   R18        2.59095   0.00033   0.00000   0.00026   0.00026   2.59121
   R19        2.04644  -0.00009   0.00000  -0.00030  -0.00030   2.04614
   R20        2.68456   0.00050   0.00000   0.00084   0.00084   2.68540
   R21        2.68265  -0.00018   0.00000  -0.00021  -0.00021   2.68244
   R22        2.58579   0.00048   0.00000   0.00089   0.00088   2.58667
   R23        2.04824   0.00029   0.00000   0.00066   0.00066   2.04890
   R24        2.67350   0.00034   0.00000   0.00049   0.00049   2.67399
   R25        2.04850   0.00007   0.00000   0.00015   0.00015   2.04866
   R26        2.58757   0.00016   0.00000   0.00030   0.00030   2.58787
   R27        2.05066   0.00016   0.00000   0.00033   0.00033   2.05099
   R28        2.05034   0.00015   0.00000   0.00019   0.00019   2.05053
   R29        2.04835   0.00015   0.00000   0.00033   0.00033   2.04868
    A1        2.18859  -0.05069   0.00000  -0.19992  -0.19626   1.99232
    A2        2.13655  -0.01098   0.00000  -0.04854  -0.04906   2.08749
    A3        2.03833   0.02608   0.00000   0.11532   0.11636   2.15470
    A4        2.10830  -0.01510   0.00000  -0.06678  -0.06730   2.04099
    A5        2.08939   0.00352   0.00000   0.00848   0.00923   2.09862
    A6        2.10815   0.00088   0.00000  -0.00094  -0.00243   2.10572
    A7        2.08560  -0.00440   0.00000  -0.00755  -0.00681   2.07879
    A8        2.08458  -0.00333   0.00000  -0.02875  -0.03154   2.05303
    A9        2.09239   0.00209   0.00000   0.01458   0.01597   2.10837
   A10        2.10554   0.00123   0.00000   0.01416   0.01556   2.12110
   A11        2.08758  -0.00438   0.00000  -0.00681  -0.00608   2.08150
   A12        2.10766   0.00080   0.00000  -0.00169  -0.00317   2.10449
   A13        2.08786   0.00358   0.00000   0.00851   0.00925   2.09711
   A14        2.03905   0.02626   0.00000   0.11597   0.11703   2.15608
   A15        2.13589  -0.01106   0.00000  -0.04868  -0.04921   2.08667
   A16        2.10823  -0.01519   0.00000  -0.06728  -0.06781   2.04042
   A17        2.12244   0.00042   0.00000   0.00226   0.00226   2.12469
   A18        2.07731   0.00217   0.00000   0.00665   0.00665   2.08396
   A19        2.08343  -0.00260   0.00000  -0.00891  -0.00891   2.07452
   A20        2.14559  -0.00134   0.00000  -0.00466  -0.00466   2.14093
   A21        2.07372   0.00172   0.00000   0.00600   0.00600   2.07973
   A22        2.06348  -0.00038   0.00000  -0.00132  -0.00133   2.06215
   A23        2.12085   0.00102   0.00000   0.00402   0.00403   2.12487
   A24        2.07925  -0.00080   0.00000  -0.00325  -0.00325   2.07600
   A25        2.08278  -0.00022   0.00000  -0.00076  -0.00076   2.08202
   A26        2.11131   0.00035   0.00000   0.00157   0.00157   2.11287
   A27        2.08495  -0.00093   0.00000  -0.00518  -0.00518   2.07977
   A28        2.08684   0.00059   0.00000   0.00362   0.00362   2.09046
   A29        2.08370   0.00013   0.00000   0.00015   0.00015   2.08385
   A30        2.08970  -0.00005   0.00000  -0.00036  -0.00036   2.08934
   A31        2.10970  -0.00008   0.00000   0.00021   0.00021   2.10991
   A32        2.09695   0.00056   0.00000   0.00216   0.00216   2.09910
   A33        2.08402  -0.00008   0.00000  -0.00055  -0.00055   2.08347
   A34        2.10213  -0.00048   0.00000  -0.00163  -0.00162   2.10050
   A35        2.10491   0.00001   0.00000  -0.00063  -0.00063   2.10428
   A36        2.09107  -0.00004   0.00000   0.00009   0.00009   2.09115
   A37        2.08718   0.00003   0.00000   0.00055   0.00055   2.08773
   A38        2.10969  -0.00001   0.00000   0.00045   0.00045   2.11013
   A39        2.06685   0.00010   0.00000   0.00007   0.00007   2.06692
   A40        2.10662  -0.00008   0.00000  -0.00051  -0.00051   2.10611
   A41        2.10116  -0.00066   0.00000  -0.00296  -0.00296   2.09819
   A42        2.07169   0.00030   0.00000   0.00161   0.00162   2.07330
   A43        2.11032   0.00036   0.00000   0.00135   0.00135   2.11167
   A44        2.09275  -0.00009   0.00000  -0.00025  -0.00025   2.09249
   A45        2.09037   0.00008   0.00000   0.00039   0.00039   2.09076
   A46        2.10000   0.00000   0.00000  -0.00014  -0.00014   2.09986
    D1        3.13882   0.00001   0.00000   0.00019   0.00017   3.13899
    D2        0.00113  -0.00009   0.00000  -0.00005  -0.00010   0.00103
    D3       -0.00382  -0.00004   0.00000  -0.00208  -0.00209  -0.00591
    D4        3.13127   0.00013   0.00000  -0.00070  -0.00064   3.13063
    D5        3.13443   0.00005   0.00000   0.00057   0.00060   3.13503
    D6        0.00310   0.00012   0.00000   0.00239   0.00238   0.00549
    D7       -0.00333  -0.00006   0.00000   0.00030   0.00031  -0.00303
    D8       -3.13466   0.00001   0.00000   0.00212   0.00209  -3.13257
    D9       -0.00442  -0.00008   0.00000  -0.00273  -0.00266  -0.00708
   D10       -3.10663  -0.00011   0.00000  -0.00284  -0.00276  -3.10939
   D11       -3.13577  -0.00005   0.00000  -0.00101  -0.00098  -3.13675
   D12        0.04521  -0.00009   0.00000  -0.00111  -0.00109   0.04412
   D13       -3.12550  -0.00007   0.00000   0.00038   0.00045  -3.12505
   D14        0.00160  -0.00002   0.00000   0.00071   0.00080   0.00240
   D15       -0.02360  -0.00002   0.00000   0.00048   0.00055  -0.02304
   D16        3.10350   0.00003   0.00000   0.00082   0.00090   3.10441
   D17       -2.17123  -0.00022   0.00000  -0.01119  -0.01123  -2.18246
   D18        0.97519  -0.00029   0.00000  -0.01262  -0.01267   0.96252
   D19        1.01023  -0.00015   0.00000  -0.01031  -0.01026   0.99996
   D20       -2.12654  -0.00021   0.00000  -0.01174  -0.01170  -2.13824
   D21        0.00233   0.00017   0.00000   0.00194   0.00202   0.00435
   D22       -3.13286  -0.00001   0.00000   0.00053   0.00055  -3.13231
   D23        3.12943   0.00016   0.00000   0.00215   0.00224   3.13167
   D24       -0.00576  -0.00002   0.00000   0.00074   0.00078  -0.00499
   D25        0.07097  -0.00009   0.00000  -0.00077  -0.00077   0.07021
   D26       -3.10140  -0.00006   0.00000  -0.00019  -0.00019  -3.10159
   D27       -3.07546  -0.00001   0.00000   0.00071   0.00070  -3.07476
   D28        0.03536   0.00002   0.00000   0.00128   0.00128   0.03664
   D29        3.11214   0.00012   0.00000   0.00183   0.00183   3.11397
   D30       -0.00263   0.00010   0.00000   0.00149   0.00148  -0.00115
   D31       -0.02473   0.00005   0.00000   0.00040   0.00040  -0.02433
   D32       -3.13951   0.00003   0.00000   0.00006   0.00006  -3.13945
   D33        3.13830   0.00009   0.00000   0.00162   0.00161   3.13991
   D34        0.01158   0.00001   0.00000   0.00060   0.00060   0.01218
   D35        0.02731   0.00002   0.00000   0.00092   0.00092   0.02823
   D36       -3.09941  -0.00005   0.00000  -0.00010  -0.00009  -3.09950
   D37        3.13612  -0.00006   0.00000  -0.00166  -0.00166   3.13446
   D38       -0.01908  -0.00007   0.00000  -0.00178  -0.00178  -0.02086
   D39       -0.03479  -0.00005   0.00000  -0.00118  -0.00118  -0.03597
   D40        3.09319  -0.00006   0.00000  -0.00130  -0.00130   3.09190
   D41       -0.00325  -0.00007   0.00000  -0.00161  -0.00161  -0.00486
   D42       -3.13079   0.00001   0.00000  -0.00011  -0.00011  -3.13090
   D43        3.11147  -0.00005   0.00000  -0.00130  -0.00130   3.11017
   D44       -0.01607   0.00003   0.00000   0.00019   0.00019  -0.01588
   D45       -0.00140   0.00002   0.00000   0.00005   0.00005  -0.00135
   D46       -3.13537  -0.00001   0.00000  -0.00019  -0.00019  -3.13557
   D47        3.12530   0.00008   0.00000   0.00100   0.00100   3.12631
   D48       -0.00867   0.00005   0.00000   0.00075   0.00075  -0.00791
   D49        0.01707   0.00004   0.00000   0.00051   0.00051   0.01758
   D50       -3.13238   0.00003   0.00000   0.00055   0.00055  -3.13183
   D51       -3.11076   0.00005   0.00000   0.00063   0.00063  -3.11013
   D52        0.02298   0.00004   0.00000   0.00067   0.00067   0.02365
   D53       -0.00857  -0.00001   0.00000   0.00040   0.00040  -0.00817
   D54        3.13975  -0.00001   0.00000   0.00019   0.00019   3.13994
   D55        3.11921  -0.00002   0.00000   0.00028   0.00028   3.11949
   D56       -0.01565  -0.00002   0.00000   0.00007   0.00006  -0.01559
   D57        0.02008   0.00007   0.00000   0.00126   0.00125   0.02133
   D58       -3.12840   0.00007   0.00000   0.00147   0.00147  -3.12693
   D59       -3.13572  -0.00001   0.00000  -0.00025  -0.00025  -3.13596
   D60       -0.00100  -0.00001   0.00000  -0.00003  -0.00003  -0.00103
   D61       -0.01737  -0.00005   0.00000  -0.00080  -0.00080  -0.01817
   D62        3.13627  -0.00003   0.00000  -0.00051  -0.00051   3.13576
   D63        3.11662  -0.00002   0.00000  -0.00055  -0.00055   3.11607
   D64       -0.01292   0.00000   0.00000  -0.00027  -0.00027  -0.01319
   D65        0.00926   0.00001   0.00000   0.00051   0.00051   0.00977
   D66        3.13874   0.00000   0.00000   0.00022   0.00022   3.13896
   D67       -3.12430   0.00003   0.00000   0.00046   0.00046  -3.12383
   D68        0.00518   0.00001   0.00000   0.00018   0.00018   0.00536
         Item               Value     Threshold  Converged?
 Maximum Force            0.050692     0.000015     NO 
 RMS     Force            0.006663     0.000010     NO 
 Maximum Displacement     0.242050     0.000060     NO 
 RMS     Displacement     0.028628     0.000040     NO 
 Predicted change in Energy=-1.355302D-02
 GradGradGradGradGradGradGradGradGradGradGradGradGradGradGradGradGradGrad

                          Input orientation:                          
 ---------------------------------------------------------------------
 Center     Atomic      Atomic             Coordinates (Angstroms)
 Number     Number       Type             X           Y           Z
 ---------------------------------------------------------------------
      1          6           0        6.284821    6.979172    5.297620
      2          6           0        5.391117    6.125750    4.627198
      3          1           0        5.641018    5.072786    4.506378
      4          6           0        4.174267    6.553575    4.088952
      5          1           0        3.524862    5.848930    3.574764
      6          6           0        3.781936    7.889173    4.190000
      7          6           0        4.642219    8.768865    4.851642
      8          1           0        4.355580    9.812361    4.959311
      9          6           0        5.849628    8.314611    5.385241
     10          1           0        6.469989    9.049315    5.896246
     11          6           0        2.468907    8.340313    3.654199
     12          6           0        2.368460    9.415605    2.708620
     13          6           0        1.315210    7.715664    4.076263
     14          6           0        3.509615   10.063719    2.158478
     15          6           0        1.079148    9.835552    2.268717
     16          6           0        0.039842    8.125373    3.624991
     17          1           0        1.389363    6.904259    4.792322
     18          6           0        3.375362   11.086859    1.255495
     19          1           0        4.497575    9.731202    2.451323
     20          6           0        0.973476   10.905379    1.339364
     21          6           0       -0.079287    9.171127    2.749866
     22          1           0       -0.843289    7.612984    3.989809
     23          6           0        2.092510   11.522429    0.847043
     24          1           0        4.258656   11.562706    0.844838
     25          1           0       -0.016169   11.218311    1.022141
     26          1           0       -1.053262    9.504052    2.406413
     27          1           0        2.000870   12.336109    0.136524
 ---------------------------------------------------------------------
                    Distance matrix (angstroms):
                    1          2          3          4          5
     1  C    0.000000
     2  C    1.405881   0.000000
     3  H    2.162141   1.088936   0.000000
     4  C    2.469099   1.397665   2.125639   0.000000
     5  H    3.444279   2.160360   2.438939   1.087493   0.000000
     6  C    2.884330   2.426987   3.389442   1.395692   2.146437
     7  C    2.469826   2.756316   3.844191   2.389180   3.377117
     8  H    3.444327   3.843662   4.931640   3.377882   4.279702
     9  C    1.407291   2.361350   3.365316   2.754714   3.842128
    10  H    2.162899   3.364770   4.293217   3.842573   4.930063
    11  C    4.372041   3.793458   4.633059   2.507926   2.707091
    12  C    5.289330   4.862154   5.727272   3.654787   3.848199
    13  C    5.170219   4.409577   5.087476   3.086230   2.935772
    14  C    5.202923   5.014203   5.913115   4.060739   4.446408
    15  C    6.665748   6.157771   6.964318   4.864606   4.855969
    16  C    6.565915   5.799918   6.439589   4.447390   4.162941
    17  H    4.922037   4.080120   4.638170   2.893682   2.675168
    18  C    6.455759   6.328053   7.202119   5.405312   5.730380
    19  H    4.343884   4.304897   5.218387   3.589383   4.156961
    20  C    7.700213   7.291794   8.113881   6.061641   6.088863
    21  C    7.197055   6.536361   7.252836   5.170827   4.970647
    22  H    7.274754   6.440958   6.983243   5.129136   4.729153
    23  C    7.617368   7.368482   8.220738   6.287543   6.456058
    24  H    6.703834   6.719315   7.578711   5.968483   6.374808
    25  H    8.715073   8.256474   9.050478   6.980319   6.919902
    26  H    8.281399   7.607551   8.298154   6.234044   5.973623
    27  H    8.584051   8.380244   9.225084   7.333692   7.498502
                    6          7          8          9         10
     6  C    0.000000
     7  C    1.397037   0.000000
     8  H    2.149316   1.087492   0.000000
     9  C    2.425892   1.396034   2.157974   0.000000
    10  H    3.388633   2.123816   2.435326   1.088928   0.000000
    11  C    1.488172   2.518096   2.725761   3.798216   4.640918
    12  C    2.553898   3.190736   3.028477   4.527142   5.207463
    13  C    2.475435   3.574833   3.797336   4.757426   5.626963
    14  C    2.988292   3.195711   2.936580   4.352819   4.874807
    15  C    3.845099   4.528222   4.239675   5.897751   6.545098
    16  C    3.791872   4.806311   4.822025   6.073542   6.881792
    17  H    2.656549   3.749846   4.157329   4.715359   5.624293
    18  C    4.359107   4.462096   4.037750   5.555372   5.938424
    19  H    2.632149   2.590086   2.513315   3.527414   4.027764
    20  C    5.011095   5.510033   5.073198   6.845295   7.377114
    21  C    4.315835   5.183811   4.996086   6.544529   7.266882
    22  H    4.637786   5.671826   5.727602   6.872747   7.692957
    23  C    5.218244   5.488164   4.995655   6.708299   7.125522
    24  H    4.991213   4.899709   4.472358   5.804874   6.060021
    25  H    5.961887   6.508874   6.048983   7.866110   8.398315
    26  H    5.400755   6.241646   5.988983   7.611707   8.305723
    27  H    6.275197   6.475669   5.930703   7.650779   7.996902
                   11         12         13         14         15
    11  C    0.000000
    12  C    1.435431   0.000000
    13  C    1.378166   2.422722   0.000000
    14  C    2.508063   1.423005   3.742549   0.000000
    15  C    2.467130   1.425552   2.795867   2.443641   0.000000
    16  C    2.438731   2.815474   1.413532   4.236410   2.417508
    17  H    2.126733   3.406949   1.084720   4.627612   3.880374
    18  C    3.757520   2.432800   4.854473   1.371211   2.804459
    19  H    2.738060   2.167702   4.102471   1.082770   3.424891
    20  C    3.764882   2.457696   4.216833   2.794877   1.421053
    21  C    2.828668   2.460272   2.412949   3.745221   1.419485
    22  H    3.407680   3.899515   2.162669   5.320493   3.405544
    23  C    4.260007   2.824947   5.052080   2.419893   2.427677
    24  H    4.634601   3.414171   5.822861   2.129242   3.888414
    25  H    4.624522   3.432262   4.834125   3.880142   2.160022
    26  H    3.913685   3.436180   3.405347   4.603753   2.162412
    27  H    5.344107   3.908983   6.110661   3.395345   3.413005
                   16         17         18         19         20
    16  C    0.000000
    17  H    2.162173   0.000000
    18  C    5.050802   5.826447   0.000000
    19  H    4.881349   4.809664   2.127715   0.000000
    20  C    3.718090   5.301400   2.410192   3.877424   0.000000
    21  C    1.368808   3.386333   4.223479   4.620658   2.470922
    22  H    1.084230   2.476096   6.110753   5.947992   4.600583
    23  C    4.844629   6.114503   1.415013   3.400962   1.369441
    24  H    6.110883   6.746599   1.084102   2.447914   3.386597
    25  H    4.042800   5.899223   3.402090   4.962655   1.085336
    26  H    2.140224   4.291608   4.841756   5.555664   2.685141
    27  H    5.809073   7.180209   2.168398   4.286883   2.132921
                   21         22         23         24         25
    21  C    0.000000
    22  H    2.132831   0.000000
    23  C    3.723716   5.812027   0.000000
    24  H    5.307215   7.177812   2.166521   0.000000
    25  H    2.679549   4.742317   2.137680   4.292339   0.000000
    26  H    1.085093   2.475352   4.049860   5.907034   2.435253
    27  H    4.601491   6.726437   1.084117   2.489470   2.470271
                   26         27
    26  H    0.000000
    27  H    4.743487   0.000000
 Symmetry turned off by external request.
 Stoichiometry    C16H11(1-)
 Framework group  C1[X(C16H11)]
 Deg. of freedom    75
 Full point group                 C1      NOp   1
 Rotational constants (GHZ):           1.0783772           0.3835305           0.3022934
 Standard basis: 6-311+G(d,p) (5D, 7F)
   418 basis functions,   664 primitive gaussians,   434 cartesian basis functions
    54 alpha electrons       54 beta electrons
       nuclear repulsion energy       939.5629263948 Hartrees.
 NAtoms=   27 NActive=   27 NUniq=   27 SFac= 1.00D+00 NAtFMM=   60 NAOKFM=F Big=F
 Integral buffers will be    131072 words long.
 Raffenetti 2 integral format.
 Two-electron integral symmetry is turned off.
 ------------------------------------------------------------------------------
 Polarizable Continuum Model (PCM)
 =================================
 Model                : PCM.
 Atomic radii         : SMD-Coulomb.
 Polarization charges : Total charges.
 Charge compensation  : None.
 Solution method      : Matrix inversion.
 Cavity type          : VdW (van der Waals Surface) (Alpha=1.000).
 Cavity algorithm     : GePol (No added spheres)
                        Default sphere list used, NSphG=   27.
                        Lebedev-Laikov grids with approx.  5.0 points / Ang**2.
                        Smoothing algorithm: York/Karplus (Gamma=1.0000).
                        Polarization charges: spherical gaussians, with
                                              point-specific exponents (IZeta= 3).
                        Self-potential: point-specific (ISelfS= 7).
                        Self-field    : sphere-specific E.n sum rule (ISelfD= 2).
 1st derivatives      : Analytical E(r).r(x)/FMM algorithm (CHGder, D1EAlg=3).
                        Cavity 1st derivative terms included.
 Solvent              : TetraHydroFuran, Eps=   7.425700 Eps(inf)=   1.974025
 ------------------------------------------------------------------------------
 ------------------------------------------------------------------------------
 Atomic radii for non-electrostatic terms: SMD-CDS.
 ------------------------------------------------------------------------------
 Nuclear repulsion after PCM non-electrostatic terms =      939.5558795834 Hartrees.
 One-electron integrals computed using PRISM.
 NBasis=   418 RedAO= T EigKep=  1.12D-06  NBF=   418
 NBsUse=   414 1.00D-06 EigRej=  8.19D-07 NBFU=   414
 Initial guess from the checkpoint file:  "4-beta-nap-ph-anion-opt-freq-thf.chk"
 B after Tr=     0.016509   -0.004374   -0.000741
         Rot=    1.000000   -0.000165   -0.000157   -0.000340 Ang=  -0.05 deg.
 ExpMin= 4.38D-02 ExpMax= 4.56D+03 ExpMxC= 6.82D+02 IAcc=3 IRadAn=         5 AccDes= 0.00D+00
 Harris functional with IExCor= 1009 and IRadAn=       5 diagonalized for initial guess.
 HarFok:  IExCor= 1009 AccDes= 0.00D+00 IRadAn=         5 IDoV= 1 UseB2=F ITyADJ=14
 ICtDFT=  3500011 ScaDFX=  1.000000  1.000000  1.000000  1.000000
 FoFCou: FMM=F IPFlag=           0 FMFlag=      100000 FMFlg1=           0
[...]
 8,-0.01682327,-0.03349042,0.02672544,0.01292037,-0.18718152,0.10631926
 ,-0.01428365,0.01727072,-0.01069256,0.00032527,-0.00018955,-0.00030025
 ,-0.02822580,0.03943641,-0.02964884,-0.00059052,-0.00068541,0.00004701
 ,0.02831814,0.43673996,-0.00005379,0.00010270,0.00005532,-0.00005626,-
 0.00002559,-0.00007037,0.00000364,0.00001496,-0.00001452,-0.00009115,0
 .00001804,0.00001612,-0.00000887,-0.00004274,0.00000617,0.00025168,0.0
 0003301,0.00027498,-0.00011727,-0.00010219,-0.00016832,-0.00009814,0.0
 0011389,-0.00001098,0.00016491,-0.00001796,0.00001242,0.00000248,-0.00
 000456,-0.00001313,0.00379107,0.01134706,-0.00350541,-0.03766919,-0.00
 000172,0.00259396,-0.01514841,-0.00115071,-0.00145179,0.01413286,0.026
 15890,-0.02448981,-0.01223286,0.10681622,-0.15714127,0.01068903,-0.009
 19259,0.01476961,-0.00015477,-0.00050675,-0.00054673,0.02217112,-0.028
 00200,0.03214340,0.00051275,-0.00040646,-0.00118520,0.00548083,-0.2561
 3475,0.35601991,0.00002497,-0.00012361,-0.00016800,-0.00015946,0.00008
 742,-0.00006129,-0.00005261,0.00007902,-0.00003685,-0.00032833,-0.0007
 3768,0.00009277,0.00008615,0.00010432,-0.00004123,-0.00081294,-0.00003
 982,-0.00038041,0.00041498,0.00086311,-0.00019685,0.00015319,0.0000033
 5,-0.00002759,-0.00055794,0.00020778,0.00012325,-0.00012197,-0.0000264
 0,-0.00001479,-0.01043202,-0.01867919,0.01556141,-0.03697706,0.0061985
 4,-0.00839440,0.02340598,0.02646889,-0.02094459,-0.00750055,-0.0045324
 5,0.00294221,-0.24859426,-0.07732546,0.05118859,-0.13248856,0.04057003
 ,-0.03902139,-0.00489217,0.00149878,-0.00191346,-0.00855597,0.00760321
 ,-0.00677102,-0.00079014,-0.00061346,0.00070481,-0.00052961,-0.0177805
 4,0.01446802,0.69087537,0.00005847,-0.00014570,-0.00025290,0.00028296,
 0.00000739,0.00058076,0.00001979,-0.00006601,0.00007064,0.00049902,0.0
 0058807,-0.00038832,0.00005695,0.00022553,-0.00012252,0.00095399,-0.00
 135365,-0.00062464,-0.00042552,-0.00023462,-0.00025689,0.00012817,0.00
 013875,-0.00002911,-0.00007007,-0.00007731,0.00022345,0.00003123,0.000
 01796,0.00001753,-0.02417433,-0.03434646,0.02465349,-0.00797880,0.0363
 7064,-0.02871010,0.06500954,-0.00415174,0.01594536,-0.00360158,-0.0080
 3319,0.01184483,-0.05258411,-0.11791074,0.04185188,-0.01022771,-0.2679
 2802,0.16531807,0.00087924,0.00343291,0.00243445,-0.01138790,0.0089540
 4,-0.00909499,0.00074316,0.00035013,-0.00019479,-0.03310621,-0.0331307
 4,0.02833042,-0.02502129,0.49762032,-0.00005720,0.00011420,0.00018048,
 -0.00022353,-0.00006817,-0.00043277,-0.00001815,0.00005865,-0.00005068
 ,-0.00032760,-0.00046201,0.00038864,-0.00007776,-0.00021902,0.00009345
 ,-0.00074269,0.00021792,-0.00050458,0.00024085,0.00034004,0.00001715,-
 0.00011729,-0.00009553,0.00003039,-0.00005975,0.00004919,-0.00014801,-
 0.00004186,-0.00001583,-0.00001114,0.01962061,0.02510273,-0.02221650,0
 .00383057,-0.02658897,0.02790050,-0.05380785,0.01186269,-0.00720089,0.
 00218467,0.01167430,-0.00379280,0.02904191,0.03891447,-0.09508887,0.00
 410106,0.16919563,-0.19925750,-0.00159098,0.00200469,0.00329654,0.0088
 3947,-0.00771592,0.00595023,-0.00069567,-0.00044041,0.00026425,0.02770
 823,0.02945296,-0.01929702,0.06151885,-0.29962758,0.38379607,-0.000038
 96,0.00001439,0.00001431,-0.00006198,0.00003264,-0.00009084,-0.0000297
 2,0.00003728,-0.00000951,-0.00008044,-0.00010503,-0.00006871,-0.000002
 33,0.00000861,0.00004207,-0.00047284,-0.00095793,0.00055566,-0.0002547
 5,0.00031932,-0.00002655,-0.00000191,-0.00002879,0.00003099,-0.0000607
 9,-0.00001067,-0.00012854,-0.00005352,-0.00000155,-0.00003392,-0.00301
 144,0.00233761,-0.00268239,0.00017265,0.00076801,-0.00058184,-0.016927
 98,-0.01466625,0.01070079,-0.00004139,-0.00019352,0.00024174,0.0013853
 3,0.00094784,-0.00135478,-0.24743511,-0.11229312,0.07574026,0.00110127
 ,0.00031334,0.00015362,-0.00014686,0.00011095,-0.00010838,0.00000686,0
 .00001278,-0.00001984,0.00005274,-0.00007601,0.00004583,0.00639849,0.0
 0319043,-0.00241205,0.25870789,0.00001019,-0.00002077,-0.00003461,0.00
 001441,-0.00000235,0.00004801,0.00000278,-0.00000453,0.00000233,-0.000
 00645,0.00000663,-0.00002594,0.00002912,-0.00000777,-0.00002514,0.0003
 0058,0.00023168,-0.00018996,0.00012552,-0.00002979,0.00004915,0.000011
 83,0.00000025,-0.00001684,-0.00003636,-0.00000312,0.00005459,0.0000082
 1,0.00000282,0.00000226,0.00198273,0.00232931,0.00291234,0.00035354,-0
 .00072308,-0.00010323,0.00879058,0.00789842,-0.00310959,0.00000838,-0.
 00014123,-0.00059938,0.00161029,0.00081764,0.00706720,-0.11167306,-0.1
 1592602,0.05464355,-0.00033188,-0.00091604,-0.00177129,0.00018777,-0.0
 0006826,0.00016466,-0.00003546,0.00000746,0.00003112,-0.00112674,0.000
 07255,0.00000690,-0.02093959,-0.00644098,0.00738862,0.12038476,0.11491
 724,-0.00000112,-0.00002550,-0.00003702,0.00002707,0.00000668,0.000046
 88,-0.00000290,-0.00000210,0.00000737,0.00005183,0.00004736,-0.0000889
 4,0.00003337,0.00001017,0.00000072,-0.00013167,-0.00043917,0.00018040,
 -0.00004595,0.00006067,-0.00001111,0.00000925,-0.00001804,-0.00000707,
 -0.00003810,-0.00003580,-0.00001163,-0.00000767,0.00000583,-0.00000972
 ,-0.00262889,0.00317552,0.00286048,-0.00018084,-0.00010510,-0.00081037
 ,-0.00915318,-0.00475431,0.00664840,0.00002796,-0.00067096,-0.00032893
 ,-0.00153309,0.00703408,0.00342642,0.07547066,0.05481185,-0.07779853,0
 .00066834,-0.00177386,-0.00143476,-0.00017333,0.00016660,-0.00002033,0
 .00003232,0.00005304,0.00000758,0.00083685,0.00005111,0.00020736,0.017
 10350,0.00898692,-0.00147784,-0.08060121,-0.06349737,0.07185789,-0.000
 12328,0.00014431,0.00007533,-0.00000015,-0.00006224,-0.00015678,0.0000
 0258,0.00000808,-0.00000096,-0.00008546,0.00012643,0.00003248,-0.00003
 503,-0.00011142,0.00004629,0.00062321,-0.00019288,0.00067544,-0.000393
 93,-0.00031087,-0.00009884,-0.00013011,0.00015115,-0.00001189,0.000294
 55,-0.00003149,-0.00000751,0.00001220,-0.00000210,-0.00002804,0.008166
 90,0.01823655,-0.01510406,-0.05297523,-0.02272679,0.01843362,-0.025061
 66,-0.00159805,-0.00076668,0.02298798,0.06384304,-0.05494068,0.0142599
 4,-0.05594564,0.04754959,0.01515747,-0.01652516,0.01535388,-0.00033938
 ,-0.00024281,-0.00010236,-0.26857439,0.02181261,-0.02146073,0.00179840
 ,-0.00079751,0.00005393,-0.31216507,-0.07880065,0.05601744,0.01691176,
 0.02237663,-0.01759742,0.00023428,-0.00006565,0.00012359,0.67437625,0.
 00002342,-0.00008555,-0.00004181,0.00012895,0.00000592,0.00004034,0.00
 000526,-0.00001275,0.00000991,-0.00003200,0.00010380,0.00002528,0.0000
 0476,0.00001311,0.00001574,-0.00006486,-0.00022091,0.00000788,0.000069
 64,-0.00014504,0.00025949,0.00001581,-0.00006656,-0.00000290,-0.000121
 12,0.00004728,-0.00000193,0.00001896,0.00001064,0.00001719,0.00013147,
 -0.00003280,-0.00111445,-0.00372219,-0.00225915,-0.00285221,-0.0016363
 6,-0.00037011,0.00053309,0.02640623,-0.00550101,0.01062690,-0.02218594
 ,-0.01844786,0.01920244,0.00105774,-0.00189637,0.00152848,0.00000164,0
 .00008391,0.00006123,0.07371696,-0.11616934,0.04744341,-0.00021738,0.0
 0099823,0.00692791,-0.12874647,-0.15948690,0.07843452,0.00407435,0.002
 43706,0.00381086,0.00000259,-0.00065422,-0.00006888,0.03680603,0.49773
 295,-0.00000089,-0.00004159,-0.00005659,0.00000245,-0.00002541,0.00005
 879,-0.00001195,0.00000317,0.00001848,0.00005674,0.00003999,-0.0000830
 3,-0.00000068,-0.00000734,-0.00001758,0.00028249,-0.00027014,-0.000237
 79,-0.00005138,0.00007603,0.00017906,0.00004996,-0.00004473,-0.0000036
 1,-0.00007539,0.00001008,-0.00000249,-0.00001651,-0.00000178,-0.000004
 18,0.00002101,-0.00033617,-0.00034858,0.00125024,-0.00308980,-0.002609
 33,0.00083170,0.00081431,0.00003389,-0.02223060,0.01227981,-0.00442366
 ,0.01961630,0.01789858,-0.00925899,-0.00045071,0.00103800,-0.00115123,
 -0.00002561,0.00001437,0.00005205,-0.06774107,0.04598340,-0.10461229,0
 .00006446,0.00710005,0.00283178,0.10010059,0.08074779,-0.12699602,-0.0
 0358724,0.00398795,0.00264225,0.00005462,-0.00000075,-0.00065480,-0.01
 430977,-0.30807997,0.39913121,0.00000049,-0.00000968,0.00000019,0.0000
 1769,-0.00000189,0.00000602,0.00000273,-0.00000432,0.00000083,0.000007
 41,0.00001802,0.00000517,-0.00000051,0.00000172,0.00000007,-0.00002776
 ,-0.00001875,0.00002295,0.00000701,-0.00003033,0.00002081,0.00000154,-
 0.00000851,-0.00000551,-0.00001121,0.00000301,-0.00000128,0.00000543,0
 .00000175,0.00000086,0.00007289,-0.00002570,0.00000754,0.00123354,0.00
 121462,-0.00116217,0.00020653,-0.00002998,0.00005081,0.00651901,0.0032
 5677,-0.00288496,0.00019396,0.00065215,-0.00051207,-0.00010807,0.00009
 549,-0.00008235,0.00001447,0.00001173,-0.00000273,-0.24840705,-0.10282
 307,0.08811235,0.00066171,-0.00021563,0.00024634,-0.00362250,0.0027575
 4,-0.00248876,-0.00000536,-0.00022748,0.00019401,-0.00000999,-0.000020
 31,0.00001373,-0.01667862,-0.01372421,0.01181028,0.25974449,0.00001240
 ,0.00003458,0.00001531,-0.00001664,-0.00001565,-0.00004049,0.00000875,
 -0.00000589,-0.00000241,0.00002956,-0.00002313,0.00004273,-0.00000954,
 -0.00000706,0.00000976,-0.00014416,0.00017631,0.00007503,-0.00000751,-
 0.00000172,-0.00010301,-0.00002826,0.00000869,-0.00000032,0.00006917,-
 0.00001642,0.00000989,0.00001008,0.00000004,0.00000727,-0.00093312,0.0
 0025641,-0.00009380,0.00140614,0.00115793,0.00722806,-0.00022190,-0.00
 069980,-0.00008564,-0.02006761,-0.00542177,0.00839934,0.00028508,-0.00
 092417,0.00000711,0.00026735,-0.00017249,0.00027814,-0.00010766,-0.000
 07361,0.00002425,-0.10185364,-0.10530983,0.05763506,0.00020464,-0.0017
 2005,-0.00329434,0.00226121,0.00232960,0.00300662,0.00014540,-0.000026
 97,-0.00075421,-0.00001924,0.00004334,0.00006288,0.00908078,0.00768951
 ,-0.00410257,0.10973547,0.10332603,-0.00001143,0.00005161,0.00003009,-
 0.00009048,-0.00000175,-0.00005213,-0.00000394,0.00000579,-0.00000825,
 -0.00000502,-0.00009010,-0.00000049,-0.00000347,-0.00000442,0.00000370
 ,-0.00000015,0.00014405,0.00012108,-0.00001431,0.00009514,-0.00010818,
 0.00000519,0.00001657,0.00000514,0.00004682,-0.00001131,0.00001036,-0.
 00001369,-0.00000774,-0.00001661,0.00108914,0.00017170,0.00009569,-0.0
 0176544,0.00680615,0.00324786,-0.00009549,-0.00008725,-0.00066989,0.01
 755120,0.00932556,-0.00366354,-0.00036115,-0.00022649,-0.00066883,-0.0
 0004258,0.00003384,0.00006067,0.00008399,0.00005934,-0.00003363,0.0879
 8759,0.05707428,-0.08723186,-0.00002691,-0.00342711,-0.00248784,-0.001
 96669,0.00306244,0.00289543,0.00013507,-0.00052196,-0.00044427,0.00001
 083,0.00005318,0.00006614,-0.00887806,-0.00421657,0.00656669,-0.093793
 07,-0.06646374,0.08347574,-0.00000155,0.00000851,-0.00000259,-0.000021
 52,0.00000789,-0.00000835,-0.00000671,0.00000722,-0.00000085,-0.000017
 19,-0.00003109,-0.00002116,0.00000268,0.00000135,0.00000096,0.00006835
 ,0.00001928,-0.00002441,-0.00000743,0.00003786,-0.00000971,0.00000184,
 0.00000215,0.00000781,-0.00000836,0.00000239,-0.00000257,-0.00000826,-
 0.00000217,-0.00000250,-0.00020471,-0.00031812,0.00028494,0.00142267,-
 0.00013785,-0.00008262,0.00029328,0.00003566,0.00001109,0.00025218,-0.
 00022969,0.00025358,0.00006772,-0.00076847,0.00049635,0.00006025,0.000
 28431,-0.00024112,0.00001692,0.00001832,-0.00001313,-0.00185682,-0.003
 42229,0.00244017,-0.00004611,0.00011124,-0.00003017,-0.29263970,0.0742
 3058,-0.07629806,0.00081919,-0.00121425,0.00114812,0.00000102,0.000038
 84,-0.00003971,-0.01751689,0.00912231,-0.00893508,-0.00096670,0.000503
 18,-0.00042618,0.30906016,0.00000088,-0.00001760,0.00000903,0.00005193
 ,-0.00000394,-0.00000407,0.00001391,-0.00001024,-0.00000344,0.00004193
 ,0.00003787,0.00005202,-0.00001151,-0.00000782,0.00000723,-0.00013657,
 -0.00013147,0.00027891,0.00002697,-0.00008374,-0.00004308,-0.00001071,
 0.00001676,-0.00000712,0.00002829,-0.00000309,-0.00000311,0.00001217,0
 .00000211,0.00000624,0.00121212,-0.00004864,0.00013579,-0.00078493,-0.
 00065007,0.00512164,0.00017424,-0.00005014,-0.00004487,-0.00062336,-0.
 00113672,0.00000447,0.02127664,-0.00262652,0.00606854,-0.00020653,0.00
 012302,-0.00018322,-0.00004528,0.00000229,0.00002478,-0.00269908,0.002
 75888,0.00508805,0.00010251,-0.00039220,-0.00058240,0.07397308,-0.0735
 3061,0.03415164,0.00119018,-0.00068735,-0.00184526,-0.00002079,0.00005
 112,0.00009092,-0.01398993,0.00853414,-0.00404004,-0.00074714,0.000310
 03,-0.00017911,-0.07882289,0.06929577,-0.00000998,-0.00002229,-0.00001
 698,0.00000568,0.00003457,0.00003222,-0.00001158,0.00001118,-0.0000093
 9,-0.00013365,-0.00000195,-0.00006369,0.00000308,0.00000162,-0.0000015
 5,0.00021126,0.00034129,0.00000757,0.00001435,-0.00003422,-0.00000021,
 0.00000715,0.00001318,-0.00002213,-0.00003204,0.00002216,-0.00000157,-
 0.00000950,-0.00000325,-0.00000474,-0.00115038,-0.00001027,-0.00018588
 ,0.00108729,0.00517580,0.00097924,-0.00002450,-0.00006072,-0.00004949,
 0.00033519,-0.00036415,-0.00075193,-0.01870366,0.00573012,-0.00262198,
 0.00011726,-0.00009463,-0.00000624,0.00003963,0.00003472,0.00001637,0.
 00168983,0.00516372,0.00437418,-0.00006516,-0.00061980,-0.00055109,-0.
 07662613,0.03362149,-0.07007075,-0.00078715,-0.00211140,-0.00121388,0.
 00000459,0.00009256,0.00008509,0.01165713,-0.00274564,0.00755313,0.000
 52912,-0.00013221,0.00017459,0.08159308,-0.04110383,0.06496405,-0.0000
 0699,0.00000366,-0.00000844,-0.00001439,0.00000970,0.00000991,-0.00000
 776,0.00000797,0.00000024,-0.00002799,-0.00001031,-0.00003759,0.000002
 88,0.00000491,-0.00000361,0.00008228,0.00008537,0.00000324,0.00000045,
 0.00000986,0.00000209,0.00000371,0.00000940,0.00001030,-0.00000329,0.0
 0001182,-0.00000313,-0.00000709,-0.00000258,-0.00000293,0.00004979,-0.
 00049182,0.00048559,-0.00161174,-0.00324662,0.00228395,0.00192365,-0.0
 0023843,-0.00027411,-0.00092074,0.00089237,-0.00083333,-0.01816596,0.0
 0914414,-0.00916021,0.00213545,-0.00139118,0.00092623,-0.00005780,-0.0
 0009635,0.00008305,0.00009990,-0.00010043,0.00008331,-0.00029692,-0.00
 022206,0.00019117,0.00097528,0.00139337,-0.00093437,-0.28709536,0.0763
 4213,-0.08118562,0.00055580,0.00048403,0.00005312,0.00003489,-0.000176
 17,0.00016146,0.00001812,-0.00004979,0.00004273,0.00024261,-0.00064748
 ,0.00055079,0.30212201,0.00002709,0.00004173,0.00000876,-0.00003722,-0
 .00000798,0.00001297,0.00000818,-0.00001076,0.00000208,0.00011511,0.00
 005493,-0.00000329,-0.00000583,-0.00000225,0.00000557,0.00029689,-0.00
 033837,-0.00054164,-0.00016532,-0.00004313,-0.00002258,0.00000569,0.00
 001420,-0.00000833,0.00004189,-0.00007578,0.00003173,0.00000231,0.0000
 0447,0.00000003,-0.00042683,-0.00085058,-0.00014899,-0.00232636,0.0007
 8155,0.00340894,-0.00123599,0.00020387,0.00678330,-0.00068458,0.000299
 40,-0.00026385,-0.01328611,0.00698624,-0.00439645,0.02262031,-0.002217
 28,0.00707386,0.00111094,-0.00015666,0.00037759,-0.00012864,0.00009291
 ,-0.00017749,-0.00021440,0.00001428,0.00018115,-0.00092779,-0.00064909
 ,-0.00189572,0.07628781,-0.07533855,0.03725331,-0.00011638,-0.00137095
 ,-0.00320233,0.00028522,0.00005196,-0.00013663,0.00001318,0.00000275,0
 .00003236,0.00040563,0.00003047,0.00009792,-0.08168083,0.07241238,0.00
 001094,0.00003010,0.00000557,-0.00003919,-0.00002337,0.00000689,0.0000
 0242,-0.00000031,-0.00000134,0.00009036,0.00002286,0.00001200,-0.00000
 051,-0.00002776,-0.00000880,0.00018301,-0.00066666,-0.00050460,-0.0002
 2496,0.00004002,0.00000671,0.00000144,-0.00000167,-0.00001066,0.000003
 48,-0.00007500,-0.00000897,-0.00001172,0.00000249,-0.00001240,0.000169
 04,-0.00015363,-0.00082447,0.00128604,0.00353990,0.00228275,0.00028861
 ,0.00679610,0.00314407,0.00060645,-0.00012883,0.00017127,0.00953604,-0
 .00273575,0.00591605,-0.01854552,0.00535088,-0.00142086,-0.00085857,0.
 00027434,-0.00018632,0.00014878,-0.00021471,0.00006272,0.00008854,0.00
 021043,0.00002752,0.00101812,-0.00172247,-0.00137882,-0.08115776,0.037
 24241,-0.07316017,0.00052890,-0.00317705,-0.00264911,-0.00030237,-0.00
 016881,0.00001186,-0.00001370,0.00002762,0.00001744,-0.00032026,0.0000
 2263,0.00009280,0.08753224,-0.04454587,0.06830553,0.,0.00003100,0.0000
 1702,-0.00003413,0.00000440,-0.00001804,0.00000026,0.00000223,-0.00000
 029,0.00003638,-0.00004105,0.00000140,-0.00000081,0.00000222,0.0000041
 3,-0.00000118,0.00000139,-0.00001192,-0.00000540,0.00002643,-0.0000607
 9,-0.00001040,0.00001967,0.00001765,0.00005185,-0.00001764,0.00000062,
 -0.00000213,-0.00000226,-0.00000142,0.00032678,0.00028690,-0.00020459,
 -0.00095636,-0.00044511,0.00039241,-0.00035854,0.00002651,-0.00005707,
 -0.00515022,0.00124615,-0.00120238,-0.00423084,-0.00211187,0.00123087,
 -0.00018931,-0.00035770,0.00029934,0.00001890,-0.00000282,-0.00000041,
 0.00256312,0.02165729,-0.01877681,0.00004498,0.00100477,-0.00088610,0.
 00665246,-0.02029919,0.01762025,0.00080421,-0.00055246,0.00052706,0.00
 001369,-0.00010806,0.00008607,-0.06078119,0.01904061,-0.01686541,0.001
 13075,-0.00056015,0.00054550,0.00099310,0.00064134,-0.00029171,-0.0000
 3080,0.00001604,-0.00001986,0.05911486,0.00000478,-0.00002249,-0.00000
 761,0.00003317,-0.00000700,0.00001738,0.00000427,-0.00000881,0.0000024
 0,0.00001030,0.00003334,0.00000281,-0.00000130,-0.00000192,-0.00000172
 ,-0.00000756,-0.00000127,-0.00001164,0.00002702,-0.00003623,0.00005717
 ,0.00000755,-0.00001996,-0.00000821,-0.00001567,0.00000324,0.00000244,
 0.00000724,0.00000288,0.00000197,0.00002025,-0.00032285,-0.00047167,-0
 .00002650,-0.00013890,-0.00063508,-0.00006859,0.00006217,0.00005889,0.
 00178188,0.00303962,0.00229373,-0.00265000,0.00431166,0.00426185,-0.00
 024464,-0.00042806,-0.00023915,-0.00000887,0.00002987,0.00006992,-0.00
 158547,-0.00272852,0.00494280,-0.00014476,-0.00025244,0.00022441,0.003
 19615,-0.00592954,0.00894889,0.00043730,-0.00027077,0.00039266,0.00000
 875,-0.00006937,0.00002978,0.01853237,-0.21235992,0.15018340,0.0001255
 5,-0.00091667,-0.00169446,0.00011008,-0.00178230,-0.00303597,-0.000044
 69,0.00007024,0.00008211,-0.01950864,0.21774401,-0.00000293,0.00000678
 ,0.00000219,-0.00002321,0.00000697,-0.00001373,-0.00000463,0.00000543,
 -0.00000296,-0.00001719,-0.00004587,-0.00000660,0.00000277,0.00000005,
 0.00000275,0.00002848,0.00004613,-0.00005630,0.00003147,0.00004736,0.0
 0000556,0.00000478,-0.00000475,0.00001373,-0.00000377,0.00000517,-0.00
 000026,-0.00000843,-0.00000304,-0.00000500,0.00004507,-0.00045437,-0.0
 0050587,0.00015982,-0.00063115,-0.00029949,-0.00005029,0.00003590,0.00
 007897,-0.00171790,0.00229606,0.00374907,0.00150909,0.00438353,0.00572
 492,0.00033228,-0.00025308,-0.00041960,-0.00000785,0.00007083,0.000054
 62,0.00127897,0.00564956,-0.00181773,0.00010825,0.00025131,-0.00022798
 ,-0.00289837,0.00792910,-0.00265449,-0.00033446,0.00044704,-0.00026304
 ,-0.00000566,0.00003471,-0.00005458,-0.01625256,0.15034850,-0.16861900
 ,-0.00007448,-0.00175633,-0.00138511,0.00022237,-0.00302233,-0.0027077
 4,0.00002392,0.00007358,0.00010334,0.01765448,-0.16546707,0.16930432\\
 0.00000045,0.00000472,0.00000334,0.00000347,0.00000456,0.00000107,0.00
 000614,0.00000445,0.00000031,0.00000381,0.00000212,-0.00000033,0.00000
 596,0.00000094,-0.00000239,0.00000073,0.00000084,0.00000048,-0.0000024
 0,0.00000163,0.00000281,-0.00000476,0.00000131,0.00000362,-0.00000261,
 0.00000376,0.00000398,-0.00000467,0.00000468,0.00000618,0.00000038,-0.
 00000130,-0.00000126,-0.00000028,-0.00000047,-0.00000020,0.00000118,-0
 .00000425,-0.00000387,-0.00000079,0.00000260,0.00000241,-0.00000046,-0
 .00000273,-0.00000185,0.00000102,-0.00000646,-0.00000551,0.00000172,-0
 .00000491,-0.00000468,-0.00000152,0.00000334,0.00000335,-0.00000055,0.
 00000439,0.00000364,-0.00000125,-0.00000192,-0.00000081,0.00000020,-0.
 00000576,-0.00000451,0.00000156,-0.00000877,-0.00000756,-0.00000177,0.
 00000103,0.00000174,-0.00000186,0.00000569,0.00000535,-0.00000140,-0.0
 0000368,-0.00000208,0.00000006,-0.00000745,-0.00000575,-0.00000237,0.0
 0000164,0.00000251\\\@
 The archive entry for this job was punched.


 THE GREAT THING ABOUT BEING IMPERFECT IS THE JOY IT BRINGS OTHERS.
   -- SIGN OUTSIDE LAKE AGASSIZ JR. HIGH SCHOOL, FARGO, N.D.
 Job cpu time:       0 days  3 hours 21 minutes 42.4 seconds.
 Elapsed time:       0 days  0 hours  6 minutes 31.6 seconds.
 File lengths (MBytes):  RWF=    518 Int=      0 D2E=      0 Chk=     28 Scr=      1
 Normal termination of Gaussian 16 at Tue May 27 08:17:59 2025.
