/home/tahminaafroz
cn007.cluster.local
tahminaafroz
Sat Apr 19 13:09:07 CDT 2025
 Entering Gaussian System, Link 0=g16
 Initial command:
 /home/apps/g16/l1.exe "/tmp/4-cl-phboh2-opt-freq/Gau-45806.inp" -scrdir="/tmp/4-cl-phboh2-opt-freq/"
 Entering Link 1 = /home/apps/g16/l1.exe PID=     45807.
  
 Copyright (c) 1988-2019, Gaussian, Inc.  All Rights Reserved.
  
 This is part of the Gaussian(R) 16 program.  It is based on
 the Gaussian(R) 09 system (copyright 2009, Gaussian, Inc.),
 the Gaussian(R) 03 system (copyright 2003, Gaussian, Inc.),
 the Gaussian(R) 98 system (copyright 1998, Gaussian, Inc.),
 the Gaussian(R) 94 system (copyright 1995, Gaussian, Inc.),
 the Gaussian 92(TM) system (copyright 1992, Gaussian, Inc.),
 the Gaussian 90(TM) system (copyright 1990, Gaussian, Inc.),
 the Gaussian 88(TM) system (copyright 1988, Gaussian, Inc.),
 the Gaussian 86(TM) system (copyright 1986, Carnegie Mellon
 University), and the Gaussian 82(TM) system (copyright 1983,
 Carnegie Mellon University). Gaussian is a federally registered
 trademark of Gaussian, Inc.
  
 This software contains proprietary and confidential information,
 including trade secrets, belonging to Gaussian, Inc.
  
 This software is provided under written license and may be
 used, copied, transmitted, or stored only in accord with that
 written license.
  
 The following legend is applicable only to US Government
 contracts under FAR:
  
                    RESTRICTED RIGHTS LEGEND
  
 Use, reproduction and disclosure by the US Government is
 subject to restrictions as set forth in subparagraphs (a)
 and (c) of the Commercial Computer Software - Restricted
 Rights clause in FAR 52.227-19.
  
 Gaussian, Inc.
 340 Quinnipiac St., Bldg. 40, Wallingford CT 06492
  
  
 ---------------------------------------------------------------
 Warning -- This program may not be used in any manner that
 competes with the business of Gaussian, Inc. or will provide
 assistance to any competitor of Gaussian, Inc.  The licensee
 of this program is prohibited from giving any competitor of
 Gaussian, Inc. access to this program.  By using this program,
 the user acknowledges that Gaussian, Inc. is engaged in the
 business of creating and licensing software in the field of
 computational chemistry and represents and warrants to the
 licensee that it is not a competitor of Gaussian, Inc. and that
 it will not use this program in any manner prohibited above.
 ---------------------------------------------------------------
  

 Cite this work as:
 Gaussian 16, Revision C.01,
 M. J. Frisch, G. W. Trucks, H. B. Schlegel, G. E. Scuseria, 
 M. A. Robb, J. R. Cheeseman, G. Scalmani, V. Barone, 
 G. A. Petersson, H. Nakatsuji, X. Li, M. Caricato, A. V. Marenich, 
 J. Bloino, B. G. Janesko, R. Gomperts, B. Mennucci, H. P. Hratchian, 
 J. V. Ortiz, A. F. Izmaylov, J. L. Sonnenberg, D. Williams-Young, 
 F. Ding, F. Lipparini, F. Egidi, J. Goings, B. Peng, A. Petrone, 
 T. Henderson, D. Ranasinghe, V. G. Zakrzewski, J. Gao, N. Rega, 
 G. Zheng, W. Liang, M. Hada, M. Ehara, K. Toyota, R. Fukuda, 
 J. Hasegawa, M. Ishida, T. Nakajima, Y. Honda, O. Kitao, H. Nakai, 
 T. Vreven, K. Throssell, J. A. Montgomery, Jr., J. E. Peralta, 
 F. Ogliaro, M. J. Bearpark, J. J. Heyd, E. N. Brothers, K. N. Kudin, 
 V. N. Staroverov, T. A. Keith, R. Kobayashi, J. Normand, 
 K. Raghavachari, A. P. Rendell, J. C. Burant, S. S. Iyengar, 
 J. Tomasi, M. Cossi, J. M. Millam, M. Klene, C. Adamo, R. Cammi, 
 J. W. Ochterski, R. L. Martin, K. Morokuma, O. Farkas, 
 J. B. Foresman, and D. J. Fox, Gaussian, Inc., Wallingford CT, 2019.
 
 ******************************************
 Gaussian 16:  AS64L-G16RevC.01  3-Jul-2019
                19-Apr-2025 
 ******************************************
 %mem=20GB
 %nprocshared=32
 Will use up to   32 processors via shared memory.
 %chk=4-cl-phboh2-opt-freq.chk
 ----------------------------------------------------------------------
 # opt=(calcfc,tight) freq 6-311+g(d,p) nosymm scf=(qc,fermi,xqc) geom=
 connectivity int=ultrafine m062x
 ----------------------------------------------------------------------
 1/7=10,10=4,18=20,19=15,26=4,38=1,57=2/1,3;
 2/9=110,12=2,15=1,17=6,18=5,40=1/2;
 3/5=4,6=6,7=111,11=2,25=1,30=1,71=2,74=-55,75=-5,140=1/1,2,3;
 4//1;
 5/5=2,22=13,38=5/2;
 8/6=4,10=90,11=11/1;
 11/6=1,8=1,9=11,15=111,16=1,31=1/1,2,10;
 10/6=1,13=1,31=1/2;
 6/7=2,8=2,9=2,10=2,28=1/1;
 7/10=1,25=1,30=1/1,2,3,16;
 1/7=10,10=4,18=20,19=15,26=4/3(2);
 2/9=110,15=1/2;
 99//99;
 2/9=110,15=1/2;
 3/5=4,6=6,7=111,11=2,25=1,30=1,71=1,74=-55,75=-5/1,2,3;
 4/5=5,16=3,69=1/1;
 5/5=2,22=13,38=5/2;
 7/30=1/1,2,3,16;
 1/7=10,18=20,19=15,26=4/3(-5);
 2/9=110,15=1/2;
 6/7=2,8=2,9=2,10=2,19=2,28=1/1;
 99/9=1/99;
 -------------------
 4-cl-phboh2-optfreq
 -------------------
 Symbolic Z-matrix:
 Charge =  0 Multiplicity = 1
 O                     8.68569   7.45586   5.54061 
 H                     9.4977    7.14697   5.95239 
 C                     6.24302   6.99509   5.1735 
 B                     7.63876   6.61493   5.77171 
 O                     7.87825   5.4917    6.51605 
 H                     7.10904   4.94282   6.67473 
 C                     5.11776   6.17203   5.28892 
 H                     5.17976   5.21741   5.80391 
 C                     3.88888   6.53449   4.75095 
 H                     3.01249   5.90462   4.83393 
 C                     3.8004    7.74547   4.08726 
 C                     4.88309   8.59566   3.94268 
 H                     4.75955   9.5316    3.41271 
 C                     6.0998    8.20895   4.48874 
 H                     6.96274   8.85692   4.38693 
 Cl                    2.25103   8.22036   3.40056 
 

 GradGradGradGradGradGradGradGradGradGradGradGradGradGradGradGradGradGrad
 Berny optimization.
 Initialization pass.
                           ----------------------------
                           !    Initial Parameters    !
                           ! (Angstroms and Degrees)  !
 --------------------------                            --------------------------
 ! Name  Definition              Value          Derivative Info.                !
 --------------------------------------------------------------------------------
 ! R1    R(1,2)                  0.9614         calculate D2E/DX2 analytically  !
 ! R2    R(1,4)                  1.3626         calculate D2E/DX2 analytically  !
 ! R3    R(3,4)                  1.5654         calculate D2E/DX2 analytically  !
 ! R4    R(3,7)                  1.3989         calculate D2E/DX2 analytically  !
 ! R5    R(3,14)                 1.401          calculate D2E/DX2 analytically  !
 ! R6    R(4,5)                  1.3686         calculate D2E/DX2 analytically  !
 ! R7    R(5,6)                  0.9582         calculate D2E/DX2 analytically  !
 ! R8    R(7,8)                  1.0864         calculate D2E/DX2 analytically  !
 ! R9    R(7,9)                  1.3896         calculate D2E/DX2 analytically  !
 ! R10   R(9,10)                 1.0824         calculate D2E/DX2 analytically  !
 ! R11   R(9,11)                 1.3838         calculate D2E/DX2 analytically  !
 ! R12   R(11,12)                1.3842         calculate D2E/DX2 analytically  !
 ! R13   R(11,16)                1.76           calculate D2E/DX2 analytically  !
 ! R14   R(12,13)                1.0826         calculate D2E/DX2 analytically  !
 ! R15   R(12,14)                1.3886         calculate D2E/DX2 analytically  !
 ! R16   R(14,15)                1.0839         calculate D2E/DX2 analytically  !
 ! A1    A(2,1,4)              112.21           calculate D2E/DX2 analytically  !
 ! A2    A(4,3,7)              122.8737         calculate D2E/DX2 analytically  !
 ! A3    A(4,3,14)             119.231          calculate D2E/DX2 analytically  !
 ! A4    A(7,3,14)             117.8953         calculate D2E/DX2 analytically  !
 ! A5    A(1,4,3)              118.0587         calculate D2E/DX2 analytically  !
 ! A6    A(1,4,5)              117.6656         calculate D2E/DX2 analytically  !
 ! A7    A(3,4,5)              124.2756         calculate D2E/DX2 analytically  !
 ! A8    A(4,5,6)              114.8176         calculate D2E/DX2 analytically  !
 ! A9    A(3,7,8)              120.6759         calculate D2E/DX2 analytically  !
 ! A10   A(3,7,9)              121.732          calculate D2E/DX2 analytically  !
 ! A11   A(8,7,9)              117.5915         calculate D2E/DX2 analytically  !
 ! A12   A(7,9,10)             122.3133         calculate D2E/DX2 analytically  !
 ! A13   A(7,9,11)             118.0671         calculate D2E/DX2 analytically  !
 ! A14   A(10,9,11)            119.6196         calculate D2E/DX2 analytically  !
 ! A15   A(9,11,12)            122.5211         calculate D2E/DX2 analytically  !
 ! A16   A(9,11,16)            118.6566         calculate D2E/DX2 analytically  !
 ! A17   A(12,11,16)           118.8223         calculate D2E/DX2 analytically  !
 ! A18   A(11,12,13)           119.5293         calculate D2E/DX2 analytically  !
 ! A19   A(11,12,14)           118.2453         calculate D2E/DX2 analytically  !
 ! A20   A(13,12,14)           122.2253         calculate D2E/DX2 analytically  !
 ! A21   A(3,14,12)            121.5387         calculate D2E/DX2 analytically  !
 ! A22   A(3,14,15)            118.8462         calculate D2E/DX2 analytically  !
 ! A23   A(12,14,15)           119.615          calculate D2E/DX2 analytically  !
 ! D1    D(2,1,4,3)            179.4195         calculate D2E/DX2 analytically  !
 ! D2    D(2,1,4,5)             -0.4629         calculate D2E/DX2 analytically  !
 ! D3    D(7,3,4,1)            176.5693         calculate D2E/DX2 analytically  !
 ! D4    D(7,3,4,5)             -3.5568         calculate D2E/DX2 analytically  !
 ! D5    D(14,3,4,1)            -3.3624         calculate D2E/DX2 analytically  !
 ! D6    D(14,3,4,5)           176.5115         calculate D2E/DX2 analytically  !
 ! D7    D(4,3,7,8)             -0.4094         calculate D2E/DX2 analytically  !
 ! D8    D(4,3,7,9)            179.8584         calculate D2E/DX2 analytically  !
 ! D9    D(14,3,7,8)           179.5232         calculate D2E/DX2 analytically  !
 ! D10   D(14,3,7,9)            -0.209          calculate D2E/DX2 analytically  !
 ! D11   D(4,3,14,12)         -179.8018         calculate D2E/DX2 analytically  !
 ! D12   D(4,3,14,15)            0.1616         calculate D2E/DX2 analytically  !
 ! D13   D(7,3,14,12)            0.263          calculate D2E/DX2 analytically  !
 ! D14   D(7,3,14,15)         -179.7736         calculate D2E/DX2 analytically  !
 ! D15   D(1,4,5,6)            178.3146         calculate D2E/DX2 analytically  !
 ! D16   D(3,4,5,6)             -1.5598         calculate D2E/DX2 analytically  !
 ! D17   D(3,7,9,10)           179.944          calculate D2E/DX2 analytically  !
 ! D18   D(3,7,9,11)             0.047          calculate D2E/DX2 analytically  !
 ! D19   D(8,7,9,10)             0.2039         calculate D2E/DX2 analytically  !
 ! D20   D(8,7,9,11)          -179.6931         calculate D2E/DX2 analytically  !
 ! D21   D(7,9,11,12)            0.0713         calculate D2E/DX2 analytically  !
 ! D22   D(7,9,11,16)         -179.9675         calculate D2E/DX2 analytically  !
 ! D23   D(10,9,11,12)        -179.8286         calculate D2E/DX2 analytically  !
 ! D24   D(10,9,11,16)           0.1327         calculate D2E/DX2 analytically  !
 ! D25   D(9,11,12,13)         179.9196         calculate D2E/DX2 analytically  !
 ! D26   D(9,11,12,14)          -0.0193         calculate D2E/DX2 analytically  !
 ! D27   D(16,11,12,13)         -0.0416         calculate D2E/DX2 analytically  !
 ! D28   D(16,11,12,14)       -179.9805         calculate D2E/DX2 analytically  !
 ! D29   D(11,12,14,3)          -0.1529         calculate D2E/DX2 analytically  !
 ! D30   D(11,12,14,15)        179.884          calculate D2E/DX2 analytically  !
 ! D31   D(13,12,14,3)         179.91           calculate D2E/DX2 analytically  !
 ! D32   D(13,12,14,15)         -0.0531         calculate D2E/DX2 analytically  !
 --------------------------------------------------------------------------------
 Trust Radius=3.00D-01 FncErr=1.00D-07 GrdErr=1.00D-06 EigMax=2.50D+02 EigMin=1.00D-04
 Number of steps in this run=     81 maximum allowed number of steps=    100.
 GradGradGradGradGradGradGradGradGradGradGradGradGradGradGradGradGradGrad

                          Input orientation:                          
 ---------------------------------------------------------------------
 Center     Atomic      Atomic             Coordinates (Angstroms)
 Number     Number       Type             X           Y           Z
 ---------------------------------------------------------------------
      1          8           0        8.685690    7.455861    5.540605
      2          1           0        9.497703    7.146967    5.952393
      3          6           0        6.243019    6.995091    5.173497
      4          5           0        7.638764    6.614933    5.771710
      5          8           0        7.878250    5.491704    6.516050
      6          1           0        7.109042    4.942816    6.674732
      7          6           0        5.117764    6.172034    5.288922
      8          1           0        5.179757    5.217412    5.803915
      9          6           0        3.888879    6.534492    4.750949
     10          1           0        3.012486    5.904620    4.833931
     11          6           0        3.800398    7.745473    4.087257
     12          6           0        4.883088    8.595663    3.942679
     13          1           0        4.759553    9.531597    3.412707
     14          6           0        6.099800    8.208946    4.488735
     15          1           0        6.962741    8.856921    4.386934
     16         17           0        2.251034    8.220364    3.400563
 ---------------------------------------------------------------------
                    Distance matrix (angstroms):
                    1          2          3          4          5
     1  O    0.000000
     2  H    0.961431   0.000000
     3  C    2.512711   3.350032   0.000000
     4  B    1.362580   1.941999   1.565402   0.000000
     5  O    2.336956   2.383324   2.595496   1.368590   0.000000
     6  H    3.176076   3.329528   2.686175   1.972823   0.958196
     7  C    3.800217   4.535918   1.398908   2.604743   3.096607
     8  H    4.167919   4.731795   2.165201   2.828572   2.804325
     9  C    4.947916   5.768665   2.435708   3.887166   4.485317
    10  H    5.923764   6.697195   3.426482   4.773513   5.164851
    11  C    5.105112   6.024635   2.776578   4.341492   5.254273
    12  C    4.279287   5.237589   2.434370   3.855178   5.022728
    13  H    4.924549   5.881031   3.425626   4.728814   5.973085
    14  C    2.891435   3.849135   1.401019   2.560334   3.828354
    15  H    2.502495   3.435206   2.145482   2.720500   4.086071
    16  Cl   6.824152   7.757463   4.536578   6.101425   6.986946
                    6          7          8          9         10
     6  H    0.000000
     7  C    2.719675   0.000000
     8  H    2.134447   1.086446   0.000000
     9  C    4.074779   1.389586   2.123630   0.000000
    10  H    4.592971   2.170420   2.471879   1.082446   0.000000
    11  C    5.049459   2.378059   3.352706   1.383760   2.137070
    12  C    5.075655   2.782341   3.868435   2.426969   3.396350
    13  H    6.100641   3.864604   4.950418   3.395821   4.269319
    14  C    4.057679   2.398688   3.394916   2.785808   3.867892
    15  H    4.536038   3.380257   4.293354   3.869730   4.951808
    16  Cl   6.712879   3.997461   4.834381   2.710764   2.827901
                   11         12         13         14         15
    11  C    0.000000
    12  C    1.384176   0.000000
    13  H    2.136641   1.082637   0.000000
    14  C    2.379757   1.388566   2.168756   0.000000
    15  H    3.365343   2.142563   2.501668   1.083929   0.000000
    16  Cl   1.760000   2.713383   2.830574   3.999656   4.855751
                   16
    16  Cl   0.000000
 Symmetry turned off by external request.
 Stoichiometry    C6H6BClO2
 Framework group  C1[X(C6H6BClO2)]
 Deg. of freedom    42
 Full point group                 C1      NOp   1
 Rotational constants (GHZ):           3.6891190           0.5238226           0.4587929
 Standard basis: 6-311+G(d,p) (5D, 7F)
   264 basis functions,   425 primitive gaussians,   274 cartesian basis functions
    40 alpha electrons       40 beta electrons
       nuclear repulsion energy       533.6152904821 Hartrees.
 NAtoms=   16 NActive=   16 NUniq=   16 SFac= 1.00D+00 NAtFMM=   60 NAOKFM=F Big=F
 Integral buffers will be    131072 words long.
 Raffenetti 2 integral format.
 Two-electron integral symmetry is turned off.
 One-electron integrals computed using PRISM.
 NBasis=   264 RedAO= T EigKep=  2.16D-06  NBF=   264
 NBsUse=   264 1.00D-06 EigRej= -1.00D+00 NBFU=   264
 ExpMin= 3.15D-02 ExpMax= 1.06D+05 ExpMxC= 3.62D+03 IAcc=3 IRadAn=         5 AccDes= 0.00D+00
 Harris functional with IExCor= 1009 and IRadAn=       5 diagonalized for initial guess.
 HarFok:  IExCor= 1009 AccDes= 0.00D+00 IRadAn=         5 IDoV= 1 UseB2=F ITyADJ=14
 ICtDFT=  3500011 ScaDFX=  1.000000  1.000000  1.000000  1.000000
 FoFCou: FMM=F IPFlag=           0 FMFlag=      100000 FMFlg1=           0
         NFxFlg=           0 DoJE=T BraDBF=F KetDBF=T FulRan=T
         wScrn=  0.000000 ICntrl=       500 IOpCl=  0 I1Cent=   200000004 NGrid=           0
         NMat0=    1 NMatS0=      1 NMatT0=    0 NMatD0=    1 NMtDS0=    0 NMtDT0=    0
 Symmetry not used in FoFCou.
 Requested convergence on RMS density matrix=1.00D-08 within 128 cycles.
 Requested convergence on MAX density matrix=1.00D-06.
 Requested convergence on             energy=1.00D-06.
 Level shift goal  0.100 maximum shift  0.100.
 No special actions if energy rises.
 Dynamic level shift is on during FON iterations.
 SCF Done:  E(RM062X) =  -867.825853044     A.U. after   15 cycles
            NFock= 15  Conv=0.53D-08     -V/T= 2.0028
 DoSCS=F DFT=T ScalE2(SS,OS)=  1.000000  1.000000
 Range of M.O.s used for correlation:     1   264
 NBasis=   264 NAE=    40 NBE=    40 NFC=     0 NFV=     0
 NROrb=    264 NOA=    40 NOB=    40 NVA=   224 NVB=   224

 **** Warning!!: The largest alpha MO coefficient is  0.20721443D+03

 Symmetrizing basis deriv contribution to polar:
 IMax=3 JMax=2 DiffMx= 0.00D+00
 G2DrvN: will do    17 centers at a time, making    1 passes.
 Calling FoFCou, ICntrl=  3107 FMM=F I1Cent=   0 AccDes= 0.00D+00.
 End of G2Drv F.D. properties file   721 does not exist.
 End of G2Drv F.D. properties file   722 does not exist.
 End of G2Drv F.D. properties file   788 does not exist.
          IDoAtm=1111111111111111
          Differentiating once with respect to nuclear coordinates.
 Keep R1 ints in memory in canonical form, NReq=647109706.
          There are    51 degrees of freedom in the 1st order CPHF.  IDoFFX=6 NUNeed=     0.
     45 vectors produced by pass  0 Test12= 1.76D-14 1.96D-09 XBig12= 2.22D-01 2.13D-01.
 AX will form    45 AO Fock derivatives at one time.
     45 vectors produced by pass  1 Test12= 1.76D-14 1.96D-09 XBig12= 1.12D-02 3.44D-02.
     45 vectors produced by pass  2 Test12= 1.76D-14 1.96D-09 XBig12= 4.07D-04 3.07D-03.
     45 vectors produced by pass  3 Test12= 1.76D-14 1.96D-09 XBig12= 2.94D-06 3.22D-04.
     45 vectors produced by pass  4 Test12= 1.76D-14 1.96D-09 XBig12= 1.75D-08 1.87D-05.
     45 vectors produced by pass  5 Test12= 1.76D-14 1.96D-09 XBig12= 7.51D-11 1.03D-06.
     44 vectors produced by pass  6 Test12= 1.76D-14 1.96D-09 XBig12= 3.01D-13 8.62D-08.
     10 vectors produced by pass  7 Test12= 1.76D-14 1.96D-09 XBig12= 1.25D-15 4.78D-09.
 InvSVY:  IOpt=1 It=  1 EMax= 3.33D-16
 Solved reduced A of dimension   324 with    51 vectors.
 End of Minotr F.D. properties file   721 does not exist.
 End of Minotr F.D. properties file   722 does not exist.
 End of Minotr F.D. properties file   788 does not exist.

 **********************************************************************

            Population analysis using the SCF Density.

 **********************************************************************

 Alpha  occ. eigenvalues -- -102.67906 -19.64672 -19.63836 -10.61813 -10.56924
 Alpha  occ. eigenvalues --  -10.56470 -10.56220 -10.56079 -10.54308  -9.82154
 Alpha  occ. eigenvalues --   -7.54659  -7.53996  -7.53984  -7.09310  -1.17689
 Alpha  occ. eigenvalues --   -1.13977  -1.00566  -0.94283  -0.86685  -0.83746
 Alpha  occ. eigenvalues --   -0.71676  -0.69586  -0.66199  -0.64066  -0.59602
 Alpha  occ. eigenvalues --   -0.54853  -0.54320  -0.51631  -0.51022  -0.49126
 Alpha  occ. eigenvalues --   -0.47245  -0.46441  -0.46393  -0.42670  -0.41318
 Alpha  occ. eigenvalues --   -0.40422  -0.39976  -0.38241  -0.32844  -0.31045
 Alpha virt. eigenvalues --   -0.01611  -0.00871   0.00071   0.01195   0.01765
 Alpha virt. eigenvalues --    0.02887   0.03315   0.03710   0.04428   0.06020
 Alpha virt. eigenvalues --    0.06732   0.07600   0.08545   0.08884   0.09002
 Alpha virt. eigenvalues --    0.11000   0.11070   0.11452   0.12916   0.13194
 Alpha virt. eigenvalues --    0.13434   0.14632   0.14757   0.14892   0.15649
 Alpha virt. eigenvalues --    0.16103   0.16856   0.17449   0.18609   0.19149
 Alpha virt. eigenvalues --    0.19918   0.20468   0.21798   0.22045   0.22277
 Alpha virt. eigenvalues --    0.23049   0.23442   0.23870   0.24097   0.24768
 Alpha virt. eigenvalues --    0.24979   0.25225   0.25576   0.26767   0.28013
 Alpha virt. eigenvalues --    0.29149   0.29934   0.30575   0.32528   0.32788
 Alpha virt. eigenvalues --    0.34520   0.35800   0.36453   0.39595   0.41521
 Alpha virt. eigenvalues --    0.45484   0.45788   0.46899   0.47696   0.48505
 Alpha virt. eigenvalues --    0.49275   0.49772   0.50462   0.53472   0.53995
 Alpha virt. eigenvalues --    0.56293   0.57063   0.57365   0.59121   0.59200
 Alpha virt. eigenvalues --    0.61964   0.62844   0.63399   0.63605   0.66541
 Alpha virt. eigenvalues --    0.67820   0.68642   0.69922   0.70299   0.71887
 Alpha virt. eigenvalues --    0.72224   0.74856   0.75031   0.79269   0.83683
 Alpha virt. eigenvalues --    0.84878   0.86257   0.87150   0.88256   0.89333
 Alpha virt. eigenvalues --    0.89818   0.90887   0.92306   0.93003   0.93101
 Alpha virt. eigenvalues --    0.94805   0.97804   0.99585   1.01005   1.02882
 Alpha virt. eigenvalues --    1.04285   1.06272   1.07095   1.09050   1.10134
 Alpha virt. eigenvalues --    1.10611   1.11206   1.12248   1.12975   1.17555
 Alpha virt. eigenvalues --    1.19550   1.21790   1.24728   1.28845   1.32584
 Alpha virt. eigenvalues --    1.33223   1.34544   1.35135   1.38193   1.44904
 Alpha virt. eigenvalues --    1.48847   1.49728   1.50169   1.52678   1.53633
 Alpha virt. eigenvalues --    1.58295   1.59944   1.60671   1.64881   1.66276
 Alpha virt. eigenvalues --    1.68277   1.69714   1.71827   1.74991   1.77099
 Alpha virt. eigenvalues --    1.79315   1.79511   1.84257   1.86291   1.90786
 Alpha virt. eigenvalues --    1.95136   1.95399   1.96231   1.98702   1.99494
 Alpha virt. eigenvalues --    1.99931   2.02154   2.08404   2.09803   2.12222
 Alpha virt. eigenvalues --    2.14159   2.15571   2.20548   2.25433   2.30338
 Alpha virt. eigenvalues --    2.33255   2.35668   2.41736   2.42342   2.45526
 Alpha virt. eigenvalues --    2.50158   2.55600   2.57266   2.58754   2.60707
 Alpha virt. eigenvalues --    2.63168   2.65154   2.67866   2.71348   2.72073
 Alpha virt. eigenvalues --    2.76751   2.77589   2.78141   2.79180   2.80737
 Alpha virt. eigenvalues --    2.83777   2.85470   2.93699   2.94677   2.97350
 Alpha virt. eigenvalues --    3.06480   3.10544   3.13119   3.18871   3.23394
 Alpha virt. eigenvalues --    3.25904   3.25987   3.30726   3.39961   3.41442
 Alpha virt. eigenvalues --    3.47474   3.53483   3.54856   3.60010   3.63095
 Alpha virt. eigenvalues --    3.65811   3.78838   3.92091   3.94569   4.02731
 Alpha virt. eigenvalues --    4.10402   4.17738   4.19609   4.84249   5.07432
 Alpha virt. eigenvalues --    5.08563   5.38628   5.49220   5.68279   5.76098
 Alpha virt. eigenvalues --    9.96453  14.79045  23.62304  23.99717  24.02541
 Alpha virt. eigenvalues --   24.12230  24.17122  24.24774  25.93203  26.23493
 Alpha virt. eigenvalues --   26.68541  49.99528  50.04959 216.06420
          Condensed to atoms (all electrons):
               1          2          3          4          5          6
     1  O    7.771175   0.270547   0.069477   0.444728  -0.130279   0.020917
     2  H    0.270547   0.450461   0.043216  -0.005593  -0.034690   0.003210
     3  C    0.069477   0.043216  11.344410   0.266005  -0.210334   0.039793
     4  B    0.444728  -0.005593   0.266005   3.355131   0.368649   0.016428
     5  O   -0.130279  -0.034690  -0.210334   0.368649   7.997313   0.249199
     6  H    0.020917   0.003210   0.039793   0.016428   0.249199   0.437232
     7  C   -0.030768  -0.009593  -1.519265   0.124414   0.121057  -0.088306
     8  H    0.002516  -0.000044   0.055603   0.012696  -0.007748   0.011718
     9  C    0.067237   0.004833   0.463394   0.050329  -0.002273   0.051013
    10  H   -0.000078   0.000000  -0.043033   0.000210   0.000419  -0.000059
    11  C   -0.010771  -0.000229  -3.795457  -0.004555   0.010113  -0.006290
    12  C   -0.008216  -0.017607  -0.207658   0.017076   0.071374  -0.015910
    13  H    0.000576   0.000002  -0.027816   0.000397  -0.000074   0.000004
    14  C   -0.105057  -0.011592   0.161446  -0.104775  -0.082506   0.029171
    15  H    0.002662  -0.000649   0.082054  -0.008750   0.002561  -0.000101
    16  Cl  -0.000555   0.000002  -0.108138  -0.001405  -0.000320   0.000079
               7          8          9         10         11         12
     1  O   -0.030768   0.002516   0.067237  -0.000078  -0.010771  -0.008216
     2  H   -0.009593  -0.000044   0.004833   0.000000  -0.000229  -0.017607
     3  C   -1.519265   0.055603   0.463394  -0.043033  -3.795457  -0.207658
     4  B    0.124414   0.012696   0.050329   0.000210  -0.004555   0.017076
     5  O    0.121057  -0.007748  -0.002273   0.000419   0.010113   0.071374
     6  H   -0.088306   0.011718   0.051013  -0.000059  -0.006290  -0.015910
     7  C   12.874339   0.279432  -1.175275   0.026505  -0.808863  -0.710276
     8  H    0.279432   0.540305   0.040654  -0.007059  -0.030787  -0.024561
     9  C   -1.175275   0.040654  18.662265   0.118311  -2.021648  -8.560398
    10  H    0.026505  -0.007059   0.118311   0.480783   0.181095   0.076099
    11  C   -0.808863  -0.030787  -2.021648   0.181095  15.278570  -1.680140
    12  C   -0.710276  -0.024561  -8.560398   0.076099  -1.680140  18.318271
    13  H   -0.012682   0.000073   0.080798  -0.000305   0.156696   0.117984
    14  C   -3.074949  -0.003948  -1.397810  -0.005519  -0.956439  -1.036953
    15  H    0.017653  -0.000139  -0.024818   0.000055  -0.028159  -0.000310
    16  Cl   0.280746   0.001240   0.108203  -0.009770  -1.184526   0.097053
              13         14         15         16
     1  O    0.000576  -0.105057   0.002662  -0.000555
     2  H    0.000002  -0.011592  -0.000649   0.000002
     3  C   -0.027816   0.161446   0.082054  -0.108138
     4  B    0.000397  -0.104775  -0.008750  -0.001405
     5  O   -0.000074  -0.082506   0.002561  -0.000320
     6  H    0.000004   0.029171  -0.000101   0.000079
     7  C   -0.012682  -3.074949   0.017653   0.280746
     8  H    0.000073  -0.003948  -0.000139   0.001240
     9  C    0.080798  -1.397810  -0.024818   0.108203
    10  H   -0.000305  -0.005519   0.000055  -0.009770
    11  C    0.156696  -0.956439  -0.028159  -1.184526
    12  C    0.117984  -1.036953  -0.000310   0.097053
    13  H    0.478025   0.037360  -0.006247  -0.009125
    14  C    0.037360  12.404625   0.304538   0.242849
    15  H   -0.006247   0.304538   0.469588   0.000788
    16  Cl  -0.009125   0.242849   0.000788  17.273403
 Mulliken charges:
               1
     1  O   -0.364110
     2  H    0.307727
     3  C   -0.613697
     4  B    0.469016
     5  O   -0.352461
     6  H    0.251902
     7  C   -0.294167
     8  H    0.130050
     9  C   -0.464815
    10  H    0.182349
    11  C    0.901390
    12  C   -0.435828
    13  H    0.184333
    14  C   -0.400441
    15  H    0.189274
    16  Cl   0.309477
 Sum of Mulliken charges =   0.00000
 Mulliken charges with hydrogens summed into heavy atoms:
               1
     1  O   -0.056383
     3  C   -0.613697
     4  B    0.469016
     5  O   -0.100560
     7  C   -0.164117
     9  C   -0.282466
    11  C    0.901390
    12  C   -0.251494
    14  C   -0.211167
    16  Cl   0.309477
 APT charges:
               1
     1  O   -0.390306
     2  H    2.037063
     3  C   -1.584450
     4  B   -0.415180
     5  O    1.253109
     6  H   -1.166330
     7  C   -0.525440
     8  H   -0.178945
     9  C    2.014630
    10  H   -0.815710
    11  C   -1.825259
    12  C   -1.708027
    13  H    1.154287
    14  C    0.072735
    15  H    1.887198
    16  Cl   0.190625
 Sum of APT charges =   0.00000
 APT charges with hydrogens summed into heavy atoms:
               1
     1  O    1.646757
     3  C   -1.584450
     4  B   -0.415180
     5  O    0.086780
     7  C   -0.704385
     9  C    1.198920
    11  C   -1.825259
    12  C   -0.553740
    14  C    1.959933
    16  Cl   0.190625
 Electronic spatial extent (au):  <R**2>=          31931.7705
 Charge=              0.0000 electrons
 Dipole moment (field-independent basis, Debye):
    X=              0.7338    Y=             -1.3938    Z=              1.0946  Tot=              1.9181
 Quadrupole moment (field-independent basis, Debye-Ang):
   XX=            -58.0715   YY=            -80.2674   ZZ=            -55.7036
   XY=              0.6940   XZ=              8.7074   YZ=             -2.4243
 Traceless Quadrupole moment (field-independent basis, Debye-Ang):
   XX=              6.6093   YY=            -15.5865   ZZ=              8.9772
   XY=              0.6940   XZ=              8.7074   YZ=             -2.4243
 Octapole moment (field-independent basis, Debye-Ang**2):
  XXX=           -948.2428  YYY=          -1542.3286  ZZZ=           -863.1804  XYY=           -350.5854
  XXY=           -437.3201  XXZ=           -240.5353  XZZ=           -280.5684  YZZ=           -475.6016
  YYZ=           -375.0984  XYZ=             24.1398
 Hexadecapole moment (field-independent basis, Debye-Ang**3):
 XXXX=         -11528.6137 YYYY=         -21981.0307 ZZZZ=          -8850.9158 XXXY=          -6740.7919
 XXXZ=          -4518.9716 YYYX=          -7341.0371 YYYZ=          -7302.7466 ZZZX=          -4844.1922
 ZZZY=          -6565.0587 XXYY=          -5432.4317 XXZZ=          -3180.3786 YYZZ=          -5438.4700
 XXYZ=          -1824.3378 YYXZ=          -1748.9169 ZZXY=          -2253.8784
 N-N= 5.336152904821D+02 E-N=-3.113427559390D+03  KE= 8.653916255480D+02
  Exact polarizability:       0.000       0.000       0.000       0.000       0.000       0.000
 Approx polarizability:     148.276       0.966     120.806      20.495     -25.471      92.582
 Calling FoFJK, ICntrl=    100127 FMM=F ISym2X=0 I1Cent= 0 IOpClX= 0 NMat=1 NMatS=1 NMatT=0.
 -------------------------------------------------------------------
 Center     Atomic                   Forces (Hartrees/Bohr)
 Number     Number              X              Y              Z
 -------------------------------------------------------------------
      1        8          -0.000558720   -0.000163899   -0.000039070
      2        1           0.000055976   -0.000016293    0.000015190
      3        6          -0.001376980    0.000582486   -0.000718694
      4        5           0.001432734   -0.000349049    0.000583858
      5        8          -0.000284503    0.000399782   -0.000296002
      6        1          -0.000031871   -0.000111747    0.000048486
      7        6           0.000237715   -0.000841634    0.000519477
      8        1           0.000030879   -0.000108089    0.000062605
      9        6           0.001401593   -0.001022883    0.000902362
     10        1           0.000972399   -0.000710062    0.000653765
     11        6          -0.011251139    0.003323409   -0.004875694
     12        6           0.001888140    0.000111337    0.000462170
     13        1           0.001319081    0.000035564    0.000354475
     14        6           0.001005791    0.000346257    0.000102662
     15        1           0.000120618    0.000067673    0.000000094
     16       17           0.005038288   -0.001542853    0.002224315
 -------------------------------------------------------------------
 Cartesian Forces:  Max     0.011251139 RMS     0.002109731
 FormGI is forming the generalized inverse of G from B-inverse, IUseBI=4.

 GradGradGradGradGradGradGradGradGradGradGradGradGradGradGradGradGradGrad
 Berny optimization.
 Internal  Forces:  Max     0.005719437 RMS     0.001117906
 Search for a local minimum.
 Step number   1 out of a maximum of   81
 All quantities printed in internal units (Hartrees-Bohrs-Radians)
 Mixed Optimization -- RFO/linear search
 Second derivative matrix not updated -- analytic derivatives used.
 ITU=  0
     Eigenvalues ---    0.00081   0.01018   0.01207   0.01495   0.01728
     Eigenvalues ---    0.01748   0.02126   0.02343   0.02589   0.02717
     Eigenvalues ---    0.02872   0.03119   0.03962   0.10317   0.11075
     Eigenvalues ---    0.11191   0.11370   0.11974   0.12619   0.15861
     Eigenvalues ---    0.15956   0.17576   0.18598   0.19029   0.19555
     Eigenvalues ---    0.20197   0.25873   0.28192   0.29366   0.35636
     Eigenvalues ---    0.36530   0.36739   0.36880   0.39288   0.42533
     Eigenvalues ---    0.42856   0.48213   0.48502   0.49206   0.52624
     Eigenvalues ---    0.55223   0.56316
 RFO step:  Lambda=-4.60931172D-04 EMin= 8.13945763D-04
 Linear search not attempted -- first point.
 Iteration  1 RMS(Cart)=  0.00617644 RMS(Int)=  0.00005057
 Iteration  2 RMS(Cart)=  0.00006861 RMS(Int)=  0.00000932
 Iteration  3 RMS(Cart)=  0.00000000 RMS(Int)=  0.00000932
 Variable       Old X    -DE/DX   Delta X   Delta X   Delta X     New X
                                 (Linear)    (Quad)   (Total)
    R1        1.81684   0.00006   0.00000   0.00011   0.00011   1.81696
    R2        2.57490  -0.00049   0.00000  -0.00124  -0.00124   2.57366
    R3        2.95818   0.00073   0.00000   0.00321   0.00321   2.96140
    R4        2.64355  -0.00041   0.00000  -0.00144  -0.00145   2.64210
    R5        2.64754  -0.00055   0.00000  -0.00194  -0.00195   2.64559
    R6        2.58626  -0.00043   0.00000  -0.00129  -0.00129   2.58497
    R7        1.81073   0.00010   0.00000   0.00012   0.00012   1.81085
    R8        2.05308   0.00013   0.00000   0.00024   0.00024   2.05333
    R9        2.62594   0.00028   0.00000  -0.00026  -0.00026   2.62568
   R10        2.04553  -0.00032   0.00000  -0.00022  -0.00022   2.04531
   R11        2.61493   0.00353   0.00000   0.00894   0.00896   2.62388
   R12        2.61571   0.00370   0.00000   0.00925   0.00927   2.62498
   R13        3.32592  -0.00572   0.00000  -0.03366  -0.03366   3.29225
   R14        2.04589  -0.00029   0.00000  -0.00018  -0.00018   2.04571
   R15        2.62401   0.00042   0.00000   0.00016   0.00016   2.62417
   R16        2.04833   0.00014   0.00000   0.00025   0.00025   2.04858
    A1        1.95843   0.00002   0.00000   0.00092   0.00092   1.95936
    A2        2.14455  -0.00036   0.00000   0.00011   0.00013   2.14468
    A3        2.08097  -0.00023   0.00000   0.00142   0.00144   2.08241
    A4        2.05766   0.00060   0.00000  -0.00153  -0.00157   2.05609
    A5        2.06051  -0.00021   0.00000  -0.00117  -0.00117   2.05934
    A6        2.05365   0.00035   0.00000   0.00233   0.00233   2.05598
    A7        2.16902  -0.00014   0.00000  -0.00116  -0.00116   2.16786
    A8        2.00395   0.00014   0.00000   0.00075   0.00075   2.00469
    A9        2.10619  -0.00011   0.00000   0.00131   0.00132   2.10751
   A10        2.12462   0.00016   0.00000  -0.00002  -0.00004   2.12458
   A11        2.05236  -0.00006   0.00000  -0.00128  -0.00128   2.05108
   A12        2.13477  -0.00196   0.00000  -0.01675  -0.01676   2.11801
   A13        2.06066   0.00119   0.00000   0.01095   0.01096   2.07162
   A14        2.08776   0.00077   0.00000   0.00581   0.00580   2.09356
   A15        2.13840  -0.00322   0.00000  -0.02017  -0.02014   2.11826
   A16        2.07095   0.00161   0.00000   0.01012   0.01010   2.08105
   A17        2.07384   0.00161   0.00000   0.01005   0.01003   2.08387
   A18        2.08618   0.00078   0.00000   0.00576   0.00575   2.09193
   A19        2.06377   0.00116   0.00000   0.01091   0.01093   2.07470
   A20        2.13323  -0.00194   0.00000  -0.01667  -0.01668   2.11656
   A21        2.12125   0.00011   0.00000  -0.00013  -0.00015   2.12111
   A22        2.07426  -0.00008   0.00000   0.00151   0.00152   2.07577
   A23        2.08768  -0.00004   0.00000  -0.00138  -0.00137   2.08631
    D1        3.13146   0.00001   0.00000   0.00078   0.00078   3.13224
    D2       -0.00808   0.00001   0.00000   0.00075   0.00075  -0.00733
    D3        3.08172   0.00000   0.00000   0.00045   0.00045   3.08217
    D4       -0.06208   0.00000   0.00000   0.00049   0.00049  -0.06159
    D5       -0.05869   0.00000   0.00000   0.00039   0.00039  -0.05830
    D6        3.08071   0.00000   0.00000   0.00043   0.00043   3.08113
    D7       -0.00714   0.00000   0.00000   0.00010   0.00009  -0.00705
    D8        3.13912   0.00000   0.00000   0.00024   0.00024   3.13936
    D9        3.13327   0.00000   0.00000   0.00016   0.00016   3.13343
   D10       -0.00365   0.00000   0.00000   0.00030   0.00030  -0.00334
   D11       -3.13813   0.00001   0.00000  -0.00016  -0.00016  -3.13829
   D12        0.00282   0.00000   0.00000  -0.00004  -0.00004   0.00278
   D13        0.00459   0.00000   0.00000  -0.00022  -0.00022   0.00437
   D14       -3.13764   0.00000   0.00000  -0.00010  -0.00010  -3.13774
   D15        3.11218   0.00001   0.00000   0.00121   0.00121   3.11338
   D16       -0.02722   0.00001   0.00000   0.00117   0.00117  -0.02605
   D17        3.14062   0.00000   0.00000  -0.00007  -0.00007   3.14054
   D18        0.00082  -0.00001   0.00000  -0.00024  -0.00024   0.00058
   D19        0.00356   0.00000   0.00000   0.00006   0.00006   0.00362
   D20       -3.13624  -0.00001   0.00000  -0.00011  -0.00011  -3.13635
   D21        0.00124   0.00001   0.00000   0.00007   0.00007   0.00132
   D22       -3.14103   0.00000   0.00000  -0.00074  -0.00074   3.14142
   D23       -3.13860   0.00000   0.00000  -0.00007  -0.00007  -3.13867
   D24        0.00232  -0.00001   0.00000  -0.00089  -0.00089   0.00143
   D25        3.14019   0.00000   0.00000  -0.00008  -0.00008   3.14011
   D26       -0.00034  -0.00001   0.00000   0.00002   0.00002  -0.00032
   D27       -0.00073   0.00001   0.00000   0.00074   0.00074   0.00001
   D28       -3.14125   0.00000   0.00000   0.00083   0.00083  -3.14042
   D29       -0.00267   0.00000   0.00000   0.00006   0.00006  -0.00261
   D30        3.13957   0.00000   0.00000  -0.00006  -0.00006   3.13951
   D31        3.14002   0.00000   0.00000   0.00015   0.00015   3.14017
   D32       -0.00093   0.00000   0.00000   0.00003   0.00003  -0.00090
         Item               Value     Threshold  Converged?
 Maximum Force            0.005719     0.000015     NO 
 RMS     Force            0.001118     0.000010     NO 
 Maximum Displacement     0.026642     0.000060     NO 
 RMS     Displacement     0.006169     0.000040     NO 
 Predicted change in Energy=-2.311179D-04
 GradGradGradGradGradGradGradGradGradGradGradGradGradGradGradGradGradGrad

                          Input orientation:                          
 ---------------------------------------------------------------------
 Center     Atomic      Atomic             Coordinates (Angstroms)
 Number     Number       Type             X           Y           Z
 ---------------------------------------------------------------------
      1          8           0        8.685367    7.455773    5.541112
      2          1           0        9.498355    7.147671    5.951709
      3          6           0        6.242575    6.995847    5.173298
      4          5           0        7.639558    6.614556    5.772352
      5          8           0        7.876847    5.491068    6.515750
      6          1           0        7.107347    4.942051    6.672945
      7          6           0        5.117398    6.173947    5.288419
      8          1           0        5.177289    5.218968    5.803271
      9          6           0        3.889059    6.537077    4.750009
     10          1           0        3.022146    5.895627    4.841897
     11          6           0        3.786489    7.749625    4.081327
     12          6           0        4.880836    8.593919    3.943066
     13          1           0        4.773651    9.533206    3.415667
     14          6           0        6.098222    8.208495    4.488751
     15          1           0        6.959815    8.858256    4.385512
     16         17           0        2.253014    8.218807    3.400495
 ---------------------------------------------------------------------
                    Distance matrix (angstroms):
                    1          2          3          4          5
     1  O    0.000000
     2  H    0.961492   0.000000
     3  C    2.512778   3.350982   0.000000
     4  B    1.361923   1.942037   1.567103   0.000000
     5  O    2.337453   2.385742   2.595647   1.367907   0.000000
     6  H    3.176474   3.331946   2.686047   1.972711   0.958259
     7  C    3.799649   4.536615   1.398140   2.605689   3.096324
     8  H    4.168769   4.734294   2.165410   2.830440   2.805223
     9  C    4.947163   5.768979   2.434888   3.888114   4.484911
    10  H    5.915659   6.688840   3.419279   4.764776   5.151074
    11  C    5.120188   6.040371   2.791583   4.358221   5.268635
    12  C    4.280605   5.239061   2.433441   3.856775   5.022197
    13  H    4.912714   5.868995   3.418361   4.720795   5.964831
    14  C    2.892642   3.850519   1.399985   2.562029   3.828399
    15  H    2.505973   3.438497   2.145603   2.723889   4.088620
    16  Cl   6.821996   7.755707   4.533768   6.100343   6.983757
                    6          7          8          9         10
     6  H    0.000000
     7  C    2.719260   0.000000
     8  H    2.134980   1.086575   0.000000
     9  C    4.074208   1.389449   2.122808   0.000000
    10  H    4.577216   2.160307   2.454944   1.082330   0.000000
    11  C    5.062317   2.389802   3.362089   1.388499   2.144760
    12  C    5.074025   2.778885   3.865041   2.421854   3.397558
    13  H    6.093824   3.861345   4.947345   3.397022   4.281808
    14  C    4.056932   2.396012   3.393133   2.782498   3.864752
    15  H    4.537706   3.378648   4.293234   3.866559   4.948807
    16  Cl   6.708994   3.993796   4.829467   2.706667   2.840136
                   11         12         13         14         15
    11  C    0.000000
    12  C    1.389079   0.000000
    13  H    2.144470   1.082543   0.000000
    14  C    2.391791   1.388651   2.158901   0.000000
    15  H    3.375142   2.141912   2.485049   1.084062   0.000000
    16  Cl   1.742186   2.709343   2.842796   3.996252   4.851096
                   16
    16  Cl   0.000000
 Symmetry turned off by external request.
 Stoichiometry    C6H6BClO2
 Framework group  C1[X(C6H6BClO2)]
 Deg. of freedom    42
 Full point group                 C1      NOp   1
 Rotational constants (GHZ):           3.6931447           0.5238486           0.4588732
 Standard basis: 6-311+G(d,p) (5D, 7F)
   264 basis functions,   425 primitive gaussians,   274 cartesian basis functions
    40 alpha electrons       40 beta electrons
       nuclear repulsion energy       533.8127990949 Hartrees.
 NAtoms=   16 NActive=   16 NUniq=   16 SFac= 1.00D+00 NAtFMM=   60 NAOKFM=F Big=F
 Integral buffers will be    131072 words long.
 Raffenetti 2 integral format.
 Two-electron integral symmetry is turned off.
 One-electron integrals computed using PRISM.
 NBasis=   264 RedAO= T EigKep=  2.19D-06  NBF=   264
 NBsUse=   264 1.00D-06 EigRej= -1.00D+00 NBFU=   264
 Initial guess from the checkpoint file:  "4-cl-phboh2-opt-freq.chk"
 B after Tr=     0.000386   -0.000731   -0.001748
         Rot=    1.000000    0.000018    0.000073   -0.000026 Ang=   0.01 deg.
 ExpMin= 3.15D-02 ExpMax= 1.06D+05 ExpMxC= 3.62D+03 IAcc=3 IRadAn=         5 AccDes= 0.00D+00
 Harris functional with IExCor= 1009 and IRadAn=       5 diagonalized for initial guess.
 HarFok:  IExCor= 1009 AccDes= 0.00D+00 IRadAn=         5 IDoV= 1 UseB2=F ITyADJ=14
 ICtDFT=  3500011 ScaDFX=  1.000000  1.000000  1.000000  1.000000
 FoFCou: FMM=F IPFlag=           0 FMFlag=      100000 FMFlg1=           0
         NFxFlg=           0 DoJE=T BraDBF=F KetDBF=T FulRan=T
         wScrn=  0.000000 ICntrl=       500 IOpCl=  0 I1Cent=   200000004 NGrid=           0
         NMat0=    1 NMatS0=      1 NMatT0=    0 NMatD0=    1 NMtDS0=    0 NMtDT0=    0
 Symmetry not used in FoFCou.
 Requested convergence on RMS density matrix=1.00D-08 within 128 cycles.
 Requested convergence on MAX density matrix=1.00D-06.
 Requested convergence on             energy=1.00D-06.
 Level shift goal  0.100 maximum shift  0.100.
 No special actions if energy rises.
 Dynamic level shift is on during FON iterations.
 SCF Done:  E(RM062X) =  -867.826080648     A.U. after   13 cycles
            NFock= 13  Conv=0.40D-08     -V/T= 2.0028
 Calling FoFJK, ICntrl=      2127 FMM=F ISym2X=0 I1Cent= 0 IOpClX= 0 NMat=1 NMatS=1 NMatT=0.
 -------------------------------------------------------------------
 Center     Atomic                   Forces (Hartrees/Bohr)
 Number     Number              X              Y              Z
 -------------------------------------------------------------------
      1        8          -0.000000852    0.000000904    0.000002473
      2        1          -0.000000346   -0.000000457    0.000002894
      3        6           0.000013763   -0.000004661    0.000007020
      4        5           0.000003173   -0.000001552    0.000002512
      5        8          -0.000002404   -0.000001210    0.000001742
      6        1          -0.000001135   -0.000001583   -0.000000376
      7        6           0.000008019   -0.000007961    0.000005844
      8        1          -0.000001233   -0.000001010   -0.000001488
      9        6          -0.000030523   -0.000052923    0.000018666
     10        1          -0.000002842   -0.000001918   -0.000002613
     11        6           0.000210931   -0.000064415    0.000090131
     12        6           0.000044632    0.000050256   -0.000013453
     13        1          -0.000001812    0.000007080   -0.000004217
     14        6           0.000015971    0.000001150    0.000004704
     15        1          -0.000000346    0.000000972    0.000001223
     16       17          -0.000254996    0.000077327   -0.000115063
 -------------------------------------------------------------------
 Cartesian Forces:  Max     0.000254996 RMS     0.000056020

 GradGradGradGradGradGradGradGradGradGradGradGradGradGradGradGradGradGrad
 Berny optimization.
 Using GEDIIS/GDIIS optimizer.
 FormGI is forming the generalized inverse of G from B-inverse, IUseBI=4.
 Internal  Forces:  Max     0.000290262 RMS     0.000036578
 Search for a local minimum.
 Step number   2 out of a maximum of   81
 All quantities printed in internal units (Hartrees-Bohrs-Radians)
 Mixed Optimization -- En-DIIS/RFO-DIIS
 Update second derivatives using D2CorX and points    1    2
 DE= -2.28D-04 DEPred=-2.31D-04 R= 9.85D-01
 TightC=F SS=  1.41D+00  RLast= 5.31D-02 DXNew= 5.0454D-01 1.5937D-01
 Trust test= 9.85D-01 RLast= 5.31D-02 DXMaxT set to 3.00D-01
 ITU=  1  0
 Use linear search instead of GDIIS.
     Eigenvalues ---    0.00081   0.01018   0.01207   0.01495   0.01728
     Eigenvalues ---    0.01748   0.02126   0.02343   0.02589   0.02717
     Eigenvalues ---    0.02872   0.03119   0.03962   0.10317   0.11076
     Eigenvalues ---    0.11193   0.11360   0.11974   0.12617   0.15953
     Eigenvalues ---    0.16209   0.17576   0.18599   0.19025   0.19553
     Eigenvalues ---    0.20197   0.26128   0.28192   0.29359   0.35636
     Eigenvalues ---    0.36530   0.36739   0.36877   0.39288   0.42503
     Eigenvalues ---    0.42757   0.48182   0.48496   0.49183   0.52453
     Eigenvalues ---    0.55223   0.56316
 RFO step:  Lambda=-2.25566174D-07 EMin= 8.13942121D-04
 Quartic linear search produced a step of -0.01897.
 Iteration  1 RMS(Cart)=  0.00052654 RMS(Int)=  0.00000021
 Iteration  2 RMS(Cart)=  0.00000017 RMS(Int)=  0.00000018
 Variable       Old X    -DE/DX   Delta X   Delta X   Delta X     New X
                                 (Linear)    (Quad)   (Total)
    R1        1.81696   0.00000   0.00000   0.00000   0.00000   1.81696
    R2        2.57366   0.00000   0.00002  -0.00002   0.00000   2.57366
    R3        2.96140   0.00000  -0.00006   0.00009   0.00003   2.96143
    R4        2.64210   0.00002   0.00003   0.00001   0.00003   2.64214
    R5        2.64559   0.00002   0.00004   0.00000   0.00003   2.64562
    R6        2.58497   0.00000   0.00002  -0.00004  -0.00001   2.58496
    R7        1.81085   0.00000   0.00000   0.00000   0.00000   1.81084
    R8        2.05333   0.00000   0.00000   0.00001   0.00000   2.05333
    R9        2.62568   0.00003   0.00000   0.00007   0.00007   2.62575
   R10        2.04531   0.00000   0.00000  -0.00001   0.00000   2.04530
   R11        2.62388   0.00006  -0.00017   0.00022   0.00005   2.62393
   R12        2.62498   0.00007  -0.00018   0.00024   0.00007   2.62505
   R13        3.29225   0.00029   0.00064   0.00066   0.00130   3.29355
   R14        2.04571   0.00001   0.00000   0.00001   0.00001   2.04572
   R15        2.62417   0.00002   0.00000   0.00005   0.00005   2.62422
   R16        2.04858   0.00000   0.00000   0.00000   0.00000   2.04858
    A1        1.95936   0.00000  -0.00002   0.00004   0.00002   1.95938
    A2        2.14468   0.00000   0.00000   0.00003   0.00003   2.14471
    A3        2.08241  -0.00001  -0.00003  -0.00004  -0.00007   2.08234
    A4        2.05609   0.00001   0.00003   0.00001   0.00004   2.05613
    A5        2.05934   0.00000   0.00002  -0.00007  -0.00004   2.05930
    A6        2.05598   0.00000  -0.00004   0.00006   0.00001   2.05599
    A7        2.16786   0.00000   0.00002   0.00001   0.00003   2.16789
    A8        2.00469   0.00000  -0.00001   0.00004   0.00003   2.00472
    A9        2.10751   0.00000  -0.00002   0.00002  -0.00001   2.10750
   A10        2.12458   0.00001   0.00000   0.00003   0.00003   2.12462
   A11        2.05108   0.00000   0.00002  -0.00005  -0.00002   2.05106
   A12        2.11801   0.00001   0.00032  -0.00025   0.00007   2.11808
   A13        2.07162  -0.00001  -0.00021   0.00005  -0.00016   2.07146
   A14        2.09356   0.00001  -0.00011   0.00020   0.00009   2.09365
   A15        2.11826   0.00000   0.00038  -0.00017   0.00021   2.11847
   A16        2.08105   0.00000  -0.00019   0.00007  -0.00012   2.08093
   A17        2.08387   0.00001  -0.00019   0.00011  -0.00008   2.08379
   A18        2.09193   0.00000  -0.00011   0.00015   0.00004   2.09197
   A19        2.07470  -0.00001  -0.00021   0.00007  -0.00014   2.07456
   A20        2.11656   0.00001   0.00032  -0.00022   0.00010   2.11666
   A21        2.12111   0.00001   0.00000   0.00002   0.00002   2.12113
   A22        2.07577   0.00000  -0.00003   0.00003   0.00000   2.07578
   A23        2.08631   0.00000   0.00003  -0.00005  -0.00002   2.08628
    D1        3.13224   0.00000  -0.00001   0.00016   0.00015   3.13239
    D2       -0.00733   0.00000  -0.00001   0.00013   0.00011  -0.00722
    D3        3.08217   0.00000  -0.00001   0.00084   0.00083   3.08300
    D4       -0.06159   0.00000  -0.00001   0.00087   0.00086  -0.06072
    D5       -0.05830   0.00000  -0.00001   0.00084   0.00083  -0.05747
    D6        3.08113   0.00000  -0.00001   0.00087   0.00087   3.08200
    D7       -0.00705   0.00000   0.00000   0.00011   0.00011  -0.00694
    D8        3.13936   0.00000   0.00000   0.00005   0.00005   3.13941
    D9        3.13343   0.00000   0.00000   0.00011   0.00011   3.13354
   D10       -0.00334   0.00000  -0.00001   0.00005   0.00004  -0.00330
   D11       -3.13829   0.00000   0.00000  -0.00007  -0.00007  -3.13836
   D12        0.00278   0.00000   0.00000  -0.00005  -0.00005   0.00273
   D13        0.00437   0.00000   0.00000  -0.00007  -0.00007   0.00431
   D14       -3.13774   0.00000   0.00000  -0.00006  -0.00005  -3.13780
   D15        3.11338   0.00000  -0.00002   0.00040   0.00038   3.11376
   D16       -0.02605   0.00000  -0.00002   0.00037   0.00035  -0.02571
   D17        3.14054   0.00000   0.00000   0.00002   0.00002   3.14056
   D18        0.00058   0.00000   0.00000   0.00000   0.00001   0.00058
   D19        0.00362   0.00000   0.00000  -0.00004  -0.00004   0.00358
   D20       -3.13635   0.00000   0.00000  -0.00006  -0.00006  -3.13640
   D21        0.00132   0.00000   0.00000  -0.00003  -0.00004   0.00128
   D22        3.14142   0.00000   0.00001  -0.00001   0.00000   3.14142
   D23       -3.13867   0.00000   0.00000  -0.00005  -0.00005  -3.13872
   D24        0.00143   0.00000   0.00002  -0.00003  -0.00001   0.00142
   D25        3.14011   0.00000   0.00000   0.00002   0.00002   3.14013
   D26       -0.00032   0.00000   0.00000   0.00001   0.00001  -0.00031
   D27        0.00001   0.00000  -0.00001   0.00000  -0.00002  -0.00001
   D28       -3.14042   0.00000  -0.00002  -0.00001  -0.00003  -3.14044
   D29       -0.00261   0.00000   0.00000   0.00004   0.00004  -0.00257
   D30        3.13951   0.00000   0.00000   0.00002   0.00003   3.13954
   D31        3.14017   0.00000   0.00000   0.00003   0.00003   3.14020
   D32       -0.00090   0.00000   0.00000   0.00002   0.00002  -0.00088
         Item               Value     Threshold  Converged?
 Maximum Force            0.000290     0.000015     NO 
 RMS     Force            0.000037     0.000010     NO 
 Maximum Displacement     0.002196     0.000060     NO 
 RMS     Displacement     0.000527     0.000040     NO 
 Predicted change in Energy=-2.008390D-07
 GradGradGradGradGradGradGradGradGradGradGradGradGradGradGradGradGradGrad

                          Input orientation:                          
 ---------------------------------------------------------------------
 Center     Atomic      Atomic             Coordinates (Angstroms)
 Number     Number       Type             X           Y           Z
 ---------------------------------------------------------------------
      1          8           0        8.685156    7.456231    5.541794
      2          1           0        9.498225    7.148100    5.952208
      3          6           0        6.242555    6.995845    5.173408
      4          5           0        7.639567    6.614582    5.772458
      5          8           0        7.877086    5.490745    6.515243
      6          1           0        7.107803    4.941240    6.671783
      7          6           0        5.117299    6.174052    5.288735
      8          1           0        5.177117    5.219209    5.803850
      9          6           0        3.888927    6.537134    4.750269
     10          1           0        3.021938    5.895812    4.842312
     11          6           0        3.786615    7.749593    4.081334
     12          6           0        4.880984    8.593876    3.942836
     13          1           0        4.773823    9.533058    3.415235
     14          6           0        6.098328    8.208406    4.488643
     15          1           0        6.959983    8.858069    4.385308
     16         17           0        2.252562    8.218942    3.400163
 ---------------------------------------------------------------------
                    Distance matrix (angstroms):
                    1          2          3          4          5
     1  O    0.000000
     2  H    0.961491   0.000000
     3  C    2.512760   3.350984   0.000000
     4  B    1.361923   1.942051   1.567120   0.000000
     5  O    2.337458   2.385775   2.595677   1.367901   0.000000
     6  H    3.176491   3.331987   2.686109   1.972722   0.958258
     7  C    3.799687   4.536681   1.398158   2.605742   3.096394
     8  H    4.168845   4.734406   2.165422   2.830496   2.805289
     9  C    4.947228   5.769069   2.434960   3.888209   4.485028
    10  H    5.915760   6.688975   3.419367   4.764902   5.151237
    11  C    5.120029   6.040235   2.791487   4.358140   5.268610
    12  C    4.280494   5.238965   2.433493   3.856799   5.022283
    13  H    4.912636   5.868921   3.418450   4.720857   5.964946
    14  C    2.892502   3.850398   1.400003   2.562005   3.828415
    15  H    2.505760   3.438291   2.145619   2.723831   4.088590
    16  Cl   6.822505   7.756241   4.534359   6.100949   6.984415
                    6          7          8          9         10
     6  H    0.000000
     7  C    2.719329   0.000000
     8  H    2.134976   1.086576   0.000000
     9  C    4.074341   1.389487   2.122827   0.000000
    10  H    4.577386   2.160381   2.455024   1.082328   0.000000
    11  C    5.062367   2.389741   3.362053   1.388523   2.144836
    12  C    5.074212   2.778999   3.865158   2.422047   3.397742
    13  H    6.094043   3.861464   4.947466   3.397192   4.281963
    14  C    4.057032   2.396072   3.393184   2.782634   3.864886
    15  H    4.537771   3.378700   4.293271   3.866694   4.948940
    16  Cl   6.709709   3.994371   4.830024   2.707204   2.840539
                   11         12         13         14         15
    11  C    0.000000
    12  C    1.389114   0.000000
    13  H    2.144531   1.082548   0.000000
    14  C    2.391741   1.388676   2.158987   0.000000
    15  H    3.375112   2.141919   2.485145   1.084061   0.000000
    16  Cl   1.742872   2.709921   2.843217   3.996851   4.851681
                   16
    16  Cl   0.000000
 Symmetry turned off by external request.
 Stoichiometry    C6H6BClO2
 Framework group  C1[X(C6H6BClO2)]
 Deg. of freedom    42
 Full point group                 C1      NOp   1
 Rotational constants (GHZ):           3.6929185           0.5237735           0.4588093
 Standard basis: 6-311+G(d,p) (5D, 7F)
   264 basis functions,   425 primitive gaussians,   274 cartesian basis functions
    40 alpha electrons       40 beta electrons
       nuclear repulsion energy       533.7792985567 Hartrees.
 NAtoms=   16 NActive=   16 NUniq=   16 SFac= 1.00D+00 NAtFMM=   60 NAOKFM=F Big=F
 Integral buffers will be    131072 words long.
 Raffenetti 2 integral format.
 Two-electron integral symmetry is turned off.
 One-electron integrals computed using PRISM.
 NBasis=   264 RedAO= T EigKep=  2.19D-06  NBF=   264
 NBsUse=   264 1.00D-06 EigRej= -1.00D+00 NBFU=   264
 Initial guess from the checkpoint file:  "4-cl-phboh2-opt-freq.chk"
 B after Tr=     0.000708    0.000224   -0.001232
         Rot=    1.000000   -0.000028    0.000021   -0.000018 Ang=   0.00 deg.
 Requested convergence on RMS density matrix=1.00D-08 within 128 cycles.
 Requested convergence on MAX density matrix=1.00D-06.
 Requested convergence on             energy=1.00D-06.
 Level shift goal  0.100 maximum shift  0.100.
 No special actions if energy rises.
 Dynamic level shift is on during FON iterations.
 SCF Done:  E(RM062X) =  -867.826080840     A.U. after    9 cycles
            NFock=  9  Conv=0.25D-08     -V/T= 2.0028
 Calling FoFJK, ICntrl=      2127 FMM=F ISym2X=0 I1Cent= 0 IOpClX= 0 NMat=1 NMatS=1 NMatT=0.
 -------------------------------------------------------------------
 Center     Atomic                   Forces (Hartrees/Bohr)
 Number     Number              X              Y              Z
 -------------------------------------------------------------------
      1        8          -0.000000069   -0.000000649    0.000002791
      2        1          -0.000000935   -0.000001170    0.000003450
      3        6           0.000000348   -0.000000470    0.000000695
      4        5          -0.000001658   -0.000000475    0.000000974
      5        8          -0.000001342   -0.000001505    0.000001195
      6        1          -0.000002010   -0.000000984    0.000000127
      7        6          -0.000000353    0.000000691   -0.000001537
      8        1          -0.000000926   -0.000000217   -0.000001545
      9        6          -0.000001292   -0.000000992   -0.000001589
     10        1          -0.000000744    0.000001339   -0.000003784
     11        6          -0.000007014    0.000003246   -0.000004934
     12        6           0.000001800    0.000002523   -0.000000993
     13        1           0.000000735    0.000000869    0.000000078
     14        6           0.000000144   -0.000000291    0.000000961
     15        1           0.000000874   -0.000000047    0.000002015
     16       17           0.000012442   -0.000001867    0.000002096
 -------------------------------------------------------------------
 Cartesian Forces:  Max     0.000012442 RMS     0.000002623

 GradGradGradGradGradGradGradGradGradGradGradGradGradGradGradGradGradGrad
 Berny optimization.
 Using GEDIIS/GDIIS optimizer.
 FormGI is forming the generalized inverse of G from B-inverse, IUseBI=4.
 Internal  Forces:  Max     0.000012250 RMS     0.000001548
 Search for a local minimum.
 Step number   3 out of a maximum of   81
 All quantities printed in internal units (Hartrees-Bohrs-Radians)
 Mixed Optimization -- En-DIIS/RFO-DIIS
 Swapping is turned off.
 Update second derivatives using D2CorX and points    1    2    3
 DE= -1.92D-07 DEPred=-2.01D-07 R= 9.54D-01
 Trust test= 9.54D-01 RLast= 2.25D-03 DXMaxT set to 3.00D-01
 ITU=  0  1  0
     Eigenvalues ---    0.00081   0.01018   0.01207   0.01495   0.01728
     Eigenvalues ---    0.01748   0.02126   0.02343   0.02589   0.02717
     Eigenvalues ---    0.02872   0.03119   0.03962   0.10317   0.11075
     Eigenvalues ---    0.11192   0.11359   0.11973   0.12618   0.15953
     Eigenvalues ---    0.16480   0.17576   0.18601   0.19025   0.19559
     Eigenvalues ---    0.20197   0.26920   0.28194   0.29384   0.35636
     Eigenvalues ---    0.36530   0.36739   0.36879   0.39288   0.42513
     Eigenvalues ---    0.42771   0.48166   0.48492   0.49183   0.52367
     Eigenvalues ---    0.55223   0.56316
 En-DIIS/RFO-DIIS/Sim-DIIS IScMMF=       -3 using points:     3    2
 RFO step:  Lambda=-5.68732386D-10.
 DidBck=F Rises=F RFO-DIIS coefs:    0.96121    0.03879
 Iteration  1 RMS(Cart)=  0.00002225 RMS(Int)=  0.00000000
 Iteration  2 RMS(Cart)=  0.00000000 RMS(Int)=  0.00000000
 Variable       Old X    -DE/DX   Delta X   Delta X   Delta X     New X
                                 (Linear)    (Quad)   (Total)
    R1        1.81696   0.00000   0.00000   0.00000   0.00000   1.81696
    R2        2.57366   0.00000   0.00000   0.00000   0.00000   2.57366
    R3        2.96143   0.00000   0.00000   0.00000   0.00000   2.96142
    R4        2.64214   0.00000   0.00000   0.00000   0.00000   2.64214
    R5        2.64562   0.00000   0.00000   0.00000   0.00000   2.64562
    R6        2.58496   0.00000   0.00000   0.00000   0.00000   2.58496
    R7        1.81084   0.00000   0.00000   0.00000   0.00000   1.81085
    R8        2.05333   0.00000   0.00000   0.00000   0.00000   2.05333
    R9        2.62575   0.00000   0.00000   0.00000   0.00000   2.62575
   R10        2.04530   0.00000   0.00000   0.00000   0.00000   2.04530
   R11        2.62393   0.00000   0.00000   0.00000   0.00000   2.62393
   R12        2.62505   0.00000   0.00000   0.00000   0.00000   2.62505
   R13        3.29355  -0.00001  -0.00005   0.00000  -0.00005   3.29350
   R14        2.04572   0.00000   0.00000   0.00000   0.00000   2.04572
   R15        2.62422   0.00000   0.00000   0.00000   0.00000   2.62422
   R16        2.04858   0.00000   0.00000   0.00000   0.00000   2.04858
    A1        1.95938   0.00000   0.00000   0.00000   0.00000   1.95938
    A2        2.14471   0.00000   0.00000   0.00000   0.00000   2.14471
    A3        2.08234   0.00000   0.00000   0.00000   0.00000   2.08234
    A4        2.05613   0.00000   0.00000   0.00000   0.00000   2.05614
    A5        2.05930   0.00000   0.00000   0.00000   0.00000   2.05930
    A6        2.05599   0.00000   0.00000   0.00000   0.00000   2.05599
    A7        2.16789   0.00000   0.00000   0.00000   0.00000   2.16789
    A8        2.00472   0.00000   0.00000   0.00000   0.00000   2.00472
    A9        2.10750   0.00000   0.00000   0.00000   0.00000   2.10750
   A10        2.12462   0.00000   0.00000   0.00000   0.00000   2.12462
   A11        2.05106   0.00000   0.00000   0.00000   0.00000   2.05106
   A12        2.11808   0.00000   0.00000   0.00002   0.00001   2.11809
   A13        2.07146   0.00000   0.00001  -0.00001   0.00000   2.07146
   A14        2.09365   0.00000   0.00000  -0.00001  -0.00001   2.09364
   A15        2.11847   0.00000  -0.00001   0.00001   0.00000   2.11847
   A16        2.08093   0.00000   0.00000  -0.00001   0.00000   2.08093
   A17        2.08379   0.00000   0.00000  -0.00001   0.00000   2.08379
   A18        2.09197   0.00000   0.00000  -0.00001  -0.00001   2.09196
   A19        2.07456   0.00000   0.00001  -0.00001   0.00000   2.07455
   A20        2.11666   0.00000   0.00000   0.00002   0.00001   2.11667
   A21        2.12113   0.00000   0.00000   0.00000   0.00000   2.12113
   A22        2.07578   0.00000   0.00000   0.00000   0.00000   2.07577
   A23        2.08628   0.00000   0.00000   0.00000   0.00000   2.08628
    D1        3.13239   0.00000  -0.00001   0.00000  -0.00001   3.13238
    D2       -0.00722   0.00000   0.00000   0.00000  -0.00001  -0.00723
    D3        3.08300   0.00000  -0.00003   0.00000  -0.00003   3.08296
    D4       -0.06072   0.00000  -0.00003   0.00000  -0.00004  -0.06076
    D5       -0.05747   0.00000  -0.00003   0.00000  -0.00003  -0.05750
    D6        3.08200   0.00000  -0.00003   0.00000  -0.00003   3.08196
    D7       -0.00694   0.00000   0.00000   0.00000   0.00000  -0.00695
    D8        3.13941   0.00000   0.00000   0.00000   0.00000   3.13940
    D9        3.13354   0.00000   0.00000   0.00000  -0.00001   3.13353
   D10       -0.00330   0.00000   0.00000   0.00000   0.00000  -0.00330
   D11       -3.13836   0.00000   0.00000   0.00000   0.00000  -3.13836
   D12        0.00273   0.00000   0.00000   0.00000   0.00000   0.00273
   D13        0.00431   0.00000   0.00000   0.00000   0.00000   0.00431
   D14       -3.13780   0.00000   0.00000   0.00000   0.00000  -3.13779
   D15        3.11376   0.00000  -0.00001  -0.00001  -0.00002   3.11374
   D16       -0.02571   0.00000  -0.00001  -0.00001  -0.00002  -0.02573
   D17        3.14056   0.00000   0.00000   0.00000   0.00000   3.14056
   D18        0.00058   0.00000   0.00000   0.00000   0.00000   0.00058
   D19        0.00358   0.00000   0.00000   0.00000   0.00000   0.00358
   D20       -3.13640   0.00000   0.00000   0.00000   0.00000  -3.13640
   D21        0.00128   0.00000   0.00000   0.00000   0.00000   0.00128
   D22        3.14142   0.00000   0.00000   0.00000   0.00000   3.14142
   D23       -3.13872   0.00000   0.00000   0.00000   0.00000  -3.13872
   D24        0.00142   0.00000   0.00000   0.00000   0.00000   0.00142
   D25        3.14013   0.00000   0.00000   0.00000   0.00000   3.14013
   D26       -0.00031   0.00000   0.00000   0.00000   0.00000  -0.00031
   D27       -0.00001   0.00000   0.00000   0.00000   0.00000  -0.00001
   D28       -3.14044   0.00000   0.00000   0.00000   0.00000  -3.14044
   D29       -0.00257   0.00000   0.00000   0.00000   0.00000  -0.00257
   D30        3.13954   0.00000   0.00000   0.00000   0.00000   3.13954
   D31        3.14020   0.00000   0.00000   0.00000   0.00000   3.14020
   D32       -0.00088   0.00000   0.00000   0.00000   0.00000  -0.00088
         Item               Value     Threshold  Converged?
 Maximum Force            0.000012     0.000015     YES
 RMS     Force            0.000002     0.000010     YES
 Maximum Displacement     0.000097     0.000060     NO 
 RMS     Displacement     0.000022     0.000040     YES
 Predicted change in Energy=-3.485449D-10
 GradGradGradGradGradGradGradGradGradGradGradGradGradGradGradGradGradGrad

                          Input orientation:                          
 ---------------------------------------------------------------------
 Center     Atomic      Atomic             Coordinates (Angstroms)
 Number     Number       Type             X           Y           Z
 ---------------------------------------------------------------------
      1          8           0        8.685162    7.456214    5.541765
      2          1           0        9.498228    7.148086    5.952188
      3          6           0        6.242555    6.995843    5.173404
      4          5           0        7.639566    6.614580    5.772452
      5          8           0        7.877080    5.490758    6.515262
      6          1           0        7.107787    4.941274    6.671834
      7          6           0        5.117302    6.174045    5.288723
      8          1           0        5.177127    5.219196    5.803826
      9          6           0        3.888928    6.537127    4.750260
     10          1           0        3.021935    5.895810    4.842289
     11          6           0        3.786616    7.749593    4.081337
     12          6           0        4.880982    8.593882    3.942844
     13          1           0        4.773806    9.533066    3.415249
     14          6           0        6.098326    8.208410    4.488648
     15          1           0        6.959981    8.858073    4.385320
     16         17           0        2.252585    8.218936    3.400178
 ---------------------------------------------------------------------
                    Distance matrix (angstroms):
                    1          2          3          4          5
     1  O    0.000000
     2  H    0.961491   0.000000
     3  C    2.512760   3.350984   0.000000
     4  B    1.361924   1.942050   1.567118   0.000000
     5  O    2.337458   2.385772   2.595676   1.367902   0.000000
     6  H    3.176490   3.331984   2.686108   1.972721   0.958258
     7  C    3.799687   4.536679   1.398158   2.605740   3.096394
     8  H    4.168841   4.734400   2.165420   2.830492   2.805286
     9  C    4.947228   5.769068   2.434960   3.888207   4.485028
    10  H    5.915765   6.688980   3.419372   4.764908   5.151246
    11  C    5.120027   6.040232   2.791484   4.358135   5.268607
    12  C    4.280493   5.238964   2.433493   3.856797   5.022282
    13  H    4.912646   5.868931   3.418455   4.720863   5.964951
    14  C    2.892503   3.850398   1.400003   2.562003   3.828414
    15  H    2.505758   3.438288   2.145618   2.723826   4.088585
    16  Cl   6.822477   7.756212   4.534330   6.100918   6.984386
                    6          7          8          9         10
     6  H    0.000000
     7  C    2.719330   0.000000
     8  H    2.134977   1.086576   0.000000
     9  C    4.074340   1.389486   2.122828   0.000000
    10  H    4.577397   2.160389   2.455039   1.082328   0.000000
    11  C    5.062362   2.389740   3.362053   1.388524   2.144831
    12  C    5.074209   2.779002   3.865160   2.422052   3.397743
    13  H    6.094044   3.861466   4.947469   3.397192   4.281954
    14  C    4.057029   2.396074   3.393184   2.782637   3.864889
    15  H    4.537764   3.378700   4.293268   3.866696   4.948943
    16  Cl   6.709679   3.994344   4.830001   2.707180   2.840510
                   11         12         13         14         15
    11  C    0.000000
    12  C    1.389115   0.000000
    13  H    2.144527   1.082548   0.000000
    14  C    2.391740   1.388675   2.158994   0.000000
    15  H    3.375112   2.141919   2.485159   1.084061   0.000000
    16  Cl   1.742846   2.709897   2.843189   3.996824   4.851658
                   16
    16  Cl   0.000000
 Symmetry turned off by external request.
 Stoichiometry    C6H6BClO2
 Framework group  C1[X(C6H6BClO2)]
 Deg. of freedom    42
 Full point group                 C1      NOp   1
 Rotational constants (GHZ):           3.6929152           0.5237773           0.4588123
 Standard basis: 6-311+G(d,p) (5D, 7F)
   264 basis functions,   425 primitive gaussians,   274 cartesian basis functions
    40 alpha electrons       40 beta electrons
       nuclear repulsion energy       533.7805712565 Hartrees.
 NAtoms=   16 NActive=   16 NUniq=   16 SFac= 1.00D+00 NAtFMM=   60 NAOKFM=F Big=F
 Integral buffers will be    131072 words long.
 Raffenetti 2 integral format.
 Two-electron integral symmetry is turned off.
 One-electron integrals computed using PRISM.
 NBasis=   264 RedAO= T EigKep=  2.19D-06  NBF=   264
 NBsUse=   264 1.00D-06 EigRej= -1.00D+00 NBFU=   264
 Initial guess from the checkpoint file:  "4-cl-phboh2-opt-freq.chk"
 B after Tr=    -0.000028   -0.000007    0.000049
         Rot=    1.000000    0.000001   -0.000001    0.000001 Ang=   0.00 deg.
 Requested convergence on RMS density matrix=1.00D-08 within 128 cycles.
 Requested convergence on MAX density matrix=1.00D-06.
 Requested convergence on             energy=1.00D-06.
 Level shift goal  0.100 maximum shift  0.100.
 No special actions if energy rises.
 Dynamic level shift is on during FON iterations.
 SCF Done:  E(RM062X) =  -867.826080840     A.U. after    7 cycles
            NFock=  7  Conv=0.21D-08     -V/T= 2.0028
 Calling FoFJK, ICntrl=      2127 FMM=F ISym2X=0 I1Cent= 0 IOpClX= 0 NMat=1 NMatS=1 NMatT=0.
 -------------------------------------------------------------------
 Center     Atomic                   Forces (Hartrees/Bohr)
 Number     Number              X              Y              Z
 -------------------------------------------------------------------
      1        8          -0.000000431   -0.000000807    0.000002807
      2        1          -0.000000859   -0.000001166    0.000003392
      3        6          -0.000000195   -0.000000162    0.000000332
      4        5          -0.000000797   -0.000000734    0.000001421
      5        8          -0.000001682   -0.000001152    0.000001057
      6        1          -0.000001923   -0.000001096    0.000000074
      7        6          -0.000000446   -0.000000011   -0.000001121
      8        1          -0.000001083   -0.000000295   -0.000001549
      9        6           0.000000178    0.000000467   -0.000002027
     10        1          -0.000000064    0.000000588   -0.000003164
     11        6           0.000000883    0.000000851   -0.000001547
     12        6           0.000001286    0.000000719   -0.000000072
     13        1           0.000001917    0.000001001    0.000000306
     14        6           0.000000655    0.000000212    0.000000822
     15        1           0.000000888    0.000000108    0.000001949
     16       17           0.000001671    0.000001478   -0.000002680
 -------------------------------------------------------------------
 Cartesian Forces:  Max     0.000003392 RMS     0.000001326

 GradGradGradGradGradGradGradGradGradGradGradGradGradGradGradGradGradGrad
 Berny optimization.
 Using GEDIIS/GDIIS optimizer.
 FormGI is forming the generalized inverse of G from B-inverse, IUseBI=4.
 Internal  Forces:  Max     0.000000045 RMS     0.000000012
 Search for a local minimum.
 Step number   4 out of a maximum of   81
 All quantities printed in internal units (Hartrees-Bohrs-Radians)
 Mixed Optimization -- En-DIIS/RFO-DIIS
 Swapping is turned off.
 Update second derivatives using D2CorX and points    1    2    3    4
 DE= -3.94D-10 DEPred=-3.49D-10 R= 1.13D+00
 Trust test= 1.13D+00 RLast= 9.46D-05 DXMaxT set to 3.00D-01
 ITU=  0  0  1  0
     Eigenvalues ---    0.00081   0.01018   0.01207   0.01495   0.01728
     Eigenvalues ---    0.01748   0.02126   0.02343   0.02589   0.02717
     Eigenvalues ---    0.02872   0.03119   0.03962   0.10319   0.11078
     Eigenvalues ---    0.11201   0.11413   0.11977   0.12623   0.15953
     Eigenvalues ---    0.16526   0.17576   0.18601   0.19026   0.19561
     Eigenvalues ---    0.20197   0.26934   0.28194   0.29393   0.35637
     Eigenvalues ---    0.36531   0.36740   0.36888   0.39288   0.42537
     Eigenvalues ---    0.42810   0.48154   0.48489   0.49191   0.52267
     Eigenvalues ---    0.55223   0.56316
 En-DIIS/RFO-DIIS/Sim-DIIS IScMMF=       -3 using points:     4    3    2
 RFO step:  Lambda=-3.15916676D-14.
 DIIS inversion failure, remove point   3.
 DIIS inversion failure, remove point   2.
 Use linear search instead of GDIIS.
 RFO step:  Lambda= 0.00000000D+00 EMin= 8.12938750D-04
 Quartic linear search produced a step of -0.00083.
 Iteration  1 RMS(Cart)=  0.00000114 RMS(Int)=  0.00000000
 Iteration  2 RMS(Cart)=  0.00000000 RMS(Int)=  0.00000000
 Variable       Old X    -DE/DX   Delta X   Delta X   Delta X     New X
                                 (Linear)    (Quad)   (Total)
    R1        1.81696   0.00000   0.00000   0.00000   0.00000   1.81696
    R2        2.57366   0.00000   0.00000   0.00000   0.00000   2.57366
    R3        2.96142   0.00000   0.00000   0.00000   0.00000   2.96142
    R4        2.64214   0.00000   0.00000   0.00000   0.00000   2.64214
    R5        2.64562   0.00000   0.00000   0.00000   0.00000   2.64562
    R6        2.58496   0.00000   0.00000   0.00000   0.00000   2.58496
    R7        1.81085   0.00000   0.00000   0.00000   0.00000   1.81085
    R8        2.05333   0.00000   0.00000   0.00000   0.00000   2.05333
    R9        2.62575   0.00000   0.00000   0.00000   0.00000   2.62575
   R10        2.04530   0.00000   0.00000   0.00000   0.00000   2.04530
   R11        2.62393   0.00000   0.00000   0.00000   0.00000   2.62393
   R12        2.62505   0.00000   0.00000   0.00000   0.00000   2.62505
   R13        3.29350   0.00000   0.00000   0.00000   0.00000   3.29350
   R14        2.04572   0.00000   0.00000   0.00000   0.00000   2.04572
   R15        2.62422   0.00000   0.00000   0.00000   0.00000   2.62422
   R16        2.04858   0.00000   0.00000   0.00000   0.00000   2.04858
    A1        1.95938   0.00000   0.00000   0.00000   0.00000   1.95938
    A2        2.14471   0.00000   0.00000   0.00000   0.00000   2.14471
    A3        2.08234   0.00000   0.00000   0.00000   0.00000   2.08234
    A4        2.05614   0.00000   0.00000   0.00000   0.00000   2.05614
    A5        2.05930   0.00000   0.00000   0.00000   0.00000   2.05930
    A6        2.05599   0.00000   0.00000   0.00000   0.00000   2.05599
    A7        2.16789   0.00000   0.00000   0.00000   0.00000   2.16789
    A8        2.00472   0.00000   0.00000   0.00000   0.00000   2.00472
    A9        2.10750   0.00000   0.00000   0.00000   0.00000   2.10750
   A10        2.12462   0.00000   0.00000   0.00000   0.00000   2.12462
   A11        2.05106   0.00000   0.00000   0.00000   0.00000   2.05106
   A12        2.11809   0.00000   0.00000   0.00000   0.00000   2.11809
   A13        2.07146   0.00000   0.00000   0.00000   0.00000   2.07146
   A14        2.09364   0.00000   0.00000   0.00000   0.00000   2.09364
   A15        2.11847   0.00000   0.00000   0.00000   0.00000   2.11847
   A16        2.08093   0.00000   0.00000   0.00000   0.00000   2.08093
   A17        2.08379   0.00000   0.00000   0.00000   0.00000   2.08379
   A18        2.09196   0.00000   0.00000   0.00000   0.00000   2.09196
   A19        2.07455   0.00000   0.00000   0.00000   0.00000   2.07455
   A20        2.11667   0.00000   0.00000   0.00000   0.00000   2.11667
   A21        2.12113   0.00000   0.00000   0.00000   0.00000   2.12113
   A22        2.07577   0.00000   0.00000   0.00000   0.00000   2.07577
   A23        2.08628   0.00000   0.00000   0.00000   0.00000   2.08628
    D1        3.13238   0.00000   0.00000   0.00000   0.00000   3.13238
    D2       -0.00723   0.00000   0.00000   0.00000   0.00000  -0.00723
[...]

 Dipole orientation:
     8         13.66745569         19.71201956          1.48828352
     1         14.69865797         20.16449790          2.91419089
     6          9.53692626         17.84812326          0.06976724
     5         11.42846202         18.66037767          2.19870321
     8         10.97448906         18.38555202          4.72860380
     1          9.35844707         17.67953655          5.13983419
     6          7.24478051         16.63454282          0.57392235
     1          6.69198086         16.19376204          2.50169073
     6          5.59847797         15.93834416         -1.34949901
     1          3.82764161         14.99769097         -0.94628686
     6          6.26486641         16.46890674         -3.83132118
     6          8.52645487         17.66803335         -4.41286091
     1          9.00067013         18.05690099         -6.36449314
     6         10.14147073         18.34330985         -2.45780807
     1         11.91342124         19.27679295         -2.88847613
    17          4.21993870         15.60696374         -6.26493542

 Electric dipole moment (dipole orientation):
 (Debye = 10**-18 statcoulomb cm , SI units = C m)
                  (au)            (Debye)         (10**-30 SI)
   Tot        0.731639D+00      0.185964D+01      0.620310D+01
   x          0.000000D+00      0.000000D+00      0.000000D+00
   y          0.000000D+00      0.000000D+00      0.000000D+00
   z          0.731639D+00      0.185964D+01      0.620310D+01

 Dipole polarizability, Alpha (dipole orientation).
 (esu units = cm**3 , SI units = C**2 m**2 J**-1)
 Alpha(0;0):
               (au)            (10**-24 esu)      (10**-40 SI)
   iso        0.983811D+02      0.145786D+02      0.162209D+02
   aniso      0.733986D+02      0.108766D+02      0.121018D+02
   xx         0.106652D+03      0.158042D+02      0.175846D+02
   yx         0.240691D+02      0.356667D+01      0.396846D+01
   yy         0.676675D+02      0.100273D+02      0.111569D+02
   zx         0.205458D+02      0.304457D+01      0.338754D+01
   zy         0.605279D+01      0.896931D+00      0.997971D+00
   zz         0.120824D+03      0.179042D+02      0.199211D+02

 ----------------------------------------------------------------------
 Unable to Open any file for archive entry.
 1\1\GINC-CN007\Freq\RM062X\6-311+G(d,p)\C6H6B1Cl1O2\TAHMINAAFROZ\19-Ap
 r-2025\0\\#N Geom=AllCheck Guess=TCheck SCRF=Check GenChk RM062X/6-311
 +G(d,p) Freq\\4-cl-phboh2-optfreq\\0,1\O,8.6851624392,7.4562137895,5.5
 417646719\H,9.498228087,7.1480859814,5.9521877695\C,6.2425548744,6.995
 8428875,5.173403518\B,7.6395656958,6.6145803889,5.7724519935\O,7.87707
 98132,5.49075828,6.5152617937\H,7.107787428,4.9412743728,6.6718344105\
 C,5.1173015313,6.174044559,5.2887225303\H,5.1771271654,5.2191960295,5.
 8038263346\C,3.8889280771,6.5371272417,4.7502603867\H,3.0219346361,5.8
 958098918,4.842289201\C,3.7866163689,7.7495929031,4.0813366967\C,4.880
 9823261,8.5938823158,3.9428440902\H,4.7738063977,9.5330663704,3.415248
 9695\C,6.0983264066,8.2084095623,4.4886483448\H,6.959981419,8.85807281
 18,4.3853197929\Cl,2.2525849344,8.2189363345,3.4001784162\\Version=AS6
 4L-G16RevC.01\HF=-867.8260808\RMSD=6.079e-10\RMSF=1.326e-06\ZeroPoint=
 0.1163693\Thermal=0.1254461\ETot=-867.7006348\HTot=-867.6996906\GTot=-
 867.7453506\Dipole=0.2636936,-0.540026,0.4172933\DipoleDeriv=-1.393333
 7,-0.2865164,-0.0492748,-0.4092975,-0.7059861,-0.0062139,0.0316211,0.0
 233808,-0.5453907,0.3685267,0.0380603,-0.0178622,0.0662488,0.2948676,0
 .0490258,-0.0423395,0.0438116,0.3083789,-0.6582511,0.1320505,-0.210667
 9,0.1141446,-0.2525843,0.0835566,-0.1926085,0.0922504,-0.2675872,2.058
 0927,-0.0575461,0.4301337,0.0594844,1.3651476,-0.4857296,0.3622048,-0.
 510034,0.9553029,-0.7246099,0.2308625,-0.1940064,0.22017,-1.1092089,0.
 4117062,-0.190741,0.4057287,-0.8280506,0.2382282,-0.0988966,0.0398288,
 -0.0932965,0.3713183,-0.0563656,0.0448143,-0.0548092,0.367636,0.134553
 ,-0.0687186,0.1060877,0.0708299,0.0510541,-0.0655049,0.0156985,-0.1093
 727,-0.0535977,0.0617507,0.0281587,-0.0319106,0.0300484,-0.0667547,0.1
 086933,-0.0322255,0.1067484,0.0548317,-0.223969,0.1637992,-0.1136673,0
 .2043234,-0.150685,0.0722819,-0.1300765,0.0671802,-0.1971008,0.0098003
 ,-0.0503808,-0.0116013,-0.0472656,0.0665559,0.0286243,-0.0133148,0.027
 0279,0.1278184,1.0389583,-0.2695894,0.4336301,-0.3017017,0.1889083,-0.
 1802392,0.4456144,-0.1733323,0.2272413,-0.3947034,-0.0066219,-0.072572
 ,0.0109592,-0.012913,-0.0549324,-0.0772526,-0.0589787,-0.113675,0.0776
 691,0.0138452,-0.0261543,0.0113023,0.0260533,0.0653679,-0.024851,0.066
 4986,0.1017483,0.1039254,0.0901718,0.0054208,-0.0822843,0.0294109,-0.0
 897895,0.094246,-0.0440293,-0.0445222,0.0387152,-0.0553086,0.0046296,-
 0.0500758,0.0526107,0.0245053,-0.0002169,0.0232761,0.1122692,-0.735352
 4,0.1966303,-0.2920139,0.1964104,-0.1477946,0.0950137,-0.2905727,0.094
 6536,-0.2053026\Polar=129.1784813,-4.9617902,92.0980244,23.1401799,-21
 .0059038,73.8668643\Quadrupole=4.7353397,-11.2832375,6.5478978,0.17518
 21,6.2120086,-1.9256444\PG=C01 [X(C6H6B1Cl1O2)]\NImag=0\\0.66181956,0.
 02904740,0.28384288,0.15233418,-0.14405765,0.16514894,-0.38672793,0.11
 878098,-0.17445653,0.41426448,0.14995947,-0.08182099,0.08302102,-0.128
 03609,0.07486900,-0.19357599,0.07454976,-0.11165246,0.18841130,-0.0746
 6159,0.10740055,-0.02931968,-0.00182598,-0.00902770,-0.00038095,-0.002
 15606,0.00003695,0.61440718,-0.01717759,0.00807944,-0.00404225,-0.0036
 0247,-0.00081758,0.00207526,0.06791074,0.54143945,-0.00000259,-0.00007
 108,0.00910075,0.00090602,0.00249599,0.00292320,0.10017472,-0.19962383
 ,0.26622028,-0.24536908,-0.11491983,0.01759146,-0.03132400,-0.02247209
 ,0.00433101,-0.17200120,0.02711429,-0.04493239,0.54735439,-0.14261662,
 -0.16748817,0.03291408,0.00756020,0.00936689,-0.00171961,0.02625500,-0
 .07949624,0.01609170,0.07805532,0.49682762,0.03456283,0.04048095,-0.06
 540684,-0.01396083,-0.00979309,0.00545165,-0.04497768,0.01613382,-0.08
 471999,0.05865375,-0.18931264,0.27787984,0.00580670,-0.03417958,0.0186
 1529,0.00406971,0.00239930,0.00056276,0.00186719,0.02120876,-0.0168968
 5,-0.09379088,0.02314547,-0.02636949,0.45325651,-0.02169962,-0.0417057
 5,0.02736418,0.00457402,-0.00144846,0.00003603,0.00499219,-0.00549133,
 0.01494876,0.05547983,-0.23960190,0.13266216,0.20824277,0.48136340,0.0
 1129644,0.02419598,0.00093362,-0.00081916,-0.00061400,-0.00325760,-0.0
 0679012,0.01920679,0.00357709,-0.04642751,0.12513005,-0.13227061,-0.02
 668108,-0.22845815,0.16259600,0.00241296,0.00196320,-0.00208493,0.0001
 9086,0.00041382,0.00001191,-0.00147131,0.00092470,-0.00015512,0.004099
 55,0.00231308,0.00015651,-0.36574135,-0.25367360,0.07176884,0.36213118
 ,0.00058462,-0.00109281,0.00452104,0.00061905,-0.00042371,-0.00005651,
 0.00042221,0.00090150,-0.00228535,-0.02545460,-0.01792233,0.00345755,-
 0.22306394,-0.19254519,0.06016585,0.24733926,0.20943380,-0.00142292,0.
 00473444,0.00299878,-0.00007167,-0.00007677,-0.00079567,-0.00002320,-0
 .00206519,-0.00146156,0.01741919,0.00959250,-0.00408531,0.05298758,0.0
 5342211,-0.02970179,-0.06811565,-0.06563185,0.03204517,-0.00069890,0.0
 0098467,-0.00112894,-0.00072893,-0.00030828,0.00005355,-0.25172691,-0.
 07681031,-0.01368858,-0.01963559,-0.00805113,-0.00173982,0.00073678,-0
 .00351273,0.00261256,0.00115148,0.00044160,0.00010874,0.63755706,0.004
 86396,-0.00023550,0.00189080,0.00058818,0.00044997,0.00006385,-0.12617
 617,-0.18085579,0.02709241,-0.00082117,0.01181069,-0.00592220,0.000074
 59,-0.00501066,0.00213010,0.00351130,0.00061089,0.00123515,0.05046511,
 0.60635878,-0.00293895,0.00090945,-0.00032920,-0.00057133,-0.00015337,
 0.00035076,0.01252159,0.04065438,-0.08042427,-0.00564586,-0.00771509,0
 .00379959,0.00067898,0.00086308,-0.00127357,-0.00165822,0.00004447,-0.
 00035303,0.11438536,-0.23100550,0.29240024,0.00029565,0.00038871,-0.00
 020035,-0.00005206,-0.00008469,-0.00003221,0.00718788,-0.02004597,0.01
 212826,0.00012275,-0.00099411,0.00137744,-0.00000089,0.00081398,-0.000
 10700,-0.00203517,0.00022386,-0.00155191,-0.05878719,0.00974396,-0.010
 88207,0.05971788,-0.00017165,0.00064817,-0.00033472,-0.00016512,-0.000
 03867,0.00008700,0.00245623,-0.01184281,0.00778262,0.00162140,-0.00311
 699,0.00068800,0.00098265,0.00182568,-0.00104325,-0.00139309,0.0009608
 2,-0.00029572,0.01333122,-0.26614033,0.12293161,-0.01238339,0.28023274
 ,0.00022139,-0.00011180,0.00028629,0.00001851,0.00012225,0.00014636,0.
 00052582,0.00150926,0.00098896,0.00001401,-0.00015729,-0.00290381,-0.0
 0040272,-0.00108213,-0.00015063,-0.00056841,0.00038150,0.00099622,-0.0
 1297768,0.12144651,-0.10519880,0.01658525,-0.13693035,0.10113727,-0.00
 263697,0.00034845,-0.00070079,-0.00004011,-0.00011356,0.00016095,-0.05
 302112,-0.03876646,0.00256633,0.00098449,-0.00692290,0.00227433,0.0006
 7779,0.00140179,-0.00070021,-0.00045983,0.00025303,-0.00003483,-0.2966
 3871,0.07521494,-0.10572196,0.00157795,-0.00174116,0.00007701,0.705611
 45,0.00076595,0.00093708,-0.00062522,-0.00045579,-0.00015324,-0.000187
 38,0.00879666,0.05188682,-0.01945930,-0.00500816,0.00021131,0.00174318
 ,0.00044260,0.00037160,0.00005655,-0.00081591,-0.00014213,-0.00075248,
 0.00644959,-0.12922744,0.03719339,0.02583845,-0.00490995,0.01236438,0.
 10517827,0.58984762,-0.00118860,-0.00066434,-0.00034608,0.00034223,-0.
 00021422,-0.00029324,-0.02261847,-0.03253530,0.02179450,0.00128038,0.0
 0111066,0.00574481,-0.00015413,0.00027567,-0.00006347,0.00063389,-0.00
 032034,-0.00030737,-0.06944964,0.05652599,-0.11154418,-0.01439370,0.00
 443894,-0.00196923,0.10694940,-0.21201172,0.27245269,-0.00059349,0.000
 02408,-0.00012485,-0.00004638,-0.00003579,0.00002778,-0.00286034,0.001
 88844,-0.00395326,0.00029120,-0.00102449,0.00053519,-0.00012833,0.0003
 2506,-0.00021731,-0.00004932,-0.00009979,0.00003788,-0.01513962,-0.017
 07023,0.00377333,0.00048105,0.00067628,0.00099421,-0.24186279,-0.14269
 673,0.01689945,0.25326938,0.00017517,-0.00005910,-0.00000373,0.0000416
 7,0.00000332,-0.00002043,0.00160230,0.00194719,0.00336850,0.00016040,0
 .00045642,-0.00002063,-0.00003200,-0.00008019,0.00002913,0.00003833,0.
 00002258,0.00001033,0.00856946,0.00935811,-0.00077606,0.00020162,-0.00
 032995,-0.00201588,-0.14018403,-0.15647395,0.02355975,0.15123385,0.160
 65228,-0.00022143,-0.00003769,-0.00018650,-0.00002865,-0.00003955,-0.0
 0003304,-0.00372509,0.00348526,0.00456815,-0.00008395,-0.00035887,0.00
 048322,-0.00003185,0.00014757,-0.00008296,-0.00003079,-0.00004103,0.00
 001254,-0.00979599,-0.00808707,0.00476824,0.00122854,-0.00185175,-0.00
 293931,0.01556121,0.02276112,-0.04373161,-0.01499253,-0.02853623,0.035
 78215,0.00102476,0.00055038,0.00002799,-0.00011313,-0.00004501,-0.0000
 5027,-0.01206285,-0.02845650,0.01415804,-0.00355288,-0.00082361,-0.000
 48116,0.00126755,-0.00125358,0.00112251,-0.00001635,0.00044600,-0.0003
 0767,0.02808144,0.02880864,-0.00927878,-0.00312415,0.00055722,-0.00341
 603,-0.11217838,0.02940207,-0.02861548,0.00386708,-0.02288354,0.012400
 12,0.52552208,-0.00188049,-0.00010773,-0.00041385,0.00015145,-0.000086
 02,0.00006323,-0.02989035,-0.06132984,0.01985777,0.00055616,-0.0038161
 0,0.00196252,0.00044517,0.00028174,-0.00021743,0.00008583,0.00025746,0
 .00010707,0.08989531,0.00118765,0.02831246,0.00029064,0.00304939,0.002
 57557,-0.03947998,-0.27700230,0.09997266,0.00411320,-0.01175601,0.0088
 8597,0.09244734,0.54663654,0.00133306,0.00014736,0.00006993,-0.0001472
 7,0.00007259,0.00003759,0.01467600,0.02001448,-0.01487072,-0.00127998,
 0.00159918,-0.00150278,0.00024949,-0.00065943,0.00022010,-0.00018188,0
 .00017648,0.00013141,-0.04143765,0.01118579,-0.01057665,-0.00323110,0.
 00259208,0.00547661,0.00781206,0.11966147,-0.12695188,-0.00185689,0.00
 114180,0.00159698,0.06315506,-0.19422731,0.25060409,0.00013636,-0.0003
 8095,0.00018878,0.00008529,0.00019768,-0.00001579,0.02438493,0.0749675
 4,-0.03631083,0.00457126,0.00113775,-0.00095340,-0.00105011,0.00122568
 ,-0.00054589,-0.00001406,-0.00047925,0.00018603,-0.07533593,-0.0135748
 4,-0.01249630,-0.00130626,-0.00011254,-0.00003387,0.04705001,-0.061594
 72,0.04339116,0.00149767,0.00105378,-0.00191607,-0.23321382,-0.0767754
 6,-0.00650961,0.64062522,-0.00026125,0.00083920,-0.00059802,0.00014760
 ,0.00009932,-0.00003218,0.02915437,0.00420497,0.01194963,-0.00160301,-
 0.00348012,0.00468291,0.00173844,-0.00017924,0.00005156,-0.00017053,0.
 00024624,-0.00021375,-0.01448184,-0.00524817,-0.00418683,-0.00011088,0
 .00023883,-0.00073693,-0.01293270,-0.03264390,0.01844527,0.00061266,-0
 .00261789,0.00481678,-0.14597039,-0.19934936,0.02909183,0.04432323,0.6
 3042297,0.00006419,-0.00065090,0.00024915,-0.00003414,-0.00003211,-0.0
 0002471,-0.01183481,0.02522073,-0.00513397,0.00054357,0.00534558,0.003
 35467,-0.00083929,-0.00031234,-0.00136166,0.00009693,-0.00018138,0.000
 24704,-0.01200907,-0.00391594,-0.00675712,-0.00000999,-0.00073004,-0.0
 0071814,0.01753407,0.00466825,0.01162691,-0.00166409,0.00494023,0.0031
 0244,0.03014066,0.04871955,-0.08363202,0.11900498,-0.25011536,0.299777
 53,-0.00027106,-0.00022071,0.00004858,0.00000831,0.00001448,-0.0000150
 7,-0.00415330,0.00049788,-0.00355115,0.00090710,0.00093160,-0.00028198
 ,-0.00053534,0.00029799,-0.00029070,-0.00002922,-0.00010233,0.00005433
 ,-0.00140284,-0.00023288,-0.00003044,0.00004859,0.00016256,0.00021094,
 -0.00359745,-0.00351234,-0.00090231,0.00035675,-0.00113172,0.00062748,
 0.00464642,-0.02215428,0.01223546,-0.05836936,0.02288162,-0.01802695,0
 .05818614,0.00016973,0.00006066,0.00001331,-0.00001369,0.00000225,0.00
 001165,0.00055146,0.00280509,0.00270760,-0.00045346,-0.00008262,-0.000
 00096,0.00016529,-0.00015411,0.00003237,-0.00000146,0.00004059,-0.0000
 1362,-0.00028097,0.00041094,-0.00075709,0.00014086,-0.00026635,-0.0003
 5557,-0.00388426,0.00070052,0.00183243,0.00017919,-0.00050711,0.000441
 55,0.00482248,-0.01231502,0.00938118,0.02020560,-0.27253170,0.13027703
 ,-0.02183695,0.28412743,-0.00014995,-0.00008931,0.00001687,-0.00000040
 ,0.00001797,0.00002201,-0.00361215,0.00263257,0.00520721,0.00044364,0.
 00038095,0.00006391,-0.00017187,0.00004869,-0.00028324,-0.00000488,-0.
 00002509,0.00004543,0.00001577,-0.00072266,-0.00046990,0.00022391,-0.0
 0034127,-0.00076990,-0.00069663,0.00193786,0.00499294,-0.00006228,0.00
 007776,0.00017544,-0.00204576,0.00177214,0.00133462,-0.01658430,0.1310
 6676,-0.11153677,0.02074957,-0.14310479,0.10733111,-0.00257233,-0.0005
 2150,-0.00027110,0.00059705,0.00023693,0.00002369,-0.12371876,-0.01432
 982,-0.00826856,0.00250007,0.02078153,-0.01098378,-0.00528745,0.001892
 42,-0.00324795,-0.00035036,-0.00069019,0.00038877,0.04700718,-0.017380
 83,0.02077030,-0.00354180,-0.00439484,-0.00076196,-0.02616767,0.029265
 51,-0.02138224,0.00008496,0.00107037,-0.00022426,-0.05884338,-0.047425
 27,0.00659111,-0.29339949,0.08055677,-0.10661831,0.00291552,-0.0011461
 9,0.00028259,0.69783331,-0.00277960,-0.00286608,0.00068870,-0.00035066
 ,-0.00034504,0.00001288,0.03692647,-0.26065745,0.11393107,0.01090566,-
 0.00137182,0.00468410,-0.00223034,0.00190373,-0.00090015,-0.00024461,-
 0.00050575,0.00018596,-0.06261784,-0.03829550,0.00566373,-0.00399527,0
 .00077700,0.00238208,0.02968103,-0.03689695,0.02505213,0.00092852,-0.0
 0061067,0.00002838,0.01259867,0.05843437,-0.02357106,0.01184635,-0.136
 54572,0.04095056,0.02443954,-0.00195788,0.00995335,0.09148312,0.577554
 41,0.00102116,0.00124101,-0.00078224,0.00037627,0.00011510,-0.00017391
 ,-0.03562129,0.09951253,-0.12812222,-0.00598119,0.00764366,-0.00373418
 ,-0.00067116,0.00031924,0.00100224,-0.00006914,0.00004227,0.00004334,0
 .04476778,0.01838609,0.00858691,-0.00098289,0.00223853,0.00601941,-0.0
 2159236,0.02490132,-0.02468259,-0.00018101,0.00009364,-0.00108241,-0.0
 2528439,-0.04065640,0.02138034,-0.07002718,0.06040139,-0.11662747,-0.0
 1320556,0.00274137,-0.00137303,0.10607222,-0.20294212,0.28343391,-0.00
 135280,0.00046590,-0.00057464,-0.00004077,-0.00001454,0.00004252,0.006
 32039,0.00232045,-0.00019955,0.00063588,0.00117310,0.00029580,-0.00003
 787,-0.00044004,0.00013086,0.00003386,-0.00001977,0.00003831,0.0017412
 3,0.00079338,-0.00192662,0.00031851,0.00029062,-0.00009574,-0.00011137
 ,0.00099803,-0.00023304,-0.00009179,0.00004595,0.00020619,-0.00198080,
 0.00107736,-0.00337472,-0.01589643,-0.01696524,0.00319463,0.00053555,0
 .00069625,0.00101469,-0.23827608,-0.13899127,0.01840664,0.24944039,0.0
 0030841,0.00067785,-0.00040489,0.00022526,0.00034529,-0.00020713,-0.02
 113877,-0.01180662,0.00170330,-0.00192533,-0.00241153,-0.00063584,0.00
 033667,0.00067353,-0.00004431,-0.00013505,0.00004071,-0.00010480,0.000
 59740,-0.00264340,0.00538690,-0.00114698,-0.00070386,0.00012567,0.0009
 0004,-0.00048983,-0.00012171,0.00002157,-0.00015329,-0.00039943,0.0012
 1313,0.00214925,0.00349632,0.00911112,0.00928966,0.00015877,0.00015095
 ,-0.00048086,-0.00204412,-0.13813705,-0.15776245,0.02316421,0.14887609
 ,0.16319318,-0.00039857,-0.00033278,-0.00009724,-0.00007185,-0.0002707
 0,-0.00010421,0.01211878,0.00824879,0.00160548,0.00201169,0.00017609,-
 0.00234827,-0.00034936,-0.00013126,0.00047617,0.00008066,-0.00006697,0
 .00002698,-0.00184757,0.00541425,0.00376933,0.00066702,0.00053545,0.00
 005665,-0.00020249,-0.00007530,-0.00118833,0.00022406,-0.00038647,-0.0
 0064301,-0.00347382,0.00340828,0.00528656,-0.01063258,-0.00715874,0.00
 561190,0.00130618,-0.00188998,-0.00304068,0.01804340,0.02289903,-0.048
 28606,-0.01677865,-0.03015821,0.03911847,-0.00195372,-0.00050522,-0.00
 023645,0.00023858,0.00004444,0.00002691,-0.00345112,0.00235633,-0.0019
 7448,0.00420695,-0.00092019,0.00189231,-0.00111000,0.00133383,-0.00110
 428,0.00014710,-0.00041977,0.00030702,0.00381944,0.00119204,-0.0009790
 4,-0.00090275,0.00028359,-0.00039074,-0.01918727,0.00694653,-0.0105588
 9,0.00092398,0.00003840,0.00102708,-0.13932361,0.02854340,-0.04803313,
 -0.03976529,0.01308118,-0.01954237,0.00075420,0.00068611,0.00059804,0.
 00121924,-0.00759976,0.00297210,-0.00123791,0.00074254,-0.00069690,0.1
 9562218,0.00071212,0.00029086,0.00006719,-0.00006460,-0.00000232,-0.00
 001483,0.00211971,0.00103320,-0.00048979,-0.00123541,0.00011489,-0.000
 80983,0.00032417,-0.00020285,0.00027893,-0.00015526,0.00011735,-0.0001
 3339,-0.00467127,-0.00253024,0.00263447,0.00111921,-0.00038371,0.00048
 273,0.03104750,-0.00601526,0.01465413,0.00092420,0.00014825,-0.0012150
 0,0.02858671,-0.04623400,0.01989725,-0.01115096,0.00725491,-0.00434262
 ,-0.00018542,0.00014815,-0.00156080,-0.00126096,-0.00085419,0.00279815
 ,-0.00030628,0.00008237,-0.00021147,-0.04580346,0.04703260,-0.00093424
 ,-0.00024339,-0.00000377,0.00010750,0.00001047,0.00000273,-0.00182336,
 -0.00042730,-0.00125290,0.00206218,-0.00072096,0.00019410,-0.00052630,
 0.00055582,-0.00035969,0.00012027,-0.00018064,0.00015781,0.00213119,0.
 00428245,0.00325164,-0.00081920,0.00023289,-0.00045795,-0.02328608,0.0
 0782388,-0.00553386,0.00056034,-0.00146170,-0.00179030,-0.04805102,0.0
 1987778,-0.04860417,-0.00674512,0.00253568,0.00182222,0.00107163,-0.00
 131649,-0.00171601,-0.00041392,0.00098135,0.00439795,-0.00014667,0.000
 08528,-0.00024373,0.07669282,-0.03203510,0.05013592\\0.00000043,0.0000
 0081,-0.00000281,0.00000086,0.00000117,-0.00000339,0.00000020,0.000000
 16,-0.00000033,0.00000079,0.00000073,-0.00000142,0.00000168,0.00000115
 ,-0.00000106,0.00000192,0.00000110,-0.00000007,0.00000045,0.00000001,0
 .00000112,0.00000108,0.00000029,0.00000155,-0.00000018,-0.00000047,0.0
 0000203,0.00000006,-0.00000059,0.00000316,-0.00000088,-0.00000085,0.00
 000155,-0.00000129,-0.00000072,0.00000007,-0.00000192,-0.00000100,-0.0
 0000031,-0.00000065,-0.00000022,-0.00000082,-0.00000089,-0.00000011,-0
 .00000195,-0.00000167,-0.00000148,0.00000268\\\@
 The archive entry for this job was punched.


 MODELS ARE TO BE USED, NOT BELIEVED.

    -- PARAPHRASED BY H. THIEL IN "PRINCIPLES OF ECONOMETRICS"
 Job cpu time:       0 days  0 hours 36 minutes 47.5 seconds.
 Elapsed time:       0 days  0 hours  1 minutes 10.8 seconds.
 File lengths (MBytes):  RWF=    119 Int=      0 D2E=      0 Chk=      7 Scr=      1
 Normal termination of Gaussian 16 at Sat Apr 19 13:12:02 2025.
