/home/tahminaafroz
cn018.cluster.local
tahminaafroz
Tue May 27 07:41:42 CDT 2025
 Entering Gaussian System, Link 0=g16
 Initial command:
 /home/apps/g16/l1.exe "/tmp/4-CN-ph-anion-opt-freq-2-thf/Gau-687819.inp" -scrdir="/tmp/4-CN-ph-anion-opt-freq-2-thf/"
 Entering Link 1 = /home/apps/g16/l1.exe PID=    687820.
  
 Copyright (c) 1988-2019, Gaussian, Inc.  All Rights Reserved.
  
 This is part of the Gaussian(R) 16 program.  It is based on
 the Gaussian(R) 09 system (copyright 2009, Gaussian, Inc.),
 the Gaussian(R) 03 system (copyright 2003, Gaussian, Inc.),
 the Gaussian(R) 98 system (copyright 1998, Gaussian, Inc.),
 the Gaussian(R) 94 system (copyright 1995, Gaussian, Inc.),
 the Gaussian 92(TM) system (copyright 1992, Gaussian, Inc.),
 the Gaussian 90(TM) system (copyright 1990, Gaussian, Inc.),
 the Gaussian 88(TM) system (copyright 1988, Gaussian, Inc.),
 the Gaussian 86(TM) system (copyright 1986, Carnegie Mellon
 University), and the Gaussian 82(TM) system (copyright 1983,
 Carnegie Mellon University). Gaussian is a federally registered
 trademark of Gaussian, Inc.
  
 This software contains proprietary and confidential information,
 including trade secrets, belonging to Gaussian, Inc.
  
 This software is provided under written license and may be
 used, copied, transmitted, or stored only in accord with that
 written license.
  
 The following legend is applicable only to US Government
 contracts under FAR:
  
                    RESTRICTED RIGHTS LEGEND
  
 Use, reproduction and disclosure by the US Government is
 subject to restrictions as set forth in subparagraphs (a)
 and (c) of the Commercial Computer Software - Restricted
 Rights clause in FAR 52.227-19.
  
 Gaussian, Inc.
 340 Quinnipiac St., Bldg. 40, Wallingford CT 06492
  
  
 ---------------------------------------------------------------
 Warning -- This program may not be used in any manner that
 competes with the business of Gaussian, Inc. or will provide
 assistance to any competitor of Gaussian, Inc.  The licensee
 of this program is prohibited from giving any competitor of
 Gaussian, Inc. access to this program.  By using this program,
 the user acknowledges that Gaussian, Inc. is engaged in the
 business of creating and licensing software in the field of
 computational chemistry and represents and warrants to the
 licensee that it is not a competitor of Gaussian, Inc. and that
 it will not use this program in any manner prohibited above.
 ---------------------------------------------------------------
  

 Cite this work as:
 Gaussian 16, Revision C.01,
 M. J. Frisch, G. W. Trucks, H. B. Schlegel, G. E. Scuseria, 
 M. A. Robb, J. R. Cheeseman, G. Scalmani, V. Barone, 
 G. A. Petersson, H. Nakatsuji, X. Li, M. Caricato, A. V. Marenich, 
 J. Bloino, B. G. Janesko, R. Gomperts, B. Mennucci, H. P. Hratchian, 
 J. V. Ortiz, A. F. Izmaylov, J. L. Sonnenberg, D. Williams-Young, 
 F. Ding, F. Lipparini, F. Egidi, J. Goings, B. Peng, A. Petrone, 
 T. Henderson, D. Ranasinghe, V. G. Zakrzewski, J. Gao, N. Rega, 
 G. Zheng, W. Liang, M. Hada, M. Ehara, K. Toyota, R. Fukuda, 
 J. Hasegawa, M. Ishida, T. Nakajima, Y. Honda, O. Kitao, H. Nakai, 
 T. Vreven, K. Throssell, J. A. Montgomery, Jr., J. E. Peralta, 
 F. Ogliaro, M. J. Bearpark, J. J. Heyd, E. N. Brothers, K. N. Kudin, 
 V. N. Staroverov, T. A. Keith, R. Kobayashi, J. Normand, 
 K. Raghavachari, A. P. Rendell, J. C. Burant, S. S. Iyengar, 
 J. Tomasi, M. Cossi, J. M. Millam, M. Klene, C. Adamo, R. Cammi, 
 J. W. Ochterski, R. L. Martin, K. Morokuma, O. Farkas, 
 J. B. Foresman, and D. J. Fox, Gaussian, Inc., Wallingford CT, 2019.
 
 ******************************************
 Gaussian 16:  AS64L-G16RevC.01  3-Jul-2019
                27-May-2025 
 ******************************************
 %mem=20GB
 %nprocshared=32
 Will use up to   32 processors via shared memory.
 %chk=4-CN-ph-anion-opt-freq-2-thf.chk
 ----------------------------------------------------------------------
 # opt=(calcfc,tight) freq 6-311+g(d,p) scrf=(smd,solvent=thf) nosymm s
 cf=(qc,fermi,xqc) geom=connectivity int=ultrafine m062x
 ----------------------------------------------------------------------
 1/7=10,10=4,18=20,19=15,26=6,38=1,57=2/1,3;
 2/9=110,12=2,15=1,17=6,18=5,40=1/2;
 3/5=4,6=6,7=111,11=2,25=1,30=1,70=32201,71=2,72=20,74=-55,75=-5,140=1/1,2,3;
 4//1;
 5/5=2,22=13,38=5,53=20/2;
 8/6=4,10=90,11=11/1;
 11/6=1,8=1,9=11,15=111,16=1,31=1/1,2,10;
 10/6=1,13=1,31=1/2;
 6/7=2,8=2,9=2,10=2,28=1/1;
 7/10=1,25=1,30=1/1,2,3,16;
 1/7=10,10=4,18=20,19=15,26=6/3(2);
 2/9=110,15=1/2;
 99//99;
 2/9=110,15=1/2;
 3/5=4,6=6,7=111,11=2,25=1,30=1,70=32205,71=1,72=20,74=-55,75=-5/1,2,3;
 4/5=5,16=3,69=1/1;
 5/5=2,22=13,38=5,53=20/2;
 7/30=1/1,2,3,16;
 1/7=10,18=20,19=15,26=6/3(-5);
 2/9=110,15=1/2;
 6/7=2,8=2,9=2,10=2,19=2,28=1/1;
 99/9=1/99;
 ----------------------------
 4-CN-ph-anion-opt-freq-2-thf
 ----------------------------
 Symbolic Z-matrix:
 Charge = -1 Multiplicity = 1
 C                     6.19303   7.05479   5.15308 
 C                     5.10094   6.23812   5.32122 
 H                     5.1606    5.28493   5.8332 
 C                     3.89179   6.693     4.79796 
 H                     2.99009   6.09983   4.89445 
 C                     3.84945   7.9288    4.14252 
 C                     4.99323   8.72217   3.99846 
 H                     4.93046   9.67494   3.48616 
 C                     6.20587   8.27379   4.51924 
 H                     7.10616   8.86889   4.42119 
 C                     2.6019    8.39471   3.60509 
 N                     1.60232   8.76823   3.17472 
 

 GradGradGradGradGradGradGradGradGradGradGradGradGradGradGradGradGradGrad
 Berny optimization.
 Initialization pass.
                           ----------------------------
                           !    Initial Parameters    !
                           ! (Angstroms and Degrees)  !
 --------------------------                            --------------------------
 ! Name  Definition              Value          Derivative Info.                !
 --------------------------------------------------------------------------------
 ! R1    R(1,2)                  1.374          calculate D2E/DX2 analytically  !
 ! R2    R(1,9)                  1.374          calculate D2E/DX2 analytically  !
 ! R3    R(2,3)                  1.0836         calculate D2E/DX2 analytically  !
 ! R4    R(2,4)                  1.3938         calculate D2E/DX2 analytically  !
 ! R5    R(4,5)                  1.0836         calculate D2E/DX2 analytically  !
 ! R6    R(4,6)                  1.3995         calculate D2E/DX2 analytically  !
 ! R7    R(6,7)                  1.3994         calculate D2E/DX2 analytically  !
 ! R8    R(6,11)                 1.4361         calculate D2E/DX2 analytically  !
 ! R9    R(7,8)                  1.0836         calculate D2E/DX2 analytically  !
 ! R10   R(7,9)                  1.3938         calculate D2E/DX2 analytically  !
 ! R11   R(9,10)                 1.0836         calculate D2E/DX2 analytically  !
 ! R12   R(11,12)                1.1506         calculate D2E/DX2 analytically  !
 ! A1    A(2,1,9)              126.2422         calculate D2E/DX2 analytically  !
 ! A2    A(1,2,3)              122.4719         calculate D2E/DX2 analytically  !
 ! A3    A(1,2,4)              116.7178         calculate D2E/DX2 analytically  !
 ! A4    A(3,2,4)              120.8103         calculate D2E/DX2 analytically  !
 ! A5    A(2,4,5)              120.6505         calculate D2E/DX2 analytically  !
 ! A6    A(2,4,6)              119.3566         calculate D2E/DX2 analytically  !
 ! A7    A(5,4,6)              119.993          calculate D2E/DX2 analytically  !
 ! A8    A(4,6,7)              121.6073         calculate D2E/DX2 analytically  !
 ! A9    A(4,6,11)             119.2117         calculate D2E/DX2 analytically  !
 ! A10   A(7,6,11)             119.181          calculate D2E/DX2 analytically  !
 ! A11   A(6,7,8)              119.9869         calculate D2E/DX2 analytically  !
 ! A12   A(6,7,9)              119.3558         calculate D2E/DX2 analytically  !
 ! A13   A(8,7,9)              120.6573         calculate D2E/DX2 analytically  !
 ! A14   A(1,9,7)              116.7203         calculate D2E/DX2 analytically  !
 ! A15   A(1,9,10)             122.4606         calculate D2E/DX2 analytically  !
 ! A16   A(7,9,10)             120.8191         calculate D2E/DX2 analytically  !
 ! A17   L(6,11,12,8,-1)       179.9949         calculate D2E/DX2 analytically  !
 ! A18   L(6,11,12,8,-2)       180.0193         calculate D2E/DX2 analytically  !
 ! D1    D(9,1,2,3)            179.9915         calculate D2E/DX2 analytically  !
 ! D2    D(9,1,2,4)             -0.0263         calculate D2E/DX2 analytically  !
 ! D3    D(2,1,9,7)              0.023          calculate D2E/DX2 analytically  !
 ! D4    D(2,1,9,10)          -179.9862         calculate D2E/DX2 analytically  !
 ! D5    D(1,2,4,5)           -179.9994         calculate D2E/DX2 analytically  !
 ! D6    D(1,2,4,6)              0.0146         calculate D2E/DX2 analytically  !
 ! D7    D(3,2,4,5)             -0.0168         calculate D2E/DX2 analytically  !
 ! D8    D(3,2,4,6)            179.9971         calculate D2E/DX2 analytically  !
 ! D9    D(2,4,6,7)             -0.0021         calculate D2E/DX2 analytically  !
 ! D10   D(2,4,6,11)          -179.9739         calculate D2E/DX2 analytically  !
 ! D11   D(5,4,6,7)           -179.9883         calculate D2E/DX2 analytically  !
 ! D12   D(5,4,6,11)             0.0399         calculate D2E/DX2 analytically  !
 ! D13   D(4,6,7,8)           -179.9926         calculate D2E/DX2 analytically  !
 ! D14   D(4,6,7,9)             -0.0012         calculate D2E/DX2 analytically  !
 ! D15   D(11,6,7,8)            -0.0208         calculate D2E/DX2 analytically  !
 ! D16   D(11,6,7,9)           179.9706         calculate D2E/DX2 analytically  !
 ! D17   D(6,7,9,1)             -0.0082         calculate D2E/DX2 analytically  !
 ! D18   D(6,7,9,10)          -179.9991         calculate D2E/DX2 analytically  !
 ! D19   D(8,7,9,1)            179.9832         calculate D2E/DX2 analytically  !
 ! D20   D(8,7,9,10)            -0.0077         calculate D2E/DX2 analytically  !
 --------------------------------------------------------------------------------
 Trust Radius=3.00D-01 FncErr=5.00D-06 GrdErr=5.00D-06 EigMax=2.50D+02 EigMin=1.00D-04
 Number of steps in this run=     60 maximum allowed number of steps=    100.
 GradGradGradGradGradGradGradGradGradGradGradGradGradGradGradGradGradGrad

                          Input orientation:                          
 ---------------------------------------------------------------------
 Center     Atomic      Atomic             Coordinates (Angstroms)
 Number     Number       Type             X           Y           Z
 ---------------------------------------------------------------------
      1          6           0        6.193032    7.054790    5.153080
      2          6           0        5.100939    6.238116    5.321219
      3          1           0        5.160597    5.284925    5.833196
      4          6           0        3.891788    6.692996    4.797959
      5          1           0        2.990090    6.099835    4.894446
      6          6           0        3.849448    7.928803    4.142524
      7          6           0        4.993232    8.722174    3.998460
      8          1           0        4.930461    9.674940    3.486161
      9          6           0        6.205871    8.273786    4.519235
     10          1           0        7.106158    8.868893    4.421195
     11          6           0        2.601901    8.394710    3.605090
     12          7           0        1.602316    8.768234    3.174723
 ---------------------------------------------------------------------
                    Distance matrix (angstroms):
                    1          2          3          4          5
     1  C    0.000000
     2  C    1.374007   0.000000
     3  H    2.158912   1.083629   0.000000
     4  C    2.356423   1.393830   2.159689   0.000000
     5  H    3.352263   2.157995   2.501286   1.083609   0.000000
     6  C    2.697686   2.411218   3.401114   1.399502   2.156156
     7  C    2.356446   2.816352   3.899865   2.443346   3.419361
     8  H    3.352296   3.899777   4.983349   3.419305   4.304612
     9  C    1.374000   2.451123   3.428175   2.816303   3.899756
    10  H    2.158802   3.428109   4.315528   3.899827   4.983339
    11  C    4.133749   3.720375   4.602406   2.445930   2.660748
    12  N    5.284360   4.821753   5.644669   3.490443   3.464638
                    6          7          8          9         10
     6  C    0.000000
     7  C    1.399441   0.000000
     8  H    2.156014   1.083584   0.000000
     9  C    2.411152   1.393826   2.158042   0.000000
    10  H    3.401116   2.159789   2.501531   1.083642   0.000000
    11  C    1.436063   2.445493   2.659948   3.720065   4.602087
    12  N    2.586675   3.489839   3.463475   4.821298   5.644121
                   11         12
    11  C    0.000000
    12  N    1.150611   0.000000
 Symmetry turned off by external request.
 Stoichiometry    C7H4N(1-)
 Framework group  C1[X(C7H4N)]
 Deg. of freedom    30
 Full point group                 C1      NOp   1
 Rotational constants (GHZ):           5.5787640           1.6343864           1.2640602
 Standard basis: 6-311+G(d,p) (5D, 7F)
   200 basis functions,   320 primitive gaussians,   208 cartesian basis functions
    27 alpha electrons       27 beta electrons
       nuclear repulsion energy       290.5001255474 Hartrees.
 NAtoms=   12 NActive=   12 NUniq=   12 SFac= 1.00D+00 NAtFMM=   60 NAOKFM=F Big=F
 Integral buffers will be    131072 words long.
 Raffenetti 2 integral format.
 Two-electron integral symmetry is turned off.
 Force inversion solution in PCM.
 ------------------------------------------------------------------------------
 Polarizable Continuum Model (PCM)
 =================================
 Model                : PCM.
 Atomic radii         : SMD-Coulomb.
 Polarization charges : Total charges.
 Charge compensation  : None.
 Solution method      : Matrix inversion.
 Cavity type          : VdW (van der Waals Surface) (Alpha=1.000).
 Cavity algorithm     : GePol (No added spheres)
                        Default sphere list used, NSphG=   12.
                        Lebedev-Laikov grids with approx.  5.0 points / Ang**2.
                        Smoothing algorithm: York/Karplus (Gamma=1.0000).
                        Polarization charges: spherical gaussians, with
                                              point-specific exponents (IZeta= 3).
                        Self-potential: point-specific (ISelfS= 7).
                        Self-field    : sphere-specific E.n sum rule (ISelfD= 2).
 1st derivatives      : Analytical E(r).r(x)/FMM algorithm (CHGder, D1EAlg=3).
                        Cavity 1st derivative terms included.
 2nd derivatives      : Analytical E(r).r(xy)/FMM algorithm (CHGder, D2EAlg=3).
                        Cavity 2nd derivative terms included.
 Solvent              : TetraHydroFuran, Eps=   7.425700 Eps(inf)=   1.974025
 ------------------------------------------------------------------------------
 Spheres list:
 ISph  on   Nord     Re0    Alpha      Xe            Ye            Ze
    1   C      1    1.8500  1.000      6.193032      7.054790      5.153080
    2   C      2    1.8500  1.000      5.100939      6.238116      5.321219
    3   H      3    1.2000  1.000      5.160597      5.284925      5.833196
    4   C      4    1.8500  1.000      3.891788      6.692996      4.797959
    5   H      5    1.2000  1.000      2.990090      6.099835      4.894446
    6   C      6    1.8500  1.000      3.849448      7.928803      4.142524
    7   C      7    1.8500  1.000      4.993232      8.722174      3.998460
    8   H      8    1.2000  1.000      4.930461      9.674940      3.486161
    9   C      9    1.8500  1.000      6.205871      8.273786      4.519235
   10   H     10    1.2000  1.000      7.106158      8.868893      4.421195
   11   C     11    1.8500  1.000      2.601901      8.394710      3.605090
   12   N     12    1.8900  1.000      1.602316      8.768234      3.174723
 ------------------------------------------------------------------------------
 ------------------------------------------------------------------------------
 Atomic radii for non-electrostatic terms: SMD-CDS.
 ------------------------------------------------------------------------------
 Nuclear repulsion after PCM non-electrostatic terms =      290.4993701675 Hartrees.
 One-electron integrals computed using PRISM.
 NBasis=   200 RedAO= T EigKep=  3.42D-06  NBF=   200
 NBsUse=   200 1.00D-06 EigRej= -1.00D+00 NBFU=   200
 ExpMin= 4.38D-02 ExpMax= 6.29D+03 ExpMxC= 9.49D+02 IAcc=3 IRadAn=         5 AccDes= 0.00D+00
 Harris functional with IExCor= 1009 and IRadAn=       5 diagonalized for initial guess.
 HarFok:  IExCor= 1009 AccDes= 0.00D+00 IRadAn=         5 IDoV= 1 UseB2=F ITyADJ=14
 ICtDFT=  3500011 ScaDFX=  1.000000  1.000000  1.000000  1.000000
 FoFCou: FMM=F IPFlag=           0 FMFlag=      100000 FMFlg1=           0
         NFxFlg=           0 DoJE=T BraDBF=F KetDBF=T FulRan=T
         wScrn=  0.000000 ICntrl=       500 IOpCl=  0 I1Cent=   200000004 NGrid=           0
         NMat0=    1 NMatS0=      1 NMatT0=    0 NMatD0=    1 NMtDS0=    0 NMtDT0=    0
 Symmetry not used in FoFCou.
 Keep R1 ints in memory in canonical form, NReq=235270894.
 Requested convergence on RMS density matrix=1.00D-08 within 128 cycles.
 Requested convergence on MAX density matrix=1.00D-06.
 Requested convergence on             energy=1.00D-06.
 Level shift goal  0.100 maximum shift  0.100.
 No special actions if energy rises.
 Dynamic level shift is on during FON iterations.
 Inv3:  Mode=1 IEnd=     4487187.
 Iteration    1 A*A^-1 deviation from unit magnitude is 3.77D-15 for   1205.
 Iteration    1 A*A^-1 deviation from orthogonality  is 1.95D-15 for    742    428.
 Iteration    1 A^-1*A deviation from unit magnitude is 3.55D-15 for   1203.
 Iteration    1 A^-1*A deviation from orthogonality  is 1.79D-15 for   1222   1142.
 Error on total polarization charges =  0.05766
 SCF Done:  E(RM062X) =  -323.882044822     A.U. after   16 cycles
            NFock= 16  Conv=0.36D-08     -V/T= 2.0034
 SMD-CDS (non-electrostatic) energy       (kcal/mol) =      -0.47
 (included in total energy above)
 DoSCS=F DFT=T ScalE2(SS,OS)=  1.000000  1.000000
 Range of M.O.s used for correlation:     1   200
 NBasis=   200 NAE=    27 NBE=    27 NFC=     0 NFV=     0
 NROrb=    200 NOA=    27 NOB=    27 NVA=   173 NVB=   173

 **** Warning!!: The largest alpha MO coefficient is  0.15500516D+03

 Symmetrizing basis deriv contribution to polar:
 IMax=3 JMax=2 DiffMx= 0.00D+00
 G2DrvN: will do    13 centers at a time, making    1 passes.
 Calling FoFCou, ICntrl=  3107 FMM=F I1Cent=   0 AccDes= 0.00D+00.
 NEqPCM:  Using equilibrium solvation (IEInf=0, Eps=   7.4257, EpsInf=   1.9740)
 G2PCM: DoFxE=T DoFxN=T DoGrad=T DoDP/DQ/DG/TGxP=FFFF NFrqRd=   0 IEInf=0 SqF1=F DoCFld=F IF1Alg=4.
 End of G2Drv F.D. properties file   721 does not exist.
 End of G2Drv F.D. properties file   722 does not exist.
 End of G2Drv F.D. properties file   788 does not exist.
          IDoAtm=111111111111
 NEqPCM:  Using equilibrium solvation (IEInf=0, Eps=   7.4257, EpsInf=   1.9740)
          Differentiating once with respect to nuclear coordinates.
 Keep R1 ints in memory in canonical form, NReq=235170946.
          There are    39 degrees of freedom in the 1st order CPHF.  IDoFFX=6 NUNeed=     0.
     33 vectors produced by pass  0 Test12= 1.20D-14 2.56D-09 XBig12= 1.41D-01 1.14D-01.
 AX will form    33 AO Fock derivatives at one time.
     33 vectors produced by pass  1 Test12= 1.20D-14 2.56D-09 XBig12= 1.05D-02 2.92D-02.
     33 vectors produced by pass  2 Test12= 1.20D-14 2.56D-09 XBig12= 5.04D-04 5.67D-03.
     33 vectors produced by pass  3 Test12= 1.20D-14 2.56D-09 XBig12= 4.35D-06 5.53D-04.
     33 vectors produced by pass  4 Test12= 1.20D-14 2.56D-09 XBig12= 3.86D-08 3.17D-05.
     33 vectors produced by pass  5 Test12= 1.20D-14 2.56D-09 XBig12= 2.79D-10 2.72D-06.
     32 vectors produced by pass  6 Test12= 1.20D-14 2.56D-09 XBig12= 1.53D-12 2.93D-07.
     15 vectors produced by pass  7 Test12= 1.20D-14 2.56D-09 XBig12= 6.51D-15 1.43D-08.
 InvSVY:  IOpt=1 It=  1 EMax= 1.55D-15
 Solved reduced A of dimension   245 with    33 vectors.
 End of Minotr F.D. properties file   721 does not exist.
 End of Minotr F.D. properties file   722 does not exist.
 End of Minotr F.D. properties file   788 does not exist.

 **********************************************************************

            Population analysis using the SCF Density.

 **********************************************************************

 Alpha  occ. eigenvalues --  -14.73423 -10.56811 -10.54830 -10.52561 -10.52559
 Alpha  occ. eigenvalues --  -10.50065 -10.50064 -10.44832  -1.00939  -0.93536
 Alpha  occ. eigenvalues --   -0.81788  -0.81781  -0.66353  -0.66137  -0.59758
 Alpha  occ. eigenvalues --   -0.49210  -0.48916  -0.46522  -0.46466  -0.44855
 Alpha  occ. eigenvalues --   -0.42867  -0.39866  -0.38785  -0.37178  -0.28555
 Alpha  occ. eigenvalues --   -0.26863  -0.17774
 Alpha virt. eigenvalues --    0.02410   0.02973   0.04126   0.04985   0.05044
 Alpha virt. eigenvalues --    0.06881   0.07252   0.08224   0.08429   0.08887
 Alpha virt. eigenvalues --    0.10608   0.11007   0.11024   0.11296   0.12742
 Alpha virt. eigenvalues --    0.13137   0.16349   0.16381   0.16398   0.16965
 Alpha virt. eigenvalues --    0.17641   0.18248   0.18968   0.19672   0.21133
 Alpha virt. eigenvalues --    0.21713   0.22612   0.23517   0.24057   0.24934
 Alpha virt. eigenvalues --    0.25463   0.26187   0.27057   0.27407   0.27680
 Alpha virt. eigenvalues --    0.28121   0.28354   0.29025   0.29094   0.31200
 Alpha virt. eigenvalues --    0.32727   0.34666   0.39012   0.41177   0.42136
 Alpha virt. eigenvalues --    0.43666   0.51965   0.55597   0.57012   0.59196
 Alpha virt. eigenvalues --    0.59330   0.60312   0.62592   0.63624   0.66125
 Alpha virt. eigenvalues --    0.67404   0.67682   0.68034   0.69067   0.70784
 Alpha virt. eigenvalues --    0.70955   0.72463   0.75750   0.76048   0.77138
 Alpha virt. eigenvalues --    0.79262   0.80398   0.82785   0.83127   0.85961
 Alpha virt. eigenvalues --    0.90090   0.91445   0.92015   0.94025   0.95761
 Alpha virt. eigenvalues --    0.95900   0.96121   0.98933   1.03052   1.04707
 Alpha virt. eigenvalues --    1.06770   1.08140   1.09359   1.09436   1.15696
 Alpha virt. eigenvalues --    1.16388   1.21342   1.21860   1.27741   1.33856
 Alpha virt. eigenvalues --    1.34635   1.37911   1.46174   1.54840   1.55046
 Alpha virt. eigenvalues --    1.58601   1.60488   1.65437   1.68183   1.68394
 Alpha virt. eigenvalues --    1.70738   1.72555   1.74990   1.79617   1.80704
 Alpha virt. eigenvalues --    1.80813   1.83755   1.84394   1.94988   1.95572
 Alpha virt. eigenvalues --    1.98273   2.00133   2.01978   2.04045   2.05546
 Alpha virt. eigenvalues --    2.08221   2.12938   2.14245   2.14919   2.16026
 Alpha virt. eigenvalues --    2.17826   2.31121   2.38706   2.42918   2.46178
 Alpha virt. eigenvalues --    2.46862   2.48420   2.62865   2.65815   2.69595
 Alpha virt. eigenvalues --    2.69817   2.73786   2.74976   2.77322   2.78446
 Alpha virt. eigenvalues --    2.80781   2.81783   2.84686   2.89129   2.92958
 Alpha virt. eigenvalues --    2.95080   2.97988   2.99484   3.03119   3.07232
 Alpha virt. eigenvalues --    3.08891   3.15413   3.16239   3.18508   3.27590
 Alpha virt. eigenvalues --    3.28690   3.46588   3.48487   3.58790   3.65762
 Alpha virt. eigenvalues --    3.71537   3.80555   4.06387   4.08117   4.12195
 Alpha virt. eigenvalues --    4.13921   4.23269   4.24698   4.69798   4.88353
 Alpha virt. eigenvalues --   23.67099  24.03920  24.08293  24.19177  24.21811
 Alpha virt. eigenvalues --   24.33564  24.53425  36.00471
          Condensed to atoms (all electrons):
               1          2          3          4          5          6
     1  C    8.410559  -1.418199  -0.140272   1.235224  -0.029392  -1.190100
     2  C   -1.418199   7.379377   0.532987  -1.865367   0.055440   1.888428
     3  H   -0.140272   0.532987   0.531550  -0.152660  -0.001058   0.040275
     4  C    1.235224  -1.865367  -0.152660   8.545115   0.299047  -1.888586
     5  H   -0.029392   0.055440  -0.001058   0.299047   0.478610  -0.042654
     6  C   -1.190100   1.888428   0.040275  -1.888586  -0.042654  10.881983
     7  C    1.236521  -1.006584  -0.036540   0.232659  -0.036069  -1.890323
     8  H   -0.029379   0.008722   0.000118  -0.036150  -0.000014  -0.042913
     9  C   -1.418748   1.421428   0.043699  -1.006249   0.008725   1.888950
    10  H   -0.140254   0.043706   0.000448  -0.036519   0.000118   0.040254
    11  C    0.418022  -1.088285   0.016870   1.243097   0.087999  -5.799179
    12  N   -0.025246   0.053422   0.000018  -0.087136  -0.000237   0.444242
               7          8          9         10         11         12
     1  C    1.236521  -0.029379  -1.418748  -0.140254   0.418022  -0.025246
     2  C   -1.006584   0.008722   1.421428   0.043706  -1.088285   0.053422
     3  H   -0.036540   0.000118   0.043699   0.000448   0.016870   0.000018
     4  C    0.232659  -0.036150  -1.006249  -0.036519   1.243097  -0.087136
     5  H   -0.036069  -0.000014   0.008725   0.000118   0.087999  -0.000237
     6  C   -1.890323  -0.042913   1.888950   0.040254  -5.799179   0.444242
     7  C    8.545887   0.299213  -1.867678  -0.152867   1.245466  -0.087055
     8  H    0.299213   0.478618   0.055609  -0.001056   0.087996  -0.000231
     9  C   -1.867678   0.055609   7.381706   0.533163  -1.088410   0.053450
    10  H   -0.152867  -0.001056   0.533163   0.531535   0.016871   0.000018
    11  C    1.245466   0.087996  -1.088410   0.016871  11.937935   0.020437
    12  N   -0.087055  -0.000231   0.053450   0.000018   0.020437   7.002666
 Mulliken charges:
               1
     1  C   -0.908736
     2  C   -0.005073
     3  H    0.164566
     4  C   -0.482475
     5  H    0.179484
     6  C    1.669623
     7  C   -0.482631
     8  H    0.179468
     9  C   -0.005645
    10  H    0.164583
    11  C   -1.098817
    12  N   -0.374347
 Sum of Mulliken charges =  -1.00000
 Mulliken charges with hydrogens summed into heavy atoms:
               1
     1  C   -0.908736
     2  C    0.159492
     4  C   -0.302991
     6  C    1.669623
     7  C   -0.303162
     9  C    0.158939
    11  C   -1.098817
    12  N   -0.374347
 APT charges:
               1
     1  C   -2.007049
     2  C    0.791648
     3  H    0.051126
     4  C   -0.517594
     5  H   -0.732569
     6  C   -0.404686
     7  C   -0.260446
     8  H    1.258599
     9  C   -0.465010
    10  H    1.754073
    11  C    0.198431
    12  N   -0.666522
 Sum of APT charges =  -1.00000
 APT charges with hydrogens summed into heavy atoms:
               1
     1  C   -2.007049
     2  C    0.842774
     4  C   -1.250163
     6  C   -0.404686
     7  C    0.998153
     9  C    1.289063
    11  C    0.198431
    12  N   -0.666522
 Electronic spatial extent (au):  <R**2>=          19749.0530
 Charge=             -1.0000 electrons
 Dipole moment (field-independent basis, Debye):
    X=            -24.6212    Y=            -35.7989    Z=            -22.5427  Tot=             48.9484
 Quadrupole moment (field-independent basis, Debye-Ang):
   XX=           -209.2303   YY=           -318.5255   ZZ=           -163.7990
   XY=           -168.5747   XZ=           -130.4353   YZ=           -165.1620
 Traceless Quadrupole moment (field-independent basis, Debye-Ang):
   XX=             21.2880   YY=            -88.0072   ZZ=             66.7193
   XY=           -168.5747   XZ=           -130.4353   YZ=           -165.1620
 Octapole moment (field-independent basis, Debye-Ang**2):
  XXX=          -1743.9821  YYY=          -3187.1838  ZZZ=          -1262.6834  XYY=          -1365.2142
  XXY=          -1447.7593  XXZ=          -1086.6500  XZZ=           -930.7982  YZZ=          -1212.1553
  YYZ=          -1432.9814  XYZ=           -899.8301
 Hexadecapole moment (field-independent basis, Debye-Ang**3):
 XXXX=         -14120.5260 YYYY=         -33685.6664 ZZZZ=          -9326.8675 XXXY=         -12175.0439
 XXXZ=          -8969.9459 YYYX=         -12706.8138 YYYZ=         -13947.7704 ZZZX=          -6976.2489
 ZZZY=          -9358.3191 XXYY=         -11137.2048 XXZZ=          -6908.7640 YYZZ=         -10037.0846
 XXYZ=          -7526.2595 YYXZ=          -7181.2701 ZZXY=          -6616.1246
 N-N= 2.904993701675D+02 E-N=-1.342979412006D+03  KE= 3.227793806138D+02
  Exact polarizability:       0.000       0.000       0.000       0.000       0.000       0.000
 Approx polarizability:     152.475      -7.594     115.929      23.148     -25.135      89.812
 D2PCM: PCM CHGder 2nd derivatives, FixD1E=F FixD2E=F DoIter=F DoCFld=F I1PDM=0
 Calling FoFJK, ICntrl=    100127 FMM=F ISym2X=0 I1Cent= 0 IOpClX= 0 NMat=1 NMatS=1 NMatT=0.
 -------------------------------------------------------------------
 Center     Atomic                   Forces (Hartrees/Bohr)
 Number     Number              X              Y              Z
 -------------------------------------------------------------------
      1        6           0.073943802   -0.027528638    0.031908982
      2        6          -0.026108223    0.019745591   -0.016563670
      3        1          -0.001967808   -0.002194603    0.000664267
      4        6          -0.005013049   -0.011723676    0.004988873
      5        1          -0.004825270    0.000973068   -0.001628424
      6        6          -0.007137572    0.002628499   -0.003071667
      7        6           0.007337721    0.010856523   -0.003884635
      8        1          -0.004077740    0.002370615   -0.002209884
      9        6          -0.035178941    0.003072890   -0.009959103
     10        1           0.000721136    0.002688428   -0.001256043
     11        6           0.008478161   -0.003210331    0.003667891
     12        7          -0.006172219    0.002321635   -0.002656585
 -------------------------------------------------------------------
 Cartesian Forces:  Max     0.073943802 RMS     0.017156115
 FormGI is forming the generalized inverse of G from B-inverse, IUseBI=4.

 GradGradGradGradGradGradGradGradGradGradGradGradGradGradGradGradGradGrad
 Berny optimization.
 Internal  Forces:  Max     0.050345757 RMS     0.011307837
 Search for a local minimum.
 Step number   1 out of a maximum of   60
 All quantities printed in internal units (Hartrees-Bohrs-Radians)
 Mixed Optimization -- RFO/linear search
 Second derivative matrix not updated -- analytic derivatives used.
 ITU=  0
     Eigenvalues ---    0.00877   0.01741   0.02123   0.02508   0.02687
     Eigenvalues ---    0.03006   0.03542   0.03910   0.07434   0.09029
     Eigenvalues ---    0.11063   0.11077   0.11812   0.12174   0.16162
     Eigenvalues ---    0.18355   0.19480   0.20212   0.28910   0.34906
     Eigenvalues ---    0.35519   0.35748   0.36335   0.36442   0.42718
     Eigenvalues ---    0.43716   0.46390   0.50641   0.53031   1.29353
 RFO step:  Lambda=-2.52547875D-02 EMin= 8.77373389D-03
 Linear search not attempted -- first point.
 Maximum step size (   0.300) exceeded in Quadratic search.
    -- Step size scaled by   0.910
 Iteration  1 RMS(Cart)=  0.04314470 RMS(Int)=  0.00278381
 Iteration  2 RMS(Cart)=  0.00399235 RMS(Int)=  0.00091619
 Iteration  3 RMS(Cart)=  0.00000357 RMS(Int)=  0.00091618
 Iteration  4 RMS(Cart)=  0.00000000 RMS(Int)=  0.00091618
 Variable       Old X    -DE/DX   Delta X   Delta X   Delta X     New X
                                 (Linear)    (Quad)   (Total)
    R1        2.59650   0.02792   0.00000   0.06280   0.06404   2.66054
    R2        2.59648   0.02787   0.00000   0.06278   0.06401   2.66050
    R3        2.04776   0.00214   0.00000   0.00757   0.00757   2.05533
    R4        2.63396   0.00649   0.00000  -0.00475  -0.00472   2.62924
    R5        2.04772   0.00334   0.00000   0.00318   0.00318   2.05091
    R6        2.64468  -0.00074   0.00000  -0.00178  -0.00305   2.64163
    R7        2.64456  -0.00066   0.00000  -0.00130  -0.00257   2.64199
    R8        2.71377  -0.00267   0.00000  -0.00797  -0.00797   2.70579
    R9        2.04768   0.00336   0.00000   0.00329   0.00329   2.05097
   R10        2.63395   0.00649   0.00000  -0.00381  -0.00379   2.63016
   R11        2.04779   0.00219   0.00000   0.00778   0.00778   2.05556
   R12        2.17434   0.00711   0.00000   0.00482   0.00482   2.17916
    A1        2.20334  -0.05035   0.00000  -0.19989  -0.19619   2.00715
    A2        2.13754  -0.01082   0.00000  -0.04947  -0.05001   2.08753
    A3        2.03711   0.02603   0.00000   0.11596   0.11703   2.15414
    A4        2.10854  -0.01521   0.00000  -0.06649  -0.06702   2.04151
    A5        2.10575   0.00376   0.00000   0.00850   0.00926   2.11500
    A6        2.08317   0.00061   0.00000  -0.00091  -0.00241   2.08075
    A7        2.09427  -0.00437   0.00000  -0.00760  -0.00684   2.08743
    A8        2.12245  -0.00293   0.00000  -0.02972  -0.03253   2.08992
    A9        2.08064   0.00145   0.00000   0.01390   0.01530   2.09594
   A10        2.08010   0.00148   0.00000   0.01582   0.01723   2.09733
   A11        2.09417  -0.00440   0.00000  -0.00846  -0.00770   2.08646
   A12        2.08315   0.00066   0.00000  -0.00034  -0.00185   2.08130
   A13        2.10587   0.00374   0.00000   0.00880   0.00956   2.11542
   A14        2.03715   0.02598   0.00000   0.11490   0.11596   2.15311
   A15        2.13734  -0.01081   0.00000  -0.04836  -0.04889   2.08845
   A16        2.10869  -0.01516   0.00000  -0.06654  -0.06707   2.04162
   A17        3.14150  -0.00004   0.00000   0.00096   0.00096   3.14247
   A18        3.14193  -0.00001   0.00000  -0.00039  -0.00039   3.14154
    D1        3.14144   0.00000   0.00000  -0.00080  -0.00083   3.14061
    D2       -0.00046  -0.00001   0.00000   0.00058   0.00058   0.00012
    D3        0.00040   0.00000   0.00000  -0.00001   0.00001   0.00041
    D4       -3.14135   0.00001   0.00000  -0.00049  -0.00048   3.14135
    D5       -3.14158   0.00001   0.00000  -0.00095  -0.00098   3.14063
    D6        0.00025   0.00003   0.00000  -0.00047  -0.00049  -0.00023
    D7       -0.00029   0.00000   0.00000   0.00041   0.00039   0.00010
    D8        3.14154   0.00002   0.00000   0.00089   0.00088  -3.14076
    D9       -0.00004  -0.00002   0.00000  -0.00010  -0.00012  -0.00016
   D10       -3.14114  -0.00003   0.00000  -0.00063  -0.00065   3.14140
   D11       -3.14139   0.00000   0.00000   0.00038   0.00036  -3.14103
   D12        0.00070  -0.00001   0.00000  -0.00015  -0.00017   0.00053
   D13       -3.14146  -0.00001   0.00000   0.00030   0.00030  -3.14117
   D14       -0.00002   0.00001   0.00000   0.00069   0.00068   0.00066
   D15       -0.00036   0.00000   0.00000   0.00083   0.00082   0.00046
   D16        3.14108   0.00002   0.00000   0.00123   0.00120  -3.14090
   D17       -0.00014  -0.00001   0.00000  -0.00066  -0.00066  -0.00080
   D18       -3.14158  -0.00001   0.00000  -0.00019  -0.00018   3.14143
   D19        3.14130   0.00001   0.00000  -0.00027  -0.00027   3.14102
   D20       -0.00013   0.00000   0.00000   0.00021   0.00020   0.00007
         Item               Value     Threshold  Converged?
 Maximum Force            0.050346     0.000015     NO 
 RMS     Force            0.011308     0.000010     NO 
 Maximum Displacement     0.218196     0.000060     NO 
 RMS     Displacement     0.043462     0.000040     NO 
 Predicted change in Energy=-1.365650D-02
 GradGradGradGradGradGradGradGradGradGradGradGradGradGradGradGradGradGrad

                          Input orientation:                          
 ---------------------------------------------------------------------
 Center     Atomic      Atomic             Coordinates (Angstroms)
 Number     Number       Type             X           Y           Z
 ---------------------------------------------------------------------
      1          6           0        6.308496    7.011342    5.202589
      2          6           0        5.115509    6.271155    5.307838
      3          1           0        5.123739    5.307542    5.812150
      4          6           0        3.897143    6.704077    4.794057
      5          1           0        2.999212    6.102959    4.895233
      6          6           0        3.833111    7.935576    4.135720
      7          6           0        4.988147    8.712062    4.003094
      8          1           0        4.934685    9.667866    3.491712
      9          6           0        6.187474    8.242640    4.530749
     10          1           0        7.062810    8.876324    4.406465
     11          6           0        2.588971    8.399104    3.599588
     12          7           0        1.586537    8.771554    3.168092
 ---------------------------------------------------------------------
                    Distance matrix (angstroms):
                    1          2          3          4          5
     1  C    0.000000
     2  C    1.407897   0.000000
     3  H    2.162904   1.087635   0.000000
     4  C    2.464941   1.391333   2.119283   0.000000
     5  H    3.445430   2.162694   2.446843   1.085292   0.000000
     6  C    2.849553   2.405972   3.373826   1.397890   2.151913
     7  C    2.464662   2.770669   3.857698   2.418247   3.399882
     8  H    3.445515   3.855990   4.942935   3.399506   4.292375
     9  C    1.407873   2.374811   3.374658   2.771664   3.856954
    10  H    2.163552   3.375109   4.297924   3.858799   4.944014
    11  C    4.281397   3.718828   4.569271   2.451772   2.668197
    12  N    5.434558   4.825365   5.612684   3.501017   3.478515
                    6          7          8          9         10
     6  C    0.000000
     7  C    1.398081   0.000000
     8  H    2.151521   1.085325   0.000000
     9  C    2.406940   1.391820   2.163412   0.000000
    10  H    3.374799   2.119886   2.447903   1.087757   0.000000
    11  C    1.431845   2.452918   2.669038   3.720318   4.570998
    12  N    2.585006   3.503101   3.481120   4.827546   5.615524
                   11         12
    11  C    0.000000
    12  N    1.153161   0.000000
 Symmetry turned off by external request.
 Stoichiometry    C7H4N(1-)
 Framework group  C1[X(C7H4N)]
 Deg. of freedom    30
 Full point group                 C1      NOp   1
 Rotational constants (GHZ):           5.7745377           1.5878764           1.2454138
 Standard basis: 6-311+G(d,p) (5D, 7F)
   200 basis functions,   320 primitive gaussians,   208 cartesian basis functions
    27 alpha electrons       27 beta electrons
       nuclear repulsion energy       289.1033058508 Hartrees.
 NAtoms=   12 NActive=   12 NUniq=   12 SFac= 1.00D+00 NAtFMM=   60 NAOKFM=F Big=F
 Integral buffers will be    131072 words long.
 Raffenetti 2 integral format.
 Two-electron integral symmetry is turned off.
 ------------------------------------------------------------------------------
 Polarizable Continuum Model (PCM)
 =================================
 Model                : PCM.
 Atomic radii         : SMD-Coulomb.
 Polarization charges : Total charges.
 Charge compensation  : None.
 Solution method      : Matrix inversion.
 Cavity type          : VdW (van der Waals Surface) (Alpha=1.000).
 Cavity algorithm     : GePol (No added spheres)
                        Default sphere list used, NSphG=   12.
                        Lebedev-Laikov grids with approx.  5.0 points / Ang**2.
                        Smoothing algorithm: York/Karplus (Gamma=1.0000).
                        Polarization charges: spherical gaussians, with
                                              point-specific exponents (IZeta= 3).
                        Self-potential: point-specific (ISelfS= 7).
                        Self-field    : sphere-specific E.n sum rule (ISelfD= 2).
 1st derivatives      : Analytical E(r).r(x)/FMM algorithm (CHGder, D1EAlg=3).
                        Cavity 1st derivative terms included.
 Solvent              : TetraHydroFuran, Eps=   7.425700 Eps(inf)=   1.974025
 ------------------------------------------------------------------------------
 Spheres list:
 ISph  on   Nord     Re0    Alpha      Xe            Ye            Ze
    1   C      1    1.8500  1.000      6.308496      7.011342      5.202589
    2   C      2    1.8500  1.000      5.115509      6.271155      5.307838
    3   H      3    1.2000  1.000      5.123739      5.307542      5.812150
    4   C      4    1.8500  1.000      3.897143      6.704077      4.794057
    5   H      5    1.2000  1.000      2.999212      6.102959      4.895233
    6   C      6    1.8500  1.000      3.833111      7.935576      4.135720
    7   C      7    1.8500  1.000      4.988147      8.712062      4.003094
    8   H      8    1.2000  1.000      4.934685      9.667866      3.491712
    9   C      9    1.8500  1.000      6.187474      8.242640      4.530749
   10   H     10    1.2000  1.000      7.062810      8.876324      4.406465
   11   C     11    1.8500  1.000      2.588971      8.399104      3.599588
   12   N     12    1.8900  1.000      1.586537      8.771554      3.168092
 ------------------------------------------------------------------------------
 ------------------------------------------------------------------------------
 Atomic radii for non-electrostatic terms: SMD-CDS.
 ------------------------------------------------------------------------------
 Nuclear repulsion after PCM non-electrostatic terms =      289.1026451157 Hartrees.
 One-electron integrals computed using PRISM.
 NBasis=   200 RedAO= T EigKep=  3.45D-06  NBF=   200
 NBsUse=   200 1.00D-06 EigRej= -1.00D+00 NBFU=   200
 Initial guess from the checkpoint file:  "4-CN-ph-anion-opt-freq-2-thf.chk"
 B after Tr=     0.013010   -0.006731    0.007296
         Rot=    1.000000    0.000075   -0.000006   -0.000060 Ang=   0.01 deg.
 ExpMin= 4.38D-02 ExpMax= 6.29D+03 ExpMxC= 9.49D+02 IAcc=3 IRadAn=         5 AccDes= 0.00D+00
 Harris functional with IExCor= 1009 and IRadAn=       5 diagonalized for initial guess.
 HarFok:  IExCor= 1009 AccDes= 0.00D+00 IRadAn=         5 IDoV= 1 UseB2=F ITyADJ=14
 ICtDFT=  3500011 ScaDFX=  1.000000  1.000000  1.000000  1.000000
 FoFCou: FMM=F IPFlag=           0 FMFlag=      100000 FMFlg1=           0
         NFxFlg=           0 DoJE=T BraDBF=F KetDBF=T FulRan=T
         wScrn=  0.000000 ICntrl=       500 IOpCl=  0 I1Cent=   200000004 NGrid=           0
         NMat0=    1 NMatS0=      1 NMatT0=    0 NMatD0=    1 NMtDS0=    0 NMtDT0=    0
 Symmetry not used in FoFCou.
 Keep R1 ints in memory in canonical form, NReq=235270894.
 Requested convergence on RMS density matrix=1.00D-08 within 128 cycles.
 Requested convergence on MAX density matrix=1.00D-06.
 Requested convergence on             energy=1.00D-06.
 Level shift goal  0.100 maximum shift  0.100.
 No special actions if energy rises.
 Dynamic level shift is on during FON iterations.
 Inv3:  Mode=1 IEnd=     4509228.
 Iteration    1 A*A^-1 deviation from unit magnitude is 4.22D-15 for   1218.
 Iteration    1 A*A^-1 deviation from orthogonality  is 2.12D-15 for   1217   1101.
 Iteration    1 A^-1*A deviation from unit magnitude is 4.66D-15 for   1202.
 Iteration    1 A^-1*A deviation from orthogonality  is 1.39D-15 for   1217   1101.
 Error on total polarization charges =  0.05442
 SCF Done:  E(RM062X) =  -323.895597874     A.U. after   14 cycles
            NFock= 14  Conv=0.37D-08     -V/T= 2.0038
 SMD-CDS (non-electrostatic) energy       (kcal/mol) =      -0.41
 (included in total energy above)
 D1PCM: PCM CHGder 1st derivatives, ID1Alg=3 FixD1E=F DoIter=F DoCFld=F I1PDM=0.
 Calling FoFJK, ICntrl=      2127 FMM=F ISym2X=0 I1Cent= 0 IOpClX= 0 NMat=1 NMatS=1 NMatT=0.
 -------------------------------------------------------------------
 Center     Atomic                   Forces (Hartrees/Bohr)
 Number     Number              X              Y              Z
 -------------------------------------------------------------------
      1        6           0.013782476   -0.004986191    0.005715051
      2        6          -0.003975303    0.003292167   -0.002737759
      3        1          -0.000780702   -0.001142558    0.000418607
      4        6          -0.001665957   -0.003579759    0.001511223
      5        1          -0.001005860    0.000110372   -0.000261519
      6        6          -0.002530716    0.000992871   -0.001107161
      7        6           0.002172458    0.003348537   -0.001233891
      8        1          -0.000696880    0.000554012   -0.000465160
      9        6          -0.006264989    0.000370212   -0.001487925
     10        1           0.000491323    0.001142020   -0.000535848
     11        6           0.001181456   -0.000409689    0.000489869
     12        7          -0.000707305    0.000308006   -0.000305486
 -------------------------------------------------------------------
 Cartesian Forces:  Max     0.013782476 RMS     0.003230408

 GradGradGradGradGradGradGradGradGradGradGradGradGradGradGradGradGradGrad
 Berny optimization.
 Using GEDIIS/GDIIS optimizer.
 FormGI is forming the generalized inverse of G from B-inverse, IUseBI=4.
 Internal  Forces:  Max     0.007919943 RMS     0.002143990
 Search for a local minimum.
 Step number   2 out of a maximum of   60
 All quantities printed in internal units (Hartrees-Bohrs-Radians)
 Mixed Optimization -- RFO/linear search
 Update second derivatives using D2CorX and points    1    2
 DE= -1.36D-02 DEPred=-1.37D-02 R= 9.92D-01
 TightC=F SS=  1.41D+00  RLast= 3.00D-01 DXNew= 5.0454D-01 8.9942D-01
 Trust test= 9.92D-01 RLast= 3.00D-01 DXMaxT set to 5.05D-01
 ITU=  1  0
 Use linear search instead of GDIIS.
     Eigenvalues ---    0.00877   0.01740   0.02120   0.02506   0.02686
     Eigenvalues ---    0.02999   0.03532   0.03907   0.07434   0.09029
     Eigenvalues ---    0.11063   0.11084   0.11812   0.12192   0.16162
     Eigenvalues ---    0.18501   0.20056   0.20208   0.28903   0.34977
     Eigenvalues ---    0.35518   0.35748   0.36334   0.36416   0.42706
     Eigenvalues ---    0.43556   0.46427   0.50616   0.51892   1.29348
 RFO step:  Lambda=-5.66374807D-05 EMin= 8.76554324D-03
 Quartic linear search produced a step of  0.20677.
 Iteration  1 RMS(Cart)=  0.00915461 RMS(Int)=  0.00024365
 Iteration  2 RMS(Cart)=  0.00016116 RMS(Int)=  0.00021912
 Iteration  3 RMS(Cart)=  0.00000001 RMS(Int)=  0.00021912
 Variable       Old X    -DE/DX   Delta X   Delta X   Delta X     New X
                                 (Linear)    (Quad)   (Total)
    R1        2.66054   0.00657   0.01324   0.00304   0.01657   2.67711
    R2        2.66050   0.00646   0.01324   0.00286   0.01638   2.67688
    R3        2.05533   0.00120   0.00157   0.00270   0.00426   2.05960
    R4        2.62924   0.00215  -0.00098   0.00286   0.00189   2.63113
    R5        2.05091   0.00075   0.00066   0.00054   0.00120   2.05210
    R6        2.64163   0.00180  -0.00063   0.00496   0.00403   2.64566
    R7        2.64199   0.00153  -0.00053   0.00454   0.00370   2.64569
    R8        2.70579  -0.00051  -0.00165  -0.00056  -0.00221   2.70359
    R9        2.05097   0.00074   0.00068   0.00044   0.00112   2.05209
   R10        2.63016   0.00172  -0.00078   0.00151   0.00073   2.63089
   R11        2.05556   0.00112   0.00161   0.00246   0.00407   2.05963
   R12        2.17916   0.00083   0.00100  -0.00026   0.00073   2.17989
    A1        2.00715  -0.00792  -0.04057   0.00227  -0.03741   1.96974
    A2        2.08753  -0.00130  -0.01034   0.00495  -0.00552   2.08201
    A3        2.15414   0.00428   0.02420  -0.00145   0.02300   2.17714
    A4        2.04151  -0.00298  -0.01386  -0.00349  -0.01748   2.02403
    A5        2.11500   0.00086   0.00191   0.00166   0.00375   2.11876
    A6        2.08075  -0.00021  -0.00050  -0.00073  -0.00159   2.07917
    A7        2.08743  -0.00066  -0.00142  -0.00093  -0.00217   2.08526
    A8        2.08992  -0.00050  -0.00673   0.00134  -0.00606   2.08386
    A9        2.09594   0.00044   0.00316   0.00082   0.00432   2.10026
   A10        2.09733   0.00007   0.00356  -0.00216   0.00174   2.09907
   A11        2.08646  -0.00057  -0.00159   0.00017  -0.00124   2.08523
   A12        2.08130  -0.00023  -0.00038  -0.00126  -0.00200   2.07930
   A13        2.11542   0.00080   0.00198   0.00108   0.00324   2.11866
   A14        2.15311   0.00458   0.02398  -0.00017   0.02405   2.17716
   A15        2.08845  -0.00153  -0.01011   0.00336  -0.00687   2.08158
   A16        2.04162  -0.00305  -0.01387  -0.00319  -0.01718   2.02444
   A17        3.14247  -0.00012   0.00020  -0.00194  -0.00174   3.14073
   A18        3.14154  -0.00002  -0.00008  -0.00054  -0.00062   3.14092
    D1        3.14061   0.00004  -0.00017   0.00138   0.00119  -3.14138
    D2        0.00012   0.00002   0.00012   0.00095   0.00105   0.00117
    D3        0.00041  -0.00005   0.00000  -0.00296  -0.00295  -0.00254
    D4        3.14135   0.00002  -0.00010  -0.00061  -0.00069   3.14066
    D5        3.14063   0.00001  -0.00020   0.00092   0.00070   3.14133
    D6       -0.00023   0.00002  -0.00010   0.00143   0.00131   0.00108
    D7        0.00010  -0.00001   0.00008   0.00049   0.00056   0.00067
    D8       -3.14076   0.00000   0.00018   0.00101   0.00117  -3.13959
    D9       -0.00016  -0.00004  -0.00003  -0.00195  -0.00197  -0.00213
   D10        3.14140  -0.00005  -0.00013  -0.00286  -0.00298   3.13842
   D11       -3.14103  -0.00002   0.00007  -0.00144  -0.00138   3.14077
   D12        0.00053  -0.00003  -0.00004  -0.00235  -0.00239  -0.00186
   D13       -3.14117  -0.00001   0.00006  -0.00034  -0.00025  -3.14142
   D14        0.00066   0.00001   0.00014   0.00006   0.00022   0.00087
   D15        0.00046   0.00001   0.00017   0.00058   0.00076   0.00122
   D16       -3.14090   0.00002   0.00025   0.00097   0.00123  -3.13968
   D17       -0.00080   0.00004  -0.00014   0.00253   0.00242   0.00161
   D18        3.14143  -0.00003  -0.00004   0.00024   0.00022  -3.14154
   D19        3.14102   0.00005  -0.00006   0.00293   0.00289  -3.13927
   D20        0.00007  -0.00002   0.00004   0.00064   0.00070   0.00076
         Item               Value     Threshold  Converged?
 Maximum Force            0.007920     0.000015     NO 
 RMS     Force            0.002144     0.000010     NO 
 Maximum Displacement     0.046605     0.000060     NO 
 RMS     Displacement     0.009158     0.000040     NO 
 Predicted change in Energy=-4.554342D-04
 GradGradGradGradGradGradGradGradGradGradGradGradGradGradGradGradGradGrad

                          Input orientation:                          
 ---------------------------------------------------------------------
 Center     Atomic      Atomic             Coordinates (Angstroms)
 Number     Number       Type             X           Y           Z
 ---------------------------------------------------------------------
      1          6           0        6.333159    7.001806    5.211046
      2          6           0        5.120259    6.275928    5.305484
      3          1           0        5.115428    5.308700    5.807788
      4          6           0        3.897487    6.704240    4.795612
      5          1           0        2.999486    6.102430    4.898834
      6          6           0        3.828657    7.936746    4.135120
      7          6           0        4.987236    8.711716    4.003863
      8          1           0        4.935266    9.667984    3.491934
      9          6           0        6.183947    8.236902    4.533651
     10          1           0        7.053273    8.881090    4.402511
     11          6           0        2.586358    8.400213    3.597782
     12          7           0        1.585277    8.774448    3.163662
 ---------------------------------------------------------------------
                    Distance matrix (angstroms):
                    1          2          3          4          5
     1  C    0.000000
     2  C    1.416666   0.000000
     3  H    2.169234   1.089891   0.000000
     4  C    2.488700   1.392333   2.110784   0.000000
     5  H    3.466948   2.166367   2.435860   1.085926   0.000000
     6  C    2.881712   2.407551   3.370493   1.400021   2.153021
     7  C    2.488492   2.764955   3.853712   2.417515   3.400073
     8  H    3.466693   3.850874   4.939534   3.400050   4.294158
     9  C    1.416542   2.360631   3.367421   2.765064   3.850990
    10  H    2.168871   3.367309   4.300234   3.853854   4.939684
    11  C    4.312386   3.721490   4.564841   2.455643   2.672680
    12  N    5.465933   4.829710   5.609347   3.506471   3.485755
                    6          7          8          9         10
     6  C    0.000000
     7  C    1.400041   0.000000
     8  H    2.153012   1.085919   0.000000
     9  C    2.407554   1.392207   2.166189   0.000000
    10  H    3.370673   2.110952   2.436043   1.089909   0.000000
    11  C    1.430678   2.454821   2.671294   3.720909   4.564226
    12  N    2.584227   3.504739   3.482613   4.828415   5.607593
                   11         12
    11  C    0.000000
    12  N    1.153549   0.000000
 Symmetry turned off by external request.
 Stoichiometry    C7H4N(1-)
 Framework group  C1[X(C7H4N)]
 Deg. of freedom    30
 Full point group                 C1      NOp   1
 Rotational constants (GHZ):           5.8014615           1.5776579           1.2403554
 Standard basis: 6-311+G(d,p) (5D, 7F)
   200 basis functions,   320 primitive gaussians,   208 cartesian basis functions
    27 alpha electrons       27 beta electrons
       nuclear repulsion energy       288.6274831961 Hartrees.
 NAtoms=   12 NActive=   12 NUniq=   12 SFac= 1.00D+00 NAtFMM=   60 NAOKFM=F Big=F
 Integral buffers will be    131072 words long.
 Raffenetti 2 integral format.
 Two-electron integral symmetry is turned off.
 ------------------------------------------------------------------------------
 Polarizable Continuum Model (PCM)
 =================================
 Model                : PCM.
 Atomic radii         : SMD-Coulomb.
 Polarization charges : Total charges.
 Charge compensation  : None.
 Solution method      : Matrix inversion.
 Cavity type          : VdW (van der Waals Surface) (Alpha=1.000).
 Cavity algorithm     : GePol (No added spheres)
                        Default sphere list used, NSphG=   12.
                        Lebedev-Laikov grids with approx.  5.0 points / Ang**2.
                        Smoothing algorithm: York/Karplus (Gamma=1.0000).
                        Polarization charges: spherical gaussians, with
                                              point-specific exponents (IZeta= 3).
                        Self-potential: point-specific (ISelfS= 7).
                        Self-field    : sphere-specific E.n sum rule (ISelfD= 2).
 1st derivatives      : Analytical E(r).r(x)/FMM algorithm (CHGder, D1EAlg=3).
                        Cavity 1st derivative terms included.
 Solvent              : TetraHydroFuran, Eps=   7.425700 Eps(inf)=   1.974025
 ------------------------------------------------------------------------------
 Spheres list:
 ISph  on   Nord     Re0    Alpha      Xe            Ye            Ze
    1   C      1    1.8500  1.000      6.333159      7.001806      5.211046
    2   C      2    1.8500  1.000      5.120259      6.275928      5.305484
    3   H      3    1.2000  1.000      5.115428      5.308700      5.807788
    4   C      4    1.8500  1.000      3.897487      6.704240      4.795612
    5   H      5    1.2000  1.000      2.999486      6.102430      4.898834
    6   C      6    1.8500  1.000      3.828657      7.936746      4.135120
    7   C      7    1.8500  1.000      4.987236      8.711716      4.003863
    8   H      8    1.2000  1.000      4.935266      9.667984      3.491934
    9   C      9    1.8500  1.000      6.183947      8.236902      4.533651
   10   H     10    1.2000  1.000      7.053273      8.881090      4.402511
   11   C     11    1.8500  1.000      2.586358      8.400213      3.597782
   12   N     12    1.8900  1.000      1.585277      8.774448      3.163662
 ------------------------------------------------------------------------------
 ------------------------------------------------------------------------------
 Atomic radii for non-electrostatic terms: SMD-CDS.
 ------------------------------------------------------------------------------
 Nuclear repulsion after PCM non-electrostatic terms =      288.6268538562 Hartrees.
 One-electron integrals computed using PRISM.
 NBasis=   200 RedAO= T EigKep=  3.51D-06  NBF=   200
 NBsUse=   200 1.00D-06 EigRej= -1.00D+00 NBFU=   200
 Initial guess from the checkpoint file:  "4-CN-ph-anion-opt-freq-2-thf.chk"
 B after Tr=     0.003482    0.000419   -0.002170
         Rot=    1.000000   -0.000031    0.000117    0.000049 Ang=  -0.01 deg.
 ExpMin= 4.38D-02 ExpMax= 6.29D+03 ExpMxC= 9.49D+02 IAcc=3 IRadAn=         5 AccDes= 0.00D+00
 Harris functional with IExCor= 1009 and IRadAn=       5 diagonalized for initial guess.
 HarFok:  IExCor= 1009 AccDes= 0.00D+00 IRadAn=         5 IDoV= 1 UseB2=F ITyADJ=14
 ICtDFT=  3500011 ScaDFX=  1.000000  1.000000  1.000000  1.000000
 FoFCou: FMM=F IPFlag=           0 FMFlag=      100000 FMFlg1=           0
         NFxFlg=           0 DoJE=T BraDBF=F KetDBF=T FulRan=T
         wScrn=  0.000000 ICntrl=       500 IOpCl=  0 I1Cent=   200000004 NGrid=           0
         NMat0=    1 NMatS0=      1 NMatT0=    0 NMatD0=    1 NMtDS0=    0 NMtDT0=    0
 Symmetry not used in FoFCou.
 Keep R1 ints in memory in canonical form, NReq=235270894.
 Requested convergence on RMS density matrix=1.00D-08 within 128 cycles.
 Requested convergence on MAX density matrix=1.00D-06.
 Requested convergence on             energy=1.00D-06.
 Level shift goal  0.100 maximum shift  0.100.
 No special actions if energy rises.
 Dynamic level shift is on during FON iterations.
 Inv3:  Mode=1 IEnd=     4516587.
 Iteration    1 A*A^-1 deviation from unit magnitude is 4.55D-15 for   1205.
 Iteration    1 A*A^-1 deviation from orthogonality  is 1.46D-15 for   1222   1130.
 Iteration    1 A^-1*A deviation from unit magnitude is 4.44D-15 for   1205.
 Iteration    1 A^-1*A deviation from orthogonality  is 1.76D-15 for   1210    591.
 Error on total polarization charges =  0.05380
 SCF Done:  E(RM062X) =  -323.896054470     A.U. after   13 cycles
            NFock= 13  Conv=0.36D-08     -V/T= 2.0040
 SMD-CDS (non-electrostatic) energy       (kcal/mol) =      -0.39
 (included in total energy above)
 D1PCM: PCM CHGder 1st derivatives, ID1Alg=3 FixD1E=F DoIter=F DoCFld=F I1PDM=0.
 Calling FoFJK, ICntrl=      2127 FMM=F ISym2X=0 I1Cent= 0 IOpClX= 0 NMat=1 NMatS=1 NMatT=0.
 -------------------------------------------------------------------
 Center     Atomic                   Forces (Hartrees/Bohr)
 Number     Number              X              Y              Z
 -------------------------------------------------------------------
      1        6           0.000737316   -0.000218745    0.000288082
      2        6          -0.000400302   -0.000488011    0.000109479
      3        1          -0.000025697   -0.000172582    0.000079502
      4        6          -0.000241990   -0.000255764    0.000060868
      5        1          -0.000062246   -0.000017073   -0.000008717
      6        6          -0.000250806    0.000093421   -0.000097695
      7        6           0.000044218    0.000341456   -0.000154258
      8        1          -0.000060095    0.000062548   -0.000024211
      9        6           0.000143045    0.000517635   -0.000231922
     10        1           0.000121267    0.000138803   -0.000082797
     11        6           0.000006613   -0.000001551    0.000023993
     12        7          -0.000011323   -0.000000137    0.000037677
 -------------------------------------------------------------------
 Cartesian Forces:  Max     0.000737316 RMS     0.000227935

 GradGradGradGradGradGradGradGradGradGradGradGradGradGradGradGradGradGrad
 Berny optimization.
 Using GEDIIS/GDIIS optimizer.
 FormGI is forming the generalized inverse of G from B-inverse, IUseBI=4.
 Internal  Forces:  Max     0.000887073 RMS     0.000210740
 Search for a local minimum.
 Step number   3 out of a maximum of   60
 All quantities printed in internal units (Hartrees-Bohrs-Radians)
 Mixed Optimization -- En-DIIS/RFO-DIIS
 Update second derivatives using D2CorX and points    1    2    3
 DE= -4.57D-04 DEPred=-4.55D-04 R= 1.00D+00
 TightC=F SS=  1.41D+00  RLast= 6.29D-02 DXNew= 8.4853D-01 1.8871D-01
 Trust test= 1.00D+00 RLast= 6.29D-02 DXMaxT set to 5.05D-01
 ITU=  1  1  0
 Use linear search instead of GDIIS.
     Eigenvalues ---    0.00876   0.01740   0.02118   0.02505   0.02685
     Eigenvalues ---    0.02996   0.03527   0.03905   0.07434   0.09029
     Eigenvalues ---    0.11063   0.11117   0.11812   0.12180   0.16162
     Eigenvalues ---    0.18540   0.20204   0.20904   0.28901   0.35007
     Eigenvalues ---    0.35518   0.35736   0.36333   0.36391   0.42692
     Eigenvalues ---    0.43104   0.46475   0.50069   0.50607   1.29354
 RFO step:  Lambda=-4.07851333D-06 EMin= 8.76349162D-03
 Quartic linear search produced a step of  0.03025.
 Iteration  1 RMS(Cart)=  0.00086894 RMS(Int)=  0.00000113
 Iteration  2 RMS(Cart)=  0.00000032 RMS(Int)=  0.00000110
 Variable       Old X    -DE/DX   Delta X   Delta X   Delta X     New X
                                 (Linear)    (Quad)   (Total)
    R1        2.67711   0.00089   0.00050   0.00142   0.00192   2.67903
    R2        2.67688   0.00084   0.00050   0.00128   0.00178   2.67866
    R3        2.05960   0.00019   0.00013   0.00036   0.00049   2.06009
    R4        2.63113   0.00031   0.00006   0.00051   0.00057   2.63170
    R5        2.05210   0.00006   0.00004   0.00014   0.00018   2.05228
    R6        2.64566   0.00042   0.00012   0.00072   0.00084   2.64650
    R7        2.64569   0.00041   0.00011   0.00068   0.00080   2.64649
    R8        2.70359  -0.00002  -0.00007  -0.00005  -0.00012   2.70347
    R9        2.05209   0.00007   0.00003   0.00015   0.00018   2.05227
   R10        2.63089   0.00032   0.00002   0.00058   0.00061   2.63150
   R11        2.05963   0.00019   0.00012   0.00036   0.00048   2.06011
   R12        2.17989   0.00000   0.00002   0.00000   0.00003   2.17992
    A1        1.96974   0.00002  -0.00113   0.00105  -0.00007   1.96967
    A2        2.08201   0.00010  -0.00017   0.00030   0.00013   2.08214
    A3        2.17714  -0.00011   0.00070  -0.00086  -0.00016   2.17698
    A4        2.02403   0.00002  -0.00053   0.00056   0.00003   2.02407
    A5        2.11876   0.00003   0.00011   0.00041   0.00053   2.11928
    A6        2.07917   0.00001  -0.00005  -0.00005  -0.00010   2.07906
    A7        2.08526  -0.00004  -0.00007  -0.00036  -0.00042   2.08484
    A8        2.08386   0.00019  -0.00018   0.00076   0.00058   2.08444
    A9        2.10026  -0.00008   0.00013  -0.00035  -0.00022   2.10004
   A10        2.09907  -0.00010   0.00005  -0.00042  -0.00036   2.09871
   A11        2.08523  -0.00004  -0.00004  -0.00038  -0.00042   2.08481
   A12        2.07930   0.00000  -0.00006  -0.00010  -0.00017   2.07913
   A13        2.11866   0.00004   0.00010   0.00048   0.00058   2.11924
   A14        2.17716  -0.00009   0.00073  -0.00080  -0.00007   2.17709
   A15        2.08158   0.00010  -0.00021   0.00038   0.00017   2.08175
   A16        2.02444   0.00000  -0.00052   0.00042  -0.00010   2.02434
   A17        3.14073   0.00000  -0.00005  -0.00001  -0.00006   3.14067
   A18        3.14092   0.00001  -0.00002   0.00011   0.00009   3.14101
    D1       -3.14138   0.00001   0.00004   0.00049   0.00052  -3.14086
    D2        0.00117   0.00000   0.00003   0.00015   0.00018   0.00135
    D3       -0.00254   0.00001  -0.00009   0.00083   0.00074  -0.00180
    D4        3.14066   0.00002  -0.00002   0.00093   0.00091   3.14157
    D5        3.14133   0.00000   0.00002  -0.00055  -0.00053   3.14080
    D6        0.00108   0.00000   0.00004  -0.00085  -0.00081   0.00027
    D7        0.00067  -0.00001   0.00002  -0.00087  -0.00085  -0.00019
    D8       -3.13959  -0.00002   0.00004  -0.00118  -0.00114  -3.14073
    D9       -0.00213   0.00001  -0.00006   0.00060   0.00054  -0.00159
   D10        3.13842   0.00001  -0.00009   0.00070   0.00061   3.13903
   D11        3.14077   0.00000  -0.00004   0.00030   0.00026   3.14104
   D12       -0.00186   0.00000  -0.00007   0.00040   0.00033  -0.00153
   D13       -3.14142   0.00000  -0.00001   0.00019   0.00018  -3.14124
   D14        0.00087   0.00000   0.00001   0.00029   0.00030   0.00118
   D15        0.00122   0.00000   0.00002   0.00010   0.00012   0.00133
   D16       -3.13968   0.00000   0.00004   0.00020   0.00024  -3.13944
   D17        0.00161  -0.00001   0.00007  -0.00107  -0.00100   0.00062
   D18       -3.14154  -0.00001   0.00001  -0.00117  -0.00117   3.14048
   D19       -3.13927  -0.00001   0.00009  -0.00096  -0.00087  -3.14014
   D20        0.00076  -0.00001   0.00002  -0.00106  -0.00104  -0.00028
         Item               Value     Threshold  Converged?
 Maximum Force            0.000887     0.000015     NO 
 RMS     Force            0.000211     0.000010     NO 
 Maximum Displacement     0.002438     0.000060     NO 
 RMS     Displacement     0.000869     0.000040     NO 
 Predicted change in Energy=-2.432620D-06
 GradGradGradGradGradGradGradGradGradGradGradGradGradGradGradGradGradGrad

                          Input orientation:                          
 ---------------------------------------------------------------------
 Center     Atomic      Atomic             Coordinates (Angstroms)
 Number     Number       Type             X           Y           Z
 ---------------------------------------------------------------------
      1          6           0        6.333819    7.001680    5.211568
      2          6           0        5.120066    6.275243    5.306002
      3          1           0        5.114936    5.308125    5.809078
      4          6           0        3.897258    6.703549    4.795388
      5          1           0        2.998893    6.101977    4.897803
      6          6           0        3.828693    7.936673    4.135075
      7          6           0        4.987322    8.712338    4.003868
      8          1           0        4.934479    9.668794    3.492174
      9          6           0        6.184487    8.237396    4.533357
     10          1           0        7.054034    8.881532    4.401323
     11          6           0        2.586458    8.400232    3.597833
     12          7           0        1.585388    8.774662    3.163819
 ---------------------------------------------------------------------
                    Distance matrix (angstroms):
                    1          2          3          4          5
     1  C    0.000000
     2  C    1.417684   0.000000
     3  H    2.170444   1.090151   0.000000
     4  C    2.489762   1.392634   2.111283   0.000000
     5  H    3.468378   2.167030   2.436855   1.086019   0.000000
     6  C    2.882483   2.408124   3.371346   1.400468   2.153237
     7  C    2.489567   2.766334   3.855352   2.418672   3.401022
     8  H    3.468136   3.852350   4.941260   3.401010   4.294702
     9  C    1.417484   2.362205   3.369277   2.766362   3.852381
    10  H    2.170034   3.369187   4.302455   3.855403   4.941314
    11  C    4.313097   3.721906   4.565516   2.455824   2.672452
    12  N    5.466657   4.830113   5.609990   3.506604   3.485390
                    6          7          8          9         10
     6  C    0.000000
     7  C    1.400462   0.000000
     8  H    2.153213   1.086016   0.000000
     9  C    2.408076   1.392528   2.166907   0.000000
    10  H    3.371420   2.111373   2.436975   1.090164   0.000000
    11  C    1.430616   2.454877   2.670883   3.721228   4.564700
    12  N    2.584179   3.504671   3.481909   4.828664   5.607934
                   11         12
    11  C    0.000000
    12  N    1.153563   0.000000
 Symmetry turned off by external request.
 Stoichiometry    C7H4N(1-)
 Framework group  C1[X(C7H4N)]
 Deg. of freedom    30
 Full point group                 C1      NOp   1
 Rotational constants (GHZ):           5.7954653           1.5774039           1.2399239
 Standard basis: 6-311+G(d,p) (5D, 7F)
   200 basis functions,   320 primitive gaussians,   208 cartesian basis functions
    27 alpha electrons       27 beta electrons
       nuclear repulsion energy       288.5539113338 Hartrees.
 NAtoms=   12 NActive=   12 NUniq=   12 SFac= 1.00D+00 NAtFMM=   60 NAOKFM=F Big=F
 Integral buffers will be    131072 words long.
 Raffenetti 2 integral format.
 Two-electron integral symmetry is turned off.
 ------------------------------------------------------------------------------
 Polarizable Continuum Model (PCM)
 =================================
 Model                : PCM.
 Atomic radii         : SMD-Coulomb.
 Polarization charges : Total charges.
 Charge compensation  : None.
 Solution method      : Matrix inversion.
 Cavity type          : VdW (van der Waals Surface) (Alpha=1.000).
 Cavity algorithm     : GePol (No added spheres)
                        Default sphere list used, NSphG=   12.
                        Lebedev-Laikov grids with approx.  5.0 points / Ang**2.
                        Smoothing algorithm: York/Karplus (Gamma=1.0000).
                        Polarization charges: spherical gaussians, with
                                              point-specific exponents (IZeta= 3).
                        Self-potential: point-specific (ISelfS= 7).
                        Self-field    : sphere-specific E.n sum rule (ISelfD= 2).
 1st derivatives      : Analytical E(r).r(x)/FMM algorithm (CHGder, D1EAlg=3).
                        Cavity 1st derivative terms included.
 Solvent              : TetraHydroFuran, Eps=   7.425700 Eps(inf)=   1.974025
 ------------------------------------------------------------------------------
 Spheres list:
 ISph  on   Nord     Re0    Alpha      Xe            Ye            Ze
    1   C      1    1.8500  1.000      6.333819      7.001680      5.211568
    2   C      2    1.8500  1.000      5.120066      6.275243      5.306002
    3   H      3    1.2000  1.000      5.114936      5.308125      5.809078
    4   C      4    1.8500  1.000      3.897258      6.703549      4.795388
    5   H      5    1.2000  1.000      2.998893      6.101977      4.897803
    6   C      6    1.8500  1.000      3.828693      7.936673      4.135075
    7   C      7    1.8500  1.000      4.987322      8.712338      4.003868
    8   H      8    1.2000  1.000      4.934479      9.668794      3.492174
    9   C      9    1.8500  1.000      6.184487      8.237396      4.533357
   10   H     10    1.2000  1.000      7.054034      8.881532      4.401323
   11   C     11    1.8500  1.000      2.586458      8.400232      3.597833
   12   N     12    1.8900  1.000      1.585388      8.774662      3.163819
 ------------------------------------------------------------------------------
 ------------------------------------------------------------------------------
 Atomic radii for non-electrostatic terms: SMD-CDS.
 ------------------------------------------------------------------------------
 Nuclear repulsion after PCM non-electrostatic terms =      288.5532863646 Hartrees.
 One-electron integrals computed using PRISM.
 NBasis=   200 RedAO= T EigKep=  3.52D-06  NBF=   200
 NBsUse=   200 1.00D-06 EigRej= -1.00D+00 NBFU=   200
 Initial guess from the checkpoint file:  "4-CN-ph-anion-opt-freq-2-thf.chk"
 B after Tr=     0.000389    0.000333   -0.000710
         Rot=    1.000000   -0.000024    0.000009   -0.000001 Ang=   0.00 deg.
 Keep R1 ints in memory in canonical form, NReq=235270894.
 Requested convergence on RMS density matrix=1.00D-08 within 128 cycles.
 Requested convergence on MAX density matrix=1.00D-06.
 Requested convergence on             energy=1.00D-06.
 Level shift goal  0.100 maximum shift  0.100.
 No special actions if energy rises.
 Dynamic level shift is on during FON iterations.
 Inv3:  Mode=1 IEnd=     4516587.
 Iteration    1 A*A^-1 deviation from unit magnitude is 5.77D-15 for   1222.
 Iteration    1 A*A^-1 deviation from orthogonality  is 2.20D-15 for   1009    613.
 Iteration    1 A^-1*A deviation from unit magnitude is 5.55D-15 for   1222.
 Iteration    1 A^-1*A deviation from orthogonality  is 3.67D-15 for   1225    540.
 Error on total polarization charges =  0.05379
 SCF Done:  E(RM062X) =  -323.896056994     A.U. after   10 cycles
            NFock= 10  Conv=0.67D-08     -V/T= 2.0040
 SMD-CDS (non-electrostatic) energy       (kcal/mol) =      -0.39
 (included in total energy above)
 D1PCM: PCM CHGder 1st derivatives, ID1Alg=3 FixD1E=F DoIter=F DoCFld=F I1PDM=0.
 Calling FoFJK, ICntrl=      2127 FMM=F ISym2X=0 I1Cent= 0 IOpClX= 0 NMat=1 NMatS=1 NMatT=0.
 -------------------------------------------------------------------
 Center     Atomic                   Forces (Hartrees/Bohr)
 Number     Number              X              Y              Z
 -------------------------------------------------------------------
      1        6           0.000078763   -0.000016073    0.000006160
      2        6          -0.000092038   -0.000074276    0.000000054
      3        1           0.000022570   -0.000005216   -0.000030453
      4        6           0.000020536    0.000025694   -0.000000589
      5        1           0.000015912   -0.000005415    0.000013019
      6        6           0.000016534   -0.000007961    0.000017656
      7        6          -0.000015124   -0.000028992    0.000006406
      8        1          -0.000007014   -0.000000979    0.000006149
      9        6          -0.000001975    0.000106582   -0.000069554
     10        1          -0.000008840    0.000007070   -0.000003276
     11        6          -0.000022945    0.000004322    0.000016946
     12        7          -0.000006378   -0.000004756    0.000037481
 -------------------------------------------------------------------
 Cartesian Forces:  Max     0.000106582 RMS     0.000034950

 GradGradGradGradGradGradGradGradGradGradGradGradGradGradGradGradGradGrad
 Berny optimization.
 Using GEDIIS/GDIIS optimizer.
 FormGI is forming the generalized inverse of G from B-inverse, IUseBI=4.
 Internal  Forces:  Max     0.000088935 RMS     0.000019535
 Search for a local minimum.
 Step number   4 out of a maximum of   60
 All quantities printed in internal units (Hartrees-Bohrs-Radians)
 Mixed Optimization -- En-DIIS/RFO-DIIS
 Swapping is turned off.
 Update second derivatives using D2CorX and points    1    2    3    4
 DE= -2.52D-06 DEPred=-2.43D-06 R= 1.04D+00
 TightC=F SS=  1.41D+00  RLast= 4.58D-03 DXNew= 8.4853D-01 1.3743D-02
 Trust test= 1.04D+00 RLast= 4.58D-03 DXMaxT set to 5.05D-01
 ITU=  1  1  1  0
     Eigenvalues ---    0.00901   0.01740   0.02119   0.02505   0.02690
     Eigenvalues ---    0.02996   0.03527   0.03909   0.07434   0.09030
     Eigenvalues ---    0.11062   0.11105   0.11812   0.12273   0.16163
     Eigenvalues ---    0.18573   0.20207   0.20884   0.28896   0.34995
     Eigenvalues ---    0.35517   0.35803   0.36334   0.36440   0.39765
     Eigenvalues ---    0.42703   0.46038   0.50234   0.50675   1.29349
 En-DIIS/RFO-DIIS/Sim-DIIS IScMMF=       -3 using points:     4    3
 RFO step:  Lambda=-1.14954753D-07.
 DidBck=T Rises=F RFO-DIIS coefs:    0.65927    0.34073
 Iteration  1 RMS(Cart)=  0.00044229 RMS(Int)=  0.00000010
 Iteration  2 RMS(Cart)=  0.00000013 RMS(Int)=  0.00000004
 Variable       Old X    -DE/DX   Delta X   Delta X   Delta X     New X
                                 (Linear)    (Quad)   (Total)
    R1        2.67903   0.00009  -0.00066   0.00091   0.00026   2.67929
    R2        2.67866   0.00008  -0.00061   0.00084   0.00023   2.67889
    R3        2.06009  -0.00001  -0.00017   0.00015  -0.00002   2.06007
    R4        2.63170  -0.00002  -0.00019   0.00014  -0.00005   2.63165
    R5        2.05228  -0.00001  -0.00006   0.00005  -0.00001   2.05227
    R6        2.64650  -0.00001  -0.00029   0.00026  -0.00003   2.64647
    R7        2.64649  -0.00001  -0.00027   0.00024  -0.00003   2.64646
    R8        2.70347   0.00000   0.00004  -0.00003   0.00001   2.70348
    R9        2.05227  -0.00001  -0.00006   0.00006  -0.00001   2.05227
   R10        2.63150  -0.00002  -0.00021   0.00016  -0.00005   2.63145
   R11        2.06011  -0.00001  -0.00016   0.00015  -0.00002   2.06009
   R12        2.17992  -0.00001  -0.00001   0.00000  -0.00001   2.17991
    A1        1.96967   0.00000   0.00003  -0.00004  -0.00002   1.96965
    A2        2.08214   0.00001  -0.00004   0.00002  -0.00003   2.08211
    A3        2.17698  -0.00002   0.00006  -0.00012  -0.00006   2.17691
    A4        2.02407   0.00001  -0.00001   0.00010   0.00009   2.02416
    A5        2.11928  -0.00001  -0.00018   0.00011  -0.00007   2.11921
    A6        2.07906   0.00001   0.00003   0.00002   0.00006   2.07912
    A7        2.08484   0.00000   0.00014  -0.00013   0.00001   2.08485
    A8        2.08444   0.00002  -0.00020   0.00022   0.00003   2.08446
    A9        2.10004  -0.00001   0.00007  -0.00010  -0.00002   2.10002
   A10        2.09871  -0.00001   0.00012  -0.00013   0.00000   2.09870
   A11        2.08481   0.00000   0.00014  -0.00014   0.00000   2.08481
   A12        2.07913   0.00002   0.00006   0.00001   0.00006   2.07920
   A13        2.11924  -0.00001  -0.00020   0.00014  -0.00006   2.11918
   A14        2.17709  -0.00002   0.00002  -0.00009  -0.00007   2.17703
   A15        2.08175   0.00001  -0.00006   0.00002  -0.00004   2.08171
   A16        2.02434   0.00001   0.00004   0.00007   0.00011   2.02445
   A17        3.14067   0.00000   0.00002   0.00000   0.00002   3.14068
   A18        3.14101   0.00000  -0.00003   0.00004   0.00001   3.14102
    D1       -3.14086  -0.00001  -0.00018  -0.00029  -0.00047  -3.14133
    D2        0.00135   0.00000  -0.00006  -0.00041  -0.00047   0.00088
    D3       -0.00180   0.00000  -0.00025  -0.00015  -0.00040  -0.00220
    D4        3.14157  -0.00001  -0.00031  -0.00015  -0.00046   3.14112
    D5        3.14080   0.00000   0.00018   0.00054   0.00072   3.14152
    D6        0.00027   0.00001   0.00028   0.00059   0.00087   0.00113
    D7       -0.00019   0.00001   0.00029   0.00042   0.00072   0.00053
    D8       -3.14073   0.00001   0.00039   0.00047   0.00086  -3.13987
    D9       -0.00159   0.00000  -0.00019  -0.00019  -0.00038  -0.00197
   D10        3.13903   0.00000  -0.00021  -0.00017  -0.00037   3.13865
   D11        3.14104   0.00000  -0.00009  -0.00015  -0.00024   3.14080
   D12       -0.00153   0.00000  -0.00011  -0.00012  -0.00023  -0.00176
   D13       -3.14124   0.00000  -0.00006  -0.00020  -0.00026  -3.14150
   D14        0.00118   0.00000  -0.00010  -0.00032  -0.00042   0.00076
   D15        0.00133   0.00000  -0.00004  -0.00023  -0.00027   0.00106
   D16       -3.13944   0.00000  -0.00008  -0.00034  -0.00043  -3.13987
   D17        0.00062   0.00001   0.00034   0.00050   0.00084   0.00146
   D18        3.14048   0.00001   0.00040   0.00050   0.00090   3.14138
   D19       -3.14014   0.00000   0.00030   0.00039   0.00068  -3.13946
   D20       -0.00028   0.00001   0.00036   0.00039   0.00074   0.00046
         Item               Value     Threshold  Converged?
 Maximum Force            0.000089     0.000015     NO 
 RMS     Force            0.000020     0.000010     NO 
 Maximum Displacement     0.001299     0.000060     NO 
 RMS     Displacement     0.000442     0.000040     NO 
 Predicted change in Energy=-5.747752D-08
 GradGradGradGradGradGradGradGradGradGradGradGradGradGradGradGradGradGrad

[...]
   D12       -0.00165   0.00000   0.00000   0.00000   0.00000  -0.00165
   D13       -3.14137   0.00000   0.00000   0.00000   0.00000  -3.14137
   D14        0.00096   0.00000   0.00000  -0.00001  -0.00001   0.00095
   D15        0.00120   0.00000   0.00000   0.00000   0.00000   0.00119
   D16       -3.13966   0.00000   0.00000  -0.00001  -0.00001  -3.13967
   D17        0.00105   0.00000   0.00000   0.00001   0.00001   0.00107
   D18        3.14096   0.00000   0.00000   0.00001   0.00001   3.14098
   D19       -3.13979   0.00000   0.00000   0.00001   0.00001  -3.13978
   D20        0.00012   0.00000   0.00000   0.00001   0.00001   0.00013
         Item               Value     Threshold  Converged?
 Maximum Force            0.000004     0.000015     YES
 RMS     Force            0.000001     0.000010     YES
 Maximum Displacement     0.000027     0.000060     YES
 RMS     Displacement     0.000008     0.000040     YES
 Predicted change in Energy=-6.042201D-11
 Optimization completed.
    -- Stationary point found.
                           ----------------------------
                           !   Optimized Parameters   !
                           ! (Angstroms and Degrees)  !
 --------------------------                            --------------------------
 ! Name  Definition              Value          Derivative Info.                !
 --------------------------------------------------------------------------------
 ! R1    R(1,2)                  1.4178         -DE/DX =    0.0                 !
 ! R2    R(1,9)                  1.4176         -DE/DX =    0.0                 !
 ! R3    R(2,3)                  1.0901         -DE/DX =    0.0                 !
 ! R4    R(2,4)                  1.3926         -DE/DX =    0.0                 !
 ! R5    R(4,5)                  1.086          -DE/DX =    0.0                 !
 ! R6    R(4,6)                  1.4004         -DE/DX =    0.0                 !
 ! R7    R(6,7)                  1.4004         -DE/DX =    0.0                 !
 ! R8    R(6,11)                 1.4306         -DE/DX =    0.0                 !
 ! R9    R(7,8)                  1.086          -DE/DX =    0.0                 !
 ! R10   R(7,9)                  1.3925         -DE/DX =    0.0                 !
 ! R11   R(9,10)                 1.0901         -DE/DX =    0.0                 !
 ! R12   R(11,12)                1.1536         -DE/DX =    0.0                 !
 ! A1    A(2,1,9)              112.8529         -DE/DX =    0.0                 !
 ! A2    A(1,2,3)              119.296          -DE/DX =    0.0                 !
 ! A3    A(1,2,4)              124.7275         -DE/DX =    0.0                 !
 ! A4    A(3,2,4)              115.9765         -DE/DX =    0.0                 !
 ! A5    A(2,4,5)              121.4212         -DE/DX =    0.0                 !
 ! A6    A(2,4,6)              119.1252         -DE/DX =    0.0                 !
 ! A7    A(5,4,6)              119.4536         -DE/DX =    0.0                 !
 ! A8    A(4,6,7)              119.4308         -DE/DX =    0.0                 !
 ! A9    A(4,6,11)             120.3221         -DE/DX =    0.0                 !
 ! A10   A(7,6,11)             120.2471         -DE/DX =    0.0                 !
 ! A11   A(6,7,8)              119.4513         -DE/DX =    0.0                 !
 ! A12   A(6,7,9)              119.1296         -DE/DX =    0.0                 !
 ! A13   A(8,7,9)              121.4191         -DE/DX =    0.0                 !
 ! A14   A(1,9,7)              124.7338         -DE/DX =    0.0                 !
 ! A15   A(1,9,10)             119.2734         -DE/DX =    0.0                 !
 ! A16   A(7,9,10)             115.9927         -DE/DX =    0.0                 !
 ! A17   L(6,11,12,8,-1)       179.9481         -DE/DX =    0.0                 !
 ! A18   L(6,11,12,8,-2)       179.9669         -DE/DX =    0.0                 !
 ! D1    D(9,1,2,3)           -179.9718         -DE/DX =    0.0                 !
 ! D2    D(9,1,2,4)              0.0638         -DE/DX =    0.0                 !
 ! D3    D(2,1,9,7)             -0.1152         -DE/DX =    0.0                 !
 ! D4    D(2,1,9,10)           179.9841         -DE/DX =    0.0                 !
 ! D5    D(1,2,4,5)            179.9756         -DE/DX =    0.0                 !
 ! D6    D(1,2,4,6)              0.0406         -DE/DX =    0.0                 !
 ! D7    D(3,2,4,5)              0.0101         -DE/DX =    0.0                 !
 ! D8    D(3,2,4,6)           -179.9248         -DE/DX =    0.0                 !
 ! D9    D(2,4,6,7)             -0.1022         -DE/DX =    0.0                 !
 ! D10   D(2,4,6,11)           179.8419         -DE/DX =    0.0                 !
 ! D11   D(5,4,6,7)            179.9615         -DE/DX =    0.0                 !
 ! D12   D(5,4,6,11)            -0.0943         -DE/DX =    0.0                 !
 ! D13   D(4,6,7,8)           -179.9871         -DE/DX =    0.0                 !
 ! D14   D(4,6,7,9)              0.055          -DE/DX =    0.0                 !
 ! D15   D(11,6,7,8)             0.0687         -DE/DX =    0.0                 !
 ! D16   D(11,6,7,9)          -179.8892         -DE/DX =    0.0                 !
 ! D17   D(6,7,9,1)              0.0603         -DE/DX =    0.0                 !
 ! D18   D(6,7,9,10)           179.964          -DE/DX =    0.0                 !
 ! D19   D(8,7,9,1)           -179.8967         -DE/DX =    0.0                 !
 ! D20   D(8,7,9,10)             0.0069         -DE/DX =    0.0                 !
 --------------------------------------------------------------------------------
 GradGradGradGradGradGradGradGradGradGradGradGradGradGradGradGradGradGrad


 ----------------------------------------------------------------------

 Electric dipole moment (input orientation):
 (Debye = 10**-18 statcoulomb cm , SI units = C m)
                  (au)            (Debye)         (10**-30 SI)
   Tot        0.192940D+02      0.490405D+02      0.163582D+03
   x         -0.977935D+01     -0.248566D+02     -0.829127D+02
   y         -0.140489D+02     -0.357088D+02     -0.119112D+03
   z         -0.890231D+01     -0.226274D+02     -0.754769D+02

 Dipole polarizability, Alpha (input orientation).
 (esu units = cm**3 , SI units = C**2 m**2 J**-1)
 Alpha(0;0):
               (au)            (10**-24 esu)      (10**-40 SI)
   iso        0.133376D+03      0.197643D+02      0.219907D+02
   aniso      0.107726D+03      0.159633D+02      0.177616D+02
   xx         0.178937D+03      0.265158D+02      0.295028D+02
   yx        -0.156558D+02     -0.231995D+01     -0.258130D+01
   yy         0.123349D+03      0.182785D+02      0.203376D+02
   zx         0.327216D+02      0.484884D+01      0.539507D+01
   zy        -0.288603D+02     -0.427666D+01     -0.475843D+01
   zz         0.978409D+02      0.144985D+02      0.161318D+02

 ----------------------------------------------------------------------

 Dipole orientation:
     6          1.53186497          1.76302549        -20.24516397
     6         -0.10235878          2.18839106        -18.16503197
     1         -0.13021291          4.04252949        -17.26768711
     6         -1.72246787          0.38651912        -17.13839619
     1         -2.93300086          0.82321032        -15.53973707
     6         -1.78505401         -2.03966382        -18.19359748
     6         -0.22478437         -2.60135370        -20.25605511
     1         -0.27310246         -4.48248103        -21.07508246
     6          1.35901315         -0.72957879        -21.21130805
     1          2.53196498         -1.27163369        -22.81577055
     6         -3.42654158         -3.92992765        -17.17317445
     7         -4.74874526         -5.45569188        -16.35108811

 Electric dipole moment (dipole orientation):
 (Debye = 10**-18 statcoulomb cm , SI units = C m)
                  (au)            (Debye)         (10**-30 SI)
   Tot        0.192940D+02      0.490405D+02      0.163582D+03
   x          0.000000D+00      0.000000D+00      0.000000D+00
   y          0.000000D+00      0.000000D+00      0.000000D+00
   z          0.192940D+02      0.490405D+02      0.163582D+03

 Dipole polarizability, Alpha (dipole orientation).
 (esu units = cm**3 , SI units = C**2 m**2 J**-1)
 Alpha(0;0):
               (au)            (10**-24 esu)      (10**-40 SI)
   iso        0.133376D+03      0.197643D+02      0.219907D+02
   aniso      0.107726D+03      0.159633D+02      0.177616D+02
   xx         0.126348D+03      0.187228D+02      0.208319D+02
   yx         0.416410D+02      0.617056D+01      0.686568D+01
   yy         0.157224D+03      0.232982D+02      0.259227D+02
   zx        -0.398478D+02     -0.590483D+01     -0.657001D+01
   zy        -0.979543D+01     -0.145153D+01     -0.161505D+01
   zz         0.116556D+03      0.172718D+02      0.192175D+02

 ----------------------------------------------------------------------
 Unable to Open any file for archive entry.
 1\1\GINC-CN018\Freq\RM062X\6-311+G(d,p)\C7H4N1(1-)\TAHMINAAFROZ\27-May
 -2025\0\\#N Geom=AllCheck Guess=TCheck SCRF=Check GenChk RM062X/6-311+
 G(d,p) Freq\\4-CN-ph-anion-opt-freq-2-thf\\-1,1\C,6.3338565791,7.00167
 66205,5.2115889915\C,5.1200053058,6.2751296878,5.3059267092\H,5.114961
 0056,5.3078903277,5.8087356554\C,3.8972272272,6.7036317795,4.795504524
 9\H,2.9988224207,6.1021648252,4.8981228773\C,3.8287174062,7.9366705316
 ,4.1350757981\C,4.9873544524,8.7122576344,4.0037299695\H,4.9345631694,
 9.6685997749,3.4918301318\C,6.1844909184,8.2375324309,4.5333975025\H,7
 .0539803428,8.8817854875,4.4016773086\C,2.5864686976,8.4002284047,3.59
 78454614\N,1.5853854747,8.7746344955,3.1638530698\\Version=AS64L-G16Re
 vC.01\HF=-323.896057\RMSD=2.027e-09\RMSF=1.135e-05\ZeroPoint=0.086058\
 Thermal=0.0921113\ETot=-323.8039458\HTot=-323.8030016\GTot=-323.840223
 1\Dipole=-1.6204087,0.6048432,-0.6928495\DipoleDeriv=-0.2126019,-0.113
 8154,0.1939646,-0.1186124,-0.56406,-0.1442301,0.2010791,-0.1422353,-0.
 6658451,-0.5482576,0.1113107,-0.144501,0.124784,0.1737941,-0.1549205,-
 0.1521439,-0.1610509,-0.1328104,0.0540892,-0.0309535,0.0026999,-0.0619
 564,-0.1696746,0.1323531,0.0191446,0.1390574,0.0449754,0.0751798,-0.06
 73495,0.0626309,-0.3531428,0.1730235,-0.198188,0.2128322,-0.12857,0.06
 83819,-0.0949247,-0.1085165,-0.0051397,-0.0951991,0.0541444,0.0385552,
 -0.0122854,0.0355872,0.1492768,-0.7057488,0.2641285,-0.2937446,0.26194
 06,-0.1103778,0.1001369,-0.2928789,0.0999658,-0.160501,0.4369035,-0.08
 72626,0.1615162,0.2004953,-0.0801009,0.0582177,0.0106559,-0.0107044,-0
 .0472891,0.0817183,0.0320839,-0.0377858,0.0205761,-0.0675931,0.1290731
 ,-0.0326225,0.1327748,0.0945086,-0.1908671,0.3807387,-0.2035997,0.3692
 628,-0.0647363,0.0283562,-0.203003,0.0323571,-0.239949,-0.0864179,-0.1
 653093,0.0409926,-0.1320601,-0.072139,0.0648129,0.0253333,0.0575728,0.
 0876519,1.3581444,-0.4885059,0.5377678,-0.491675,0.2647485,-0.1706495,
 0.539219,-0.1703122,0.37712,-1.1672174,0.2734509,-0.3148012,0.275587,-
 0.5370288,0.1164832,-0.3153304,0.1155578,-0.5755202\Polar=178.9374414,
 -15.6558313,123.3494857,32.7216219,-28.8603351,97.8408792\Quadrupole=1
 4.4504273,-64.0311228,49.5806955,-126.3403428,-98.1512238,-122.8383183
 \PG=C01 [X(C7H4N1)]\NImag=0\\0.37132274,0.08468232,0.40162058,0.028115
 16,-0.15524631,0.15042359,-0.23388052,-0.07578151,-0.00357933,0.582639
 48,-0.09378101,-0.14376789,0.02637800,0.02902298,0.57726208,0.00579404
 ,0.03090349,-0.06379268,0.08971249,-0.22210421,0.27422857,-0.00030037,
 -0.02343026,0.01267588,-0.05383807,0.00148493,-0.00398426,0.06044169,-
 0.00338837,-0.01168734,0.00408589,0.00634143,-0.25923117,0.11571688,0.
 00051680,0.27670678,0.00220309,-0.00062237,-0.00147460,-0.00646546,0.1
 1459802,-0.10160790,0.00771633,-0.13035585,0.09644375,-0.05080416,-0.0
 3455676,0.00128525,-0.27856253,0.08449666,-0.09397072,0.00037820,-0.00
 183993,-0.00008042,0.69081367,0.01001146,0.05423857,-0.01516640,0.0146
 6839,-0.13642168,0.03952360,0.02619043,-0.00775852,0.01260971,0.085256
 47,0.57195231,-0.02199402,-0.02567922,0.02886223,-0.05763087,0.0560066
 9,-0.11037013,-0.01464952,0.00603088,-0.00194229,0.08672921,-0.2078080
 0,0.26464913,-0.00377037,0.00189627,-0.00321940,-0.01494301,-0.0177093
 6,0.00431430,0.00078836,0.00058785,0.00084450,-0.24952212,-0.13217234,
 0.01910076,0.26007117,0.00132194,0.00125035,0.00265706,0.00919097,0.01
 012999,-0.00004818,-0.00007291,-0.00029716,-0.00199048,-0.12933896,-0.
 14113265,0.02314940,0.14129989,0.14405324,-0.00293886,0.00278721,0.003
 62488,-0.00966916,-0.00636004,0.00697233,0.00118707,-0.00184203,-0.002
 86351,0.01757240,0.02246208,-0.04581838,-0.01836901,-0.02855644,0.0359
 2115,-0.01010554,-0.02666361,0.01369604,0.01821957,0.02553182,-0.01116
 762,-0.00354729,0.00192447,-0.00371693,-0.10772341,0.01608330,-0.01951
 810,0.00444707,-0.02294172,0.01234432,0.64648932,-0.02664055,-0.048940
 20,0.01447233,0.07616516,-0.00803062,0.02679758,0.00091666,0.00294589,
 0.00280756,-0.03291423,-0.26596689,0.09940123,0.00409114,-0.01060568,0
 .00797978,0.04690931,0.55417553,0.01372773,0.01443650,-0.01360547,-0.0
 3755989,0.01488057,-0.00765344,-0.00318487,0.00307789,0.00561834,0.006
 04404,0.11106548,-0.11749813,-0.00176428,0.00162944,0.00160584,0.09803
 182,-0.21068250,0.26280207,0.03134442,0.07031525,-0.03423972,-0.064031
 57,-0.00161053,-0.01186450,-0.00132301,-0.00053447,0.00038356,0.033001
 57,-0.06060252,0.03708347,0.00202859,0.00161776,-0.00210215,-0.2387407
 6,-0.08017148,-0.00036769,0.63357950,0.02581978,-0.00225570,0.01793583
 ,-0.01167453,-0.00399796,-0.00589869,-0.00044422,0.00006861,-0.0009962
 0,-0.01937233,-0.03298515,0.01766687,0.00036465,-0.00226724,0.00510042
 ,-0.12922935,-0.17644218,0.02963517,0.04296687,0.61147038,-0.01091026,
 0.02844735,0.00318669,-0.00666569,-0.00354901,-0.00976571,0.00030844,-
 0.00103659,-0.00104858,0.01559858,0.00800459,0.00923182,-0.00144604,0.
 00538220,0.00417015,0.02520127,0.04121426,-0.07671007,0.09541150,-0.23
 816199,0.28264760,-0.00401871,0.00114722,-0.00288896,-0.00096542,-0.00
 018374,-0.00010532,0.00019578,0.00023430,0.00037809,-0.00400759,-0.002
 81125,-0.00120939,0.00020402,-0.00125397,0.00051357,0.00386622,-0.0233
 1898,0.01241443,-0.05823982,0.01104743,-0.01024965,0.05605147,0.001720
 09,0.00143883,0.00266357,0.00042681,0.00060116,-0.00028683,0.00017701,
 -0.00046473,-0.00072353,-0.00406260,0.00187560,0.00189754,0.00020283,-
 0.00037612,0.00067204,0.00366974,-0.01017477,0.00766564,0.00811531,-0.
 27225472,0.12413550,-0.00841500,0.28406631,-0.00320431,0.00253928,0.00
 368849,-0.00043240,-0.00041767,-0.00002453,0.00040493,-0.00070750,-0.0
 0145918,-0.00055051,0.00215745,0.00606145,-0.00024895,0.00032352,0.000
 58748,-0.00166060,0.00132034,0.00178506,-0.00875087,0.12487616,-0.1055
 4475,0.01139598,-0.13709558,0.09969070,-0.10539488,0.00077530,-0.01383
 943,0.03411915,-0.02801424,0.02322148,-0.00249052,-0.00386161,-0.00102
 736,-0.02082362,0.03015257,-0.01831684,-0.00005982,0.00049320,-0.00023
 538,-0.06168372,-0.03325775,0.00069186,-0.27641876,0.08662249,-0.09484
 604,0.00526689,-0.00283940,0.00136125,0.65580107,0.01876292,-0.2323982
 3,0.09969062,-0.04441200,-0.03041789,0.00385913,-0.00542130,0.00073466
 ,0.00379064,0.02005698,-0.03360490,0.01707608,0.00108912,-0.00002394,0
 .00019836,0.01740045,0.04688883,-0.01568034,0.01697113,-0.13793035,0.0
 4085854,0.02399823,-0.00379742,0.01070921,0.08276616,0.52636588,-0.023
 24951,0.09516886,-0.10378616,0.03175977,0.00793675,0.00071267,-0.00020
 481,0.00415611,0.00820832,-0.01307046,0.01942368,-0.02325312,-0.000557
 80,0.00005623,-0.00030753,-0.02575860,-0.02755406,0.01741317,-0.058325
 14,0.05725745,-0.11108275,-0.01268749,0.00441688,0.00063506,0.07956347
 ,-0.18323447,0.25078482,0.00696364,0.00200929,0.00116107,0.00244511,-0
 .00026420,-0.00174312,0.00003071,0.00011747,-0.00004272,0.00047659,0.0
 0078855,0.00009150,-0.00004602,0.00005545,0.00041384,-0.00287061,0.002
 39653,-0.00381420,-0.02192621,-0.01820839,0.00325085,0.00082999,0.0006
 1498,0.00084451,-0.22810925,-0.12252198,0.01977871,0.24342305,-0.01811
 168,-0.01674498,0.00326263,-0.00180981,-0.00267248,0.00640870,-0.00110
 215,-0.00071520,0.00009452,0.00089242,-0.00118643,-0.00003529,0.000002
 68,-0.00029383,-0.00084970,0.00142071,0.00251088,0.00317645,0.00976412
 ,0.00757213,0.00077352,-0.00004194,-0.00033119,-0.00196941,-0.12730956
 ,-0.13851179,0.02125184,0.13576035,0.15006616,0.01163243,0.00797395,-0
 .00373531,-0.00094744,0.00676152,0.00671017,0.00059110,0.00038276,-0.0
 0010061,0.00006562,-0.00008523,-0.00160826,0.00044552,-0.00083801,-0.0
 0138748,-0.00326558,0.00344235,0.00540383,-0.01138413,-0.00580067,0.00
 499210,0.00118011,-0.00182583,-0.00286394,0.02229426,0.02239788,-0.046
 72737,-0.01988001,-0.03243551,0.03882117,-0.00266338,-0.00014423,0.000
 66332,0.01416486,0.00009911,0.00109267,0.00021543,-0.00059268,0.000106
 37,-0.01268518,0.02362808,-0.01489165,0.00050701,-0.00084966,0.0016033
 5,-0.23297673,0.05049014,-0.06809705,-0.05022192,0.00724838,-0.0151962
 5,0.00094648,0.00098578,0.00070112,0.00297695,-0.01214677,0.00488406,-
 0.00067284,0.00061364,-0.00073388,1.22790964,-0.00016699,-0.00368256,-
 0.00079299,-0.00402814,-0.00388845,0.00586605,0.00127344,-0.00012010,0
 .00089095,0.03494466,-0.01252985,0.01390753,0.00063541,-0.00045146,-0.
 00183347,0.05057750,-0.10412518,0.03662063,-0.00406035,0.01340221,-0.0
 0877515,-0.00057040,-0.00088984,-0.00192463,-0.00801370,0.00373051,0.0
 0093449,-0.00124490,0.00049380,-0.00000732,-0.40763443,0.27799085,0.00
 066192,-0.00075938,-0.00455004,0.00331251,0.00682169,0.00632720,-0.000
 85394,0.00045326,0.00057752,-0.02087496,0.01124871,-0.01241712,0.00081
 839,-0.00218467,-0.00290255,-0.06809318,0.03663757,-0.09198937,-0.0094
 1653,-0.00611933,-0.00057693,0.00151872,-0.00153161,-0.00308852,0.0027
 6940,-0.00008758,0.00981612,0.00024887,0.00041760,0.00084799,0.4818345
 8,-0.19094290,0.31210186,0.00130714,-0.00024929,0.00017012,-0.00536704
 ,0.00092759,-0.00129944,-0.00055091,0.00049474,-0.00029905,-0.00054142
 ,-0.01119314,0.00520545,0.00029511,0.00047801,-0.00031997,-0.01537413,
 0.01533405,-0.01612191,0.01094798,0.00485923,-0.00045670,-0.00012932,-
 0.00059555,0.00013985,-0.00318350,0.00345706,-0.00213220,-0.00054417,-
 0.00007878,0.00000199,-0.94750033,0.33828791,-0.39192578,0.96064059,-0
 .00022992,0.00092857,0.00005977,0.00189024,0.00043490,-0.00073752,-0.0
 0008844,-0.00018171,-0.00010296,-0.00356236,0.00351960,-0.00161369,-0.
 00028812,0.00001449,0.00024178,0.01531739,0.01776440,0.00417508,-0.002
 77110,-0.00438001,0.00270677,0.00016810,0.00030689,0.00018884,0.002486
 55,-0.00103537,0.00018623,0.00049686,-0.00018708,0.00003410,0.33830263
 ,-0.16992994,0.14604664,-0.35172183,0.15274527,0.00016259,0.00005063,0
 .00115838,-0.00183453,-0.00095232,-0.00173654,-0.00000635,0.00003831,-
 0.00035125,0.00125197,-0.00343568,0.00410282,0.00008200,0.00041994,0.0
 0039763,-0.01609283,0.00416355,0.01282818,0.00357221,0.00450498,0.0005
 0043,-0.00026009,0.00001220,0.00053268,-0.00163666,0.00042193,-0.00241
 324,-0.00030930,-0.00009533,-0.00035228,-0.39196664,0.14605681,-0.2141
 4615,0.40703764,-0.15118503,0.19947932\\-0.00000517,-0.00000245,0.0000
 2183,-0.00001550,0.00000189,0.00001262,-0.00001863,0.00000570,0.000018
 94,-0.00000527,0.00000385,-0.00000103,-0.00000826,0.00000647,-0.000005
 85,0.00000344,0.00000024,-0.00000817,0.00000692,-0.00000386,-0.0000013
 0,0.00001420,-0.00000614,-0.00000737,-0.00000055,-0.00000032,0.0000098
 8,0.00000448,-0.00000704,0.00001627,0.00000916,0.00000090,-0.00002248,
 0.00001518,0.00000076,-0.00003334\\\@
 The archive entry for this job was punched.


 The cat could very well be man's best friend
 but would never stoop to admitting it.
                               -- Doug Larson
 Job cpu time:       0 days  0 hours 20 minutes 21.7 seconds.
 Elapsed time:       0 days  0 hours  0 minutes 40.8 seconds.
 File lengths (MBytes):  RWF=     79 Int=      0 D2E=      0 Chk=     11 Scr=      1
 Normal termination of Gaussian 16 at Tue May 27 07:43:47 2025.
