/home/tahminaafroz
cn015.cluster.local
tahminaafroz
Mon May  5 07:47:42 CDT 2025
 Entering Gaussian System, Link 0=g16
 Initial command:
 /home/apps/g16/l1.exe "/tmp/4-CN-phboh2-opt-freq-2/Gau-1924041.inp" -scrdir="/tmp/4-CN-phboh2-opt-freq-2/"
 Entering Link 1 = /home/apps/g16/l1.exe PID=   1924042.
  
 Copyright (c) 1988-2019, Gaussian, Inc.  All Rights Reserved.
  
 This is part of the Gaussian(R) 16 program.  It is based on
 the Gaussian(R) 09 system (copyright 2009, Gaussian, Inc.),
 the Gaussian(R) 03 system (copyright 2003, Gaussian, Inc.),
 the Gaussian(R) 98 system (copyright 1998, Gaussian, Inc.),
 the Gaussian(R) 94 system (copyright 1995, Gaussian, Inc.),
 the Gaussian 92(TM) system (copyright 1992, Gaussian, Inc.),
 the Gaussian 90(TM) system (copyright 1990, Gaussian, Inc.),
 the Gaussian 88(TM) system (copyright 1988, Gaussian, Inc.),
 the Gaussian 86(TM) system (copyright 1986, Carnegie Mellon
 University), and the Gaussian 82(TM) system (copyright 1983,
 Carnegie Mellon University). Gaussian is a federally registered
 trademark of Gaussian, Inc.
  
 This software contains proprietary and confidential information,
 including trade secrets, belonging to Gaussian, Inc.
  
 This software is provided under written license and may be
 used, copied, transmitted, or stored only in accord with that
 written license.
  
 The following legend is applicable only to US Government
 contracts under FAR:
  
                    RESTRICTED RIGHTS LEGEND
  
 Use, reproduction and disclosure by the US Government is
 subject to restrictions as set forth in subparagraphs (a)
 and (c) of the Commercial Computer Software - Restricted
 Rights clause in FAR 52.227-19.
  
 Gaussian, Inc.
 340 Quinnipiac St., Bldg. 40, Wallingford CT 06492
  
  
 ---------------------------------------------------------------
 Warning -- This program may not be used in any manner that
 competes with the business of Gaussian, Inc. or will provide
 assistance to any competitor of Gaussian, Inc.  The licensee
 of this program is prohibited from giving any competitor of
 Gaussian, Inc. access to this program.  By using this program,
 the user acknowledges that Gaussian, Inc. is engaged in the
 business of creating and licensing software in the field of
 computational chemistry and represents and warrants to the
 licensee that it is not a competitor of Gaussian, Inc. and that
 it will not use this program in any manner prohibited above.
 ---------------------------------------------------------------
  

 Cite this work as:
 Gaussian 16, Revision C.01,
 M. J. Frisch, G. W. Trucks, H. B. Schlegel, G. E. Scuseria, 
 M. A. Robb, J. R. Cheeseman, G. Scalmani, V. Barone, 
 G. A. Petersson, H. Nakatsuji, X. Li, M. Caricato, A. V. Marenich, 
 J. Bloino, B. G. Janesko, R. Gomperts, B. Mennucci, H. P. Hratchian, 
 J. V. Ortiz, A. F. Izmaylov, J. L. Sonnenberg, D. Williams-Young, 
 F. Ding, F. Lipparini, F. Egidi, J. Goings, B. Peng, A. Petrone, 
 T. Henderson, D. Ranasinghe, V. G. Zakrzewski, J. Gao, N. Rega, 
 G. Zheng, W. Liang, M. Hada, M. Ehara, K. Toyota, R. Fukuda, 
 J. Hasegawa, M. Ishida, T. Nakajima, Y. Honda, O. Kitao, H. Nakai, 
 T. Vreven, K. Throssell, J. A. Montgomery, Jr., J. E. Peralta, 
 F. Ogliaro, M. J. Bearpark, J. J. Heyd, E. N. Brothers, K. N. Kudin, 
 V. N. Staroverov, T. A. Keith, R. Kobayashi, J. Normand, 
 K. Raghavachari, A. P. Rendell, J. C. Burant, S. S. Iyengar, 
 J. Tomasi, M. Cossi, J. M. Millam, M. Klene, C. Adamo, R. Cammi, 
 J. W. Ochterski, R. L. Martin, K. Morokuma, O. Farkas, 
 J. B. Foresman, and D. J. Fox, Gaussian, Inc., Wallingford CT, 2019.
 
 ******************************************
 Gaussian 16:  AS64L-G16RevC.01  3-Jul-2019
                 5-May-2025 
 ******************************************
 %mem=20GB
 %nprocshared=32
 Will use up to   32 processors via shared memory.
 %chk=4-CN-phboh2-opt-freq-2.chk
 ----------------------------------------------------------------------
 # opt=(calcfc,tight) freq 6-311+g(d,p) nosymm scf=(qc,fermi,xqc) geom=
 connectivity int=ultrafine m062x
 ----------------------------------------------------------------------
 1/7=10,10=4,18=20,19=15,26=4,38=1,57=2/1,3;
 2/9=110,12=2,15=1,17=6,18=5,40=1/2;
 3/5=4,6=6,7=111,11=2,25=1,30=1,71=2,74=-55,75=-5,140=1/1,2,3;
 4//1;
 5/5=2,22=13,38=5/2;
 8/6=4,10=90,11=11/1;
 11/6=1,8=1,9=11,15=111,16=1,31=1/1,2,10;
 10/6=1,13=1,31=1/2;
 6/7=2,8=2,9=2,10=2,28=1/1;
 7/10=1,25=1,30=1/1,2,3,16;
 1/7=10,10=4,18=20,19=15,26=4/3(2);
 2/9=110,15=1/2;
 99//99;
 2/9=110,15=1/2;
 3/5=4,6=6,7=111,11=2,25=1,30=1,71=1,74=-55,75=-5/1,2,3;
 4/5=5,16=3,69=1/1;
 5/5=2,22=13,38=5/2;
 7/30=1/1,2,3,16;
 1/7=10,18=20,19=15,26=4/3(-5);
 2/9=110,15=1/2;
 6/7=2,8=2,9=2,10=2,19=2,28=1/1;
 99/9=1/99;
 ----------------------
 4-CN-phboh2-opt-freq-2
 ----------------------
 Symbolic Z-matrix:
 Charge =  0 Multiplicity = 1
 O                     8.73676   7.36004   5.54143 
 H                     9.54356   7.00636   5.9272 
 C                     6.2735    7.02652   5.18612 
 B                     7.66042   6.55832   5.76062 
 O                     7.84889   5.40309   6.46387 
 H                     7.06001   4.87861   6.60842 
 C                     5.10976   6.25934   5.30296 
 H                     5.12882   5.29387   5.80003 
 C                     3.89829   6.69821   4.78848 
 H                     3.00127   6.09915   4.88211 
 C                     3.84086   7.93287   4.13919 
 C                     4.98914   8.71747   4.00715 
 H                     4.92893   9.67232   3.49996 
 C                     6.19019   8.25967   4.52809 
 H                     7.08557   8.86204   4.42846 
 C                     2.59068   8.3976    3.60277 
 N                     1.59038   8.76945   3.17357 
 

 GradGradGradGradGradGradGradGradGradGradGradGradGradGradGradGradGradGrad
 Berny optimization.
 Initialization pass.
                           ----------------------------
                           !    Initial Parameters    !
                           ! (Angstroms and Degrees)  !
 --------------------------                            --------------------------
 ! Name  Definition              Value          Derivative Info.                !
 --------------------------------------------------------------------------------
 ! R1    R(1,2)                  0.9617         calculate D2E/DX2 analytically  !
 ! R2    R(1,4)                  1.3599         calculate D2E/DX2 analytically  !
 ! R3    R(3,4)                  1.5725         calculate D2E/DX2 analytically  !
 ! R4    R(3,7)                  1.3988         calculate D2E/DX2 analytically  !
 ! R5    R(3,14)                 1.4002         calculate D2E/DX2 analytically  !
 ! R6    R(4,5)                  1.3655         calculate D2E/DX2 analytically  !
 ! R7    R(5,6)                  0.9583         calculate D2E/DX2 analytically  !
 ! R8    R(7,8)                  1.0861         calculate D2E/DX2 analytically  !
 ! R9    R(7,9)                  1.3874         calculate D2E/DX2 analytically  !
 ! R10   R(9,10)                 1.0827         calculate D2E/DX2 analytically  !
 ! R11   R(9,11)                 1.3962         calculate D2E/DX2 analytically  !
 ! R12   R(11,12)                1.397          calculate D2E/DX2 analytically  !
 ! R13   R(11,16)                1.4376         calculate D2E/DX2 analytically  !
 ! R14   R(12,13)                1.0829         calculate D2E/DX2 analytically  !
 ! R15   R(12,14)                1.3869         calculate D2E/DX2 analytically  !
 ! R16   R(14,15)                1.0837         calculate D2E/DX2 analytically  !
 ! R17   R(16,17)                1.1503         calculate D2E/DX2 analytically  !
 ! A1    A(2,1,4)              112.4915         calculate D2E/DX2 analytically  !
 ! A2    A(4,3,7)              122.6815         calculate D2E/DX2 analytically  !
 ! A3    A(4,3,14)             119.1033         calculate D2E/DX2 analytically  !
 ! A4    A(7,3,14)             118.2153         calculate D2E/DX2 analytically  !
 ! A5    A(1,4,3)              117.6231         calculate D2E/DX2 analytically  !
 ! A6    A(1,4,5)              118.198          calculate D2E/DX2 analytically  !
 ! A7    A(3,4,5)              124.1789         calculate D2E/DX2 analytically  !
 ! A8    A(4,5,6)              115.2825         calculate D2E/DX2 analytically  !
 ! A9    A(3,7,8)              120.7436         calculate D2E/DX2 analytically  !
 ! A10   A(3,7,9)              121.467          calculate D2E/DX2 analytically  !
 ! A11   A(8,7,9)              117.7892         calculate D2E/DX2 analytically  !
 ! A12   A(7,9,10)             121.0869         calculate D2E/DX2 analytically  !
 ! A13   A(7,9,11)             119.2154         calculate D2E/DX2 analytically  !
 ! A14   A(10,9,11)            119.6977         calculate D2E/DX2 analytically  !
 ! A15   A(9,11,12)            120.4517         calculate D2E/DX2 analytically  !
 ! A16   A(9,11,16)            119.6817         calculate D2E/DX2 analytically  !
 ! A17   A(12,11,16)           119.8666         calculate D2E/DX2 analytically  !
 ! A18   A(11,12,13)           119.591          calculate D2E/DX2 analytically  !
 ! A19   A(11,12,14)           119.4019         calculate D2E/DX2 analytically  !
 ! A20   A(13,12,14)           121.0071         calculate D2E/DX2 analytically  !
 ! A21   A(3,14,12)            121.2485         calculate D2E/DX2 analytically  !
 ! A22   A(3,14,15)            118.9178         calculate D2E/DX2 analytically  !
 ! A23   A(12,14,15)           119.8337         calculate D2E/DX2 analytically  !
 ! A24   L(11,16,17,10,-1)     180.0            calculate D2E/DX2 analytically  !
 ! A25   L(11,16,17,10,-2)     179.9999         calculate D2E/DX2 analytically  !
 ! D1    D(2,1,4,3)            179.7165         calculate D2E/DX2 analytically  !
 ! D2    D(2,1,4,5)             -0.1988         calculate D2E/DX2 analytically  !
 ! D3    D(7,3,4,1)            177.3731         calculate D2E/DX2 analytically  !
 ! D4    D(7,3,4,5)             -2.7171         calculate D2E/DX2 analytically  !
 ! D5    D(14,3,4,1)            -2.5697         calculate D2E/DX2 analytically  !
 ! D6    D(14,3,4,5)           177.34           calculate D2E/DX2 analytically  !
 ! D7    D(4,3,7,8)             -0.3167         calculate D2E/DX2 analytically  !
 ! D8    D(4,3,7,9)            179.8833         calculate D2E/DX2 analytically  !
 ! D9    D(14,3,7,8)           179.6266         calculate D2E/DX2 analytically  !
 ! D10   D(14,3,7,9)            -0.1734         calculate D2E/DX2 analytically  !
 ! D11   D(4,3,14,12)         -179.847          calculate D2E/DX2 analytically  !
 ! D12   D(4,3,14,15)            0.1283         calculate D2E/DX2 analytically  !
 ! D13   D(7,3,14,12)            0.2076         calculate D2E/DX2 analytically  !
 ! D14   D(7,3,14,15)         -179.8171         calculate D2E/DX2 analytically  !
 ! D15   D(1,4,5,6)            178.8706         calculate D2E/DX2 analytically  !
 ! D16   D(3,4,5,6)             -1.0387         calculate D2E/DX2 analytically  !
 ! D17   D(3,7,9,10)           179.9792         calculate D2E/DX2 analytically  !
 ! D18   D(3,7,9,11)             0.039          calculate D2E/DX2 analytically  !
 ! D19   D(8,7,9,10)             0.1735         calculate D2E/DX2 analytically  !
 ! D20   D(8,7,9,11)          -179.7667         calculate D2E/DX2 analytically  !
 ! D21   D(7,9,11,12)            0.0667         calculate D2E/DX2 analytically  !
 ! D22   D(7,9,11,16)         -179.976          calculate D2E/DX2 analytically  !
 ! D23   D(10,9,11,12)        -179.8743         calculate D2E/DX2 analytically  !
 ! D24   D(10,9,11,16)           0.083          calculate D2E/DX2 analytically  !
 ! D25   D(9,11,12,13)         179.9308         calculate D2E/DX2 analytically  !
 ! D26   D(9,11,12,14)          -0.0332         calculate D2E/DX2 analytically  !
 ! D27   D(16,11,12,13)         -0.0265         calculate D2E/DX2 analytically  !
 ! D28   D(16,11,12,14)       -179.9904         calculate D2E/DX2 analytically  !
 ! D29   D(11,12,14,3)          -0.107          calculate D2E/DX2 analytically  !
 ! D30   D(11,12,14,15)        179.918          calculate D2E/DX2 analytically  !
 ! D31   D(13,12,14,3)         179.9296         calculate D2E/DX2 analytically  !
 ! D32   D(13,12,14,15)         -0.0455         calculate D2E/DX2 analytically  !
 --------------------------------------------------------------------------------
 Trust Radius=3.00D-01 FncErr=1.00D-07 GrdErr=1.00D-06 EigMax=2.50D+02 EigMin=1.00D-04
 Number of steps in this run=     84 maximum allowed number of steps=    102.
 GradGradGradGradGradGradGradGradGradGradGradGradGradGradGradGradGradGrad

                          Input orientation:                          
 ---------------------------------------------------------------------
 Center     Atomic      Atomic             Coordinates (Angstroms)
 Number     Number       Type             X           Y           Z
 ---------------------------------------------------------------------
      1          8           0        8.736757    7.360040    5.541435
      2          1           0        9.543562    7.006363    5.927203
      3          6           0        6.273501    7.026520    5.186121
      4          5           0        7.660416    6.558315    5.760619
      5          8           0        7.848894    5.403088    6.463867
      6          1           0        7.060008    4.878610    6.608420
      7          6           0        5.109762    6.259341    5.302956
      8          1           0        5.128817    5.293867    5.800029
      9          6           0        3.898289    6.698206    4.788476
     10          1           0        3.001265    6.099148    4.882108
     11          6           0        3.840856    7.932867    4.139185
     12          6           0        4.989139    8.717471    4.007152
     13          1           0        4.928931    9.672323    3.499961
     14          6           0        6.190188    8.259675    4.528094
     15          1           0        7.085567    8.862038    4.428457
     16          6           0        2.590680    8.397602    3.602771
     17          7           0        1.590379    8.769450    3.173572
 ---------------------------------------------------------------------
                    Distance matrix (angstroms):
                    1          2          3          4          5
     1  O    0.000000
     2  H    0.961685   0.000000
     3  C    2.510999   3.353045   0.000000
     4  B    1.359895   1.942868   1.572513   0.000000
     5  O    2.338556   2.393825   2.598082   1.365515   0.000000
     6  H    3.179220   3.340573   2.693519   1.975010   0.958287
     7  C    3.797829   4.539417   1.398750   2.608578   3.095760
     8  H    4.165714   4.736960   2.165472   2.830084   2.802040
     9  C    4.941229   5.767215   2.430544   3.888217   4.482359
    10  H    5.909351   6.687071   3.414670   4.763434   5.146452
    11  C    5.124869   6.047832   2.799161   4.371210   5.279043
    12  C    4.270982   5.230416   2.428759   3.856465   5.019839
    13  H    4.900389   5.856079   3.413397   4.718965   5.961316
    14  C    2.884652   3.843620   1.400218   2.564238   3.828657
    15  H    2.494223   3.425129   2.145375   2.722544   4.085327
    16  C    6.527573   7.461977   4.236748   5.808744   6.693415
    17  N    7.659238   8.599074   5.387002   6.958971   7.831184
                    6          7          8          9         10
     6  H    0.000000
     7  C    2.722887   0.000000
     8  H    2.134346   1.086087   0.000000
     9  C    4.076713   1.387429   2.123583   0.000000
    10  H    4.576381   2.156046   2.453066   1.082723   0.000000
    11  C    5.078243   2.401078   3.373658   1.396161   2.149273
    12  C    5.078577   2.781378   3.867167   2.424428   3.401883
    13  H    6.097843   3.864186   4.949863   3.401157   4.288800
    14  C    4.063981   2.401888   3.397108   2.785460   3.868130
    15  H    4.540990   3.382689   4.294406   3.869176   4.951857
    16  C    6.433671   3.715988   4.572008   2.450242   2.662362
    17  N    7.540136   4.818815   5.612352   3.496343   3.469900
                   11         12         13         14         15
    11  C    0.000000
    12  C    1.396993   0.000000
    13  H    2.149005   1.082871   0.000000
    14  C    2.403625   1.386895   2.154855   0.000000
    15  H    3.387504   2.143224   2.483897   1.083731   0.000000
    16  C    1.437588   2.453252   2.665127   3.719100   4.593633
    17  N    2.587842   3.499875   3.473851   4.822120   5.637411
                   16         17
    16  C    0.000000
    17  N    1.150254   0.000000
 Symmetry turned off by external request.
 Stoichiometry    C7H6BNO2
 Framework group  C1[X(C7H6BNO2)]
 Deg. of freedom    45
 Full point group                 C1      NOp   1
 Rotational constants (GHZ):           3.6839222           0.5466208           0.4760560
 Standard basis: 6-311+G(d,p) (5D, 7F)
   278 basis functions,   444 primitive gaussians,   289 cartesian basis functions
    38 alpha electrons       38 beta electrons
       nuclear repulsion energy       510.3372655226 Hartrees.
 NAtoms=   17 NActive=   17 NUniq=   17 SFac= 1.00D+00 NAtFMM=   60 NAOKFM=F Big=F
 Integral buffers will be    131072 words long.
 Raffenetti 2 integral format.
 Two-electron integral symmetry is turned off.
 One-electron integrals computed using PRISM.
 NBasis=   278 RedAO= T EigKep=  2.30D-06  NBF=   278
 NBsUse=   278 1.00D-06 EigRej= -1.00D+00 NBFU=   278
 ExpMin= 3.15D-02 ExpMax= 8.59D+03 ExpMxC= 1.30D+03 IAcc=3 IRadAn=         5 AccDes= 0.00D+00
 Harris functional with IExCor= 1009 and IRadAn=       5 diagonalized for initial guess.
 HarFok:  IExCor= 1009 AccDes= 0.00D+00 IRadAn=         5 IDoV= 1 UseB2=F ITyADJ=14
 ICtDFT=  3500011 ScaDFX=  1.000000  1.000000  1.000000  1.000000
 FoFCou: FMM=F IPFlag=           0 FMFlag=      100000 FMFlg1=           0
         NFxFlg=           0 DoJE=T BraDBF=F KetDBF=T FulRan=T
         wScrn=  0.000000 ICntrl=       500 IOpCl=  0 I1Cent=   200000004 NGrid=           0
         NMat0=    1 NMatS0=      1 NMatT0=    0 NMatD0=    1 NMtDS0=    0 NMtDT0=    0
 Symmetry not used in FoFCou.
 Requested convergence on RMS density matrix=1.00D-08 within 128 cycles.
 Requested convergence on MAX density matrix=1.00D-06.
 Requested convergence on             energy=1.00D-06.
 Level shift goal  0.100 maximum shift  0.100.
 No special actions if energy rises.
 Dynamic level shift is on during FON iterations.
 SCF Done:  E(RM062X) =  -500.463202935     A.U. after   14 cycles
            NFock= 14  Conv=0.82D-08     -V/T= 2.0036
 DoSCS=F DFT=T ScalE2(SS,OS)=  1.000000  1.000000
 Range of M.O.s used for correlation:     1   278
 NBasis=   278 NAE=    38 NBE=    38 NFC=     0 NFV=     0
 NROrb=    278 NOA=    38 NOB=    38 NVA=   240 NVB=   240

 **** Warning!!: The largest alpha MO coefficient is  0.17129019D+03

 Symmetrizing basis deriv contribution to polar:
 IMax=3 JMax=2 DiffMx= 0.00D+00
 G2DrvN: will do    18 centers at a time, making    1 passes.
 Calling FoFCou, ICntrl=  3107 FMM=F I1Cent=   0 AccDes= 0.00D+00.
 End of G2Drv F.D. properties file   721 does not exist.
 End of G2Drv F.D. properties file   722 does not exist.
 End of G2Drv F.D. properties file   788 does not exist.
          IDoAtm=11111111111111111
          Differentiating once with respect to nuclear coordinates.
 Keep R1 ints in memory in canonical form, NReq=787822734.
          There are    54 degrees of freedom in the 1st order CPHF.  IDoFFX=6 NUNeed=     0.
     48 vectors produced by pass  0 Test12= 1.69D-14 1.85D-09 XBig12= 1.92D-01 1.43D-01.
 AX will form    48 AO Fock derivatives at one time.
     48 vectors produced by pass  1 Test12= 1.69D-14 1.85D-09 XBig12= 9.64D-03 3.27D-02.
     48 vectors produced by pass  2 Test12= 1.69D-14 1.85D-09 XBig12= 3.19D-04 2.77D-03.
     48 vectors produced by pass  3 Test12= 1.69D-14 1.85D-09 XBig12= 2.27D-06 2.02D-04.
     48 vectors produced by pass  4 Test12= 1.69D-14 1.85D-09 XBig12= 1.41D-08 1.28D-05.
     48 vectors produced by pass  5 Test12= 1.69D-14 1.85D-09 XBig12= 7.67D-11 9.40D-07.
     48 vectors produced by pass  6 Test12= 1.69D-14 1.85D-09 XBig12= 3.16D-13 5.87D-08.
     14 vectors produced by pass  7 Test12= 1.69D-14 1.85D-09 XBig12= 1.17D-15 4.33D-09.
 InvSVY:  IOpt=1 It=  1 EMax= 6.11D-16
 Solved reduced A of dimension   350 with    54 vectors.
 End of Minotr F.D. properties file   721 does not exist.
 End of Minotr F.D. properties file   722 does not exist.
 End of Minotr F.D. properties file   788 does not exist.

 **********************************************************************

            Population analysis using the SCF Density.

 **********************************************************************

 Alpha  occ. eigenvalues --  -19.65601 -19.64778 -14.75993 -10.60487 -10.58544
 Alpha  occ. eigenvalues --  -10.58081 -10.57857 -10.57807 -10.57028 -10.55877
 Alpha  occ. eigenvalues --   -7.10353  -1.18637  -1.14960  -1.03136  -0.99388
 Alpha  occ. eigenvalues --   -0.89008  -0.87763  -0.74873  -0.72502  -0.67447
 Alpha  occ. eigenvalues --   -0.65732  -0.64043  -0.57802  -0.55553  -0.53735
 Alpha  occ. eigenvalues --   -0.52053  -0.50129  -0.49431  -0.48337  -0.47312
 Alpha  occ. eigenvalues --   -0.45015  -0.43982  -0.42569  -0.42189  -0.41021
 Alpha  occ. eigenvalues --   -0.40815  -0.33970  -0.33128
 Alpha virt. eigenvalues --   -0.04627  -0.01443  -0.00901   0.00640   0.01215
 Alpha virt. eigenvalues --    0.02309   0.03024   0.03713   0.04040   0.05555
 Alpha virt. eigenvalues --    0.06649   0.06831   0.07133   0.07423   0.08294
 Alpha virt. eigenvalues --    0.08474   0.09346   0.10772   0.10953   0.12539
 Alpha virt. eigenvalues --    0.12929   0.13567   0.14119   0.14375   0.14427
 Alpha virt. eigenvalues --    0.15356   0.15738   0.15885   0.16405   0.17648
 Alpha virt. eigenvalues --    0.18582   0.18810   0.19289   0.20705   0.21344
 Alpha virt. eigenvalues --    0.21743   0.22582   0.23098   0.23365   0.23606
 Alpha virt. eigenvalues --    0.23832   0.24311   0.24503   0.24965   0.26420
 Alpha virt. eigenvalues --    0.26806   0.26981   0.27137   0.28737   0.29133
 Alpha virt. eigenvalues --    0.29659   0.30777   0.31805   0.32315   0.32958
 Alpha virt. eigenvalues --    0.33619   0.35506   0.36779   0.37388   0.40832
 Alpha virt. eigenvalues --    0.44169   0.45492   0.46606   0.47886   0.49144
 Alpha virt. eigenvalues --    0.49920   0.50774   0.52726   0.53863   0.55926
 Alpha virt. eigenvalues --    0.56359   0.58076   0.58883   0.59631   0.62403
 Alpha virt. eigenvalues --    0.62632   0.63326   0.65914   0.66355   0.66954
 Alpha virt. eigenvalues --    0.67349   0.68036   0.69313   0.69949   0.70578
 Alpha virt. eigenvalues --    0.72333   0.74725   0.75529   0.77206   0.78523
 Alpha virt. eigenvalues --    0.81046   0.83000   0.84460   0.88154   0.88959
 Alpha virt. eigenvalues --    0.89040   0.89851   0.92067   0.93044   0.93476
 Alpha virt. eigenvalues --    0.94797   0.95324   0.99391   1.01111   1.02355
 Alpha virt. eigenvalues --    1.02858   1.03962   1.04600   1.07376   1.07927
 Alpha virt. eigenvalues --    1.08772   1.09382   1.11192   1.11784   1.12729
 Alpha virt. eigenvalues --    1.15115   1.16885   1.18270   1.19589   1.27573
 Alpha virt. eigenvalues --    1.31875   1.32025   1.33450   1.34800   1.36014
 Alpha virt. eigenvalues --    1.37321   1.44052   1.47440   1.48908   1.49137
 Alpha virt. eigenvalues --    1.50847   1.52996   1.56691   1.56841   1.59064
 Alpha virt. eigenvalues --    1.59376   1.64251   1.66426   1.68207   1.68491
 Alpha virt. eigenvalues --    1.70235   1.74523   1.76366   1.76441   1.78517
 Alpha virt. eigenvalues --    1.78729   1.80148   1.83958   1.85942   1.91636
 Alpha virt. eigenvalues --    1.93849   1.94451   1.95474   1.99154   1.99433
 Alpha virt. eigenvalues --    2.00162   2.04820   2.08336   2.10144   2.12213
 Alpha virt. eigenvalues --    2.13656   2.13724   2.14668   2.16011   2.20147
 Alpha virt. eigenvalues --    2.27548   2.35562   2.38469   2.41450   2.42152
 Alpha virt. eigenvalues --    2.46014   2.56148   2.57278   2.59689   2.62373
 Alpha virt. eigenvalues --    2.64377   2.65979   2.67149   2.68785   2.70670
 Alpha virt. eigenvalues --    2.72676   2.73869   2.76573   2.78614   2.79188
 Alpha virt. eigenvalues --    2.82693   2.82865   2.90242   2.91899   2.92851
 Alpha virt. eigenvalues --    2.94967   3.02644   3.02811   3.05330   3.09618
 Alpha virt. eigenvalues --    3.10271   3.11106   3.12616   3.22517   3.25262
 Alpha virt. eigenvalues --    3.25775   3.26272   3.30280   3.38715   3.41031
 Alpha virt. eigenvalues --    3.45501   3.51570   3.53678   3.58257   3.60478
 Alpha virt. eigenvalues --    3.64647   3.65462   3.90177   3.93074   4.02107
 Alpha virt. eigenvalues --    4.06057   4.06325   4.11521   4.12098   4.17374
 Alpha virt. eigenvalues --    4.24086   4.68486   4.83577   5.06467   5.07643
 Alpha virt. eigenvalues --    5.38357   5.48063   5.67599   5.75506  14.77902
 Alpha virt. eigenvalues --   23.65295  23.99959  24.00527  24.10529  24.16070
 Alpha virt. eigenvalues --   24.23270  24.51501  35.98237  49.99281  50.04067
          Condensed to atoms (all electrons):
               1          2          3          4          5          6
     1  O    7.736839   0.275557   0.072921   0.453089  -0.127746   0.020406
     2  H    0.275557   0.446457   0.047147  -0.006448  -0.034034   0.003225
     3  C    0.072921   0.047147   8.803383   0.241901  -0.188493   0.018903
     4  B    0.453089  -0.006448   0.241901   3.348762   0.373642   0.016277
     5  O   -0.127746  -0.034034  -0.188493   0.373642   7.958189   0.253682
     6  H    0.020406   0.003225   0.018903   0.016277   0.253682   0.431474
     7  C    0.045439  -0.012396  -1.749803   0.130706   0.040669  -0.070391
     8  H    0.002439  -0.000042   0.052231   0.013771  -0.007722   0.011901
     9  C    0.072851   0.005909   0.517610   0.073793  -0.033016   0.068268
    10  H   -0.000042  -0.000001  -0.024023  -0.000273   0.000274  -0.000048
    11  C   -0.013479  -0.001025  -1.059410   0.014618   0.014511  -0.004298
    12  C   -0.019926  -0.018114  -0.257599  -0.005117   0.064336  -0.016414
    13  H    0.000402   0.000001  -0.010749   0.000126  -0.000034   0.000003
    14  C   -0.171291  -0.012800   0.095811  -0.076638   0.023896   0.013224
    15  H    0.003512  -0.000623   0.069599  -0.008318   0.002296  -0.000099
    16  C   -0.001247   0.000060  -0.056137  -0.042246  -0.001277  -0.000134
    17  N    0.000000   0.000000   0.004494   0.000751   0.000019  -0.000001
               7          8          9         10         11         12
     1  O    0.045439   0.002439   0.072851  -0.000042  -0.013479  -0.019926
     2  H   -0.012396  -0.000042   0.005909  -0.000001  -0.001025  -0.018114
     3  C   -1.749803   0.052231   0.517610  -0.024023  -1.059410  -0.257599
     4  B    0.130706   0.013771   0.073793  -0.000273   0.014618  -0.005117
     5  O    0.040669  -0.007722  -0.033016   0.000274   0.014511   0.064336
     6  H   -0.070391   0.011901   0.068268  -0.000048  -0.004298  -0.016414
     7  C   12.818020   0.297025  -4.512638   0.057323   1.945396   0.894022
     8  H    0.297025   0.535886   0.007561  -0.006210  -0.026334  -0.007060
     9  C   -4.512638   0.007561  12.098319   0.258716  -2.083354  -1.817843
    10  H    0.057323  -0.006210   0.258716   0.479487  -0.015674  -0.008764
    11  C    1.945396  -0.026334  -2.083354  -0.015674  14.712897  -1.749780
    12  C    0.894022  -0.007060  -1.817843  -0.008764  -1.749780  11.915822
    13  H   -0.014365   0.000079  -0.003267  -0.000089  -0.037413   0.255252
    14  C   -2.663499  -0.012593   0.392572  -0.008373   1.782864  -4.425459
    15  H    0.005849  -0.000104  -0.008328   0.000053  -0.017840  -0.017592
    16  C   -1.207370   0.007236   1.359669   0.092363 -10.218620   1.598964
    17  N    0.038905  -0.000051  -0.049477  -0.002810   0.855443  -0.042199
              13         14         15         16         17
     1  O    0.000402  -0.171291   0.003512  -0.001247   0.000000
     2  H    0.000001  -0.012800  -0.000623   0.000060   0.000000
     3  C   -0.010749   0.095811   0.069599  -0.056137   0.004494
     4  B    0.000126  -0.076638  -0.008318  -0.042246   0.000751
     5  O   -0.000034   0.023896   0.002296  -0.001277   0.000019
     6  H    0.000003   0.013224  -0.000099  -0.000134  -0.000001
     7  C   -0.014365  -2.663499   0.005849  -1.207370   0.038905
     8  H    0.000079  -0.012593  -0.000104   0.007236  -0.000051
     9  C   -0.003267   0.392572  -0.008328   1.359669  -0.049477
    10  H   -0.000089  -0.008373   0.000053   0.092363  -0.002810
    11  C   -0.037413   1.782864  -0.017840 -10.218620   0.855443
    12  C    0.255252  -4.425459  -0.017592   1.598964  -0.042199
    13  H    0.477583   0.069301  -0.005368   0.091853  -0.002949
    14  C    0.069301  12.322230   0.312438  -1.536384   0.042935
    15  H   -0.005368   0.312438   0.465085   0.007824  -0.000051
    16  C    0.091853  -1.536384   0.007824  17.702077  -0.534373
    17  N   -0.002949   0.042935  -0.000051  -0.534373   6.895029
 Mulliken charges:
               1
     1  O   -0.349725
     2  H    0.307127
     3  C   -0.577786
     4  B    0.471603
     5  O   -0.339192
     6  H    0.254020
     7  C   -0.042892
     8  H    0.131986
     9  C   -0.347344
    10  H    0.178092
    11  C    1.901498
    12  C   -0.342531
    13  H    0.179633
    14  C   -0.148234
    15  H    0.191667
    16  C   -1.262256
    17  N   -0.205666
 Sum of Mulliken charges =   0.00000
 Mulliken charges with hydrogens summed into heavy atoms:
               1
     1  O   -0.042598
     3  C   -0.577786
     4  B    0.471603
     5  O   -0.085172
     7  C    0.089094
     9  C   -0.169252
    11  C    1.901498
    12  C   -0.162898
    14  C    0.043433
    16  C   -1.262256
    17  N   -0.205666
 APT charges:
               1
     1  O   -0.307204
     2  H    1.988273
     3  C   -1.410120
     4  B   -0.421555
     5  O    1.209733
     6  H   -1.188252
     7  C   -0.444051
     8  H   -0.247110
     9  C    0.286247
    10  H   -0.787319
    11  C   -1.172032
    12  C   -0.231898
    13  H    1.281208
    14  C   -0.316057
    15  H    1.894552
    16  C    0.433939
    17  N   -0.568355
 Sum of APT charges =   0.00000
 APT charges with hydrogens summed into heavy atoms:
               1
     1  O    1.681069
     3  C   -1.410120
     4  B   -0.421555
     5  O    0.021481
     7  C   -0.691161
     9  C   -0.501072
    11  C   -1.172032
    12  C    1.049310
    14  C    1.578495
    16  C    0.433939
    17  N   -0.568355
 Electronic spatial extent (au):  <R**2>=          31227.2615
 Charge=              0.0000 electrons
 Dipole moment (field-independent basis, Debye):
    X=              3.2439    Y=             -2.4159    Z=              2.1221  Tot=              4.5676
 Quadrupole moment (field-independent basis, Debye-Ang):
   XX=            -41.4835   YY=            -94.8306   ZZ=            -46.0570
   XY=             19.0848   XZ=             20.3664   YZ=              2.4267
 Traceless Quadrupole moment (field-independent basis, Debye-Ang):
   XX=             19.3069   YY=            -34.0402   ZZ=             14.7333
   XY=             19.0848   XZ=             20.3664   YZ=              2.4267
 Octapole moment (field-independent basis, Debye-Ang**2):
  XXX=           -839.5938  YYY=          -1714.3414  ZZZ=           -799.6269  XYY=           -207.7081
  XXY=           -321.5434  XXZ=           -165.9614  XZZ=           -219.6940  YZZ=           -417.3463
  YYZ=           -356.6098  XYZ=            108.6519
 Hexadecapole moment (field-independent basis, Debye-Ang**3):
 XXXX=         -10828.2773 YYYY=         -24003.8553 ZZZZ=          -8487.0458 XXXY=          -6024.5379
 XXXZ=          -4015.2515 YYYX=          -6191.7430 YYYZ=          -7327.9624 ZZZX=          -4528.0937
 ZZZY=          -6178.3015 XXYY=          -4610.6436 XXZZ=          -2823.3554 YYZZ=          -5102.2910
 XXYZ=          -1320.6671 YYXZ=          -1111.5671 ZZXY=          -1830.6510
 N-N= 5.103372655226D+02 E-N=-2.188752786590D+03  KE= 4.986678101801D+02
  Exact polarizability:       0.000       0.000       0.000       0.000       0.000       0.000
 Approx polarizability:     163.451      -6.761     124.019      24.885     -28.434      93.530
 Calling FoFJK, ICntrl=    100127 FMM=F ISym2X=0 I1Cent= 0 IOpClX= 0 NMat=1 NMatS=1 NMatT=0.
 -------------------------------------------------------------------
 Center     Atomic                   Forces (Hartrees/Bohr)
 Number     Number              X              Y              Z
 -------------------------------------------------------------------
      1        8           0.000001033    0.000002107   -0.000001197
      2        1          -0.000000257    0.000002153   -0.000001036
      3        6          -0.000000644   -0.000000665   -0.000001009
      4        5          -0.000001446    0.000000528   -0.000000016
      5        8           0.000001582    0.000001093   -0.000001623
      6        1           0.000000925   -0.000000186   -0.000001284
      7        6          -0.000001339   -0.000002171    0.000001041
      8        1           0.000002191   -0.000000531   -0.000000950
      9        6           0.000018249   -0.000003009    0.000005123
     10        1           0.000000664   -0.000001603   -0.000000216
     11        6           0.000020730   -0.000055597    0.000040063
     12        6           0.000012537    0.000001565    0.000003092
     13        1          -0.000002654   -0.000000802    0.000001285
     14        6          -0.000007201    0.000000436   -0.000001635
     15        1          -0.000001368    0.000001343    0.000000473
     16        6          -0.000196458    0.000152523   -0.000132854
     17        7           0.000153456   -0.000097185    0.000090742
 -------------------------------------------------------------------
 Cartesian Forces:  Max     0.000196458 RMS     0.000049806
 FormGI is forming the generalized inverse of G from B-inverse, IUseBI=4.

 GradGradGradGradGradGradGradGradGradGradGradGradGradGradGradGradGradGrad
 Berny optimization.
 Internal  Forces:  Max     0.000198741 RMS     0.000026731
 Search for a local minimum.
 Step number   1 out of a maximum of   84
 All quantities printed in internal units (Hartrees-Bohrs-Radians)
 Mixed Optimization -- En-DIIS/RFO-DIIS
 Second derivative matrix not updated -- analytic derivatives used.
 ITU=  0
     Eigenvalues ---    0.00054   0.00991   0.01266   0.01578   0.01720
     Eigenvalues ---    0.01802   0.02170   0.02434   0.02594   0.02676
     Eigenvalues ---    0.02799   0.02908   0.03935   0.06255   0.07890
     Eigenvalues ---    0.10261   0.11172   0.11362   0.11612   0.12043
     Eigenvalues ---    0.12749   0.15831   0.16418   0.18469   0.18758
     Eigenvalues ---    0.19094   0.19451   0.19815   0.27212   0.28948
     Eigenvalues ---    0.35735   0.36164   0.36556   0.36686   0.37002
     Eigenvalues ---    0.39926   0.42755   0.43049   0.47464   0.48126
     Eigenvalues ---    0.49612   0.52233   0.55116   0.56274   1.30255
 RFO step:  Lambda=-1.31092913D-07 EMin= 5.44570862D-04
 Linear search not attempted -- first point.
 Iteration  1 RMS(Cart)=  0.00022891 RMS(Int)=  0.00000011
 Iteration  2 RMS(Cart)=  0.00000011 RMS(Int)=  0.00000000
 Variable       Old X    -DE/DX   Delta X   Delta X   Delta X     New X
                                 (Linear)    (Quad)   (Total)
    R1        1.81732   0.00000   0.00000   0.00000   0.00000   1.81732
    R2        2.56983   0.00000   0.00000   0.00000   0.00000   2.56983
    R3        2.97162   0.00000   0.00000  -0.00001  -0.00001   2.97161
    R4        2.64326   0.00000   0.00000   0.00000   0.00000   2.64325
    R5        2.64603   0.00000   0.00000  -0.00001  -0.00001   2.64602
    R6        2.58045   0.00000   0.00000   0.00000   0.00000   2.58045
    R7        1.81090   0.00000   0.00000   0.00000   0.00000   1.81090
    R8        2.05241   0.00000   0.00000   0.00000   0.00000   2.05241
    R9        2.62186   0.00000   0.00000   0.00000   0.00000   2.62186
   R10        2.04605   0.00000   0.00000   0.00000   0.00000   2.04605
   R11        2.63836   0.00001   0.00000   0.00000   0.00000   2.63836
   R12        2.63993   0.00001   0.00000   0.00001   0.00001   2.63994
   R13        2.71665   0.00007   0.00000   0.00019   0.00019   2.71684
   R14        2.04633   0.00000   0.00000   0.00000   0.00000   2.04633
   R15        2.62085  -0.00001   0.00000  -0.00002  -0.00002   2.62083
   R16        2.04795   0.00000   0.00000   0.00000   0.00000   2.04795
   R17        2.17367  -0.00020   0.00000  -0.00015  -0.00015   2.17351
    A1        1.96335   0.00000   0.00000   0.00000   0.00000   1.96335
    A2        2.14120   0.00000   0.00000   0.00001   0.00001   2.14120
    A3        2.07874   0.00000   0.00000  -0.00001  -0.00001   2.07874
    A4        2.06325   0.00000   0.00000   0.00000   0.00000   2.06324
    A5        2.05291   0.00000   0.00000  -0.00001  -0.00001   2.05290
    A6        2.06294   0.00000   0.00000   0.00000   0.00000   2.06295
    A7        2.16733   0.00000   0.00000   0.00000   0.00000   2.16733
    A8        2.01206   0.00000   0.00000  -0.00001  -0.00001   2.01205
    A9        2.10737   0.00000   0.00000   0.00000   0.00000   2.10737
   A10        2.12000   0.00000   0.00000   0.00000   0.00000   2.12000
   A11        2.05581   0.00000   0.00000   0.00000   0.00000   2.05581
   A12        2.11337   0.00000   0.00000   0.00000   0.00000   2.11336
   A13        2.08070   0.00000   0.00000   0.00001   0.00001   2.08071
   A14        2.08912   0.00000   0.00000  -0.00001  -0.00001   2.08911
   A15        2.10228  -0.00001   0.00000  -0.00002  -0.00002   2.10226
   A16        2.08884   0.00002   0.00000   0.00001   0.00001   2.08885
   A17        2.09207  -0.00001   0.00000   0.00001   0.00001   2.09207
   A18        2.08726   0.00000   0.00000  -0.00001  -0.00001   2.08725
   A19        2.08396   0.00000   0.00000   0.00001   0.00001   2.08397
   A20        2.11197   0.00000   0.00000  -0.00001  -0.00001   2.11197
   A21        2.11619   0.00000   0.00000   0.00000   0.00000   2.11618
   A22        2.07551   0.00000   0.00000   0.00000   0.00000   2.07551
   A23        2.09149   0.00000   0.00000   0.00000   0.00000   2.09149
   A24        3.14159  -0.00009   0.00000  -0.00099  -0.00099   3.14060
   A25        3.14159  -0.00001   0.00000  -0.00008  -0.00008   3.14151
    D1        3.13664   0.00000   0.00000  -0.00001  -0.00001   3.13663
    D2       -0.00347   0.00000   0.00000  -0.00002  -0.00002  -0.00349
    D3        3.09575   0.00000   0.00000  -0.00012  -0.00012   3.09562
    D4       -0.04742   0.00000   0.00000  -0.00012  -0.00012  -0.04754
    D5       -0.04485   0.00000   0.00000  -0.00012  -0.00012  -0.04497
    D6        3.09517   0.00000   0.00000  -0.00011  -0.00011   3.09506
    D7       -0.00553   0.00000   0.00000  -0.00001  -0.00001  -0.00554
    D8        3.13956   0.00000   0.00000   0.00002   0.00002   3.13957
    D9        3.13508   0.00000   0.00000  -0.00002  -0.00002   3.13506
   D10       -0.00303   0.00000   0.00000   0.00001   0.00001  -0.00302
   D11       -3.13892   0.00000   0.00000  -0.00001  -0.00001  -3.13893
   D12        0.00224   0.00000   0.00000  -0.00001  -0.00001   0.00223
   D13        0.00362   0.00000   0.00000   0.00000   0.00000   0.00362
   D14       -3.13840   0.00000   0.00000   0.00000   0.00000  -3.13840
   D15        3.12188   0.00000   0.00000  -0.00003  -0.00003   3.12185
   D16       -0.01813   0.00000   0.00000  -0.00004  -0.00004  -0.01817
   D17        3.14123   0.00000   0.00000  -0.00002  -0.00002   3.14121
   D18        0.00068   0.00000   0.00000  -0.00001  -0.00001   0.00067
   D19        0.00303   0.00000   0.00000   0.00000   0.00000   0.00303
   D20       -3.13752   0.00000   0.00000   0.00002   0.00002  -3.13750
   D21        0.00116   0.00000   0.00000   0.00000   0.00000   0.00117
   D22       -3.14117   0.00000   0.00000  -0.00004  -0.00004  -3.14122
   D23       -3.13940   0.00000   0.00000   0.00002   0.00002  -3.13938
   D24        0.00145   0.00000   0.00000  -0.00003  -0.00003   0.00142
   D25        3.14038   0.00000   0.00000  -0.00001  -0.00001   3.14037
   D26       -0.00058   0.00000   0.00000   0.00000   0.00000  -0.00058
   D27       -0.00046   0.00000   0.00000   0.00004   0.00004  -0.00043
   D28       -3.14143   0.00000   0.00000   0.00005   0.00005  -3.14138
   D29       -0.00187   0.00000   0.00000   0.00000   0.00000  -0.00187
   D30        3.14016   0.00000   0.00000  -0.00001  -0.00001   3.14016
   D31        3.14036   0.00000   0.00000   0.00001   0.00001   3.14037
   D32       -0.00079   0.00000   0.00000   0.00001   0.00001  -0.00079
         Item               Value     Threshold  Converged?
 Maximum Force            0.000199     0.000015     NO 
 RMS     Force            0.000027     0.000010     NO 
 Maximum Displacement     0.001367     0.000060     NO 
 RMS     Displacement     0.000229     0.000040     NO 
 Predicted change in Energy=-6.554646D-08
 GradGradGradGradGradGradGradGradGradGradGradGradGradGradGradGradGradGrad

                          Input orientation:                          
 ---------------------------------------------------------------------
 Center     Atomic      Atomic             Coordinates (Angstroms)
 Number     Number       Type             X           Y           Z
 ---------------------------------------------------------------------
      1          8           0        8.736799    7.359924    5.541354
      2          1           0        9.543590    7.006229    5.927132
      3          6           0        6.273520    7.026542    5.186123
      4          5           0        7.660411    6.558281    5.760621
      5          8           0        7.848828    5.403086    6.463936
      6          1           0        7.059902    4.878690    6.608567
      7          6           0        5.109756    6.259396    5.302902
      8          1           0        5.128774    5.293896    5.799926
      9          6           0        3.898314    6.698313    4.788399
     10          1           0        3.001274    6.099268    4.881971
     11          6           0        3.840922    7.932997    4.139149
     12          6           0        4.989244    8.717565    4.007185
     13          1           0        4.929083    9.672432    3.500019
     14          6           0        6.190259    8.259720    4.528140
     15          1           0        7.085657    8.862061    4.428545
     16          6           0        2.590701    8.397799    3.602625
     17          7           0        1.589978    8.768726    3.173831
 ---------------------------------------------------------------------
                    Distance matrix (angstroms):
                    1          2          3          4          5
     1  O    0.000000
     2  H    0.961685   0.000000
     3  C    2.510991   3.353039   0.000000
     4  B    1.359897   1.942871   1.572509   0.000000
     5  O    2.338560   2.393834   2.598078   1.365514   0.000000
     6  H    3.179222   3.340582   2.693513   1.975007   0.958288
     7  C    3.797823   4.539417   1.398748   2.608578   3.095769
     8  H    4.165714   4.736968   2.165469   2.830089   2.802058
     9  C    4.941216   5.767207   2.430539   3.888213   4.482366
    10  H    5.909339   6.687066   3.414665   4.763431   5.146462
    11  C    5.124862   6.047827   2.799169   4.371214   5.279053
    12  C    4.270952   5.230386   2.428748   3.856446   5.019822
    13  H    4.900351   5.856039   3.413384   4.718941   5.961294
    14  C    2.884632   3.843599   1.400215   2.564225   3.828644
    15  H    2.494199   3.425100   2.145372   2.722530   4.085309
    16  C    6.527663   7.462069   4.236859   5.808850   6.693528
    17  N    7.659435   8.599245   5.387030   6.959002   7.831062
                    6          7          8          9         10
     6  H    0.000000
     7  C    2.722899   0.000000
     8  H    2.134374   1.086086   0.000000
     9  C    4.076724   1.387427   2.123583   0.000000
    10  H    4.576397   2.156043   2.453064   1.082724   0.000000
    11  C    5.078253   2.401084   3.373662   1.396161   2.149269
    12  C    5.078560   2.781366   3.867155   2.424418   3.401875
    13  H    6.097821   3.864174   4.949850   3.401146   4.288792
    14  C    4.063966   2.401883   3.397102   2.785452   3.868123
    15  H    4.540970   3.382684   4.294400   3.869168   4.951849
    16  C    6.433784   3.716094   4.572107   2.450340   2.662432
    17  N    7.539885   4.818560   5.611942   3.495977   3.469223
                   11         12         13         14         15
    11  C    0.000000
    12  C    1.396998   0.000000
    13  H    2.149003   1.082870   0.000000
    14  C    2.403632   1.386886   2.154844   0.000000
    15  H    3.387509   2.143216   2.483883   1.083730   0.000000
    16  C    1.437690   2.453350   2.665192   3.719202   4.593726
    17  N    2.587862   3.500300   3.474580   4.822429   5.637864
                   16         17
    16  C    0.000000
    17  N    1.150172   0.000000
 Symmetry turned off by external request.
 Stoichiometry    C7H6BNO2
 Framework group  C1[X(C7H6BNO2)]
 Deg. of freedom    45
 Full point group                 C1      NOp   1
 Rotational constants (GHZ):           3.6839506           0.5466137           0.4760514
 Standard basis: 6-311+G(d,p) (5D, 7F)
   278 basis functions,   444 primitive gaussians,   289 cartesian basis functions
    38 alpha electrons       38 beta electrons
       nuclear repulsion energy       510.3365704737 Hartrees.
 NAtoms=   17 NActive=   17 NUniq=   17 SFac= 1.00D+00 NAtFMM=   60 NAOKFM=F Big=F
 Integral buffers will be    131072 words long.
 Raffenetti 2 integral format.
 Two-electron integral symmetry is turned off.
 One-electron integrals computed using PRISM.
 NBasis=   278 RedAO= T EigKep=  2.30D-06  NBF=   278
 NBsUse=   278 1.00D-06 EigRej= -1.00D+00 NBFU=   278
 Initial guess from the checkpoint file:  "4-CN-phboh2-opt-freq-2.chk"
 B after Tr=     0.000058   -0.000332    0.000339
         Rot=    1.000000    0.000007   -0.000007   -0.000008 Ang=   0.00 deg.
 Requested convergence on RMS density matrix=1.00D-08 within 128 cycles.
 Requested convergence on MAX density matrix=1.00D-06.
 Requested convergence on             energy=1.00D-06.
 Level shift goal  0.100 maximum shift  0.100.
 No special actions if energy rises.
 Dynamic level shift is on during FON iterations.
 SCF Done:  E(RM062X) =  -500.463203000     A.U. after    8 cycles
            NFock=  8  Conv=0.84D-08     -V/T= 2.0036
 Calling FoFJK, ICntrl=      2127 FMM=F ISym2X=0 I1Cent= 0 IOpClX= 0 NMat=1 NMatS=1 NMatT=0.
 -------------------------------------------------------------------
 Center     Atomic                   Forces (Hartrees/Bohr)
 Number     Number              X              Y              Z
 -------------------------------------------------------------------
      1        8           0.000000048    0.000001437   -0.000000436
      2        1           0.000000286    0.000001726   -0.000000712
      3        6           0.000000163    0.000000218   -0.000000182
      4        5           0.000000506    0.000000746   -0.000000594
      5        8           0.000001236    0.000000565   -0.000001132
      6        1           0.000001561    0.000000075   -0.000001235
      7        6           0.000000557   -0.000000435   -0.000000356
      8        1           0.000001201   -0.000000631   -0.000000766
      9        6           0.000000302   -0.000000891    0.000000042
     10        1           0.000000621   -0.000001422   -0.000000088
     11        6          -0.000000446   -0.000000622    0.000000565
     12        6          -0.000000896    0.000000015    0.000000749
     13        1          -0.000001546    0.000000234    0.000001141
     14        6          -0.000000653    0.000000513    0.000000321
     15        1          -0.000000933    0.000001027    0.000000461
     16        6          -0.000000792   -0.000001094    0.000000963
     17        7          -0.000001214   -0.000001461    0.000001258
 -------------------------------------------------------------------
 Cartesian Forces:  Max     0.000001726 RMS     0.000000857

 GradGradGradGradGradGradGradGradGradGradGradGradGradGradGradGradGradGrad
 Berny optimization.
 Using GEDIIS/GDIIS optimizer.
 FormGI is forming the generalized inverse of G from B-inverse, IUseBI=4.
 Internal  Forces:  Max     0.000000105 RMS     0.000000026
 Search for a local minimum.
 Step number   2 out of a maximum of   84
 All quantities printed in internal units (Hartrees-Bohrs-Radians)
 Mixed Optimization -- En-DIIS/RFO-DIIS
 Swapping is turned off.
 Update second derivatives using D2CorX and points    1    2
 DE= -6.56D-08 DEPred=-6.55D-08 R= 1.00D+00
 Trust test= 1.00D+00 RLast= 1.06D-03 DXMaxT set to 3.00D-01
 ITU=  0  0
     Eigenvalues ---    0.00054   0.00991   0.01266   0.01578   0.01720
     Eigenvalues ---    0.01802   0.02170   0.02434   0.02594   0.02676
     Eigenvalues ---    0.02799   0.02908   0.03935   0.06255   0.07878
     Eigenvalues ---    0.10261   0.11172   0.11362   0.11612   0.12043
     Eigenvalues ---    0.12749   0.15834   0.16422   0.18469   0.18758
     Eigenvalues ---    0.19094   0.19451   0.19815   0.27212   0.28949
     Eigenvalues ---    0.35735   0.36163   0.36556   0.36686   0.37002
     Eigenvalues ---    0.39926   0.42754   0.43051   0.47464   0.48124
     Eigenvalues ---    0.49612   0.52233   0.55116   0.56274   1.30309
 En-DIIS/RFO-DIIS/Sim-DIIS IScMMF=       -3 using points:     2    1
 RFO step:  Lambda=-2.36020570D-13.
 DidBck=F Rises=F RFO-DIIS coefs:    1.00607   -0.00607
 Iteration  1 RMS(Cart)=  0.00000633 RMS(Int)=  0.00000000
 Iteration  2 RMS(Cart)=  0.00000000 RMS(Int)=  0.00000000
 Variable       Old X    -DE/DX   Delta X   Delta X   Delta X     New X
                                 (Linear)    (Quad)   (Total)
    R1        1.81732   0.00000   0.00000   0.00000   0.00000   1.81732
    R2        2.56983   0.00000   0.00000   0.00000   0.00000   2.56983
    R3        2.97161   0.00000   0.00000   0.00000   0.00000   2.97161
    R4        2.64325   0.00000   0.00000   0.00000   0.00000   2.64325
    R5        2.64602   0.00000   0.00000   0.00000   0.00000   2.64602
    R6        2.58045   0.00000   0.00000   0.00000   0.00000   2.58045
    R7        1.81090   0.00000   0.00000   0.00000   0.00000   1.81090
    R8        2.05241   0.00000   0.00000   0.00000   0.00000   2.05241
    R9        2.62186   0.00000   0.00000   0.00000   0.00000   2.62186
   R10        2.04605   0.00000   0.00000   0.00000   0.00000   2.04605
   R11        2.63836   0.00000   0.00000   0.00000   0.00000   2.63836
   R12        2.63994   0.00000   0.00000   0.00000   0.00000   2.63994
   R13        2.71684   0.00000   0.00000   0.00000   0.00000   2.71684
   R14        2.04633   0.00000   0.00000   0.00000   0.00000   2.04633
   R15        2.62083   0.00000   0.00000   0.00000   0.00000   2.62083
   R16        2.04795   0.00000   0.00000   0.00000   0.00000   2.04795
   R17        2.17351   0.00000   0.00000   0.00000   0.00000   2.17351
    A1        1.96335   0.00000   0.00000   0.00000   0.00000   1.96335
    A2        2.14120   0.00000   0.00000   0.00000   0.00000   2.14120
    A3        2.07874   0.00000   0.00000   0.00000   0.00000   2.07874
    A4        2.06324   0.00000   0.00000   0.00000   0.00000   2.06324
    A5        2.05290   0.00000   0.00000   0.00000   0.00000   2.05290
    A6        2.06295   0.00000   0.00000   0.00000   0.00000   2.06295
    A7        2.16733   0.00000   0.00000   0.00000   0.00000   2.16733
    A8        2.01205   0.00000   0.00000   0.00000   0.00000   2.01205
    A9        2.10737   0.00000   0.00000   0.00000   0.00000   2.10737
   A10        2.12000   0.00000   0.00000   0.00000   0.00000   2.12000
   A11        2.05581   0.00000   0.00000   0.00000   0.00000   2.05581
   A12        2.11336   0.00000   0.00000   0.00000   0.00000   2.11336
   A13        2.08071   0.00000   0.00000   0.00000   0.00000   2.08071
   A14        2.08911   0.00000   0.00000   0.00000   0.00000   2.08911
   A15        2.10226   0.00000   0.00000   0.00000   0.00000   2.10226
   A16        2.08885   0.00000   0.00000   0.00000   0.00000   2.08885
   A17        2.09207   0.00000   0.00000   0.00000   0.00000   2.09208
   A18        2.08725   0.00000   0.00000   0.00000   0.00000   2.08725
   A19        2.08397   0.00000   0.00000   0.00000   0.00000   2.08397
   A20        2.11197   0.00000   0.00000   0.00000   0.00000   2.11197
   A21        2.11618   0.00000   0.00000   0.00000   0.00000   2.11618
   A22        2.07551   0.00000   0.00000   0.00000   0.00000   2.07551
   A23        2.09149   0.00000   0.00000   0.00000   0.00000   2.09149
   A24        3.14060   0.00000  -0.00001   0.00000   0.00000   3.14060
   A25        3.14151   0.00000   0.00000   0.00000   0.00000   3.14151
    D1        3.13663   0.00000   0.00000   0.00000   0.00000   3.13663
    D2       -0.00349   0.00000   0.00000   0.00000   0.00000  -0.00349
    D3        3.09562   0.00000   0.00000  -0.00001  -0.00001   3.09561
    D4       -0.04754   0.00000   0.00000  -0.00001  -0.00001  -0.04755
    D5       -0.04497   0.00000   0.00000  -0.00001  -0.00001  -0.04498
    D6        3.09506   0.00000   0.00000  -0.00001  -0.00001   3.09505
    D7       -0.00554   0.00000   0.00000   0.00000   0.00000  -0.00554
    D8        3.13957   0.00000   0.00000   0.00000   0.00000   3.13957
    D9        3.13506   0.00000   0.00000   0.00000   0.00000   3.13506
   D10       -0.00302   0.00000   0.00000   0.00000   0.00000  -0.00302
   D11       -3.13893   0.00000   0.00000   0.00000   0.00000  -3.13893
   D12        0.00223   0.00000   0.00000   0.00000   0.00000   0.00223
   D13        0.00362   0.00000   0.00000   0.00000   0.00000   0.00362
   D14       -3.13840   0.00000   0.00000   0.00000   0.00000  -3.13840
   D15        3.12185   0.00000   0.00000   0.00000   0.00000   3.12184
   D16       -0.01817   0.00000   0.00000   0.00000   0.00000  -0.01817
   D17        3.14121   0.00000   0.00000   0.00000   0.00000   3.14121
   D18        0.00067   0.00000   0.00000   0.00000   0.00000   0.00067
   D19        0.00303   0.00000   0.00000   0.00000   0.00000   0.00303
   D20       -3.13750   0.00000   0.00000   0.00000   0.00000  -3.13750
   D21        0.00117   0.00000   0.00000   0.00000   0.00000   0.00117
   D22       -3.14122   0.00000   0.00000   0.00000   0.00000  -3.14122
   D23       -3.13938   0.00000   0.00000   0.00000   0.00000  -3.13938
   D24        0.00142   0.00000   0.00000   0.00000   0.00000   0.00142
   D25        3.14037   0.00000   0.00000   0.00000   0.00000   3.14037
   D26       -0.00058   0.00000   0.00000   0.00000   0.00000  -0.00058
   D27       -0.00043   0.00000   0.00000   0.00000   0.00000  -0.00043
   D28       -3.14138   0.00000   0.00000   0.00000   0.00000  -3.14138
   D29       -0.00187   0.00000   0.00000   0.00000   0.00000  -0.00187
   D30        3.14016   0.00000   0.00000   0.00000   0.00000   3.14016
   D31        3.14037   0.00000   0.00000   0.00000   0.00000   3.14037
   D32       -0.00079   0.00000   0.00000   0.00000   0.00000  -0.00079
         Item               Value     Threshold  Converged?
 Maximum Force            0.000000     0.000015     YES
 RMS     Force            0.000000     0.000010     YES
 Maximum Displacement     0.000030     0.000060     YES
 RMS     Displacement     0.000006     0.000040     YES
 Predicted change in Energy=-3.175648D-13
 Optimization completed.
    -- Stationary point found.
                           ----------------------------
                           !   Optimized Parameters   !
                           ! (Angstroms and Degrees)  !
 --------------------------                            --------------------------
 ! Name  Definition              Value          Derivative Info.                !
 --------------------------------------------------------------------------------
 ! R1    R(1,2)                  0.9617         -DE/DX =    0.0                 !
 ! R2    R(1,4)                  1.3599         -DE/DX =    0.0                 !
 ! R3    R(3,4)                  1.5725         -DE/DX =    0.0                 !
 ! R4    R(3,7)                  1.3987         -DE/DX =    0.0                 !
 ! R5    R(3,14)                 1.4002         -DE/DX =    0.0                 !
 ! R6    R(4,5)                  1.3655         -DE/DX =    0.0                 !
 ! R7    R(5,6)                  0.9583         -DE/DX =    0.0                 !
 ! R8    R(7,8)                  1.0861         -DE/DX =    0.0                 !
 ! R9    R(7,9)                  1.3874         -DE/DX =    0.0                 !
 ! R10   R(9,10)                 1.0827         -DE/DX =    0.0                 !
 ! R11   R(9,11)                 1.3962         -DE/DX =    0.0                 !
 ! R12   R(11,12)                1.397          -DE/DX =    0.0                 !
 ! R13   R(11,16)                1.4377         -DE/DX =    0.0                 !
 ! R14   R(12,13)                1.0829         -DE/DX =    0.0                 !
 ! R15   R(12,14)                1.3869         -DE/DX =    0.0                 !
 ! R16   R(14,15)                1.0837         -DE/DX =    0.0                 !
 ! R17   R(16,17)                1.1502         -DE/DX =    0.0                 !
 ! A1    A(2,1,4)              112.4917         -DE/DX =    0.0                 !
 ! A2    A(4,3,7)              122.682          -DE/DX =    0.0                 !
 ! A3    A(4,3,14)             119.1028         -DE/DX =    0.0                 !
 ! A4    A(7,3,14)             118.2152         -DE/DX =    0.0                 !
 ! A5    A(1,4,3)              117.6227         -DE/DX =    0.0                 !
 ! A6    A(1,4,5)              118.1982         -DE/DX =    0.0                 !
 ! A7    A(3,4,5)              124.179          -DE/DX =    0.0                 !
 ! A8    A(4,5,6)              115.2822         -DE/DX =    0.0                 !
 ! A9    A(3,7,8)              120.7435         -DE/DX =    0.0                 !
 ! A10   A(3,7,9)              121.4669         -DE/DX =    0.0                 !
 ! A11   A(8,7,9)              117.7893         -DE/DX =    0.0                 !
 ! A12   A(7,9,10)             121.0867         -DE/DX =    0.0                 !
 ! A13   A(7,9,11)             119.216          -DE/DX =    0.0                 !
 ! A14   A(10,9,11)            119.6972         -DE/DX =    0.0                 !
 ! A15   A(9,11,12)            120.4504         -DE/DX =    0.0                 !
 ! A16   A(9,11,16)            119.6825         -DE/DX =    0.0                 !
 ! A17   A(12,11,16)           119.8671         -DE/DX =    0.0                 !
 ! A18   A(11,12,13)           119.5905         -DE/DX =    0.0                 !
 ! A19   A(11,12,14)           119.4027         -DE/DX =    0.0                 !
 ! A20   A(13,12,14)           121.0067         -DE/DX =    0.0                 !
 ! A21   A(3,14,12)            121.2484         -DE/DX =    0.0                 !
 ! A22   A(3,14,15)            118.9179         -DE/DX =    0.0                 !
 ! A23   A(12,14,15)           119.8337         -DE/DX =    0.0                 !
 ! A24   L(11,16,17,10,-1)     179.943          -DE/DX =    0.0                 !
 ! A25   L(11,16,17,10,-2)     179.9955         -DE/DX =    0.0                 !
 ! D1    D(2,1,4,3)            179.7159         -DE/DX =    0.0                 !
 ! D2    D(2,1,4,5)             -0.1997         -DE/DX =    0.0                 !
 ! D3    D(7,3,4,1)            177.366          -DE/DX =    0.0                 !
 ! D4    D(7,3,4,5)             -2.7239         -DE/DX =    0.0                 !
 ! D5    D(14,3,4,1)            -2.5763         -DE/DX =    0.0                 !
 ! D6    D(14,3,4,5)           177.3338         -DE/DX =    0.0                 !
 ! D7    D(4,3,7,8)             -0.3173         -DE/DX =    0.0                 !
 ! D8    D(4,3,7,9)            179.8843         -DE/DX =    0.0                 !
 ! D9    D(14,3,7,8)           179.6255         -DE/DX =    0.0                 !
 ! D10   D(14,3,7,9)            -0.1728         -DE/DX =    0.0                 !
 ! D11   D(4,3,14,12)         -179.8477         -DE/DX =    0.0                 !
 ! D12   D(4,3,14,15)            0.1278         -DE/DX =    0.0                 !
 ! D13   D(7,3,14,12)            0.2074         -DE/DX =    0.0                 !
 ! D14   D(7,3,14,15)         -179.8171         -DE/DX =    0.0                 !
 ! D15   D(1,4,5,6)            178.8686         -DE/DX =    0.0                 !
 ! D16   D(3,4,5,6)             -1.0411         -DE/DX =    0.0                 !
 ! D17   D(3,7,9,10)           179.9778         -DE/DX =    0.0                 !
 ! D18   D(3,7,9,11)             0.0385         -DE/DX =    0.0                 !
 ! D19   D(8,7,9,10)             0.1737         -DE/DX =    0.0                 !
 ! D20   D(8,7,9,11)          -179.7657         -DE/DX =    0.0                 !
 ! D21   D(7,9,11,12)            0.0669         -DE/DX =    0.0                 !
 ! D22   D(7,9,11,16)         -179.9784         -DE/DX =    0.0                 !
 ! D23   D(10,9,11,12)        -179.8733         -DE/DX =    0.0                 !
 ! D24   D(10,9,11,16)           0.0813         -DE/DX =    0.0                 !
 ! D25   D(9,11,12,13)         179.9301         -DE/DX =    0.0                 !
 ! D26   D(9,11,12,14)          -0.0331         -DE/DX =    0.0                 !
 ! D27   D(16,11,12,13)         -0.0244         -DE/DX =    0.0                 !
 ! D28   D(16,11,12,14)       -179.9877         -DE/DX =    0.0                 !
 ! D29   D(11,12,14,3)          -0.1071         -DE/DX =    0.0                 !
 ! D30   D(11,12,14,15)        179.9176         -DE/DX =    0.0                 !
 ! D31   D(13,12,14,3)         179.9302         -DE/DX =    0.0                 !
 ! D32   D(13,12,14,15)         -0.0451         -DE/DX =    0.0                 !
 --------------------------------------------------------------------------------
 GradGradGradGradGradGradGradGradGradGradGradGradGradGradGradGradGradGrad

                          Input orientation:                          
 ---------------------------------------------------------------------
 Center     Atomic      Atomic             Coordinates (Angstroms)
 Number     Number       Type             X           Y           Z
 ---------------------------------------------------------------------
      1          8           0        8.736799    7.359924    5.541354
      2          1           0        9.543590    7.006229    5.927132
      3          6           0        6.273520    7.026542    5.186123
      4          5           0        7.660411    6.558281    5.760621
      5          8           0        7.848828    5.403086    6.463936
      6          1           0        7.059902    4.878690    6.608567
      7          6           0        5.109756    6.259396    5.302902
      8          1           0        5.128774    5.293896    5.799926
      9          6           0        3.898314    6.698313    4.788399
     10          1           0        3.001274    6.099268    4.881971
     11          6           0        3.840922    7.932997    4.139149
     12          6           0        4.989244    8.717565    4.007185
     13          1           0        4.929083    9.672432    3.500019
     14          6           0        6.190259    8.259720    4.528140
     15          1           0        7.085657    8.862061    4.428545
     16          6           0        2.590701    8.397799    3.602625
     17          7           0        1.589978    8.768726    3.173831
 ---------------------------------------------------------------------
                    Distance matrix (angstroms):
                    1          2          3          4          5
     1  O    0.000000
     2  H    0.961685   0.000000
     3  C    2.510991   3.353039   0.000000
     4  B    1.359897   1.942871   1.572509   0.000000
     5  O    2.338560   2.393834   2.598078   1.365514   0.000000
     6  H    3.179222   3.340582   2.693513   1.975007   0.958288
     7  C    3.797823   4.539417   1.398748   2.608578   3.095769
     8  H    4.165714   4.736968   2.165469   2.830089   2.802058
     9  C    4.941216   5.767207   2.430539   3.888213   4.482366
    10  H    5.909339   6.687066   3.414665   4.763431   5.146462
    11  C    5.124862   6.047827   2.799169   4.371214   5.279053
    12  C    4.270952   5.230386   2.428748   3.856446   5.019822
    13  H    4.900351   5.856039   3.413384   4.718941   5.961294
    14  C    2.884632   3.843599   1.400215   2.564225   3.828644
    15  H    2.494199   3.425100   2.145372   2.722530   4.085309
    16  C    6.527663   7.462069   4.236859   5.808850   6.693528
    17  N    7.659435   8.599245   5.387030   6.959002   7.831062
                    6          7          8          9         10
     6  H    0.000000
     7  C    2.722899   0.000000
     8  H    2.134374   1.086086   0.000000
     9  C    4.076724   1.387427   2.123583   0.000000
    10  H    4.576397   2.156043   2.453064   1.082724   0.000000
    11  C    5.078253   2.401084   3.373662   1.396161   2.149269
    12  C    5.078560   2.781366   3.867155   2.424418   3.401875
    13  H    6.097821   3.864174   4.949850   3.401146   4.288792
    14  C    4.063966   2.401883   3.397102   2.785452   3.868123
    15  H    4.540970   3.382684   4.294400   3.869168   4.951849
    16  C    6.433784   3.716094   4.572107   2.450340   2.662432
    17  N    7.539885   4.818560   5.611942   3.495977   3.469223
                   11         12         13         14         15
    11  C    0.000000
    12  C    1.396998   0.000000
    13  H    2.149003   1.082870   0.000000
    14  C    2.403632   1.386886   2.154844   0.000000
    15  H    3.387509   2.143216   2.483883   1.083730   0.000000
    16  C    1.437690   2.453350   2.665192   3.719202   4.593726
    17  N    2.587862   3.500300   3.474580   4.822429   5.637864
                   16         17
    16  C    0.000000
    17  N    1.150172   0.000000
 Symmetry turned off by external request.
 Stoichiometry    C7H6BNO2
 Framework group  C1[X(C7H6BNO2)]
 Deg. of freedom    45
 Full point group                 C1      NOp   1
 Rotational constants (GHZ):           3.6839506           0.5466137           0.4760514

 **********************************************************************

            Population analysis using the SCF Density.

 **********************************************************************

 Alpha  occ. eigenvalues --  -19.65601 -19.64778 -14.75991 -10.60488 -10.58542
 Alpha  occ. eigenvalues --  -10.58081 -10.57857 -10.57807 -10.57027 -10.55876
 Alpha  occ. eigenvalues --   -7.10353  -1.18637  -1.14960  -1.03138  -0.99388
 Alpha  occ. eigenvalues --   -0.89007  -0.87763  -0.74872  -0.72502  -0.67446
 Alpha  occ. eigenvalues --   -0.65732  -0.64043  -0.57802  -0.55553  -0.53735
 Alpha  occ. eigenvalues --   -0.52053  -0.50128  -0.49431  -0.48337  -0.47312
 Alpha  occ. eigenvalues --   -0.45015  -0.43982  -0.42570  -0.42190  -0.41021
 Alpha  occ. eigenvalues --   -0.40818  -0.33969  -0.33129
 Alpha virt. eigenvalues --   -0.04626  -0.01443  -0.00901   0.00640   0.01216
 Alpha virt. eigenvalues --    0.02309   0.03025   0.03712   0.04041   0.05555
 Alpha virt. eigenvalues --    0.06649   0.06832   0.07133   0.07424   0.08294
 Alpha virt. eigenvalues --    0.08474   0.09348   0.10772   0.10951   0.12540
 Alpha virt. eigenvalues --    0.12929   0.13567   0.14119   0.14374   0.14426
 Alpha virt. eigenvalues --    0.15356   0.15739   0.15886   0.16403   0.17648
 Alpha virt. eigenvalues --    0.18582   0.18810   0.19289   0.20705   0.21344
 Alpha virt. eigenvalues --    0.21743   0.22582   0.23098   0.23366   0.23606
 Alpha virt. eigenvalues --    0.23833   0.24311   0.24503   0.24964   0.26420
 Alpha virt. eigenvalues --    0.26808   0.26981   0.27137   0.28736   0.29133
 Alpha virt. eigenvalues --    0.29658   0.30775   0.31807   0.32313   0.32957
 Alpha virt. eigenvalues --    0.33617   0.35505   0.36780   0.37389   0.40832
 Alpha virt. eigenvalues --    0.44168   0.45490   0.46604   0.47887   0.49145
 Alpha virt. eigenvalues --    0.49921   0.50774   0.52725   0.53863   0.55926
 Alpha virt. eigenvalues --    0.56359   0.58076   0.58883   0.59633   0.62403
 Alpha virt. eigenvalues --    0.62632   0.63324   0.65914   0.66355   0.66953
 Alpha virt. eigenvalues --    0.67348   0.68037   0.69316   0.69944   0.70581
 Alpha virt. eigenvalues --    0.72334   0.74724   0.75530   0.77202   0.78526
 Alpha virt. eigenvalues --    0.81046   0.83000   0.84460   0.88152   0.88960
 Alpha virt. eigenvalues --    0.89040   0.89853   0.92067   0.93044   0.93477
 Alpha virt. eigenvalues --    0.94797   0.95325   0.99389   1.01114   1.02355
 Alpha virt. eigenvalues --    1.02856   1.03963   1.04599   1.07376   1.07928
 Alpha virt. eigenvalues --    1.08775   1.09383   1.11192   1.11784   1.12725
 Alpha virt. eigenvalues --    1.15125   1.16886   1.18269   1.19589   1.27574
 Alpha virt. eigenvalues --    1.31874   1.32024   1.33450   1.34800   1.36013
 Alpha virt. eigenvalues --    1.37321   1.44052   1.47442   1.48905   1.49136
 Alpha virt. eigenvalues --    1.50849   1.52997   1.56692   1.56844   1.59064
 Alpha virt. eigenvalues --    1.59376   1.64247   1.66431   1.68204   1.68491
 Alpha virt. eigenvalues --    1.70234   1.74516   1.76367   1.76448   1.78518
 Alpha virt. eigenvalues --    1.78724   1.80149   1.83960   1.85940   1.91637
 Alpha virt. eigenvalues --    1.93849   1.94450   1.95474   1.99155   1.99435
 Alpha virt. eigenvalues --    2.00159   2.04821   2.08336   2.10145   2.12212
 Alpha virt. eigenvalues --    2.13656   2.13726   2.14669   2.16010   2.20149
 Alpha virt. eigenvalues --    2.27549   2.35562   2.38469   2.41451   2.42149
 Alpha virt. eigenvalues --    2.46016   2.56148   2.57278   2.59688   2.62373
 Alpha virt. eigenvalues --    2.64377   2.65980   2.67149   2.68784   2.70671
 Alpha virt. eigenvalues --    2.72675   2.73869   2.76573   2.78614   2.79188
 Alpha virt. eigenvalues --    2.82693   2.82866   2.90242   2.91900   2.92852
 Alpha virt. eigenvalues --    2.94969   3.02644   3.02812   3.05330   3.09617
 Alpha virt. eigenvalues --    3.10266   3.11106   3.12617   3.22517   3.25262
 Alpha virt. eigenvalues --    3.25775   3.26269   3.30279   3.38714   3.41031
 Alpha virt. eigenvalues --    3.45501   3.51571   3.53679   3.58258   3.60479
 Alpha virt. eigenvalues --    3.64646   3.65461   3.90177   3.93074   4.02105
 Alpha virt. eigenvalues --    4.06060   4.06328   4.11530   4.12094   4.17374
 Alpha virt. eigenvalues --    4.24085   4.68494   4.83578   5.06468   5.07644
 Alpha virt. eigenvalues --    5.38357   5.48063   5.67599   5.75505  14.77903
 Alpha virt. eigenvalues --   23.65295  23.99959  24.00527  24.10529  24.16071
 Alpha virt. eigenvalues --   24.23271  24.51495  35.98254  49.99281  50.04067
          Condensed to atoms (all electrons):
               1          2          3          4          5          6
     1  O    7.736844   0.275556   0.072887   0.453087  -0.127747   0.020407
     2  H    0.275556   0.446456   0.047157  -0.006447  -0.034030   0.003225
     3  C    0.072887   0.047157   8.803765   0.241902  -0.188524   0.018960
     4  B    0.453087  -0.006447   0.241902   3.348770   0.373643   0.016279
     5  O   -0.127747  -0.034030  -0.188524   0.373643   7.958200   0.253675
     6  H    0.020407   0.003225   0.018960   0.016279   0.253675   0.431484
     7  C    0.045458  -0.012389  -1.749776   0.130682   0.040609  -0.070430
     8  H    0.002439  -0.000042   0.052182   0.013770  -0.007717   0.011898
     9  C    0.072811   0.005909   0.517469   0.073821  -0.032946   0.068231
    10  H   -0.000042  -0.000001  -0.024021  -0.000273   0.000274  -0.000048
    11  C   -0.013466  -0.001027  -1.059445   0.014607   0.014506  -0.004305
    12  C   -0.019976  -0.018115  -0.257684  -0.005166   0.064369  -0.016414
    13  H    0.000402   0.000001  -0.010744   0.000126  -0.000034   0.000003
    14  C   -0.171192  -0.012814   0.095736  -0.076595   0.023875   0.013251
    15  H    0.003511  -0.000623   0.069625  -0.008318   0.002296  -0.000099
    16  C   -0.001267   0.000059  -0.056210  -0.042237  -0.001257  -0.000138
    17  N    0.000001   0.000000   0.004497   0.000751   0.000019  -0.000001
               7          8          9         10         11         12
     1  O    0.045458   0.002439   0.072811  -0.000042  -0.013466  -0.019976
     2  H   -0.012389  -0.000042   0.005909  -0.000001  -0.001027  -0.018115
     3  C   -1.749776   0.052182   0.517469  -0.024021  -1.059445  -0.257684
     4  B    0.130682   0.013770   0.073821  -0.000273   0.014607  -0.005166
     5  O    0.040609  -0.007717  -0.032946   0.000274   0.014506   0.064369
     6  H   -0.070430   0.011898   0.068231  -0.000048  -0.004305  -0.016414
     7  C   12.808628   0.296990  -4.499865   0.057354   1.940372   0.890597
     8  H    0.296990   0.535883   0.007640  -0.006211  -0.026295  -0.007031
     9  C   -4.499865   0.007640  12.082666   0.258594  -2.072384  -1.817225
    10  H    0.057354  -0.006211   0.258594   0.479489  -0.015700  -0.008678
    11  C    1.940372  -0.026295  -2.072384  -0.015700  14.709312  -1.761092
    12  C    0.890597  -0.007031  -1.817225  -0.008678  -1.761092  11.933443
    13  H   -0.014312   0.000079  -0.003359  -0.000089  -0.037305   0.255356
    14  C   -2.662927  -0.012629   0.394655  -0.008417   1.788110  -4.439464
    15  H    0.005865  -0.000104  -0.008355   0.000053  -0.017875  -0.017598
    16  C   -1.202166   0.007210   1.346886   0.092444 -10.214534   1.611864
    17  N    0.038689  -0.000050  -0.048595  -0.002821   0.855299  -0.043090
              13         14         15         16         17
     1  O    0.000402  -0.171192   0.003511  -0.001267   0.000001
     2  H    0.000001  -0.012814  -0.000623   0.000059   0.000000
     3  C   -0.010744   0.095736   0.069625  -0.056210   0.004497
     4  B    0.000126  -0.076595  -0.008318  -0.042237   0.000751
     5  O   -0.000034   0.023875   0.002296  -0.001257   0.000019
     6  H    0.000003   0.013251  -0.000099  -0.000138  -0.000001
     7  C   -0.014312  -2.662927   0.005865  -1.202166   0.038689
     8  H    0.000079  -0.012629  -0.000104   0.007210  -0.000050
     9  C   -0.003359   0.394655  -0.008355   1.346886  -0.048595
    10  H   -0.000089  -0.008417   0.000053   0.092444  -0.002821
    11  C   -0.037305   1.788110  -0.017875 -10.214534   0.855299
    12  C    0.255356  -4.439464  -0.017598   1.611864  -0.043090
    13  H    0.477588   0.069279  -0.005369   0.091686  -0.002938
    14  C    0.069279  12.332686   0.312445  -1.541539   0.043162
    15  H   -0.005369   0.312445   0.465088   0.007843  -0.000051
    16  C    0.091686  -1.541539   0.007843  17.697462  -0.534244
    17  N   -0.002938   0.043162  -0.000051  -0.534244   6.895097
 Mulliken charges:
               1
     1  O   -0.349712
     2  H    0.307123
     3  C   -0.577775
     4  B    0.471597
     5  O   -0.339211
     6  H    0.254023
     7  C   -0.043379
     8  H    0.131987
     9  C   -0.345952
    10  H    0.178092
    11  C    1.901219
    12  C   -0.344097
    13  H    0.179628
    14  C   -0.147622
    15  H    0.191665
    16  C   -1.261862
    17  N   -0.205724
 Sum of Mulliken charges =   0.00000
 Mulliken charges with hydrogens summed into heavy atoms:
               1
     1  O   -0.042589
     3  C   -0.577775
     4  B    0.471597
     5  O   -0.085188
     7  C    0.088609
     9  C   -0.167860
    11  C    1.901219
    12  C   -0.164469
    14  C    0.044043
    16  C   -1.261862
    17  N   -0.205724
 Electronic spatial extent (au):  <R**2>=          31227.1255
 Charge=              0.0000 electrons
 Dipole moment (field-independent basis, Debye):
    X=              3.2443    Y=             -2.4146    Z=              2.1217  Tot=              4.5670
 Quadrupole moment (field-independent basis, Debye-Ang):
   XX=            -41.4841   YY=            -94.8081   ZZ=            -46.0586
   XY=             19.0909   XZ=             20.3675   YZ=              2.4276
 Traceless Quadrupole moment (field-independent basis, Debye-Ang):
   XX=             19.2995   YY=            -34.0245   ZZ=             14.7250
   XY=             19.0909   XZ=             20.3675   YZ=              2.4276
 Octapole moment (field-independent basis, Debye-Ang**2):
  XXX=           -839.6062  YYY=          -1714.0376  ZZZ=           -799.6291  XYY=           -207.6337
  XXY=           -321.5392  XXZ=           -165.9620  XZZ=           -219.6876  YZZ=           -417.3474
  YYZ=           -356.5682  XYZ=            108.6697
 Hexadecapole moment (field-independent basis, Debye-Ang**3):
 XXXX=         -10828.4402 YYYY=         -24000.1192 ZZZZ=          -8486.9946 XXXY=          -6024.6285
 XXXZ=          -4015.2776 YYYX=          -6190.9008 YYYZ=          -7327.2871 ZZZX=          -4528.0373
 ZZZY=          -6178.2981 XXYY=          -4610.5448 XXZZ=          -2823.3471 YYZZ=          -5102.1881
 XXYZ=          -1320.6437 YYXZ=          -1111.3502 ZZXY=          -1830.5739
 N-N= 5.103365704737D+02 E-N=-2.188751677255D+03  KE= 4.986680503624D+02
 Unable to Open any file for archive entry.
 1\1\GINC-CN015\FOpt\RM062X\6-311+G(d,p)\C7H6B1N1O2\TAHMINAAFROZ\05-May
 -2025\0\\# opt=(calcfc,tight) freq 6-311+g(d,p) nosymm scf=(qc,fermi,x
 qc) geom=connectivity int=ultrafine m062x\\4-CN-phboh2-opt-freq-2\\0,1
 \O,8.7367990617,7.3599237012,5.5413539007\H,9.5435902451,7.0062286773,
 5.9271322942\C,6.2735196325,7.0265416179,5.1861230109\B,7.6604110301,6
 .5582812518,5.7606207906\O,7.8488282983,5.4030864372,6.4639363801\H,7.
 059901641,4.8786895301,6.6085671513\C,5.1097559015,6.2593958612,5.3029
 02317\H,5.128773813,5.2938963089,5.7999258241\C,3.8983135798,6.6983126
 664,4.7883994826\H,3.0012737222,6.0992679748,4.8819709159\C,3.84092186
 67,7.9329973582,4.1391490274\C,4.9892436615,8.7175645256,4.007185399\H
 ,4.9290833552,9.6724318354,3.5000192392\C,6.1902589859,8.2597199612,4.
 5281398119\H,7.0856573954,8.8620605623,4.428544804\C,2.5907005232,8.39
 77993274,3.602625039\N,1.5899782867,8.768726403,3.1738306122\\Version=
 AS64L-G16RevC.01\HF=-500.463203\RMSD=8.396e-09\RMSF=8.568e-07\Dipole=1
 .2763935,-0.9499886,0.8347468\Quadrupole=14.3487171,-25.2963624,10.947
 6454,14.1936269,15.1427258,1.8048802\PG=C01 [X(C7H6B1N1O2)]\\@
 The archive entry for this job was punched.


 THEREFORE SHALL EVIL COME UPON THEE...
 THOU SHALT NOT KNOW FROM WHENCE IT RISETH...
 AND MISCHIEF SHALL FALL UPON THEE...
 THOU SHALT NOT BE ABLE TO PUT IT OFF...
 AND DESOLATION SHALL COME UPON THEE SUDDENLY...
 WHICH THOU SHALT NOT KNOW...

                                         ISAIAH 47.11
 Job cpu time:       0 days  0 hours 49 minutes 24.6 seconds.
 Elapsed time:       0 days  0 hours  1 minutes 35.9 seconds.
 File lengths (MBytes):  RWF=    129 Int=      0 D2E=      0 Chk=      8 Scr=      1
 Normal termination of Gaussian 16 at Mon May  5 07:49:18 2025.
 Link1:  Proceeding to internal job step number  2.
 ----------------------------------------------------------------------
 #N Geom=AllCheck Guess=TCheck SCRF=Check GenChk RM062X/6-311+G(d,p) Fr
 eq
 ----------------------------------------------------------------------
 1/7=10,10=4,29=7,30=1,38=1,40=1/1,3;
 2/12=2,15=1,40=1/2;
 3/5=4,6=6,7=111,11=2,14=-4,25=1,30=1,70=2,71=2,74=-55,75=-5,116=1,140=1/1,2,3;
 4/5=101/1;
 5/5=2,22=13,38=6,98=1/2;
[...]
   yy         0.741315D+02      0.109852D+02      0.122226D+02
   zx         0.124727D+02      0.184826D+01      0.205646D+01
   zy         0.814546D+01      0.120703D+01      0.134301D+01
   zz         0.148948D+03      0.220718D+02      0.245582D+02

 ----------------------------------------------------------------------
 Unable to Open any file for archive entry.
 1\1\GINC-CN015\Freq\RM062X\6-311+G(d,p)\C7H6B1N1O2\TAHMINAAFROZ\05-May
 -2025\0\\#N Geom=AllCheck Guess=TCheck SCRF=Check GenChk RM062X/6-311+
 G(d,p) Freq\\4-CN-phboh2-opt-freq-2\\0,1\O,8.7367990617,7.3599237012,5
 .5413539007\H,9.5435902451,7.0062286773,5.9271322942\C,6.2735196325,7.
 0265416179,5.1861230109\B,7.6604110301,6.5582812518,5.7606207906\O,7.8
 488282983,5.4030864372,6.4639363801\H,7.059901641,4.8786895301,6.60856
 71513\C,5.1097559015,6.2593958612,5.302902317\H,5.128773813,5.29389630
 89,5.7999258241\C,3.8983135798,6.6983126664,4.7883994826\H,3.001273722
 2,6.0992679748,4.8819709159\C,3.8409218667,7.9329973582,4.1391490274\C
 ,4.9892436615,8.7175645256,4.007185399\H,4.9290833552,9.6724318354,3.5
 000192392\C,6.1902589859,8.2597199612,4.5281398119\H,7.0856573954,8.86
 20605623,4.428544804\C,2.5907005232,8.3977993274,3.602625039\N,1.58997
 82867,8.768726403,3.1738306122\\Version=AS64L-G16RevC.01\HF=-500.46320
 3\RMSD=4.852e-09\RMSF=8.574e-07\ZeroPoint=0.1246909\Thermal=0.1343678\
 ETot=-500.3288352\HTot=-500.327891\GTot=-500.3747972\Dipole=1.2763933,
 -0.9499876,0.8347462\DipoleDeriv=-1.4315802,-0.2457972,-0.0542273,-0.3
 738538,-0.677373,-0.0020147,0.0218572,0.0236722,-0.5477929,0.3830564,0
 .0347127,-0.0128209,0.0639427,0.2890258,0.048119,-0.0343071,0.043555,0
 .3157721,-0.552036,0.1739552,-0.1897059,0.1576019,-0.1796833,0.0644616
 ,-0.1752834,0.0694613,-0.2119335,2.0639354,-0.1106768,0.3944122,0.0152
 485,1.4110781,-0.4933259,0.3264565,-0.5164755,0.9223721,-0.7146971,0.2
 215547,-0.1695654,0.2106335,-1.1575541,0.4089269,-0.1664712,0.4056846,
 -0.7997492,0.2342205,-0.0915078,0.0336704,-0.0932952,0.3895329,-0.0596
 509,0.0415224,-0.0580124,0.3668855,-0.0845282,-0.0994771,0.0630403,0.0
 222219,0.0624776,-0.0952901,-0.0132153,-0.1249799,-0.0754064,0.0706866
 ,0.0193556,-0.0227356,0.0263535,-0.0645955,0.1039818,-0.0259155,0.1016
 902,0.064709,-0.0106439,0.1227757,-0.0438391,0.0142337,-0.0825312,0.00
 00052,0.0165685,0.0292376,-0.1004429,0.0087607,-0.0460705,-0.0084553,-
 0.0449801,0.0686933,0.0287187,-0.0095622,0.0275391,0.1285191,0.0531873
 ,0.0595891,-0.0333798,0.0303995,0.1441413,-0.0341829,-0.0196563,-0.027
 739,0.0732941,-0.0961047,-0.1072698,0.0534053,0.0580209,0.0139442,-0.0
 381685,-0.0288771,-0.0779248,-0.0539493,0.0789115,0.009022,-0.0199628,
 0.0074702,0.022137,0.0638426,-0.0193279,0.0647998,0.1050763,0.0613715,
 0.1668967,-0.0468348,0.0153129,-0.0797007,-0.0145242,0.0307194,0.01979
 28,-0.1172672,0.0458507,-0.0498258,0.0060542,-0.0500013,0.063588,0.021
 702,0.0040739,0.021972,0.1174048,0.3394814,-0.1202664,0.1184647,-0.121
 3374,0.0891583,-0.021769,0.1178254,-0.0215864,0.1421955,-0.4498719,0.0
 630299,-0.0675203,0.0620286,-0.3123388,0.0191683,-0.0664071,0.0193134,
 -0.3296874\Polar=138.4893295,-11.1744793,94.9031825,25.3684437,-23.348
 0217,73.7847791\Quadrupole=14.3487092,-25.2963385,10.9476293,14.193635
 8,15.142718,1.8048821\PG=C01 [X(C7H6B1N1O2)]\NImag=0\\0.67243135,0.008
 55234,0.29242007,0.13796187,-0.14517794,0.15129033,-0.38055455,0.13740
 264,-0.16174091,0.40865730,0.16920760,-0.09906595,0.08691231,-0.148455
 09,0.09136027,-0.18006094,0.07980412,-0.10063868,0.17514452,-0.0796572
 4,0.09631476,-0.02959857,0.00056655,-0.00883265,-0.00073115,-0.0021122
 9,0.00002793,0.62012721,-0.01573490,0.00862319,-0.00335053,-0.00353544
 ,-0.00064014,0.00211224,0.06152555,0.54462791,0.00030227,0.00019608,0.
 00891127,0.00083743,0.00246812,0.00323087,0.08454499,-0.19912926,0.256
 31925,-0.25942949,-0.11368688,0.01865283,-0.03189726,-0.02109469,0.004
 16619,-0.16844063,0.03276265,-0.04161459,0.55503144,-0.14118707,-0.159
 87711,0.03138976,0.00945750,0.01029105,-0.00193004,0.03184189,-0.08308
 860,0.01697114,0.07516406,0.50731923,0.03452924,0.03757935,-0.06386415
 ,-0.01332727,-0.00870615,0.00537150,-0.04150260,0.01705881,-0.08390971
 ,0.04754123,-0.18875942,0.26570023,0.00364804,-0.03641503,0.01868796,0
 .00433604,0.00215359,0.00051340,0.00302115,0.02116247,-0.01535704,-0.0
 9069458,0.01772416,-0.02010665,0.46800226,-0.02413533,-0.04083454,0.02
 547131,0.00446035,-0.00175717,0.00002297,0.00397562,-0.00747310,0.0150
 8473,0.05127824,-0.25545043,0.13242453,0.20997288,0.48424829,0.0117843
 8,0.02281381,0.00220377,-0.00085301,-0.00052952,-0.00332738,-0.0053292
 3,0.01884567,0.00526862,-0.03952753,0.12572599,-0.12464947,-0.03201854
 ,-0.22093163,0.14922168,0.00254150,0.00191607,-0.00184740,0.00022028,0
 .00038999,-0.00000072,-0.00125183,0.00099051,-0.00016357,0.00305667,0.
 00161714,0.00024461,-0.38291892,-0.24829710,0.06826489,0.38030644,0.00
 059701,-0.00127832,0.00440578,0.00054767,-0.00046270,-0.00005976,0.000
 54952,0.00090214,-0.00215240,-0.02664607,-0.01727905,0.00304335,-0.217
 21286,-0.17779256,0.05378007,0.24240598,0.19423135,-0.00120897,0.00461
 566,0.00337384,-0.00007049,-0.00007534,-0.00077974,-0.00002843,-0.0019
 9187,-0.00166184,0.01668400,0.00841694,-0.00409161,0.05035340,0.047878
 50,-0.02648667,-0.06489327,-0.05895758,0.02851441,-0.00138584,0.000799
 03,-0.00098788,-0.00059118,-0.00029208,0.00008487,-0.26242029,-0.06942
 864,-0.01309492,-0.01735216,-0.00744259,-0.00096132,0.00016877,-0.0028
 7961,0.00196964,0.00111977,0.00022769,0.00015719,0.64572742,0.00483273
 ,-0.00065648,0.00177303,0.00067085,0.00040824,0.00000967,-0.12238067,-
 0.17370006,0.02869521,0.00101649,0.01269417,-0.00512504,-0.00027281,-0
 .00472972,0.00181670,0.00351349,0.00025193,0.00117824,0.04175553,0.614
 03037,-0.00291987,0.00087910,-0.00043805,-0.00051067,-0.00018756,0.000
 24444,0.01434051,0.04102795,-0.07899745,-0.00539716,-0.00692092,0.0047
 7891,0.00061606,0.00097848,-0.00140788,-0.00165992,0.00014320,-0.00027
 432,0.10071514,-0.23443015,0.28109436,0.00032035,0.00043025,-0.0002123
 9,-0.00006912,-0.00008102,-0.00002634,0.00619673,-0.02146342,0.0121360
 1,0.00013658,-0.00124421,0.00137871,0.00010323,0.00086844,-0.00014898,
 -0.00232105,0.00052351,-0.00152575,-0.05842841,0.00106346,-0.00531830,
 0.05973148,-0.00014919,0.00064055,-0.00030371,-0.00016009,-0.00002905,
 0.00008822,0.00144706,-0.01107554,0.00681555,0.00140168,-0.00312703,0.
 00053463,0.00106346,0.00168701,-0.00097598,-0.00109255,0.00107161,-0.0
 0016762,0.00489271,-0.27265262,0.12085714,-0.00356810,0.28712302,0.000
 19084,-0.00012015,0.00027113,0.00002015,0.00011630,0.00015263,0.000564
 52,0.00141665,0.00094594,0.00001364,-0.00017669,-0.00288239,-0.0004139
 9,-0.00100448,-0.00022087,-0.00058403,0.00038103,0.00106298,-0.0074442
 7,0.11957135,-0.10103627,0.01031143,-0.13469929,0.09623474,-0.00197374
 ,0.00066397,-0.00066567,-0.00013804,-0.00011375,0.00013040,-0.05512974
 ,-0.03594325,0.00320286,-0.00126095,-0.00658508,0.00161136,0.00112748,
 0.00086872,-0.00027002,-0.00046106,0.00040792,-0.00013282,-0.29425467,
 0.08670828,-0.10006394,0.00294456,-0.00206369,0.00071381,0.72018311,0.
 00015136,0.00064431,-0.00056828,-0.00038746,-0.00014079,-0.00017606,0.
 01241589,0.05562115,-0.02101205,-0.00308716,0.00018129,0.00248988,0.00
 006537,0.00083990,-0.00033241,-0.00083992,-0.00019176,-0.00064634,0.01
 902231,-0.13781101,0.04330087,0.02598048,-0.00633005,0.01177368,0.0885
 6416,0.58384431,-0.00058912,-0.00039318,-0.00029521,0.00025417,-0.0001
 9914,-0.00030046,-0.02175706,-0.03218503,0.02104484,-0.00016864,0.0015
 7632,0.00543810,0.00015333,-0.00017433,0.00020444,0.00060466,-0.000257
 20,-0.00042799,-0.06521888,0.05936245,-0.10902589,-0.01366088,0.004984
 61,-0.00149944,0.09430684,-0.20957574,0.26563572,-0.00059362,0.0000489
 9,-0.00012821,-0.00004386,-0.00003843,0.00002207,-0.00306104,0.0020900
 9,-0.00362780,0.00023631,-0.00103010,0.00056776,-0.00010969,0.00032632
 ,-0.00021114,-0.00005214,-0.00009410,0.00003712,-0.01529921,-0.0163166
 7,0.00375554,0.00053131,0.00059261,0.00083974,-0.25685290,-0.13599722,
 0.01766346,0.26759152,0.00020831,-0.00005796,0.00001369,0.00004193,0.0
 0000970,-0.00001353,0.00193383,0.00145115,0.00357648,0.00018546,0.0004
 5225,-0.00013904,-0.00002799,-0.00009135,0.00006024,0.00004104,0.00002
 766,0.00000188,0.01021950,0.01014797,-0.00071415,0.00012090,-0.0003017
 7,-0.00198684,-0.13423078,-0.14421217,0.02223489,0.14446690,0.14718155
 ,-0.00022083,-0.00001839,-0.00015976,-0.00003008,-0.00002853,-0.000018
 20,-0.00347828,0.00364873,0.00478043,-0.00004882,-0.00043288,0.0002953
 5,-0.00003202,0.00016312,-0.00004518,-0.00003212,-0.00004224,0.0000092
 0,-0.00993973,-0.00707147,0.00530066,0.00106774,-0.00184946,-0.0030158
 0,0.01675414,0.02172457,-0.04559460,-0.01648943,-0.02761007,0.03641985
 ,-0.00166327,-0.00005656,-0.00028194,0.00020617,-0.00000035,0.00000640
 ,-0.01638335,-0.02686610,0.01178276,0.00215207,-0.00229719,0.00180503,
 -0.00021296,0.00054431,-0.00026749,0.00015104,-0.00014425,0.00007388,0
 .02989061,0.02810205,-0.00899087,-0.00397336,0.00136825,-0.00350384,-0
 .11993797,0.02330384,-0.02538955,0.00489710,-0.02344540,0.01238471,0.6
 6031733,-0.00077073,0.00021185,-0.00026163,0.00004494,-0.00009232,0.00
 002455,-0.02868477,-0.05478547,0.01782990,-0.00147694,-0.00283552,0.00
 086958,0.00085380,-0.00030360,0.00012582,0.00001265,0.00043659,-0.0000
 0767,0.08140617,-0.00648756,0.02605859,0.00101307,0.00276322,0.0027250
 1,-0.03743957,-0.27260049,0.09832959,0.00382918,-0.01044652,0.00821155
 ,0.04334899,0.56720515,0.00002114,-0.00014968,0.00000999,0.00002195,0.
 00004841,-0.00000768,0.01255692,0.01807009,-0.01368941,0.00132053,0.00
 070763,-0.00045298,-0.00034965,0.00004375,-0.00049138,-0.00009382,-0.0
 0003265,0.00036760,-0.03637240,0.01345967,-0.00888132,-0.00326667,0.00
 275491,0.00535203,0.00599095,0.11304139,-0.12064762,-0.00166278,0.0016
 0812,0.00234755,0.10020177,-0.20760581,0.27437858,0.00130609,-0.000016
 77,0.00024835,-0.00002254,0.00020289,-0.00004599,0.03282771,0.07537416
 ,-0.03373063,0.00173693,0.00158721,-0.00186291,-0.00037312,0.00041020,
 0.00004219,-0.00005569,-0.00026457,0.00006879,-0.07889958,-0.00750040,
 -0.01333066,-0.00126918,-0.00021368,0.00002865,0.04480969,-0.06880805,
 0.04416340,0.00167140,0.00115910,-0.00185244,-0.24724561,-0.07073538,-
 0.00716908,0.65020537,-0.00022489,0.00094299,-0.00059804,0.00014259,0.
 00009627,-0.00004429,0.02906607,-0.00374770,0.01405847,-0.00232994,-0.
 00363107,0.00465392,0.00183856,-0.00046799,0.00014570,-0.00013243,0.00
 029243,-0.00020529,-0.01005423,-0.00338935,-0.00393505,-0.00016126,0.0
 0025815,-0.00069644,-0.01909935,-0.03106399,0.01589495,0.00047233,-0.0
 0263584,0.00493624,-0.13158403,-0.18377179,0.03033305,0.03455515,0.631
 64299,0.00032662,-0.00056371,0.00026851,-0.00006221,-0.00003852,-0.000
 03698,-0.00965712,0.02535473,-0.00504944,0.00019716,0.00548181,0.00353
 553,-0.00073367,-0.00036250,-0.00124330,0.00007375,-0.00015334,0.00018
 838,-0.01200759,-0.00335154,-0.00757480,0.00001369,-0.00070713,-0.0006
 6318,0.01843037,0.00404076,0.01089433,-0.00147083,0.00509769,0.0037634
 9,0.02422193,0.04492557,-0.08139481,0.10389490,-0.24639026,0.29009335,
 -0.00027598,-0.00020961,0.00004547,0.00001028,0.00001441,-0.00001521,-
 0.00432367,0.00105169,-0.00335501,0.00093909,0.00091618,-0.00023520,-0
 .00052044,0.00032602,-0.00028955,-0.00003279,-0.00009927,0.00005226,-0
 .00123900,-0.00019864,-0.00000365,0.00007041,0.00015250,0.00022321,-0.
 00401278,-0.00310615,-0.00095294,0.00026535,-0.00120949,0.00059028,0.0
 0438138,-0.02377010,0.01243200,-0.05899756,0.01296559,-0.01117980,0.05
 794328,0.00017752,0.00006686,0.00001108,-0.00001408,0.00000491,0.00001
 547,0.00097356,0.00234987,0.00295251,-0.00050007,-0.00018280,-0.000058
 40,0.00018533,-0.00016271,0.00006905,0.00000441,0.00004395,-0.00002012
 ,0.00010464,0.00047274,-0.00064204,0.00013452,-0.00029292,-0.00044010,
 -0.00371733,0.00134824,0.00192711,0.00018215,-0.00044027,0.00046837,0.
 00346041,-0.01013756,0.00792948,0.01102309,-0.28057256,0.12712688,-0.0
 1126681,0.29155573,-0.00014346,-0.00007514,0.00002380,-0.00000014,0.00
 002157,0.00003025,-0.00334251,0.00290912,0.00531564,0.00048504,0.00027
 592,-0.00010291,-0.00018365,0.00008721,-0.00022805,-0.00000484,-0.0000
 3405,0.00003486,-0.00014196,-0.00069694,-0.00048563,0.00023486,-0.0004
 2803,-0.00093083,-0.00063782,0.00206494,0.00555776,-0.00012351,0.00013
 972,0.00028173,-0.00161979,0.00145937,0.00252106,-0.01013389,0.1276117
 3,-0.10770435,0.01311467,-0.13948544,0.10169569,-0.00344117,-0.0007209
 3,-0.00023855,0.00064938,0.00018876,0.00003836,-0.12577411,-0.02289153
 ,-0.00230749,0.00554829,0.02035960,-0.01004925,-0.00557763,0.00272600,
 -0.00324359,-0.00035916,-0.00079701,0.00039703,0.04610867,-0.02213189,
 0.02111535,-0.00404381,-0.00394849,-0.00077772,-0.02513347,0.03172902,
 -0.02083928,0.00012050,0.00079124,-0.00012064,-0.05840021,-0.03689454,
 0.00360438,-0.29330484,0.08918090,-0.10014797,0.00429041,-0.00184059,0
 .00081200,0.71514058,-0.00190700,-0.00254991,0.00068431,-0.00047777,-0
 .00033195,0.00000523,0.03177258,-0.26612535,0.11187871,0.00896971,-0.0
 0249460,0.00495709,-0.00149128,0.00131177,-0.00052626,-0.00025890,-0.0
 0030943,0.00013619,-0.06768680,-0.03256878,0.00323339,-0.00359793,0.00
 129302,0.00247095,0.03048935,-0.04076205,0.02498276,0.00100656,-0.0005
 3831,0.00000172,0.01476202,0.05651412,-0.02215644,0.02195423,-0.143760
 35,0.04541537,0.02460194,-0.00315825,0.00985595,0.08234158,0.57605324,
 0.00041407,0.00090973,-0.00089283,0.00041413,0.00009847,-0.00014395,-0
 .03076025,0.09883278,-0.12270377,-0.00430311,0.00782534,-0.00184636,-0
 .00073942,0.00048626,0.00051926,-0.00005715,0.00000943,0.00013500,0.04
 472324,0.01403566,0.00826115,-0.00095595,0.00236196,0.00634578,-0.0202
 1503,0.02527095,-0.02430726,-0.00026345,-0.00001755,-0.00095931,-0.023
 07616,-0.03452583,0.01892663,-0.06533581,0.06147431,-0.11319499,-0.012
 76864,0.00355865,-0.00032644,0.09287685,-0.20353869,0.27187466,-0.0014
 4335,0.00063384,-0.00062124,-0.00003866,0.00000900,0.00002364,0.005543
 89,0.00155239,-0.00009275,0.00070203,0.00106605,0.00025734,-0.00007594
 ,-0.00042674,0.00012055,0.00003308,-0.00002507,0.00003610,0.00167362,0
 .00071579,-0.00175084,0.00028864,0.00025139,-0.00007795,0.00010360,0.0
 0091563,-0.00019138,-0.00008231,0.00005306,0.00022075,-0.00240733,0.00
 167249,-0.00328320,-0.01605411,-0.01571476,0.00321422,0.00057298,0.000
 60054,0.00085515,-0.25396594,-0.13412956,0.01888509,0.26609263,0.00037
 267,0.00061686,-0.00035825,0.00025085,0.00034911,-0.00020532,-0.022344
 75,-0.01127911,0.00180752,-0.00209708,-0.00241253,-0.00061693,0.000374
 18,0.00069755,-0.00005268,-0.00013182,0.00005114,-0.00009822,0.0005389
 7,-0.00271488,0.00543376,-0.00119649,-0.00065317,0.00010214,0.00081050
 ,-0.00066244,-0.00003540,0.00003265,-0.00017348,-0.00048636,0.00202400
 ,0.00171817,0.00365167,0.01072592,0.00996116,-0.00022632,0.00004761,-0
 .00043355,-0.00200616,-0.13337288,-0.14392050,0.02136211,0.14336460,0.
 14854249,-0.00041531,-0.00028034,-0.00014422,-0.00009204,-0.00025500,-
 0.00009547,0.01216570,0.00745246,0.00149857,0.00192979,0.00008305,-0.0
 0241563,-0.00034185,-0.00013522,0.00049262,0.00007649,-0.00006842,0.00
 001559,-0.00167259,0.00545716,0.00431862,0.00067025,0.00045311,0.00003
 677,-0.00015858,0.00000514,-0.00112624,0.00023559,-0.00047659,-0.00082
 461,-0.00347531,0.00353672,0.00518786,-0.01043849,-0.00649461,0.005513
 81,0.00113707,-0.00187683,-0.00309679,0.01856840,0.02114470,-0.0480918
 0,-0.01762585,-0.02830068,0.03865274,0.00102154,0.00023199,0.00008234,
 -0.00010784,0.00001094,-0.00002508,-0.00059649,-0.00106865,0.00081728,
 -0.00226346,0.00058861,-0.00055841,0.00060928,-0.00060686,0.00043116,-
 0.00006642,0.00025303,-0.00016530,0.00692751,-0.00061129,0.00004728,0.
 00021403,-0.00016442,0.00006618,-0.00835739,0.01724960,-0.01142293,0.0
 0085302,-0.00081799,0.00161367,-0.24473307,0.05662821,-0.07236375,-0.0
 4273091,0.00773576,-0.01465420,0.00111755,0.00080493,0.00082024,-0.000
 92188,-0.00722112,0.00150733,-0.00080976,0.00052065,-0.00052024,1.2754
 2725,-0.00036765,0.00009678,-0.00009874,0.00005981,0.00001535,0.000009
 84,-0.00084710,-0.00214390,-0.00000039,0.00081064,-0.00083481,0.000007
 95,-0.00015432,0.00048179,-0.00019502,-0.00012023,-0.00005431,-0.00000
 340,-0.00163479,-0.00372148,0.00572721,0.00128744,-0.00032749,0.000643
 21,0.03338758,-0.01062550,0.01460090,0.00065398,-0.00052990,-0.0017177
 4,0.05647425,-0.10440318,0.03516090,-0.00827944,0.01357329,-0.00786214
 ,-0.00063645,-0.00070908,-0.00190380,-0.00634326,0.00137482,0.00218570
 ,-0.00077464,0.00052965,-0.00034600,-0.42458146,0.27589235,0.00044845,
 0.00003532,0.00012061,-0.00006146,0.00000918,0.00000962,0.00070385,-0.
 00006318,-0.00152065,-0.00066578,-0.00005232,-0.00133539,0.00017646,-0
 .00028384,0.00035839,0.00003191,0.00009846,-0.00001388,0.00050869,0.00
 599552,0.00522518,-0.00068444,0.00028339,-0.00001054,-0.01973891,0.010
 72929,-0.00791458,0.00086712,-0.00205024,-0.00289350,-0.07225092,0.035
 17063,-0.09720420,-0.00640894,-0.00402645,0.00275682,0.00157332,-0.001
 56809,-0.00293364,0.00103889,0.00196394,0.00772773,0.00015210,-0.00003
 312,0.00027127,0.50005591,-0.19656436,0.30984574,-0.00090930,-0.000139
 90,-0.00012199,0.00011475,0.00001053,0.00001649,-0.00000581,0.00042240
 ,-0.00027980,0.00179912,-0.00053615,0.00066833,-0.00053295,0.00058854,
 -0.00045372,0.00009029,-0.00022913,0.00016527,-0.00174604,0.00103372,-
 0.00064400,-0.00043239,0.00019054,-0.00017037,-0.00165574,-0.00717170,
 0.00304479,-0.00007173,0.00051038,-0.00038688,-0.00703857,0.01096254,-
 0.01158830,0.00639596,0.00334393,-0.00045924,-0.00018852,-0.00031223,0
 .00000960,-0.00093561,0.00087238,-0.00034574,-0.00013308,0.00008043,-0
 .00004304,-0.98558294,0.35106565,-0.40574625,0.99083256,0.00037723,0.0
 0005682,0.00005587,-0.00004920,-0.00001481,-0.00000606,0.00030146,0.00
 048357,-0.00004033,-0.00067010,0.00027558,-0.00021410,0.00018050,-0.00
 020314,0.00016046,-0.00001834,0.00005933,-0.00005395,0.00045218,0.0004
 2649,-0.00080981,-0.00010967,-0.00004693,-0.00007634,-0.00270768,0.001
 92107,-0.00107359,-0.00022525,0.00015728,0.00010284,0.01100577,0.01701
 492,0.00313550,-0.00117366,-0.00372665,0.00221266,0.00042057,0.0002474
 1,0.00020404,0.00162403,-0.00002747,-0.00032928,0.00023601,-0.00021647
 ,0.00010134,0.35104806,-0.16861437,0.15035586,-0.36069191,0.15220738,-
 0.00042039,-0.00005463,-0.00004036,0.00005592,0.00000263,-0.00000554,-
 0.00021629,-0.00000933,0.00021684,0.00073522,-0.00018161,0.00043100,-0
 .00022414,0.00025113,-0.00016860,0.00004053,-0.00010366,0.00003420,-0.
 00031720,-0.00067954,-0.00110171,-0.00001300,-0.00000230,-0.00014269,0
 .00074205,-0.00213059,0.00236410,-0.00001125,0.00027530,0.00031270,-0.
 01162061,0.00313405,0.01367811,0.00186256,0.00328208,-0.00015237,-0.00
 036829,0.00003242,0.00034786,-0.00072678,-0.00050891,-0.00132350,-0.00
 012172,0.00006222,-0.00019308,-0.40573148,0.15035586,-0.21248901,0.416
 33485,-0.15372512,0.19823204\\-0.00000004,-0.00000143,0.00000043,-0.00
 000028,-0.00000172,0.00000071,-0.00000017,-0.00000025,0.00000020,-0.00
 000051,-0.00000081,0.00000063,-0.00000127,-0.00000055,0.00000111,-0.00
 000154,-0.00000005,0.00000123,-0.00000061,0.00000046,0.00000033,-0.000
 00120,0.00000066,0.00000075,-0.00000024,0.00000084,0.,-0.00000062,0.00
 000143,0.00000008,0.00000041,0.00000061,-0.00000057,0.00000092,0.,-0.0
 0000075,0.00000155,-0.00000022,-0.00000115,0.00000065,-0.00000053,-0.0
 0000031,0.00000095,-0.00000102,-0.00000046,0.00000084,0.00000110,-0.00
 000096,0.00000116,0.00000147,-0.00000127\\\@
 The archive entry for this job was punched.


 ABSOLUTISM, OBSOLETISM -- IF IT WORKS, IT'S OUT OF DATE

                          -- STAFFORD BEER
 Job cpu time:       0 days  0 hours 43 minutes 49.2 seconds.
 Elapsed time:       0 days  0 hours  1 minutes 24.2 seconds.
 File lengths (MBytes):  RWF=    130 Int=      0 D2E=      0 Chk=      8 Scr=      1
 Normal termination of Gaussian 16 at Mon May  5 07:50:43 2025.
