/home/tahminaafroz
cn017.cluster.local
Mon May  5 08:13:15 CDT 2025
 Entering Gaussian System, Link 0=g16
 Initial command:
 /home/apps/g16/l1.exe "/tmp/4-f-ph-opt-freq-thf/Gau-3490111.inp" -scrdir="/tmp/4-f-ph-opt-freq-thf/"
 Entering Link 1 = /home/apps/g16/l1.exe PID=   3490112.
  
 Copyright (c) 1988-2019, Gaussian, Inc.  All Rights Reserved.
  
 This is part of the Gaussian(R) 16 program.  It is based on
 the Gaussian(R) 09 system (copyright 2009, Gaussian, Inc.),
 the Gaussian(R) 03 system (copyright 2003, Gaussian, Inc.),
 the Gaussian(R) 98 system (copyright 1998, Gaussian, Inc.),
 the Gaussian(R) 94 system (copyright 1995, Gaussian, Inc.),
 the Gaussian 92(TM) system (copyright 1992, Gaussian, Inc.),
 the Gaussian 90(TM) system (copyright 1990, Gaussian, Inc.),
 the Gaussian 88(TM) system (copyright 1988, Gaussian, Inc.),
 the Gaussian 86(TM) system (copyright 1986, Carnegie Mellon
 University), and the Gaussian 82(TM) system (copyright 1983,
 Carnegie Mellon University). Gaussian is a federally registered
 trademark of Gaussian, Inc.
  
 This software contains proprietary and confidential information,
 including trade secrets, belonging to Gaussian, Inc.
  
 This software is provided under written license and may be
 used, copied, transmitted, or stored only in accord with that
 written license.
  
 The following legend is applicable only to US Government
 contracts under FAR:
  
                    RESTRICTED RIGHTS LEGEND
  
 Use, reproduction and disclosure by the US Government is
 subject to restrictions as set forth in subparagraphs (a)
 and (c) of the Commercial Computer Software - Restricted
 Rights clause in FAR 52.227-19.
  
 Gaussian, Inc.
 340 Quinnipiac St., Bldg. 40, Wallingford CT 06492
  
  
 ---------------------------------------------------------------
 Warning -- This program may not be used in any manner that
 competes with the business of Gaussian, Inc. or will provide
 assistance to any competitor of Gaussian, Inc.  The licensee
 of this program is prohibited from giving any competitor of
 Gaussian, Inc. access to this program.  By using this program,
 the user acknowledges that Gaussian, Inc. is engaged in the
 business of creating and licensing software in the field of
 computational chemistry and represents and warrants to the
 licensee that it is not a competitor of Gaussian, Inc. and that
 it will not use this program in any manner prohibited above.
 ---------------------------------------------------------------
  

 Cite this work as:
 Gaussian 16, Revision C.01,
 M. J. Frisch, G. W. Trucks, H. B. Schlegel, G. E. Scuseria, 
 M. A. Robb, J. R. Cheeseman, G. Scalmani, V. Barone, 
 G. A. Petersson, H. Nakatsuji, X. Li, M. Caricato, A. V. Marenich, 
 J. Bloino, B. G. Janesko, R. Gomperts, B. Mennucci, H. P. Hratchian, 
 J. V. Ortiz, A. F. Izmaylov, J. L. Sonnenberg, D. Williams-Young, 
 F. Ding, F. Lipparini, F. Egidi, J. Goings, B. Peng, A. Petrone, 
 T. Henderson, D. Ranasinghe, V. G. Zakrzewski, J. Gao, N. Rega, 
 G. Zheng, W. Liang, M. Hada, M. Ehara, K. Toyota, R. Fukuda, 
 J. Hasegawa, M. Ishida, T. Nakajima, Y. Honda, O. Kitao, H. Nakai, 
 T. Vreven, K. Throssell, J. A. Montgomery, Jr., J. E. Peralta, 
 F. Ogliaro, M. J. Bearpark, J. J. Heyd, E. N. Brothers, K. N. Kudin, 
 V. N. Staroverov, T. A. Keith, R. Kobayashi, J. Normand, 
 K. Raghavachari, A. P. Rendell, J. C. Burant, S. S. Iyengar, 
 J. Tomasi, M. Cossi, J. M. Millam, M. Klene, C. Adamo, R. Cammi, 
 J. W. Ochterski, R. L. Martin, K. Morokuma, O. Farkas, 
 J. B. Foresman, and D. J. Fox, Gaussian, Inc., Wallingford CT, 2019.
 
 ******************************************
 Gaussian 16:  AS64L-G16RevC.01  3-Jul-2019
                 5-May-2025 
 ******************************************
 %mem=20GB
 %nprocshared=32
 Will use up to   32 processors via shared memory.
 %chk=4-f-ph-opt-freq-thf.chk
 ----------------------------------------------------------------------
 # opt=(calcfc,tight) freq 6-311+g(d,p) scrf=(smd,solvent=thf) nosymm s
 cf=(qc,fermi,xqc) geom=connectivity int=ultrafine m062x
 ----------------------------------------------------------------------
 1/7=10,10=4,18=20,19=15,26=6,38=1,57=2/1,3;
 2/9=110,12=2,15=1,17=6,18=5,40=1/2;
 3/5=4,6=6,7=111,11=2,25=1,30=1,70=32201,71=2,72=20,74=-55,75=-5,140=1/1,2,3;
 4//1;
 5/5=2,22=13,38=5,53=20/2;
 8/6=4,10=90,11=11/1;
 11/6=1,8=1,9=11,15=111,16=1,31=1/1,2,10;
 10/6=1,13=1,31=1/2;
 6/7=2,8=2,9=2,10=2,28=1/1;
 7/10=1,25=1,30=1/1,2,3,16;
 1/7=10,10=4,18=20,19=15,26=6/3(2);
 2/9=110,15=1/2;
 99//99;
 2/9=110,15=1/2;
 3/5=4,6=6,7=111,11=2,25=1,30=1,70=32205,71=1,72=20,74=-55,75=-5/1,2,3;
 4/5=5,16=3,69=1/1;
 5/5=2,22=13,38=5,53=20/2;
 7/30=1/1,2,3,16;
 1/7=10,18=20,19=15,26=6/3(-5);
 2/9=110,15=1/2;
 6/7=2,8=2,9=2,10=2,19=2,28=1/1;
 99/9=1/99;
 -------------------
 4-f-ph-opt-freq-thf
 -------------------
 Symbolic Z-matrix:
 Charge =  0 Multiplicity = 2
 C                     6.24324   6.99753   5.1758 
 C                     5.11697   6.17467   5.30044 
 H                     5.17461   5.22583   5.82597 
 C                     3.88775   6.5354    4.75955 
 H                     3.01137   5.90536   4.85028 
 C                     3.80448   7.74094   4.08715 
 C                     4.88367   8.59237   3.93284 
 H                     4.76281   9.52569   3.39627 
 C                     6.10048   8.20741   4.48253 
 H                     6.95908   8.8602    4.37221 
 F                     2.6166    8.10195   3.55788 
 

 GradGradGradGradGradGradGradGradGradGradGradGradGradGradGradGradGradGrad
 Berny optimization.
 Initialization pass.
                           ----------------------------
                           !    Initial Parameters    !
                           ! (Angstroms and Degrees)  !
 --------------------------                            --------------------------
 ! Name  Definition              Value          Derivative Info.                !
 --------------------------------------------------------------------------------
 ! R1    R(1,2)                  1.4004         calculate D2E/DX2 analytically  !
 ! R2    R(1,9)                  1.4017         calculate D2E/DX2 analytically  !
 ! R3    R(2,3)                  1.0862         calculate D2E/DX2 analytically  !
 ! R4    R(2,4)                  1.3906         calculate D2E/DX2 analytically  !
 ! R5    R(4,5)                  1.0832         calculate D2E/DX2 analytically  !
 ! R6    R(4,6)                  1.3829         calculate D2E/DX2 analytically  !
 ! R7    R(6,7)                  1.3833         calculate D2E/DX2 analytically  !
 ! R8    R(6,11)                 1.3496         calculate D2E/DX2 analytically  !
 ! R9    R(7,8)                  1.0833         calculate D2E/DX2 analytically  !
 ! R10   R(7,9)                  1.3896         calculate D2E/DX2 analytically  !
 ! R11   R(9,10)                 1.0842         calculate D2E/DX2 analytically  !
 ! A1    A(2,1,9)              117.9875         calculate D2E/DX2 analytically  !
 ! A2    A(1,2,3)              120.9083         calculate D2E/DX2 analytically  !
 ! A3    A(1,2,4)              121.5937         calculate D2E/DX2 analytically  !
 ! A4    A(3,2,4)              117.498          calculate D2E/DX2 analytically  !
 ! A5    A(2,4,5)              122.1243         calculate D2E/DX2 analytically  !
 ! A6    A(2,4,6)              117.937          calculate D2E/DX2 analytically  !
 ! A7    A(5,4,6)              119.9387         calculate D2E/DX2 analytically  !
 ! A8    A(4,6,7)              122.9462         calculate D2E/DX2 analytically  !
 ! A9    A(4,6,11)             118.4807         calculate D2E/DX2 analytically  !
 ! A10   A(7,6,11)             118.5731         calculate D2E/DX2 analytically  !
 ! A11   A(6,7,8)              119.9014         calculate D2E/DX2 analytically  !
 ! A12   A(6,7,9)              117.9383         calculate D2E/DX2 analytically  !
 ! A13   A(8,7,9)              122.1602         calculate D2E/DX2 analytically  !
 ! A14   A(1,9,7)              121.5972         calculate D2E/DX2 analytically  !
 ! A15   A(1,9,10)             119.2987         calculate D2E/DX2 analytically  !
 ! A16   A(7,9,10)             119.1041         calculate D2E/DX2 analytically  !
 ! D1    D(9,1,2,3)            179.855          calculate D2E/DX2 analytically  !
 ! D2    D(9,1,2,4)             -0.0928         calculate D2E/DX2 analytically  !
 ! D3    D(2,1,9,7)              0.1238         calculate D2E/DX2 analytically  !
 ! D4    D(2,1,9,10)          -179.9202         calculate D2E/DX2 analytically  !
 ! D5    D(1,2,4,5)            179.9597         calculate D2E/DX2 analytically  !
 ! D6    D(1,2,4,6)              0.0243         calculate D2E/DX2 analytically  !
 ! D7    D(3,2,4,5)              0.0103         calculate D2E/DX2 analytically  !
 ! D8    D(3,2,4,6)           -179.9252         calculate D2E/DX2 analytically  !
 ! D9    D(2,4,6,7)              0.0177         calculate D2E/DX2 analytically  !
 ! D10   D(2,4,6,11)          -179.9956         calculate D2E/DX2 analytically  !
 ! D11   D(5,4,6,7)           -179.9193         calculate D2E/DX2 analytically  !
 ! D12   D(5,4,6,11)             0.0674         calculate D2E/DX2 analytically  !
 ! D13   D(4,6,7,8)            179.9938         calculate D2E/DX2 analytically  !
 ! D14   D(4,6,7,9)              0.0119         calculate D2E/DX2 analytically  !
 ! D15   D(11,6,7,8)             0.0071         calculate D2E/DX2 analytically  !
 ! D16   D(11,6,7,9)          -179.9748         calculate D2E/DX2 analytically  !
 ! D17   D(6,7,9,1)             -0.0845         calculate D2E/DX2 analytically  !
 ! D18   D(6,7,9,10)           179.9593         calculate D2E/DX2 analytically  !
 ! D19   D(8,7,9,1)            179.934          calculate D2E/DX2 analytically  !
 ! D20   D(8,7,9,10)            -0.0222         calculate D2E/DX2 analytically  !
 --------------------------------------------------------------------------------
 Trust Radius=3.00D-01 FncErr=5.00D-06 GrdErr=5.00D-06 EigMax=2.50D+02 EigMin=1.00D-04
 Number of steps in this run=     57 maximum allowed number of steps=    100.
 GradGradGradGradGradGradGradGradGradGradGradGradGradGradGradGradGradGrad

                          Input orientation:                          
 ---------------------------------------------------------------------
 Center     Atomic      Atomic             Coordinates (Angstroms)
 Number     Number       Type             X           Y           Z
 ---------------------------------------------------------------------
      1          6           0        6.243243    6.997528    5.175798
      2          6           0        5.116966    6.174673    5.300442
      3          1           0        5.174614    5.225830    5.825967
      4          6           0        3.887750    6.535396    4.759553
      5          1           0        3.011366    5.905362    4.850275
      6          6           0        3.804476    7.740938    4.087153
      7          6           0        4.883672    8.592372    3.932836
      8          1           0        4.762813    9.525685    3.396270
      9          6           0        6.100481    8.207415    4.482534
     10          1           0        6.959075    8.860201    4.372213
     11          9           0        2.616596    8.101947    3.557875
 ---------------------------------------------------------------------
                    Distance matrix (angstroms):
                    1          2          3          4          5
     1  C    0.000000
     2  C    1.400402   0.000000
     3  H    2.168779   1.086187   0.000000
     4  C    2.436221   1.390559   2.123257   0.000000
     5  H    3.426926   2.169961   2.468477   1.083154   0.000000
     6  C    2.772254   2.376528   3.350600   1.382891   2.140261
     7  C    2.436579   2.787479   3.873267   2.430323   3.401066
     8  H    3.427823   3.870475   4.955982   3.400898   4.276498
     9  C    1.401721   2.401732   3.398807   2.787215   3.870053
    10  H    2.151212   3.386301   4.301901   3.871406   4.954192
    11  F    4.121891   3.605936   4.467633   2.348179   2.578978
                    6          7          8          9         10
     6  C    0.000000
     7  C    1.383263   0.000000
     8  H    2.140339   1.083320   0.000000
     9  C    2.376040   1.389598   2.169599   0.000000
    10  H    3.359390   2.138243   2.493772   1.084197   0.000000
    11  F    1.349638   2.349627   2.580580   3.606047   4.482769
                   11
    11  F    0.000000
 Symmetry turned off by external request.
 Stoichiometry    C6H4F(2)
 Framework group  C1[X(C6H4F)]
 Deg. of freedom    27
 Full point group                 C1      NOp   1
 Rotational constants (GHZ):           5.7047031           2.6959738           1.8307729
 Standard basis: 6-311+G(d,p) (5D, 7F)
   178 basis functions,   284 primitive gaussians,   185 cartesian basis functions
    25 alpha electrons       24 beta electrons
       nuclear repulsion energy       259.4200911768 Hartrees.
 NAtoms=   11 NActive=   11 NUniq=   11 SFac= 1.00D+00 NAtFMM=   60 NAOKFM=F Big=F
 Integral buffers will be    131072 words long.
 Raffenetti 2 integral format.
 Two-electron integral symmetry is turned off.
 Force inversion solution in PCM.
 ------------------------------------------------------------------------------
 Polarizable Continuum Model (PCM)
 =================================
 Model                : PCM.
 Atomic radii         : SMD-Coulomb.
 Polarization charges : Total charges.
 Charge compensation  : None.
 Solution method      : Matrix inversion.
 Cavity type          : VdW (van der Waals Surface) (Alpha=1.000).
 Cavity algorithm     : GePol (No added spheres)
                        Default sphere list used, NSphG=   11.
                        Lebedev-Laikov grids with approx.  5.0 points / Ang**2.
                        Smoothing algorithm: York/Karplus (Gamma=1.0000).
                        Polarization charges: spherical gaussians, with
                                              point-specific exponents (IZeta= 3).
                        Self-potential: point-specific (ISelfS= 7).
                        Self-field    : sphere-specific E.n sum rule (ISelfD= 2).
 1st derivatives      : Analytical E(r).r(x)/FMM algorithm (CHGder, D1EAlg=3).
                        Cavity 1st derivative terms included.
 2nd derivatives      : Analytical E(r).r(xy)/FMM algorithm (CHGder, D2EAlg=3).
                        Cavity 2nd derivative terms included.
 Solvent              : TetraHydroFuran, Eps=   7.425700 Eps(inf)=   1.974025
 ------------------------------------------------------------------------------
 Spheres list:
 ISph  on   Nord     Re0    Alpha      Xe            Ye            Ze
    1   C      1    1.8500  1.000      6.243243      6.997528      5.175798
    2   C      2    1.8500  1.000      5.116966      6.174673      5.300442
    3   H      3    1.2000  1.000      5.174614      5.225830      5.825967
    4   C      4    1.8500  1.000      3.887750      6.535396      4.759553
    5   H      5    1.2000  1.000      3.011366      5.905362      4.850275
    6   C      6    1.8500  1.000      3.804476      7.740938      4.087153
    7   C      7    1.8500  1.000      4.883672      8.592372      3.932836
    8   H      8    1.2000  1.000      4.762813      9.525685      3.396270
    9   C      9    1.8500  1.000      6.100481      8.207415      4.482534
   10   H     10    1.2000  1.000      6.959075      8.860201      4.372213
   11   F     11    1.7300  1.000      2.616596      8.101947      3.557875
 ------------------------------------------------------------------------------
 ------------------------------------------------------------------------------
 Atomic radii for non-electrostatic terms: SMD-CDS.
 ------------------------------------------------------------------------------
 Nuclear repulsion after PCM non-electrostatic terms =      259.4183488327 Hartrees.
 One-electron integrals computed using PRISM.
 NBasis=   178 RedAO= T EigKep=  4.45D-06  NBF=   178
 NBsUse=   178 1.00D-06 EigRej= -1.00D+00 NBFU=   178
 ExpMin= 4.38D-02 ExpMax= 1.14D+04 ExpMxC= 1.72D+03 IAcc=3 IRadAn=         5 AccDes= 0.00D+00
 Harris functional with IExCor= 1009 and IRadAn=       5 diagonalized for initial guess.
 HarFok:  IExCor= 1009 AccDes= 0.00D+00 IRadAn=         5 IDoV= 1 UseB2=F ITyADJ=14
 ICtDFT=  3500011 ScaDFX=  1.000000  1.000000  1.000000  1.000000
 FoFCou: FMM=F IPFlag=           0 FMFlag=      100000 FMFlg1=           0
         NFxFlg=           0 DoJE=T BraDBF=F KetDBF=T FulRan=T
         wScrn=  0.000000 ICntrl=       500 IOpCl=  0 I1Cent=   200000004 NGrid=           0
         NMat0=    1 NMatS0=      1 NMatT0=    0 NMatD0=    1 NMtDS0=    0 NMtDT0=    0
 Symmetry not used in FoFCou.
 Initial guess <Sx>= 0.0000 <Sy>= 0.0000 <Sz>= 0.5000 <S**2>= 0.7500 S= 0.5000
 Keep R1 and R2 ints in memory in canonical form, NReq=286274419.
 Requested convergence on RMS density matrix=1.00D-08 within 128 cycles.
 Requested convergence on MAX density matrix=1.00D-06.
 Requested convergence on             energy=1.00D-06.
 Level shift goal  0.100 maximum shift  0.100.
 No special actions if energy rises.
 Dynamic level shift is on during FON iterations.
 Inv3:  Mode=1 IEnd=     3176523.
 Iteration    1 A*A^-1 deviation from unit magnitude is 3.77D-15 for   1021.
 Iteration    1 A*A^-1 deviation from orthogonality  is 2.13D-15 for   1018    794.
 Iteration    1 A^-1*A deviation from unit magnitude is 4.22D-15 for   1021.
 Iteration    1 A^-1*A deviation from orthogonality  is 1.53D-15 for   1010    982.
 Error on total polarization charges =  0.03051
 SCF Done:  E(UM062X) =  -330.756442927     A.U. after   16 cycles
            NFock= 16  Conv=0.44D-08     -V/T= 2.0037
 <Sx>= 0.0000 <Sy>= 0.0000 <Sz>= 0.5000 <S**2>= 0.7634 S= 0.5067
 <L.S>=  0.00000000000    
 SMD-CDS (non-electrostatic) energy       (kcal/mol) =      -1.09
 (included in total energy above)
 Annihilation of the first spin contaminant:
 S**2 before annihilation     0.7634,   after     0.7501
 DoSCS=F DFT=T ScalE2(SS,OS)=  1.000000  1.000000
 Range of M.O.s used for correlation:     1   178
 NBasis=   178 NAE=    25 NBE=    24 NFC=     0 NFV=     0
 NROrb=    178 NOA=    25 NOB=    24 NVA=   153 NVB=   154

 **** Warning!!: The largest alpha MO coefficient is  0.12621274D+03


 **** Warning!!: The largest beta MO coefficient is  0.10631932D+03

 Symmetrizing basis deriv contribution to polar:
 IMax=3 JMax=2 DiffMx= 0.00D+00
 G2DrvN: will do    12 centers at a time, making    1 passes.
 Calling FoFCou, ICntrl=  3107 FMM=F I1Cent=   0 AccDes= 0.00D+00.
 NEqPCM:  Using equilibrium solvation (IEInf=0, Eps=   7.4257, EpsInf=   1.9740)
 G2PCM: DoFxE=T DoFxN=T DoGrad=T DoDP/DQ/DG/TGxP=FFFF NFrqRd=   0 IEInf=0 SqF1=F DoCFld=F IF1Alg=4.
 End of G2Drv F.D. properties file   721 does not exist.
 End of G2Drv F.D. properties file   722 does not exist.
 End of G2Drv F.D. properties file   788 does not exist.
          IDoAtm=11111111111
 NEqPCM:  Using equilibrium solvation (IEInf=0, Eps=   7.4257, EpsInf=   1.9740)
          Differentiating once with respect to nuclear coordinates.
 Keep R1 and R2 ints in memory in canonical form, NReq=286173430.
          There are    36 degrees of freedom in the 1st order CPHF.  IDoFFX=6 NUNeed=     0.
     30 vectors produced by pass  0 Test12= 2.09D-14 2.78D-09 XBig12= 2.21D-01 1.14D-01.
 AX will form    30 AO Fock derivatives at one time.
     30 vectors produced by pass  1 Test12= 2.09D-14 2.78D-09 XBig12= 2.70D-02 5.56D-02.
     30 vectors produced by pass  2 Test12= 2.09D-14 2.78D-09 XBig12= 6.32D-04 8.28D-03.
     30 vectors produced by pass  3 Test12= 2.09D-14 2.78D-09 XBig12= 1.45D-05 1.30D-03.
     30 vectors produced by pass  4 Test12= 2.09D-14 2.78D-09 XBig12= 2.57D-07 1.65D-04.
     30 vectors produced by pass  5 Test12= 2.09D-14 2.78D-09 XBig12= 3.96D-09 1.42D-05.
     30 vectors produced by pass  6 Test12= 2.09D-14 2.78D-09 XBig12= 4.06D-11 1.01D-06.
     21 vectors produced by pass  7 Test12= 2.09D-14 2.78D-09 XBig12= 2.57D-13 6.62D-08.
      2 vectors produced by pass  8 Test12= 2.09D-14 2.78D-09 XBig12= 1.32D-15 4.52D-09.
 InvSVY:  IOpt=1 It=  1 EMax= 1.67D-15
 Solved reduced A of dimension   233 with    30 vectors.
 End of Minotr F.D. properties file   721 does not exist.
 End of Minotr F.D. properties file   722 does not exist.
 End of Minotr F.D. properties file   788 does not exist.

 **********************************************************************

            Population analysis using the SCF Density.

 **********************************************************************

 Alpha  occ. eigenvalues --  -25.25957 -10.63515 -10.58529 -10.56330 -10.56327
 Alpha  occ. eigenvalues --  -10.55893 -10.55855  -1.37919  -0.98163  -0.86579
 Alpha  occ. eigenvalues --   -0.85353  -0.71826  -0.70379  -0.63652  -0.58308
 Alpha  occ. eigenvalues --   -0.57417  -0.54750  -0.51534  -0.50679  -0.49226
 Alpha  occ. eigenvalues --   -0.44994  -0.41615  -0.33716  -0.32599  -0.31827
 Alpha virt. eigenvalues --    0.00579   0.01331   0.02303   0.03367   0.03638
 Alpha virt. eigenvalues --    0.05753   0.05780   0.06584   0.08318   0.09451
 Alpha virt. eigenvalues --    0.09522   0.09531   0.11356   0.13884   0.14331
 Alpha virt. eigenvalues --    0.14793   0.15419   0.15472   0.15686   0.15817
 Alpha virt. eigenvalues --    0.18161   0.20034   0.20362   0.21576   0.21723
 Alpha virt. eigenvalues --    0.21866   0.23340   0.25110   0.25523   0.25757
 Alpha virt. eigenvalues --    0.27041   0.27152   0.31990   0.32504   0.34965
 Alpha virt. eigenvalues --    0.36062   0.39124   0.39458   0.40963   0.43335
 Alpha virt. eigenvalues --    0.49376   0.52521   0.53282   0.54176   0.56287
 Alpha virt. eigenvalues --    0.59539   0.59701   0.60289   0.60641   0.63134
 Alpha virt. eigenvalues --    0.64652   0.64676   0.64793   0.68084   0.71286
 Alpha virt. eigenvalues --    0.73721   0.74452   0.78024   0.78214   0.82526
 Alpha virt. eigenvalues --    0.85975   0.86245   0.87900   0.89304   0.90657
 Alpha virt. eigenvalues --    0.92392   0.94882   0.99666   1.03164   1.04148
 Alpha virt. eigenvalues --    1.04974   1.12229   1.17864   1.18587   1.19645
 Alpha virt. eigenvalues --    1.24660   1.38344   1.45692   1.47835   1.49217
 Alpha virt. eigenvalues --    1.52573   1.53474   1.58252   1.58571   1.60061
 Alpha virt. eigenvalues --    1.64807   1.67031   1.68588   1.69648   1.74060
 Alpha virt. eigenvalues --    1.78026   1.80305   1.89096   1.90003   1.91872
 Alpha virt. eigenvalues --    1.93893   1.93973   1.95927   1.96788   2.02949
 Alpha virt. eigenvalues --    2.04514   2.06202   2.09938   2.10279   2.23644
 Alpha virt. eigenvalues --    2.28974   2.34714   2.35668   2.40362   2.44688
 Alpha virt. eigenvalues --    2.53309   2.61185   2.68227   2.68699   2.71072
 Alpha virt. eigenvalues --    2.72714   2.72810   2.75271   2.77461   2.80460
 Alpha virt. eigenvalues --    2.83858   2.91585   2.93972   2.95718   2.99854
 Alpha virt. eigenvalues --    3.11581   3.17299   3.23174   3.37965   3.42038
 Alpha virt. eigenvalues --    3.52683   3.60433   3.69927   3.81647   3.87911
 Alpha virt. eigenvalues --    3.93673   4.01223   4.07416   4.14748   4.15907
 Alpha virt. eigenvalues --    4.21481   4.81261   4.93027   6.45395   6.58141
 Alpha virt. eigenvalues --    6.86566  23.58061  23.93742  24.02374  24.10373
 Alpha virt. eigenvalues --   24.16741  24.23574  66.92902
  Beta  occ. eigenvalues --  -25.25970 -10.63555 -10.57454 -10.56323 -10.56319
  Beta  occ. eigenvalues --  -10.55817 -10.55778  -1.37953  -0.97486  -0.86245
  Beta  occ. eigenvalues --   -0.83879  -0.71423  -0.69078  -0.63510  -0.57758
  Beta  occ. eigenvalues --   -0.57582  -0.53100  -0.50409  -0.50274  -0.48627
  Beta  occ. eigenvalues --   -0.44317  -0.41111  -0.32642  -0.30405
  Beta virt. eigenvalues --   -0.07091   0.00484   0.02280   0.02532   0.03431
  Beta virt. eigenvalues --    0.03819   0.05805   0.06537   0.06729   0.08547
  Beta virt. eigenvalues --    0.09476   0.09510   0.10166   0.11015   0.13960
  Beta virt. eigenvalues --    0.14314   0.15235   0.15258   0.15480   0.15769
  Beta virt. eigenvalues --    0.15872   0.18220   0.20051   0.20226   0.21808
  Beta virt. eigenvalues --    0.21926   0.22661   0.23411   0.25113   0.25927
  Beta virt. eigenvalues --    0.26325   0.26439   0.27203   0.32154   0.32461
  Beta virt. eigenvalues --    0.36064   0.36223   0.39214   0.39832   0.41216
  Beta virt. eigenvalues --    0.43740   0.46630   0.52435   0.52481   0.54310
  Beta virt. eigenvalues --    0.56506   0.58088   0.59564   0.59999   0.60808
  Beta virt. eigenvalues --    0.63212   0.64481   0.64668   0.64854   0.69409
  Beta virt. eigenvalues --    0.71098   0.74038   0.74088   0.78053   0.78261
  Beta virt. eigenvalues --    0.82365   0.84966   0.85983   0.88153   0.88931
  Beta virt. eigenvalues --    0.90328   0.93710   0.94398   0.99554   1.03600
  Beta virt. eigenvalues --    1.04648   1.04897   1.12249   1.18396   1.18812
  Beta virt. eigenvalues --    1.21017   1.25432   1.38328   1.46011   1.47785
  Beta virt. eigenvalues --    1.49598   1.53648   1.54220   1.58526   1.59276
  Beta virt. eigenvalues --    1.60472   1.64784   1.67864   1.68662   1.69980
  Beta virt. eigenvalues --    1.74716   1.78064   1.80307   1.89767   1.90115
  Beta virt. eigenvalues --    1.92133   1.94553   1.94915   1.96231   1.97103
  Beta virt. eigenvalues --    2.03297   2.04384   2.06175   2.10077   2.10255
  Beta virt. eigenvalues --    2.23958   2.29351   2.35016   2.36509   2.40843
  Beta virt. eigenvalues --    2.44914   2.53197   2.61391   2.68481   2.68886
  Beta virt. eigenvalues --    2.71568   2.72717   2.73392   2.75376   2.77527
  Beta virt. eigenvalues --    2.80638   2.83732   2.92048   2.93840   2.95766
  Beta virt. eigenvalues --    3.01635   3.11666   3.17773   3.23799   3.38416
  Beta virt. eigenvalues --    3.42365   3.52867   3.61051   3.70068   3.82213
  Beta virt. eigenvalues --    3.87874   3.93650   4.01314   4.07359   4.14727
  Beta virt. eigenvalues --    4.16301   4.21503   4.81602   4.92979   6.45304
  Beta virt. eigenvalues --    6.58120   6.86553  23.58254  23.94290  24.02377
  Beta virt. eigenvalues --   24.10726  24.16731  24.23626  66.92899
          Condensed to atoms (all electrons):
               1          2          3          4          5          6
     1  C    5.314434   0.103673  -0.005300   0.456153  -0.014545  -0.618686
     2  C    0.103673   5.744002   0.376608  -0.143951   0.054142   0.487040
     3  H   -0.005300   0.376608   0.450790  -0.024547  -0.004855  -0.000790
     4  C    0.456153  -0.143951  -0.024547   7.443197   0.376021  -0.659900
     5  H   -0.014545   0.054142  -0.004855   0.376021   0.435060  -0.018827
     6  C   -0.618686   0.487040  -0.000790  -0.659900  -0.018827   6.799343
     7  C    0.458589  -0.692264   0.003610  -0.644268  -0.040976  -0.661382
     8  H   -0.015132   0.010202   0.000030  -0.041434  -0.000020  -0.018346
     9  C    0.101442   0.525146  -0.005182  -0.696335   0.009947   0.486623
    10  H   -0.009195  -0.006199  -0.000058   0.004233   0.000030  -0.000807
    11  F   -0.000516  -0.016544  -0.000359  -0.222607  -0.005217   0.482404
               7          8          9         10         11
     1  C    0.458589  -0.015132   0.101442  -0.009195  -0.000516
     2  C   -0.692264   0.010202   0.525146  -0.006199  -0.016544
     3  H    0.003610   0.000030  -0.005182  -0.000058  -0.000359
     4  C   -0.644268  -0.041434  -0.696335   0.004233  -0.222607
     5  H   -0.040976  -0.000020   0.009947   0.000030  -0.005217
     6  C   -0.661382  -0.018346   0.486623  -0.000807   0.482404
     7  C    7.435902   0.374426  -0.138145  -0.019457  -0.221778
     8  H    0.374426   0.434752   0.055900  -0.004593  -0.005277
     9  C   -0.138145   0.055900   5.748146   0.375767  -0.016364
    10  H   -0.019457  -0.004593   0.375767   0.449947  -0.000340
    11  F   -0.221778  -0.005277  -0.016364  -0.000340   9.208841
          Atomic-Atomic Spin Densities.
               1          2          3          4          5          6
     1  C    1.194197  -0.289089   0.014046   0.235204   0.002550  -0.260592
     2  C   -0.289089   0.366040  -0.017304  -0.340151  -0.006184   0.297295
     3  H    0.014046  -0.017304   0.021923   0.015055   0.000740  -0.014835
     4  C    0.235204  -0.340151   0.015055   0.409817   0.006887  -0.288224
     5  H    0.002550  -0.006184   0.000740   0.006887   0.001837  -0.004270
     6  C   -0.260592   0.297295  -0.014835  -0.288224  -0.004270   0.228855
     7  C    0.231129  -0.264461   0.010279   0.234508   0.002615  -0.283715
     8  H    0.002588  -0.001904   0.000006   0.002664   0.000019  -0.004341
     9  C   -0.286828   0.329138  -0.016136  -0.266537  -0.001859   0.294091
    10  H    0.013870  -0.016515   0.000129   0.010478   0.000006  -0.014819
    11  F    0.001937  -0.003562   0.000018   0.001623  -0.000292   0.009295
               7          8          9         10         11
     1  C    0.231129   0.002588  -0.286828   0.013870   0.001937
     2  C   -0.264461  -0.001904   0.329138  -0.016515  -0.003562
     3  H    0.010279   0.000006  -0.016136   0.000129   0.000018
     4  C    0.234508   0.002664  -0.266537   0.010478   0.001623
     5  H    0.002615   0.000019  -0.001859   0.000006  -0.000292
     6  C   -0.283715  -0.004341   0.294091  -0.014819   0.009295
     7  C    0.397002   0.006889  -0.329596   0.014497   0.001580
     8  H    0.006889   0.001861  -0.006150   0.000714  -0.000289
     9  C   -0.329596  -0.006150   0.359334  -0.016818  -0.003524
    10  H    0.014497   0.000714  -0.016818   0.021997   0.000018
    11  F    0.001580  -0.000289  -0.003524   0.000018  -0.006608
 Mulliken charges and spin densities:
               1          2
     1  C    0.229083   0.859013
     2  C   -0.441855   0.053304
     3  H    0.210052   0.013922
     4  C    0.153438   0.021324
     5  H    0.209240   0.002049
     6  C   -0.276674  -0.041263
     7  C    0.145743   0.020726
     8  H    0.209491   0.002058
     9  C   -0.446944   0.055114
    10  H    0.210672   0.013557
    11  F   -0.202244   0.000195
 Sum of Mulliken charges =   0.00000   1.00000
 Mulliken charges and spin densities with hydrogens summed into heavy atoms:
               1          2
     1  C    0.229083   0.859013
     2  C   -0.231803   0.067226
     4  C    0.362677   0.023373
     6  C   -0.276674  -0.041263
     7  C    0.355234   0.022784
     9  C   -0.236272   0.068672
    11  F   -0.202244   0.000195
 APT charges:
               1
     1  C    1.476494
     2  C   -1.229927
     3  H   -0.105420
     4  C   -0.230739
     5  H   -0.821480
     6  C   -0.480790
     7  C    0.008406
     8  H    1.230163
     9  C   -1.551263
    10  H    1.930271
    11  F   -0.225716
 Sum of APT charges =   0.00000
 APT charges with hydrogens summed into heavy atoms:
               1
     1  C    1.476494
     2  C   -1.335346
     4  C   -1.052219
     6  C   -0.480790
     7  C    1.238570
     9  C    0.379008
    11  F   -0.225716
 Electronic spatial extent (au):  <R**2>=          17552.5884
 Charge=              0.0000 electrons
 Dipole moment (field-independent basis, Debye):
    X=              0.8588    Y=             -0.2684    Z=              0.3822  Tot=              0.9776
 Quadrupole moment (field-independent basis, Debye-Ang):
   XX=            -34.0157   YY=            -38.8010   ZZ=            -38.6178
   XY=              9.5754   XZ=              3.5887   YZ=             -1.6430
 Traceless Quadrupole moment (field-independent basis, Debye-Ang):
   XX=              3.1291   YY=             -1.6562   ZZ=             -1.4729
   XY=              9.5754   XZ=              3.5887   YZ=             -1.6430
 Octapole moment (field-independent basis, Debye-Ang**2):
  XXX=           -530.0687  YYY=           -824.6059  ZZZ=           -544.8495  XYY=            -68.3339
  XXY=           -219.1541  XXZ=           -159.8107  XZZ=           -182.9459  YZZ=           -324.2463
  YYZ=           -200.9351  XYZ=             23.5688
 Hexadecapole moment (field-independent basis, Debye-Ang**3):
 XXXX=          -5514.9067 YYYY=         -12326.2900 ZZZZ=          -5120.0629 XXXY=          -3674.6874
 XXXZ=          -2488.1077 YYYX=          -2765.6721 YYYZ=          -4031.2752 ZZZX=          -2665.6529
 ZZZY=          -4247.9413 XXYY=          -2246.6357 XXZZ=          -1779.2978 YYZZ=          -3438.5352
 XXYZ=          -1107.3451 YYXZ=           -595.3711 ZZXY=          -1462.5714
 N-N= 2.594183488327D+02 E-N=-1.292751407708D+03  KE= 3.295324143814D+02
  Exact polarizability:       0.000       0.000       0.000       0.000       0.000       0.000
 Approx polarizability:      96.672       4.993      87.870      10.614     -19.251      62.891
                          Isotropic Fermi Contact Couplings
        Atom                 a.u.       MegaHertz       Gauss      10(-4) cm-1
     1  C(13)              0.55967     629.17173     224.50412     209.86910
     2  C(13)              0.02620      29.44983      10.50843       9.82341
     3  H(1)               0.00912      40.75092      14.54094      13.59304
     4  C(13)              0.04330      48.67985      17.37018      16.23785
     5  H(1)               0.00145       6.47597       2.31079       2.16015
     6  C(13)             -0.01159     -13.02440      -4.64743      -4.34447
     7  C(13)              0.04245      47.72024      17.02777      15.91776
     8  H(1)               0.00144       6.45829       2.30448       2.15425
     9  C(13)              0.02620      29.45185      10.50915       9.82408
    10  H(1)               0.00918      41.04420      14.64559      13.69087
    11  F(19)              0.00274      11.51730       4.10966       3.84176
 --------------------------------------------------------
       Center         ----  Spin Dipole Couplings  ----
                      3XX-RR        3YY-RR        3ZZ-RR
 --------------------------------------------------------
     1   Atom        0.585513     -0.398621     -0.186892
     2   Atom        0.088431     -0.009881     -0.078550
     3   Atom        0.002208      0.008301     -0.010509
     4   Atom        0.033843     -0.029032     -0.004811
     5   Atom        0.006974     -0.002129     -0.004845
     6   Atom        0.029910      0.006339     -0.036248
     7   Atom        0.021164     -0.021026     -0.000139
     8   Atom       -0.003101      0.004184     -0.001083
     9   Atom       -0.001677      0.046269     -0.044592
    10   Atom       -0.010156      0.016328     -0.006172
    11   Atom        0.029137      0.001888     -0.031025
 --------------------------------------------------------
                        XY            XZ            YZ
 --------------------------------------------------------
     1   Atom       -0.357301      0.458006     -0.078762
     2   Atom        0.057124      0.023722     -0.034196
     3   Atom        0.016397     -0.004571     -0.006693
     4   Atom       -0.017516      0.020957      0.006886
     5   Atom        0.005403      0.000474     -0.000007
     6   Atom        0.005844      0.022632     -0.034835
     7   Atom       -0.027731      0.022815     -0.000090
     8   Atom       -0.003482      0.002394     -0.005888
     9   Atom       -0.022825      0.040971     -0.087216
    10   Atom        0.006107     -0.002467     -0.014181
    11   Atom        0.001638      0.022175     -0.028996
 --------------------------------------------------------


 ---------------------------------------------------------------------------------
              Anisotropic Spin Dipole Couplings in Principal Axis System
 ---------------------------------------------------------------------------------

       Atom             a.u.   MegaHertz   Gauss  10(-4) cm-1        Axes

              Baa    -0.5391   -72.336   -25.811   -24.129  0.4080  0.8468 -0.3413
     1 C(13)  Bbb    -0.3582   -48.066   -17.151   -16.033 -0.2405  0.4603  0.8546
              Bcc     0.8972   120.402    42.962    40.162  0.8807 -0.2666  0.3914
 
              Baa    -0.1036   -13.908    -4.963    -4.639 -0.2421  0.4592  0.8547
     2 C(13)  Bbb    -0.0113    -1.514    -0.540    -0.505 -0.3293  0.7897 -0.5176
              Bcc     0.1149    15.422     5.503     5.144  0.9127  0.4067  0.0400
 
              Baa    -0.0128    -6.832    -2.438    -2.279 -0.2370  0.4562  0.8578
     3 H(1)   Bbb    -0.0110    -5.882    -2.099    -1.962  0.7492 -0.4763  0.4603
              Bcc     0.0238    12.714     4.537     4.241  0.6185  0.7517 -0.2289
 
              Baa    -0.0385    -5.162    -1.842    -1.722  0.3198  0.8692 -0.3770
     4 C(13)  Bbb    -0.0070    -0.943    -0.336    -0.315 -0.2413  0.4595  0.8547
              Bcc     0.0455     6.104     2.178     2.036  0.9162 -0.1824  0.3568
 
              Baa    -0.0050    -2.658    -0.949    -0.887 -0.2412  0.4586  0.8553
     5 H(1)   Bbb    -0.0045    -2.410    -0.860    -0.804 -0.3466  0.7825 -0.5173
              Bcc     0.0095     5.069     1.809     1.691  0.9065  0.4212  0.0298
 
              Baa    -0.0614    -8.239    -2.940    -2.748 -0.2412  0.4602  0.8544
     6 C(13)  Bbb     0.0232     3.110     1.110     1.037  0.4092  0.8465 -0.3404
              Bcc     0.0382     5.130     1.830     1.711  0.8800 -0.2675  0.3925
 
              Baa    -0.0379    -5.090    -1.816    -1.698  0.4975  0.8146 -0.2984
     7 C(13)  Bbb    -0.0066    -0.891    -0.318    -0.297 -0.2416  0.4605  0.8542
              Bcc     0.0446     5.981     2.134     1.995  0.8332 -0.3528  0.4259
 
              Baa    -0.0049    -2.630    -0.938    -0.877 -0.2467  0.4577  0.8542
     8 H(1)   Bbb    -0.0045    -2.399    -0.856    -0.800  0.9149  0.4007  0.0496
              Bcc     0.0094     5.029     1.794     1.677 -0.3195  0.7937 -0.5176
 
              Baa    -0.1033   -13.857    -4.944    -4.622 -0.2408  0.4613  0.8539
     9 C(13)  Bbb    -0.0106    -1.425    -0.509    -0.475  0.9094  0.4146  0.0324
              Bcc     0.1139    15.282     5.453     5.097 -0.3391  0.7844 -0.5194
 
              Baa    -0.0131    -7.006    -2.500    -2.337 -0.2369  0.4609  0.8553
    10 H(1)   Bbb    -0.0113    -6.028    -2.151    -2.011  0.9534 -0.0589  0.2958
              Bcc     0.0244    13.034     4.651     4.348  0.1867  0.8855 -0.4254
 
              Baa    -0.0529   -26.548    -9.473    -8.856 -0.2404  0.4599  0.8548
    11 F(19)  Bbb     0.0143     7.185     2.564     2.397  0.4130  0.8454 -0.3387
              Bcc     0.0386    19.364     6.909     6.459  0.8784 -0.2717  0.3932
 

 ---------------------------------------------------------------------------------

 D2PCM: PCM CHGder 2nd derivatives, FixD1E=F FixD2E=F DoIter=F DoCFld=F I1PDM=0
 Calling FoFJK, ICntrl=    100127 FMM=F ISym2X=0 I1Cent= 0 IOpClX= 1 NMat=1 NMatS=1 NMatT=0.
 -------------------------------------------------------------------
 Center     Atomic                   Forces (Hartrees/Bohr)
 Number     Number              X              Y              Z
 -------------------------------------------------------------------
      1        6          -0.046146752    0.013363255   -0.020387487
      2        6           0.021667481   -0.010096327    0.011491190
      3        1           0.001499592    0.000455431    0.000253368
      4        6           0.000857692    0.006766039   -0.003418100
      5        1           0.000892973   -0.000828340    0.000703483
      6        6          -0.000404620    0.000070242   -0.000112036
      7        6          -0.004629514   -0.004235784    0.000933789
      8        1           0.001364139    0.000094761    0.000329060
      9        6           0.025460625   -0.007726412    0.011492681
     10        1           0.000029591    0.001753306   -0.000899478
     11        9          -0.000591207    0.000383830   -0.000386469
 -------------------------------------------------------------------
 Cartesian Forces:  Max     0.046146752 RMS     0.011516612
 FormGI is forming the generalized inverse of G from B-inverse, IUseBI=4.

 GradGradGradGradGradGradGradGradGradGradGradGradGradGradGradGradGradGrad
 Berny optimization.
 Internal  Forces:  Max     0.028572820 RMS     0.006861779
 Search for a local minimum.
 Step number   1 out of a maximum of   57
 All quantities printed in internal units (Hartrees-Bohrs-Radians)
 Mixed Optimization -- RFO/linear search
 Second derivative matrix not updated -- analytic derivatives used.
 ITU=  0
     Eigenvalues ---    0.01731   0.01795   0.01955   0.02426   0.02621
     Eigenvalues ---    0.03114   0.03439   0.03453   0.10180   0.10549
     Eigenvalues ---    0.11196   0.12023   0.15811   0.18360   0.20505
     Eigenvalues ---    0.21405   0.26779   0.35582   0.36010   0.36597
     Eigenvalues ---    0.36755   0.37789   0.41481   0.42820   0.47253
     Eigenvalues ---    0.49098   0.52910
 RFO step:  Lambda=-8.90796693D-03 EMin= 1.73114909D-02
 Linear search not attempted -- first point.
 Iteration  1 RMS(Cart)=  0.02741409 RMS(Int)=  0.00118514
 Iteration  2 RMS(Cart)=  0.00169631 RMS(Int)=  0.00041714
 Iteration  3 RMS(Cart)=  0.00000061 RMS(Int)=  0.00041714
 Variable       Old X    -DE/DX   Delta X   Delta X   Delta X     New X
                                 (Linear)    (Quad)   (Total)
    R1        2.64638  -0.01912   0.00000  -0.05202  -0.05142   2.59495
    R2        2.64887  -0.01898   0.00000  -0.05422  -0.05363   2.59524
    R3        2.05260  -0.00020   0.00000  -0.00446  -0.00446   2.04814
    R4        2.62778   0.00181   0.00000   0.01141   0.01142   2.63920
    R5        2.04686  -0.00018   0.00000   0.00061   0.00061   2.04748
    R6        2.61329   0.00290   0.00000   0.00291   0.00233   2.61561
    R7        2.61399   0.00259   0.00000   0.00214   0.00155   2.61554
    R8        2.55045   0.00077   0.00000   0.00469   0.00469   2.55514
    R9        2.04718  -0.00023   0.00000   0.00036   0.00036   2.04754
   R10        2.62596   0.00159   0.00000   0.01293   0.01292   2.63888
   R11        2.04884   0.00117   0.00000  -0.00069  -0.00069   2.04815
    A1        2.05927   0.02857   0.00000   0.12368   0.12524   2.18451
    A2        2.11025   0.00569   0.00000   0.02428   0.02402   2.13427
    A3        2.12221  -0.01463   0.00000  -0.07346  -0.07294   2.04927
    A4        2.05073   0.00894   0.00000   0.04917   0.04892   2.09964
    A5        2.13147  -0.00146   0.00000  -0.00652  -0.00619   2.12528
    A6        2.05839   0.00005   0.00000   0.00631   0.00565   2.06404
    A7        2.09333   0.00141   0.00000   0.00021   0.00054   2.09386
    A8        2.14582   0.00044   0.00000   0.01056   0.00933   2.15515
    A9        2.06788   0.00005   0.00000  -0.00463  -0.00402   2.06386
   A10        2.06949  -0.00048   0.00000  -0.00592  -0.00531   2.06418
   A11        2.09267   0.00147   0.00000   0.00079   0.00113   2.09380
   A12        2.05841  -0.00012   0.00000   0.00608   0.00539   2.06381
   A13        2.13210  -0.00135   0.00000  -0.00686  -0.00652   2.12557
   A14        2.12227  -0.01432   0.00000  -0.07317  -0.07267   2.04960
   A15        2.08215   0.00879   0.00000   0.04894   0.04870   2.13085
   A16        2.07876   0.00553   0.00000   0.02423   0.02398   2.10274
    D1        3.13906   0.00005   0.00000   0.00201   0.00205   3.14111
    D2       -0.00162   0.00002   0.00000   0.00113   0.00116  -0.00046
    D3        0.00216  -0.00004   0.00000  -0.00174  -0.00175   0.00041
    D4       -3.14020  -0.00001   0.00000  -0.00100  -0.00104  -3.14124
    D5        3.14089   0.00001   0.00000   0.00035   0.00038   3.14127
    D6        0.00042  -0.00001   0.00000  -0.00017  -0.00012   0.00031
    D7        0.00018  -0.00003   0.00000  -0.00049  -0.00049  -0.00031
    D8       -3.14029  -0.00004   0.00000  -0.00101  -0.00098  -3.14127
    D9        0.00031  -0.00002   0.00000  -0.00046  -0.00045  -0.00014
   D10       -3.14152  -0.00001   0.00000  -0.00023  -0.00025   3.14142
   D11       -3.14018  -0.00003   0.00000  -0.00096  -0.00092  -3.14111
   D12        0.00118  -0.00002   0.00000  -0.00073  -0.00073   0.00045
   D13        3.14148   0.00002   0.00000   0.00033   0.00029  -3.14141
   D14        0.00021   0.00000   0.00000  -0.00009  -0.00013   0.00008
   D15        0.00012   0.00001   0.00000   0.00011   0.00009   0.00022
   D16       -3.14115  -0.00001   0.00000  -0.00032  -0.00032  -3.14148
   D17       -0.00148   0.00006   0.00000   0.00134   0.00128  -0.00020
   D18        3.14088   0.00003   0.00000   0.00059   0.00056   3.14145
   D19        3.14044   0.00004   0.00000   0.00090   0.00085   3.14129
   D20       -0.00039   0.00001   0.00000   0.00015   0.00014  -0.00025
         Item               Value     Threshold  Converged?
 Maximum Force            0.028573     0.000015     NO 
 RMS     Force            0.006862     0.000010     NO 
 Maximum Displacement     0.138756     0.000060     NO 
 RMS     Displacement     0.027323     0.000040     NO 
 Predicted change in Energy=-4.624806D-03
 GradGradGradGradGradGradGradGradGradGradGradGradGradGradGradGradGradGrad

                          Input orientation:                          
 ---------------------------------------------------------------------
 Center     Atomic      Atomic             Coordinates (Angstroms)
 Number     Number       Type             X           Y           Z
 ---------------------------------------------------------------------
      1          6           0        6.169816    7.016106    5.143845
      2          6           0        5.112903    6.155157    5.309223
      3          1           0        5.209093    5.216002    5.841593
      4          6           0        3.884956    6.531613    4.760655
      5          1           0        3.004858    5.905869    4.848961
      6          6           0        3.809905    7.739602    4.089145
      7          6           0        4.887190    8.594371    3.932580
      8          1           0        4.764139    9.527463    3.395739
      9          6           0        6.114867    8.217769    4.481232
     10          1           0        6.982310    8.859632    4.379983
     11          9           0        2.621015    8.103761    3.557960
 ---------------------------------------------------------------------
                    Distance matrix (angstroms):
                    1          2          3          4          5
     1  C    0.000000
     2  C    1.373189   0.000000
     3  H    2.156436   1.083828   0.000000
     4  C    2.366887   1.396603   2.156988   0.000000
     5  H    3.366978   2.172058   2.513938   1.083478   0.000000
     6  C    2.684216   2.386809   3.375997   1.384122   2.141961
     7  C    2.367111   2.809957   3.893755   2.438269   3.407488
     8  H    3.367301   3.893007   4.976835   3.407503   4.280522
     9  C    1.373343   2.438005   3.417838   2.809573   3.892591
    10  H    2.154581   3.416483   4.307742   3.893352   4.976423
    11  F    4.036337   3.615728   4.500253   2.348547   2.577742
                    6          7          8          9         10
     6  C    0.000000
     7  C    1.384083   0.000000
     8  H    2.141921   1.083513   0.000000
     9  C    2.386466   1.396437   2.172109   0.000000
    10  H    3.376863   2.158717   2.516946   1.083834   0.000000
    11  F    1.352121   2.348742   2.578027   3.615581   4.501995
                   11
    11  F    0.000000
 Symmetry turned off by external request.
 Stoichiometry    C6H4F(2)
 Framework group  C1[X(C6H4F)]
 Deg. of freedom    27
 Full point group                 C1      NOp   1
 Rotational constants (GHZ):           5.6204310           2.7474472           1.8453707
 Standard basis: 6-311+G(d,p) (5D, 7F)
   178 basis functions,   284 primitive gaussians,   185 cartesian basis functions
    25 alpha electrons       24 beta electrons
       nuclear repulsion energy       260.1919908344 Hartrees.
 NAtoms=   11 NActive=   11 NUniq=   11 SFac= 1.00D+00 NAtFMM=   60 NAOKFM=F Big=F
 Integral buffers will be    131072 words long.
 Raffenetti 2 integral format.
 Two-electron integral symmetry is turned off.
 ------------------------------------------------------------------------------
 Polarizable Continuum Model (PCM)
 =================================
 Model                : PCM.
 Atomic radii         : SMD-Coulomb.
 Polarization charges : Total charges.
 Charge compensation  : None.
 Solution method      : Matrix inversion.
 Cavity type          : VdW (van der Waals Surface) (Alpha=1.000).
 Cavity algorithm     : GePol (No added spheres)
                        Default sphere list used, NSphG=   11.
                        Lebedev-Laikov grids with approx.  5.0 points / Ang**2.
                        Smoothing algorithm: York/Karplus (Gamma=1.0000).
                        Polarization charges: spherical gaussians, with
                                              point-specific exponents (IZeta= 3).
                        Self-potential: point-specific (ISelfS= 7).
                        Self-field    : sphere-specific E.n sum rule (ISelfD= 2).
 1st derivatives      : Analytical E(r).r(x)/FMM algorithm (CHGder, D1EAlg=3).
                        Cavity 1st derivative terms included.
 Solvent              : TetraHydroFuran, Eps=   7.425700 Eps(inf)=   1.974025
 ------------------------------------------------------------------------------
 Spheres list:
 ISph  on   Nord     Re0    Alpha      Xe            Ye            Ze
    1   C      1    1.8500  1.000      6.169816      7.016106      5.143845
    2   C      2    1.8500  1.000      5.112903      6.155157      5.309223
    3   H      3    1.2000  1.000      5.209093      5.216002      5.841593
    4   C      4    1.8500  1.000      3.884956      6.531613      4.760655
    5   H      5    1.2000  1.000      3.004858      5.905869      4.848961
    6   C      6    1.8500  1.000      3.809905      7.739602      4.089145
    7   C      7    1.8500  1.000      4.887190      8.594371      3.932580
    8   H      8    1.2000  1.000      4.764139      9.527463      3.395739
    9   C      9    1.8500  1.000      6.114867      8.217769      4.481232
   10   H     10    1.2000  1.000      6.982310      8.859632      4.379983
   11   F     11    1.7300  1.000      2.621015      8.103761      3.557960
 ------------------------------------------------------------------------------
 ------------------------------------------------------------------------------
 Atomic radii for non-electrostatic terms: SMD-CDS.
 ------------------------------------------------------------------------------
 Nuclear repulsion after PCM non-electrostatic terms =      260.1901777481 Hartrees.
 One-electron integrals computed using PRISM.
 NBasis=   178 RedAO= T EigKep=  3.93D-06  NBF=   178
 NBsUse=   178 1.00D-06 EigRej= -1.00D+00 NBFU=   178
 Initial guess from the checkpoint file:  "4-f-ph-opt-freq-thf.chk"
 B after Tr=    -0.019799    0.013717   -0.013885
         Rot=    1.000000   -0.000192    0.000248    0.000505 Ang=  -0.07 deg.
 Initial guess <Sx>= 0.0000 <Sy>= 0.0000 <Sz>= 0.5000 <S**2>= 0.7631 S= 0.5065
 ExpMin= 4.38D-02 ExpMax= 1.14D+04 ExpMxC= 1.72D+03 IAcc=3 IRadAn=         5 AccDes= 0.00D+00
 Harris functional with IExCor= 1009 and IRadAn=       5 diagonalized for initial guess.
 HarFok:  IExCor= 1009 AccDes= 0.00D+00 IRadAn=         5 IDoV= 1 UseB2=F ITyADJ=14
 ICtDFT=  3500011 ScaDFX=  1.000000  1.000000  1.000000  1.000000
 FoFCou: FMM=F IPFlag=           0 FMFlag=      100000 FMFlg1=           0
         NFxFlg=           0 DoJE=T BraDBF=F KetDBF=T FulRan=T
         wScrn=  0.000000 ICntrl=       500 IOpCl=  0 I1Cent=   200000004 NGrid=           0
         NMat0=    1 NMatS0=      1 NMatT0=    0 NMatD0=    1 NMtDS0=    0 NMtDT0=    0
 Symmetry not used in FoFCou.
 Keep R1 and R2 ints in memory in canonical form, NReq=286274419.
 Requested convergence on RMS density matrix=1.00D-08 within 128 cycles.
 Requested convergence on MAX density matrix=1.00D-06.
 Requested convergence on             energy=1.00D-06.
 Level shift goal  0.100 maximum shift  0.100.
 No special actions if energy rises.
 Dynamic level shift is on during FON iterations.
 Inv3:  Mode=1 IEnd=     3195072.
 Iteration    1 A*A^-1 deviation from unit magnitude is 2.66D-15 for   1018.
 Iteration    1 A*A^-1 deviation from orthogonality  is 1.63D-15 for    618    119.
 Iteration    1 A^-1*A deviation from unit magnitude is 2.89D-15 for   1018.
 Iteration    1 A^-1*A deviation from orthogonality  is 1.14D-15 for   1025   1024.
 Error on total polarization charges =  0.03048
 SCF Done:  E(UM062X) =  -330.761063114     A.U. after   15 cycles
            NFock= 15  Conv=0.41D-08     -V/T= 2.0035
 <Sx>= 0.0000 <Sy>= 0.0000 <Sz>= 0.5000 <S**2>= 0.7618 S= 0.5059
 <L.S>=  0.00000000000    
 SMD-CDS (non-electrostatic) energy       (kcal/mol) =      -1.14
 (included in total energy above)
 Annihilation of the first spin contaminant:
 S**2 before annihilation     0.7618,   after     0.7501
 D1PCM: PCM CHGder 1st derivatives, ID1Alg=3 FixD1E=F DoIter=F DoCFld=F I1PDM=0.
 Calling FoFJK, ICntrl=      2127 FMM=F ISym2X=0 I1Cent= 0 IOpClX= 1 NMat=1 NMatS=1 NMatT=0.
 -------------------------------------------------------------------
 Center     Atomic                   Forces (Hartrees/Bohr)
 Number     Number              X              Y              Z
 -------------------------------------------------------------------
      1        6          -0.001041860    0.000222998   -0.000424061
      2        6           0.000187707   -0.002040774    0.001145191
      3        1           0.000070715   -0.000107742    0.000078346
      4        6          -0.000515217    0.000080337   -0.000209443
      5        1          -0.000040255   -0.000040425    0.000001509
      6        6          -0.000402552    0.000134955   -0.000175162
      7        6          -0.000434421    0.000321854   -0.000291196
      8        1           0.000018486    0.000049015   -0.000013889
      9        6           0.002173184    0.001097580    0.000026762
     10        1          -0.000046375    0.000288979   -0.000139364
     11        9           0.000030588   -0.000006778    0.000001308
 -------------------------------------------------------------------
 Cartesian Forces:  Max     0.002173184 RMS     0.000646516

 GradGradGradGradGradGradGradGradGradGradGradGradGradGradGradGradGradGrad
 Berny optimization.
 Using GEDIIS/GDIIS optimizer.
 FormGI is forming the generalized inverse of G from B-inverse, IUseBI=4.
 Internal  Forces:  Max     0.001435764 RMS     0.000475819
 Search for a local minimum.
 Step number   2 out of a maximum of   57
 All quantities printed in internal units (Hartrees-Bohrs-Radians)
 Mixed Optimization -- En-DIIS/RFO-DIIS
 Update second derivatives using D2CorX and points    1    2
 DE= -4.62D-03 DEPred=-4.62D-03 R= 9.99D-01
 TightC=F SS=  1.41D+00  RLast= 1.96D-01 DXNew= 5.0454D-01 5.8758D-01
 Trust test= 9.99D-01 RLast= 1.96D-01 DXMaxT set to 5.05D-01
 ITU=  1  0
 Use linear search instead of GDIIS.
     Eigenvalues ---    0.01730   0.01795   0.01953   0.02424   0.02621
     Eigenvalues ---    0.03110   0.03437   0.03452   0.10179   0.10547
     Eigenvalues ---    0.11188   0.12023   0.15809   0.18309   0.20035
     Eigenvalues ---    0.21405   0.26775   0.35631   0.36053   0.36610
     Eigenvalues ---    0.36757   0.38013   0.41475   0.43452   0.47251
     Eigenvalues ---    0.49089   0.53125
 RFO step:  Lambda=-2.49830603D-05 EMin= 1.73018626D-02
 Quartic linear search produced a step of  0.03877.
 Iteration  1 RMS(Cart)=  0.00219699 RMS(Int)=  0.00001771
 Iteration  2 RMS(Cart)=  0.00000454 RMS(Int)=  0.00001731
 Iteration  3 RMS(Cart)=  0.00000000 RMS(Int)=  0.00001731
 Variable       Old X    -DE/DX   Delta X   Delta X   Delta X     New X
                                 (Linear)    (Quad)   (Total)
    R1        2.59495   0.00105  -0.00199   0.00407   0.00210   2.59705
    R2        2.59524   0.00108  -0.00208   0.00395   0.00190   2.59714
    R3        2.04814   0.00014  -0.00017   0.00016  -0.00001   2.04812
    R4        2.63920   0.00079   0.00044   0.00140   0.00185   2.64104
    R5        2.04748   0.00006   0.00002   0.00020   0.00023   2.04771
    R6        2.61561   0.00081   0.00009   0.00108   0.00115   2.61676
    R7        2.61554   0.00080   0.00006   0.00103   0.00106   2.61660
    R8        2.55514  -0.00003   0.00018  -0.00008   0.00010   2.55524
    R9        2.04754   0.00005   0.00001   0.00019   0.00020   2.04775
   R10        2.63888   0.00081   0.00050   0.00167   0.00217   2.64105
   R11        2.04815   0.00015  -0.00003   0.00002  -0.00001   2.04814
    A1        2.18451   0.00144   0.00486   0.00220   0.00712   2.19163
    A2        2.13427   0.00044   0.00093   0.00032   0.00124   2.13551
    A3        2.04927  -0.00102  -0.00283  -0.00214  -0.00494   2.04433
    A4        2.09964   0.00058   0.00190   0.00182   0.00370   2.10335
    A5        2.12528  -0.00006  -0.00024   0.00039   0.00016   2.12545
    A6        2.06404   0.00010   0.00022   0.00041   0.00060   2.06464
    A7        2.09386  -0.00004   0.00002  -0.00080  -0.00077   2.09309
    A8        2.15515   0.00042   0.00036   0.00133   0.00164   2.15679
    A9        2.06386  -0.00021  -0.00016  -0.00074  -0.00087   2.06299
   A10        2.06418  -0.00021  -0.00021  -0.00060  -0.00078   2.06341
   A11        2.09380  -0.00003   0.00004  -0.00075  -0.00069   2.09312
   A12        2.06381   0.00011   0.00021   0.00062   0.00080   2.06461
   A13        2.12557  -0.00008  -0.00025   0.00013  -0.00011   2.12546
   A14        2.04960  -0.00105  -0.00282  -0.00243  -0.00522   2.04437
   A15        2.13085   0.00082   0.00189   0.00274   0.00462   2.13547
   A16        2.10274   0.00022   0.00093  -0.00032   0.00060   2.10334
    D1        3.14111   0.00001   0.00008   0.00022   0.00030   3.14141
    D2       -0.00046   0.00000   0.00004   0.00013   0.00018  -0.00029
    D3        0.00041   0.00000  -0.00007  -0.00012  -0.00019   0.00022
    D4       -3.14124  -0.00001  -0.00004  -0.00033  -0.00037   3.14158
    D5        3.14127   0.00000   0.00001   0.00010   0.00012   3.14139
    D6        0.00031   0.00000   0.00000  -0.00007  -0.00007   0.00024
    D7       -0.00031   0.00000  -0.00002   0.00002   0.00000  -0.00031
    D8       -3.14127  -0.00001  -0.00004  -0.00015  -0.00019  -3.14146
    D9       -0.00014   0.00000  -0.00002   0.00000  -0.00002  -0.00015
   D10        3.14142   0.00000  -0.00001  -0.00003  -0.00004   3.14138
   D11       -3.14111   0.00000  -0.00004  -0.00017  -0.00020  -3.14131
   D12        0.00045   0.00000  -0.00003  -0.00020  -0.00022   0.00023
   D13       -3.14141   0.00000   0.00001   0.00004   0.00005  -3.14136
   D14        0.00008   0.00000   0.00000   0.00001   0.00000   0.00008
   D15        0.00022   0.00000   0.00000   0.00007   0.00007   0.00029
   D16       -3.14148   0.00000  -0.00001   0.00004   0.00003  -3.14145
   D17       -0.00020   0.00000   0.00005   0.00005   0.00009  -0.00010
   D18        3.14145   0.00001   0.00002   0.00025   0.00027  -3.14147
   D19        3.14129   0.00000   0.00003   0.00001   0.00004   3.14134
   D20       -0.00025   0.00001   0.00001   0.00022   0.00022  -0.00003
         Item               Value     Threshold  Converged?
 Maximum Force            0.001436     0.000015     NO 
 RMS     Force            0.000476     0.000010     NO 
 Maximum Displacement     0.005965     0.000060     NO 
 RMS     Displacement     0.002195     0.000040     NO 
 Predicted change in Energy=-1.896143D-05
 GradGradGradGradGradGradGradGradGradGradGradGradGradGradGradGradGradGrad

                          Input orientation:                          
 ---------------------------------------------------------------------
 Center     Atomic      Atomic             Coordinates (Angstroms)
 Number     Number       Type             X           Y           Z
 ---------------------------------------------------------------------
      1          6           0        6.167140    7.016439    5.142699
      2          6           0        5.112026    6.152001    5.310584
      3          1           0        5.210322    5.213361    5.843464
      4          6           0        3.884163    6.530691    4.760880
      5          1           0        3.002877    5.906294    4.848350
      6          6           0        3.810484    7.739452    4.089355
      7          6           0        4.887729    8.595093    3.932305
      8          1           0        4.763311    9.528002    3.395244
      9          6           0        6.117220    8.219823    4.480727
     10          1           0        6.984129    8.862366    4.379252
     11          9           0        2.621650    8.103826    3.558056
 ---------------------------------------------------------------------
                    Distance matrix (angstroms):
                    1          2          3          4          5
     1  C    0.000000
     2  C    1.374301   0.000000
     3  H    2.158161   1.083821   0.000000
     4  C    2.365105   1.397580   2.160103   0.000000
     5  H    3.366247   2.173141   2.518575   1.083599   0.000000
     6  C    2.680692   2.388601   3.378991   1.384730   2.142142
     7  C    2.365184   2.814012   3.897783   2.440376   3.409024
     8  H    3.366346   3.897116   4.980937   3.409067   4.281054
     9  C    1.374348   2.444375   3.423205   2.813929   3.897011
    10  H    2.158187   3.423190   4.313415   3.897710   4.980842
    11  F    4.032866   3.617036   4.503233   2.348506   2.576692
                    6          7          8          9         10
     6  C    0.000000
     7  C    1.384645   0.000000
     8  H    2.142098   1.083621   0.000000
     9  C    2.388506   1.397585   2.173172   0.000000
    10  H    3.378905   2.160114   2.518606   1.083831   0.000000
    11  F    1.352174   2.348727   2.577111   3.617152   4.503441
                   11
    11  F    0.000000
 Symmetry turned off by external request.
 Stoichiometry    C6H4F(2)
 Framework group  C1[X(C6H4F)]
 Deg. of freedom    27
 Full point group                 C1      NOp   1
 Rotational constants (GHZ):           5.6032807           2.7491756           1.8442961
 Standard basis: 6-311+G(d,p) (5D, 7F)
   178 basis functions,   284 primitive gaussians,   185 cartesian basis functions
    25 alpha electrons       24 beta electrons
       nuclear repulsion energy       260.0811823957 Hartrees.
 NAtoms=   11 NActive=   11 NUniq=   11 SFac= 1.00D+00 NAtFMM=   60 NAOKFM=F Big=F
 Integral buffers will be    131072 words long.
 Raffenetti 2 integral format.
 Two-electron integral symmetry is turned off.
 ------------------------------------------------------------------------------
 Polarizable Continuum Model (PCM)
 =================================
 Model                : PCM.
 Atomic radii         : SMD-Coulomb.
 Polarization charges : Total charges.
 Charge compensation  : None.
 Solution method      : Matrix inversion.
 Cavity type          : VdW (van der Waals Surface) (Alpha=1.000).
 Cavity algorithm     : GePol (No added spheres)
                        Default sphere list used, NSphG=   11.
                        Lebedev-Laikov grids with approx.  5.0 points / Ang**2.
                        Smoothing algorithm: York/Karplus (Gamma=1.0000).
                        Polarization charges: spherical gaussians, with
                                              point-specific exponents (IZeta= 3).
                        Self-potential: point-specific (ISelfS= 7).
                        Self-field    : sphere-specific E.n sum rule (ISelfD= 2).
 1st derivatives      : Analytical E(r).r(x)/FMM algorithm (CHGder, D1EAlg=3).
                        Cavity 1st derivative terms included.
 Solvent              : TetraHydroFuran, Eps=   7.425700 Eps(inf)=   1.974025
 ------------------------------------------------------------------------------
 Spheres list:
 ISph  on   Nord     Re0    Alpha      Xe            Ye            Ze
    1   C      1    1.8500  1.000      6.167140      7.016439      5.142699
    2   C      2    1.8500  1.000      5.112026      6.152001      5.310584
    3   H      3    1.2000  1.000      5.210322      5.213361      5.843464
    4   C      4    1.8500  1.000      3.884163      6.530691      4.760880
    5   H      5    1.2000  1.000      3.002877      5.906294      4.848350
    6   C      6    1.8500  1.000      3.810484      7.739452      4.089355
    7   C      7    1.8500  1.000      4.887729      8.595093      3.932305
    8   H      8    1.2000  1.000      4.763311      9.528002      3.395244
    9   C      9    1.8500  1.000      6.117220      8.219823      4.480727
   10   H     10    1.2000  1.000      6.984129      8.862366      4.379252
   11   F     11    1.7300  1.000      2.621650      8.103826      3.558056
 ------------------------------------------------------------------------------
 ------------------------------------------------------------------------------
 Atomic radii for non-electrostatic terms: SMD-CDS.
 ------------------------------------------------------------------------------
 Nuclear repulsion after PCM non-electrostatic terms =      260.0793749316 Hartrees.
 One-electron integrals computed using PRISM.
 NBasis=   178 RedAO= T EigKep=  3.94D-06  NBF=   178
 NBsUse=   178 1.00D-06 EigRej= -1.00D+00 NBFU=   178
 Initial guess from the checkpoint file:  "4-f-ph-opt-freq-thf.chk"
 B after Tr=    -0.001266    0.001200   -0.001032
         Rot=    1.000000   -0.000021    0.000025    0.000060 Ang=  -0.01 deg.
 Initial guess <Sx>= 0.0000 <Sy>= 0.0000 <Sz>= 0.5000 <S**2>= 0.7619 S= 0.5059
 Keep R1 and R2 ints in memory in canonical form, NReq=286274419.
 Requested convergence on RMS density matrix=1.00D-08 within 128 cycles.
 Requested convergence on MAX density matrix=1.00D-06.
 Requested convergence on             energy=1.00D-06.
 Level shift goal  0.100 maximum shift  0.100.
 No special actions if energy rises.
 Dynamic level shift is on during FON iterations.
 Inv3:  Mode=1 IEnd=     3188883.
 Iteration    1 A*A^-1 deviation from unit magnitude is 3.77D-15 for   1017.
 Iteration    1 A*A^-1 deviation from orthogonality  is 1.70D-15 for   1027    998.
 Iteration    1 A^-1*A deviation from unit magnitude is 3.77D-15 for   1017.
 Iteration    1 A^-1*A deviation from orthogonality  is 1.68D-15 for   1027    998.
 Error on total polarization charges =  0.03050
 SCF Done:  E(UM062X) =  -330.761082043     A.U. after   11 cycles
            NFock= 11  Conv=0.62D-08     -V/T= 2.0035
 <Sx>= 0.0000 <Sy>= 0.0000 <Sz>= 0.5000 <S**2>= 0.7619 S= 0.5059
 <L.S>=  0.00000000000    
 SMD-CDS (non-electrostatic) energy       (kcal/mol) =      -1.13
 (included in total energy above)
 Annihilation of the first spin contaminant:
 S**2 before annihilation     0.7619,   after     0.7501
 D1PCM: PCM CHGder 1st derivatives, ID1Alg=3 FixD1E=F DoIter=F DoCFld=F I1PDM=0.
 Calling FoFJK, ICntrl=      2127 FMM=F ISym2X=0 I1Cent= 0 IOpClX= 1 NMat=1 NMatS=1 NMatT=0.
 -------------------------------------------------------------------
 Center     Atomic                   Forces (Hartrees/Bohr)
 Number     Number              X              Y              Z
 -------------------------------------------------------------------
      1        6          -0.000157430    0.000038483   -0.000062102
      2        6           0.000187049    0.000098431   -0.000004327
      3        1          -0.000002166   -0.000021490    0.000002403
      4        6          -0.000057293   -0.000035347   -0.000005031
      5        1          -0.000006027   -0.000000154   -0.000017139
      6        6          -0.000032426    0.000014322   -0.000019350
      7        6          -0.000014009    0.000063929   -0.000032368
      8        1          -0.000002287    0.000005972    0.000005299
      9        6           0.000074189   -0.000189213    0.000133089
     10        1           0.000003124    0.000024589    0.000004859
     11        9           0.000007277    0.000000476   -0.000005334
 -------------------------------------------------------------------
 Cartesian Forces:  Max     0.000189213 RMS     0.000066730

 GradGradGradGradGradGradGradGradGradGradGradGradGradGradGradGradGradGrad
 Berny optimization.
 Using GEDIIS/GDIIS optimizer.
 FormGI is forming the generalized inverse of G from B-inverse, IUseBI=4.
 Internal  Forces:  Max     0.000149571 RMS     0.000036827
 Search for a local minimum.
 Step number   3 out of a maximum of   57
 All quantities printed in internal units (Hartrees-Bohrs-Radians)
 Mixed Optimization -- En-DIIS/RFO-DIIS
 Swapping is turned off.
 Update second derivatives using D2CorX and points    1    2    3
 DE= -1.89D-05 DEPred=-1.90D-05 R= 9.98D-01
 TightC=F SS=  1.41D+00  RLast= 1.28D-02 DXNew= 8.4853D-01 3.8514D-02
 Trust test= 9.98D-01 RLast= 1.28D-02 DXMaxT set to 5.05D-01
 ITU=  1  1  0
     Eigenvalues ---    0.01730   0.01795   0.01953   0.02424   0.02621
     Eigenvalues ---    0.03109   0.03437   0.03452   0.10173   0.10549
     Eigenvalues ---    0.11152   0.12004   0.15809   0.18398   0.19492
     Eigenvalues ---    0.21405   0.26774   0.35575   0.36028   0.36613
     Eigenvalues ---    0.36758   0.38113   0.41473   0.44485   0.47251
     Eigenvalues ---    0.49157   0.53118
 En-DIIS/RFO-DIIS/Sim-DIIS IScMMF=       -3 using points:     3    2
 RFO step:  Lambda=-1.78578598D-07.
 DidBck=F Rises=F RFO-DIIS coefs:    1.01385   -0.01385
 Iteration  1 RMS(Cart)=  0.00008811 RMS(Int)=  0.00000002
 Iteration  2 RMS(Cart)=  0.00000001 RMS(Int)=  0.00000002
 Variable       Old X    -DE/DX   Delta X   Delta X   Delta X     New X
                                 (Linear)    (Quad)   (Total)
    R1        2.59705  -0.00015   0.00003  -0.00041  -0.00038   2.59668
    R2        2.59714  -0.00015   0.00003  -0.00041  -0.00038   2.59676
    R3        2.04812   0.00002   0.00000   0.00006   0.00006   2.04819
    R4        2.64104   0.00007   0.00003   0.00014   0.00017   2.64121
    R5        2.04771   0.00000   0.00000   0.00000   0.00000   2.04771
    R6        2.61676   0.00003   0.00002   0.00009   0.00010   2.61686
    R7        2.61660   0.00003   0.00001   0.00008   0.00009   2.61669
    R8        2.55524   0.00000   0.00000  -0.00002  -0.00001   2.55522
    R9        2.04775   0.00000   0.00000   0.00000   0.00000   2.04775
   R10        2.64105   0.00007   0.00003   0.00016   0.00019   2.64125
   R11        2.04814   0.00002   0.00000   0.00005   0.00005   2.04820
    A1        2.19163   0.00006   0.00010   0.00015   0.00025   2.19188
    A2        2.13551  -0.00001   0.00002   0.00004   0.00005   2.13557
    A3        2.04433   0.00001  -0.00007   0.00005  -0.00002   2.04431
    A4        2.10335   0.00000   0.00005  -0.00009  -0.00004   2.10331
    A5        2.12545   0.00002   0.00000   0.00011   0.00012   2.12556
    A6        2.06464  -0.00003   0.00001  -0.00011  -0.00011   2.06454
    A7        2.09309   0.00001  -0.00001   0.00000  -0.00001   2.09308
    A8        2.15679  -0.00003   0.00002  -0.00002   0.00000   2.15679
    A9        2.06299   0.00001  -0.00001   0.00000  -0.00001   2.06298
   A10        2.06341   0.00001  -0.00001   0.00002   0.00001   2.06341
   A11        2.09312   0.00001  -0.00001   0.00001   0.00000   2.09312
   A12        2.06461  -0.00003   0.00001  -0.00011  -0.00010   2.06451
   A13        2.12546   0.00002   0.00000   0.00010   0.00010   2.12556
   A14        2.04437   0.00001  -0.00007   0.00004  -0.00003   2.04435
   A15        2.13547   0.00001   0.00006   0.00018   0.00025   2.13572
   A16        2.10334  -0.00002   0.00001  -0.00023  -0.00022   2.10312
    D1        3.14141   0.00000   0.00000   0.00000   0.00001   3.14142
    D2       -0.00029   0.00000   0.00000   0.00001   0.00001  -0.00027
    D3        0.00022   0.00000   0.00000  -0.00002  -0.00002   0.00020
    D4        3.14158   0.00000  -0.00001  -0.00001  -0.00002   3.14156
    D5        3.14139   0.00000   0.00000  -0.00001  -0.00001   3.14138
    D6        0.00024   0.00000   0.00000   0.00000   0.00000   0.00024
    D7       -0.00031   0.00000   0.00000   0.00000   0.00000  -0.00031
    D8       -3.14146   0.00000   0.00000   0.00001   0.00001  -3.14145
    D9       -0.00015   0.00000   0.00000  -0.00001  -0.00001  -0.00016
   D10        3.14138   0.00000   0.00000  -0.00001  -0.00001   3.14137
   D11       -3.14131   0.00000   0.00000   0.00000   0.00000  -3.14131
   D12        0.00023   0.00000   0.00000   0.00000   0.00000   0.00022
   D13       -3.14136   0.00000   0.00000  -0.00001  -0.00001  -3.14137
   D14        0.00008   0.00000   0.00000   0.00000   0.00000   0.00008
   D15        0.00029   0.00000   0.00000   0.00000   0.00000   0.00029
   D16       -3.14145   0.00000   0.00000   0.00000   0.00000  -3.14145
   D17       -0.00010   0.00000   0.00000   0.00001   0.00001  -0.00009
   D18       -3.14147   0.00000   0.00000   0.00001   0.00001  -3.14146
   D19        3.14134   0.00000   0.00000   0.00002   0.00002   3.14136
   D20       -0.00003   0.00000   0.00000   0.00001   0.00002  -0.00001
         Item               Value     Threshold  Converged?
 Maximum Force            0.000150     0.000015     NO 
 RMS     Force            0.000037     0.000010     NO 
 Maximum Displacement     0.000292     0.000060     NO 
 RMS     Displacement     0.000088     0.000040     NO 
 Predicted change in Energy=-8.928940D-08
 GradGradGradGradGradGradGradGradGradGradGradGradGradGradGradGradGradGrad

                          Input orientation:                          
 ---------------------------------------------------------------------
 Center     Atomic      Atomic             Coordinates (Angstroms)
 Number     Number       Type             X           Y           Z
 ---------------------------------------------------------------------
      1          6           0        6.166985    7.016456    5.142635
      2          6           0        5.112113    6.152052    5.310579
      3          1           0        5.210472    5.213394    5.843482
      4          6           0        3.884117    6.530658    4.760891
      5          1           0        3.002817    5.906277    4.848350
      6          6           0        3.810451    7.739469    4.089340
      7          6           0        4.887744    8.595128    3.932290
      8          1           0        4.763341    9.528038    3.395223
      9          6           0        6.117260    8.219697    4.480809
     10          1           0        6.984127    8.862337    4.379279
     11          9           0        2.621627    8.103841    3.558036
 ---------------------------------------------------------------------
                    Distance matrix (angstroms):
                    1          2          3          4          5
     1  C    0.000000
     2  C    1.374102   0.000000
     3  H    2.158040   1.083854   0.000000
     4  C    2.364998   1.397667   2.160187   0.000000
     5  H    3.366165   2.173290   2.518753   1.083601   0.000000
     6  C    2.680565   2.388648   3.379072   1.384785   2.142186
     7  C    2.365079   2.814009   3.897812   2.440468   3.409111
     8  H    3.366261   3.897116   4.980969   3.409160   4.281142
     9  C    1.374145   2.444176   3.423011   2.813934   3.897018
    10  H    2.158172   3.423069   4.313296   3.897745   4.980878
    11  F    4.032732   3.617099   4.503339   2.348541   2.576723
                    6          7          8          9         10
     6  C    0.000000
     7  C    1.384694   0.000000
     8  H    2.142143   1.083623   0.000000
     9  C    2.388563   1.397687   2.173327   0.000000
    10  H    3.378922   2.160097   2.518614   1.083860   0.000000
    11  F    1.352167   2.348770   2.577166   3.617234   4.503461
                   11
    11  F    0.000000
 Symmetry turned off by external request.
 Stoichiometry    C6H4F(2)
 Framework group  C1[X(C6H4F)]
 Deg. of freedom    27
 Full point group                 C1      NOp   1
 Rotational constants (GHZ):           5.6034847           2.7491541           1.8443085
 Standard basis: 6-311+G(d,p) (5D, 7F)
   178 basis functions,   284 primitive gaussians,   185 cartesian basis functions
    25 alpha electrons       24 beta electrons
       nuclear repulsion energy       260.0825747122 Hartrees.
 NAtoms=   11 NActive=   11 NUniq=   11 SFac= 1.00D+00 NAtFMM=   60 NAOKFM=F Big=F
 Integral buffers will be    131072 words long.
 Raffenetti 2 integral format.
 Two-electron integral symmetry is turned off.
 ------------------------------------------------------------------------------
 Polarizable Continuum Model (PCM)
 =================================
 Model                : PCM.
 Atomic radii         : SMD-Coulomb.
 Polarization charges : Total charges.
 Charge compensation  : None.
 Solution method      : Matrix inversion.
 Cavity type          : VdW (van der Waals Surface) (Alpha=1.000).
 Cavity algorithm     : GePol (No added spheres)
                        Default sphere list used, NSphG=   11.
                        Lebedev-Laikov grids with approx.  5.0 points / Ang**2.
                        Smoothing algorithm: York/Karplus (Gamma=1.0000).
                        Polarization charges: spherical gaussians, with
                                              point-specific exponents (IZeta= 3).
                        Self-potential: point-specific (ISelfS= 7).
                        Self-field    : sphere-specific E.n sum rule (ISelfD= 2).
 1st derivatives      : Analytical E(r).r(x)/FMM algorithm (CHGder, D1EAlg=3).
                        Cavity 1st derivative terms included.
 Solvent              : TetraHydroFuran, Eps=   7.425700 Eps(inf)=   1.974025
 ------------------------------------------------------------------------------
 Spheres list:
 ISph  on   Nord     Re0    Alpha      Xe            Ye            Ze
    1   C      1    1.8500  1.000      6.166985      7.016456      5.142635
    2   C      2    1.8500  1.000      5.112113      6.152052      5.310579
    3   H      3    1.2000  1.000      5.210472      5.213394      5.843482
    4   C      4    1.8500  1.000      3.884117      6.530658      4.760891
    5   H      5    1.2000  1.000      3.002817      5.906277      4.848350
    6   C      6    1.8500  1.000      3.810451      7.739469      4.089340
    7   C      7    1.8500  1.000      4.887744      8.595128      3.932290
    8   H      8    1.2000  1.000      4.763341      9.528038      3.395223
    9   C      9    1.8500  1.000      6.117260      8.219697      4.480809
   10   H     10    1.2000  1.000      6.984127      8.862337      4.379279
   11   F     11    1.7300  1.000      2.621627      8.103841      3.558036
 ------------------------------------------------------------------------------
 ------------------------------------------------------------------------------
 Atomic radii for non-electrostatic terms: SMD-CDS.
 ------------------------------------------------------------------------------
 Nuclear repulsion after PCM non-electrostatic terms =      260.0807669696 Hartrees.
 One-electron integrals computed using PRISM.
 NBasis=   178 RedAO= T EigKep=  3.94D-06  NBF=   178
 NBsUse=   178 1.00D-06 EigRej= -1.00D+00 NBFU=   178
 Initial guess from the checkpoint file:  "4-f-ph-opt-freq-thf.chk"
 B after Tr=    -0.000088    0.000065   -0.000057
         Rot=    1.000000   -0.000001    0.000002    0.000003 Ang=   0.00 deg.
 Initial guess <Sx>= 0.0000 <Sy>= 0.0000 <Sz>= 0.5000 <S**2>= 0.7619 S= 0.5059
 Keep R1 and R2 ints in memory in canonical form, NReq=286274419.
 Requested convergence on RMS density matrix=1.00D-08 within 128 cycles.
 Requested convergence on MAX density matrix=1.00D-06.
 Requested convergence on             energy=1.00D-06.
 Level shift goal  0.100 maximum shift  0.100.
 No special actions if energy rises.
 Dynamic level shift is on during FON iterations.
[...]
    A4        2.10331   0.00000   0.00000  -0.00001  -0.00001   2.10330
    A5        2.12556   0.00000   0.00000  -0.00001  -0.00001   2.12556
    A6        2.06454   0.00000   0.00000   0.00000   0.00000   2.06454
    A7        2.09308   0.00000   0.00000   0.00000   0.00000   2.09308
    A8        2.15679   0.00000   0.00000   0.00000   0.00000   2.15680
    A9        2.06298   0.00000   0.00000   0.00000   0.00000   2.06298
   A10        2.06341   0.00000   0.00000   0.00000   0.00000   2.06341
   A11        2.09312   0.00000   0.00000   0.00000   0.00000   2.09312
   A12        2.06451   0.00000   0.00000   0.00000   0.00000   2.06451
   A13        2.12556   0.00000   0.00000   0.00000   0.00000   2.12556
   A14        2.04435   0.00000   0.00000   0.00001   0.00001   2.04435
   A15        2.13572   0.00000   0.00000  -0.00001  -0.00001   2.13571
   A16        2.10312   0.00000   0.00000   0.00000   0.00000   2.10312
    D1        3.14142   0.00000   0.00000   0.00000   0.00000   3.14141
    D2       -0.00027   0.00000   0.00000   0.00000   0.00000  -0.00028
    D3        0.00020   0.00000   0.00000   0.00000   0.00000   0.00020
    D4        3.14156   0.00000   0.00000   0.00000   0.00000   3.14157
    D5        3.14138   0.00000   0.00000   0.00000   0.00000   3.14138
    D6        0.00024   0.00000   0.00000   0.00000   0.00000   0.00024
    D7       -0.00031   0.00000   0.00000   0.00000   0.00000  -0.00031
    D8       -3.14145   0.00000   0.00000   0.00000   0.00000  -3.14145
    D9       -0.00016   0.00000   0.00000   0.00000   0.00000  -0.00016
   D10        3.14137   0.00000   0.00000   0.00000   0.00000   3.14137
   D11       -3.14131   0.00000   0.00000   0.00000   0.00000  -3.14131
   D12        0.00022   0.00000   0.00000   0.00000   0.00000   0.00022
   D13       -3.14137   0.00000   0.00000   0.00000   0.00000  -3.14137
   D14        0.00008   0.00000   0.00000   0.00000   0.00000   0.00008
   D15        0.00029   0.00000   0.00000   0.00000   0.00000   0.00029
   D16       -3.14145   0.00000   0.00000   0.00000   0.00000  -3.14145
   D17       -0.00009   0.00000   0.00000   0.00000   0.00000  -0.00009
   D18       -3.14146   0.00000   0.00000   0.00000   0.00000  -3.14146
   D19        3.14136   0.00000   0.00000   0.00000   0.00000   3.14136
   D20       -0.00001   0.00000   0.00000   0.00000   0.00000  -0.00001
         Item               Value     Threshold  Converged?
 Maximum Force            0.000012     0.000015     YES
 RMS     Force            0.000003     0.000010     YES
 Maximum Displacement     0.000031     0.000060     YES
 RMS     Displacement     0.000008     0.000040     YES
 Predicted change in Energy=-4.069827D-10
 Optimization completed.
    -- Stationary point found.
                           ----------------------------
                           !   Optimized Parameters   !
                           ! (Angstroms and Degrees)  !
 --------------------------                            --------------------------
 ! Name  Definition              Value          Derivative Info.                !
 --------------------------------------------------------------------------------
 ! R1    R(1,2)                  1.3741         -DE/DX =    0.0                 !
 ! R2    R(1,9)                  1.3741         -DE/DX =    0.0                 !
 ! R3    R(2,3)                  1.0839         -DE/DX =    0.0                 !
 ! R4    R(2,4)                  1.3977         -DE/DX =    0.0                 !
 ! R5    R(4,5)                  1.0836         -DE/DX =    0.0                 !
 ! R6    R(4,6)                  1.3848         -DE/DX =    0.0                 !
 ! R7    R(6,7)                  1.3847         -DE/DX =    0.0                 !
 ! R8    R(6,11)                 1.3522         -DE/DX =    0.0                 !
 ! R9    R(7,8)                  1.0836         -DE/DX =    0.0                 !
 ! R10   R(7,9)                  1.3977         -DE/DX =    0.0                 !
 ! R11   R(9,10)                 1.0839         -DE/DX =    0.0                 !
 ! A1    A(2,1,9)              125.5854         -DE/DX =    0.0                 !
 ! A2    A(1,2,3)              122.359          -DE/DX =    0.0                 !
 ! A3    A(1,2,4)              117.1302         -DE/DX =    0.0                 !
 ! A4    A(3,2,4)              120.5107         -DE/DX =    0.0                 !
 ! A5    A(2,4,5)              121.7858         -DE/DX =    0.0                 !
 ! A6    A(2,4,6)              118.2894         -DE/DX =    0.0                 !
 ! A7    A(5,4,6)              119.9248         -DE/DX =    0.0                 !
 ! A8    A(4,6,7)              123.5751         -DE/DX =    0.0                 !
 ! A9    A(4,6,11)             118.1999         -DE/DX =    0.0                 !
 ! A10   A(7,6,11)             118.225          -DE/DX =    0.0                 !
 ! A11   A(6,7,8)              119.9267         -DE/DX =    0.0                 !
 ! A12   A(6,7,9)              118.2874         -DE/DX =    0.0                 !
 ! A13   A(8,7,9)              121.7859         -DE/DX =    0.0                 !
 ! A14   A(1,9,7)              117.1324         -DE/DX =    0.0                 !
 ! A15   A(1,9,10)             122.3676         -DE/DX =    0.0                 !
 ! A16   A(7,9,10)             120.5            -DE/DX =    0.0                 !
 ! D1    D(9,1,2,3)            179.9899         -DE/DX =    0.0                 !
 ! D2    D(9,1,2,4)             -0.0158         -DE/DX =    0.0                 !
 ! D3    D(2,1,9,7)              0.0114         -DE/DX =    0.0                 !
 ! D4    D(2,1,9,10)           179.9983         -DE/DX =    0.0                 !
 ! D5    D(1,2,4,5)            179.9878         -DE/DX =    0.0                 !
 ! D6    D(1,2,4,6)              0.0137         -DE/DX =    0.0                 !
 ! D7    D(3,2,4,5)             -0.0178         -DE/DX =    0.0                 !
 ! D8    D(3,2,4,6)           -179.9918         -DE/DX =    0.0                 !
 ! D9    D(2,4,6,7)             -0.0091         -DE/DX =    0.0                 !
 ! D10   D(2,4,6,11)           179.9872         -DE/DX =    0.0                 !
 ! D11   D(5,4,6,7)           -179.9836         -DE/DX =    0.0                 !
 ! D12   D(5,4,6,11)             0.0126         -DE/DX =    0.0                 !
 ! D13   D(4,6,7,8)           -179.9872         -DE/DX =    0.0                 !
 ! D14   D(4,6,7,9)              0.0047         -DE/DX =    0.0                 !
 ! D15   D(11,6,7,8)             0.0166         -DE/DX =    0.0                 !
 ! D16   D(11,6,7,9)          -179.9916         -DE/DX =    0.0                 !
 ! D17   D(6,7,9,1)             -0.0052         -DE/DX =    0.0                 !
 ! D18   D(6,7,9,10)          -179.9924         -DE/DX =    0.0                 !
 ! D19   D(8,7,9,1)            179.9865         -DE/DX =    0.0                 !
 ! D20   D(8,7,9,10)            -0.0007         -DE/DX =    0.0                 !
 --------------------------------------------------------------------------------
 GradGradGradGradGradGradGradGradGradGradGradGradGradGradGradGradGradGrad


 ----------------------------------------------------------------------

 Electric dipole moment (input orientation):
 (Debye = 10**-18 statcoulomb cm , SI units = C m)
                  (au)            (Debye)         (10**-30 SI)
   Tot        0.420628D+00      0.106913D+01      0.356624D+01
   x          0.369875D+00      0.940127D+00      0.313593D+01
   y         -0.113289D+00     -0.287951D+00     -0.960500D+00
   z          0.165187D+00      0.419864D+00      0.140052D+01

 Dipole polarizability, Alpha (input orientation).
 (esu units = cm**3 , SI units = C**2 m**2 J**-1)
 Alpha(0;0):
               (au)            (10**-24 esu)      (10**-40 SI)
   iso        0.843044D+02      0.124926D+02      0.138999D+02
   aniso      0.511302D+02      0.757671D+01      0.843023D+01
   xx         0.964547D+02      0.142931D+02      0.159032D+02
   yx         0.737993D+01      0.109359D+01      0.121679D+01
   yy         0.924604D+02      0.137012D+02      0.152447D+02
   zx         0.900932D+01      0.133504D+01      0.148544D+01
   zy        -0.205561D+02     -0.304611D+01     -0.338925D+01
   zz         0.639982D+02      0.948355D+01      0.105519D+02

 ----------------------------------------------------------------------

 Dipole orientation:
     6         -1.10715007         17.16775341         10.49308770
     6         -2.55067455         15.36583896          9.30478258
     1         -3.65516691         13.98725698         10.34144942
     6         -2.54778086         15.36964836          6.66357843
     1         -3.63453492         14.01250095          5.58180759
     6         -1.10532704         17.16952388          5.42755397
     6          0.33613055         18.96852319          6.66565126
     1          1.42380291         20.32631991          5.58554157
     6          0.33747791         18.97029386          9.30689569
     1          1.44134845         20.34834832         10.34494829
     9         -1.10463096         17.16977887          2.87232947

 Electric dipole moment (dipole orientation):
 (Debye = 10**-18 statcoulomb cm , SI units = C m)
                  (au)            (Debye)         (10**-30 SI)
   Tot        0.420628D+00      0.106913D+01      0.356624D+01
   x          0.000000D+00      0.000000D+00      0.000000D+00
   y          0.000000D+00      0.000000D+00      0.000000D+00
   z          0.420628D+00      0.106913D+01      0.356624D+01

 Dipole polarizability, Alpha (dipole orientation).
 (esu units = cm**3 , SI units = C**2 m**2 J**-1)
 Alpha(0;0):
               (au)            (10**-24 esu)      (10**-40 SI)
   iso        0.843044D+02      0.124926D+02      0.138999D+02
   aniso      0.511302D+02      0.757671D+01      0.843023D+01
   xx         0.714591D+02      0.105891D+02      0.117820D+02
   yx         0.262929D+02      0.389621D+01      0.433512D+01
   yy         0.832197D+02      0.123319D+02      0.137211D+02
   zx        -0.231758D-01     -0.343430D-02     -0.382117D-02
   zy        -0.254904D-01     -0.377729D-02     -0.420280D-02
   zz         0.982345D+02      0.145569D+02      0.161967D+02

 ----------------------------------------------------------------------
 Unable to Open any file for archive entry.
 1\1\GINC-CN017\Freq\UM062X\6-311+G(d,p)\C6H4F1(2)\UNKNOWN\05-May-2025\
 0\\#N Geom=AllCheck Guess=TCheck SCRF=Check GenChk UM062X/6-311+G(d,p)
  Freq\\4-f-ph-opt-freq-thf\\0,2\C,6.1669852446,7.0164561747,5.14263519
 09\C,5.1121127175,6.15205183,5.3105790647\H,5.2104719658,5.213393932,5
 .8434824214\C,3.8841167095,6.5306583232,4.7608910529\H,3.0028167061,5.
 9062769698,4.8483500644\C,3.8104511139,7.7394689545,4.0893403602\C,4.8
 877443842,8.5951284365,3.9322903915\H,4.763340597,9.5280382058,3.39522
 32916\C,6.1172595232,8.219696895,4.4808085948\H,6.9841265258,8.8623367
 081,4.3792792584\F,2.6216265124,8.1038405704,3.5580363092\\Version=AS6
 4L-G16RevC.01\HF=-330.7610821\S2=0.761885\S2-1=0.\S2A=0.750064\RMSD=3.
 535e-09\RMSF=6.774e-06\ZeroPoint=0.0796925\Thermal=0.0847859\ETot=-330
 .6762962\HTot=-330.675352\GTot=-330.7107789\Dipole=0.3698746,-0.113288
 5,0.1651872\DipoleDeriv=-0.1286119,0.0064464,-0.0032378,0.0051079,-0.1
 169302,-0.0029794,-0.0046602,-0.001159,-0.1275503,0.0211093,0.0733454,
 0.0022305,0.035069,-0.0150532,-0.0500108,0.0239452,-0.0424617,-0.09632
 78,0.1404516,-0.0057605,-0.0151766,0.0026368,0.0561563,0.080466,-0.019
 866,0.078747,0.1573389,-0.1153337,-0.0731108,0.0586621,0.1587331,-0.10
 1547,-0.0062023,-0.0659968,-0.0696898,-0.1732587,0.0373863,-0.0557034,
 -0.0167312,-0.0484194,0.1132366,0.036398,-0.0207369,0.0340686,0.180945
 7,1.4098397,-0.3453854,0.5530092,-0.3472829,0.3254006,-0.2109175,0.551
 6284,-0.2092318,0.3828273,-0.1425598,0.1409439,-0.0605132,-0.0942632,-
 0.0880879,-0.0821024,0.0650924,-0.0191089,-0.1637699,0.1138774,0.01562
 37,-0.034255,0.0108126,0.0657902,0.0779003,-0.0316174,0.0797318,0.1535
 954,-0.0305705,-0.0122543,0.031726,0.025853,0.0228081,-0.0735735,0.012
 5294,-0.0830187,-0.077903,0.0634892,-0.0638206,-0.0050076,-0.0706398,0
 .1033367,0.0351083,-0.001253,0.0370987,0.1843136,-1.3690775,0.3196757,
 -0.5107064,0.3223929,-0.3651102,0.1959132,-0.5090651,0.1950237,-0.4202
 112\Polar=96.4546907,7.3799283,92.4604198,9.0093247,-20.5561373,63.998
 1855\Quadrupole=2.5391915,-1.4840313,-1.0551602,7.6423514,2.9575406,-1
 .136576\PG=C01 [X(C6H4F1)]\NImag=0\\0.39327735,0.14307745,0.52565884,0
 .01277730,-0.20254842,0.18741705,-0.24385947,-0.11298347,0.00698420,0.
 58911450,-0.14446774,-0.19820010,0.03758643,0.06653669,0.62093680,0.02
 393408,0.04644317,-0.07094413,0.09443966,-0.24673510,0.28692228,0.0057
 4599,-0.01907208,0.01194840,-0.05488808,0.01848283,-0.01537157,0.05449
 049,-0.00014229,-0.01300056,0.00682360,0.02340677,-0.26737282,0.130794
 49,-0.02000811,0.27991201,0.00179500,0.00148365,-0.00054480,-0.0180311
 5,0.12941256,-0.11143621,0.01967751,-0.14346620,0.10668927,-0.06196904
 ,-0.04966514,0.00618285,-0.27730099,0.07940891,-0.10469610,0.00153763,
 -0.00145765,-0.00039814,0.69833243,0.00589403,0.05349888,-0.02107082,0
 .00744858,-0.12460495,0.03821050,0.02442548,-0.00200642,0.01102604,0.1
 0449225,0.58546865,-0.02388665,-0.03674471,0.02438540,-0.06594661,0.05
 848461,-0.10738041,-0.01430713,0.00372885,-0.00036109,0.10588530,-0.21
 921127,0.27106009,-0.00361259,0.00056814,-0.00335274,-0.01470745,-0.01
 511951,0.00296807,0.00101167,0.00046857,0.00123176,-0.24612513,-0.1410
 0776,0.01643345,0.25647380,0.00186055,0.00250778,0.00301632,0.00927486
 ,0.00900543,-0.00026992,-0.00019707,-0.00048117,-0.00207799,-0.1393079
 2,-0.15178805,0.02348331,0.15052550,0.15263089,-0.00402017,0.00265736,
 0.00459089,-0.01013607,-0.00714774,0.00462508,0.00158039,-0.00189435,-
 0.00276934,0.01547862,0.02302220,-0.04305716,-0.01551765,-0.02675563,0
 .03398631,-0.01760182,-0.03283737,0.01400550,0.02919570,0.03109010,-0.
 00859618,-0.00288507,-0.00000597,-0.00294601,-0.11889705,0.02280756,-0
 .02744262,0.00402879,-0.02278533,0.01200042,0.63702135,-0.03292305,-0.
 07009619,0.02618103,0.09028932,0.00611231,0.02221050,-0.00054203,0.003
 27229,0.00217828,-0.05351124,-0.28031828,0.10076894,0.00303868,-0.0092
 8664,0.00855257,0.07807493,0.59314511,0.01400578,0.02618553,-0.0143815
 6,-0.04044885,0.00551139,-0.01417161,-0.00266112,0.00233340,0.00559228
 ,0.01354401,0.12228653,-0.12730858,-0.00191100,0.00126800,0.00378960,0
 .09515031,-0.21635381,0.29333249,0.02876511,0.08534444,-0.04106352,-0.
 07451348,-0.01739372,-0.01183510,-0.00117218,-0.00027207,-0.00004966,0
 .04435188,-0.06173087,0.04436735,0.00116681,0.00089283,-0.00161049,-0.
 23011585,-0.07412603,-0.00667434,0.63880169,0.02975864,-0.00390526,0.0
 1648967,-0.01923492,-0.00188506,-0.00393663,0.00018546,0.00022589,-0.0
 0032442,-0.01171209,-0.03442967,0.01788002,0.00043898,-0.00268087,0.00
 435795,-0.15026226,-0.21051296,0.03580149,0.05249765,0.62276440,-0.011
 06803,0.03214338,-0.00912218,-0.01087157,-0.00340802,-0.00039078,-0.00
 029134,-0.00046027,-0.00032222,0.01740962,0.00380500,0.00780833,-0.001
 37278,0.00447782,0.00237914,0.03433866,0.05721967,-0.08625574,0.117053
 20,-0.25370035,0.29315882,-0.00359092,0.00186481,-0.00403137,-0.000800
 32,-0.00047014,0.00034717,0.00007417,0.00010486,0.00009016,-0.00348525
 ,-0.00316937,-0.00073798,0.00032972,-0.00105893,0.00064113,0.00663602,
 -0.02052527,0.01150124,-0.05863649,0.02425472,-0.01967872,0.05492133,0
 .00061031,0.00250694,0.00267841,-0.00029930,0.00027169,-0.00084074,0.0
 0007299,-0.00014921,-0.00013968,-0.00360697,0.00025807,0.00163533,0.00
 026149,-0.00045641,0.00035981,0.00526993,-0.01086015,0.01002341,0.0225
 6606,-0.26970077,0.13251957,-0.02535541,0.27952258,-0.00335979,0.00303
 012,0.00457760,0.00025624,-0.00088303,-0.00057942,0.00010685,-0.000130
 30,-0.00034640,-0.00049750,0.00176086,0.00409117,-0.00006827,-0.000011
 92,0.00006253,-0.00236821,0.00275599,0.00286347,-0.01880604,0.13296312
 ,-0.11244635,0.02235910,-0.14457095,0.10859852,-0.10030855,-0.01919324
 ,-0.00320152,0.04553939,-0.01959878,0.02246434,-0.00321176,-0.00258109
 ,-0.00108009,-0.01947491,0.03073793,-0.02229163,0.00053249,0.00069714,
 0.00008824,-0.05560982,-0.04306673,0.00751855,-0.28039513,0.07663757,-
 0.10404280,0.00109148,-0.00133554,-0.00001580,0.65104848,0.01230480,-0
 .28874771,0.13072186,-0.05721342,-0.03720840,0.00568154,-0.00427917,0.
 00043721,0.00152315,0.02890832,-0.03670040,0.02837227,0.00087325,-0.00
 055892,-0.00006067,0.01598068,0.05980536,-0.02758936,0.00471937,-0.122
 66180,0.03640677,0.02307978,-0.00102400,0.00902810,0.12090514,0.582228
 29,-0.02015564,0.12187997,-0.12420919,0.04275883,0.01623784,0.00647657
 ,-0.00015728,0.00201784,0.00440323,-0.02130152,0.02886408,-0.02070774,
 0.00000028,-0.00010907,-0.00107463,-0.02439906,-0.04424783,0.01717873,
 -0.06534950,0.05669205,-0.10623487,-0.01312851,0.00213123,-0.00122502,
 0.08263932,-0.21111774,0.26414130,0.00591617,0.00000809,0.00173209,0.0
 0140968,0.00144744,-0.00194750,0.00025197,0.00022376,0.00004879,-0.000
 30864,0.00049702,-0.00021636,-0.00006151,-0.00001015,0.00011531,-0.000
 90046,0.00169945,-0.00331976,-0.01647591,-0.01717946,0.00300377,0.0011
 5443,0.00059182,0.00120567,-0.23887731,-0.13733989,0.01685425,0.249855
 85,-0.01893370,-0.01313940,0.00159523,-0.00024317,-0.00248171,0.004239
 66,-0.00075085,-0.00042525,-0.00016684,0.00094428,-0.00032138,0.000176
 94,-0.00004277,-0.00006529,-0.00021794,0.00120099,0.00200323,0.0033417
 3,0.00867738,0.00942584,0.00043019,-0.00006779,-0.00057107,-0.00199549
 ,-0.14227187,-0.15168349,0.02209831,0.15067918,0.15702867,0.01194234,0
 .00695570,-0.00062144,-0.00103346,0.00472443,0.00269994,0.00057127,0.0
 0010603,-0.00023966,-0.00046048,0.00004684,-0.00064401,0.00013239,-0.0
 0020862,-0.00029817,-0.00303343,0.00349000,0.00486237,-0.01089414,-0.0
 0686141,0.00629594,0.00154906,-0.00180968,-0.00282044,0.01946158,0.023
 46002,-0.04332293,-0.01733239,-0.02946073,0.03437592,-0.00276222,0.002
 88836,-0.00198118,0.00081053,0.00008393,-0.00170687,-0.00095483,0.0002
 6322,-0.00033817,-0.01666091,0.00960515,-0.01185712,0.00096339,0.00010
 853,0.00138028,-0.25087179,0.05159197,-0.08670482,-0.05177646,0.014615
 69,-0.02448002,0.00230583,0.00122463,0.00118774,-0.00033435,-0.0079388
 6,0.00223883,-0.00196427,0.00080833,-0.00090273,0.32124508,0.00296100,
 0.00291677,-0.00147332,-0.00698194,-0.00457319,0.00420253,0.00168256,-
 0.00041198,0.00055146,0.04550725,-0.00905645,0.02142570,-0.00000456,0.
 00117325,-0.00287355,0.05146674,-0.08326408,0.03719170,-0.02117504,0.0
 1336027,-0.00943374,0.00134275,0.00020235,-0.00194650,-0.00093054,-0.0
 0388614,0.00555332,-0.00061727,0.00022984,-0.00044258,-0.07325095,0.08
 330936,-0.00196422,-0.00148575,-0.00114762,0.00202878,0.00621663,0.004
 17870,-0.00109599,0.00014692,-0.00066506,-0.03114665,0.01126005,-0.007
 88600,0.00145649,-0.00281231,-0.00223424,-0.08670938,0.03724467,-0.085
 50144,-0.00513776,0.00063850,0.00512991,0.00108873,-0.00198670,-0.0027
 7566,-0.00154020,0.00357406,0.00457455,-0.00014385,-0.00004105,-0.0002
 8754,0.12316405,-0.05275502,0.08661440\\-0.00001054,0.00000542,-0.0000
 1057,0.00001264,0.00000982,0.00000286,0.00000533,0.00000423,0.00000771
 ,0.00000065,0.00000132,0.00000777,0.00000004,0.00000247,0.00001405,-0.
 00000287,-0.00000086,0.00000274,-0.00000069,-0.00000212,-0.00000500,-0
 .00000380,-0.00000438,-0.00000842,0.00000245,-0.00001205,-0.00000234,0
 .00000101,-0.00000154,-0.00001565,-0.00000421,-0.00000230,0.00000683\\
 \@
 The archive entry for this job was punched.


 YOU SHOULDN'T LET PEOPLE DRIVE YOU CRAZY
 WHEN YOU KNOW IT'S WITHIN WALKING DISTANCE.
 Job cpu time:       0 days  0 hours 25 minutes  5.6 seconds.
 Elapsed time:       0 days  0 hours  0 minutes 49.8 seconds.
 File lengths (MBytes):  RWF=     92 Int=      0 D2E=      0 Chk=     11 Scr=      1
 Normal termination of Gaussian 16 at Mon May  5 08:15:25 2025.
