/home/tahminaafroz
cn007.cluster.local
tahminaafroz
Sat Apr 19 13:32:55 CDT 2025
 Entering Gaussian System, Link 0=g16
 Initial command:
 /home/apps/g16/l1.exe "/tmp/4-f-phboh2-opt-freq/Gau-126598.inp" -scrdir="/tmp/4-f-phboh2-opt-freq/"
 Entering Link 1 = /home/apps/g16/l1.exe PID=    126599.
  
 Copyright (c) 1988-2019, Gaussian, Inc.  All Rights Reserved.
  
 This is part of the Gaussian(R) 16 program.  It is based on
 the Gaussian(R) 09 system (copyright 2009, Gaussian, Inc.),
 the Gaussian(R) 03 system (copyright 2003, Gaussian, Inc.),
 the Gaussian(R) 98 system (copyright 1998, Gaussian, Inc.),
 the Gaussian(R) 94 system (copyright 1995, Gaussian, Inc.),
 the Gaussian 92(TM) system (copyright 1992, Gaussian, Inc.),
 the Gaussian 90(TM) system (copyright 1990, Gaussian, Inc.),
 the Gaussian 88(TM) system (copyright 1988, Gaussian, Inc.),
 the Gaussian 86(TM) system (copyright 1986, Carnegie Mellon
 University), and the Gaussian 82(TM) system (copyright 1983,
 Carnegie Mellon University). Gaussian is a federally registered
 trademark of Gaussian, Inc.
  
 This software contains proprietary and confidential information,
 including trade secrets, belonging to Gaussian, Inc.
  
 This software is provided under written license and may be
 used, copied, transmitted, or stored only in accord with that
 written license.
  
 The following legend is applicable only to US Government
 contracts under FAR:
  
                    RESTRICTED RIGHTS LEGEND
  
 Use, reproduction and disclosure by the US Government is
 subject to restrictions as set forth in subparagraphs (a)
 and (c) of the Commercial Computer Software - Restricted
 Rights clause in FAR 52.227-19.
  
 Gaussian, Inc.
 340 Quinnipiac St., Bldg. 40, Wallingford CT 06492
  
  
 ---------------------------------------------------------------
 Warning -- This program may not be used in any manner that
 competes with the business of Gaussian, Inc. or will provide
 assistance to any competitor of Gaussian, Inc.  The licensee
 of this program is prohibited from giving any competitor of
 Gaussian, Inc. access to this program.  By using this program,
 the user acknowledges that Gaussian, Inc. is engaged in the
 business of creating and licensing software in the field of
 computational chemistry and represents and warrants to the
 licensee that it is not a competitor of Gaussian, Inc. and that
 it will not use this program in any manner prohibited above.
 ---------------------------------------------------------------
  

 Cite this work as:
 Gaussian 16, Revision C.01,
 M. J. Frisch, G. W. Trucks, H. B. Schlegel, G. E. Scuseria, 
 M. A. Robb, J. R. Cheeseman, G. Scalmani, V. Barone, 
 G. A. Petersson, H. Nakatsuji, X. Li, M. Caricato, A. V. Marenich, 
 J. Bloino, B. G. Janesko, R. Gomperts, B. Mennucci, H. P. Hratchian, 
 J. V. Ortiz, A. F. Izmaylov, J. L. Sonnenberg, D. Williams-Young, 
 F. Ding, F. Lipparini, F. Egidi, J. Goings, B. Peng, A. Petrone, 
 T. Henderson, D. Ranasinghe, V. G. Zakrzewski, J. Gao, N. Rega, 
 G. Zheng, W. Liang, M. Hada, M. Ehara, K. Toyota, R. Fukuda, 
 J. Hasegawa, M. Ishida, T. Nakajima, Y. Honda, O. Kitao, H. Nakai, 
 T. Vreven, K. Throssell, J. A. Montgomery, Jr., J. E. Peralta, 
 F. Ogliaro, M. J. Bearpark, J. J. Heyd, E. N. Brothers, K. N. Kudin, 
 V. N. Staroverov, T. A. Keith, R. Kobayashi, J. Normand, 
 K. Raghavachari, A. P. Rendell, J. C. Burant, S. S. Iyengar, 
 J. Tomasi, M. Cossi, J. M. Millam, M. Klene, C. Adamo, R. Cammi, 
 J. W. Ochterski, R. L. Martin, K. Morokuma, O. Farkas, 
 J. B. Foresman, and D. J. Fox, Gaussian, Inc., Wallingford CT, 2019.
 
 ******************************************
 Gaussian 16:  AS64L-G16RevC.01  3-Jul-2019
                19-Apr-2025 
 ******************************************
 %mem=20GB
 %nprocshared=32
 Will use up to   32 processors via shared memory.
 %chk=4-f-phboh2-opt-freq.chk
 ----------------------------------------------------------------------
 # opt=(calcfc,tight) freq 6-311+g(d,p) nosymm scf=(qc,fermi,xqc) geom=
 connectivity int=ultrafine m062x
 ----------------------------------------------------------------------
 1/7=10,10=4,18=20,19=15,26=4,38=1,57=2/1,3;
 2/9=110,12=2,15=1,17=6,18=5,40=1/2;
 3/5=4,6=6,7=111,11=2,25=1,30=1,71=2,74=-55,75=-5,140=1/1,2,3;
 4//1;
 5/5=2,22=13,38=5/2;
 8/6=4,10=90,11=11/1;
 11/6=1,8=1,9=11,15=111,16=1,31=1/1,2,10;
 10/6=1,13=1,31=1/2;
 6/7=2,8=2,9=2,10=2,28=1/1;
 7/10=1,25=1,30=1/1,2,3,16;
 1/7=10,10=4,18=20,19=15,26=4/3(2);
 2/9=110,15=1/2;
 99//99;
 2/9=110,15=1/2;
 3/5=4,6=6,7=111,11=2,25=1,30=1,71=1,74=-55,75=-5/1,2,3;
 4/5=5,16=3,69=1/1;
 5/5=2,22=13,38=5/2;
 7/30=1/1,2,3,16;
 1/7=10,18=20,19=15,26=4/3(-5);
 2/9=110,15=1/2;
 6/7=2,8=2,9=2,10=2,19=2,28=1/1;
 99/9=1/99;
 -------------------
 4-f-phboh2-opt-freq
 -------------------
 Symbolic Z-matrix:
 Charge =  0 Multiplicity = 1
 O                     8.6937    7.4516    5.54165 
 H                     9.50219   7.13774   5.95654 
 C                     6.24551   6.99743   5.17177 
 B                     7.64171   6.61653   5.77197 
 O                     7.87495   5.49385   6.5199 
 H                     7.09974   4.95193   6.67447 
 C                     5.12292   6.1708    5.28852 
 H                     5.19038   5.21599   5.80391 
 C                     3.89549   6.53793   4.7481 
 H                     3.03837   5.88269   4.84886 
 C                     3.77272   7.74979   4.07563 
 C                     4.87718   8.58681   3.94549 
 H                     4.78267   9.53028   3.42076 
 C                     6.10033   8.21073   4.48781 
 H                     6.96312   8.85954   4.38658 
 F                     2.58334   8.11163   3.54936 
 

 GradGradGradGradGradGradGradGradGradGradGradGradGradGradGradGradGradGrad
 Berny optimization.
 Initialization pass.
                           ----------------------------
                           !    Initial Parameters    !
                           ! (Angstroms and Degrees)  !
 --------------------------                            --------------------------
 ! Name  Definition              Value          Derivative Info.                !
 --------------------------------------------------------------------------------
 ! R1    R(1,2)                  0.9614         calculate D2E/DX2 analytically  !
 ! R2    R(1,4)                  1.3627         calculate D2E/DX2 analytically  !
 ! R3    R(3,4)                  1.5667         calculate D2E/DX2 analytically  !
 ! R4    R(3,7)                  1.399          calculate D2E/DX2 analytically  !
 ! R5    R(3,14)                 1.4003         calculate D2E/DX2 analytically  !
 ! R6    R(4,5)                  1.369          calculate D2E/DX2 analytically  !
 ! R7    R(5,6)                  0.9584         calculate D2E/DX2 analytically  !
 ! R8    R(7,8)                  1.0871         calculate D2E/DX2 analytically  !
 ! R9    R(7,9)                  1.3905         calculate D2E/DX2 analytically  !
 ! R10   R(9,10)                 1.0836         calculate D2E/DX2 analytically  !
 ! R11   R(9,11)                 1.3914         calculate D2E/DX2 analytically  !
 ! R12   R(11,12)                1.3919         calculate D2E/DX2 analytically  !
 ! R13   R(11,16)                1.35           calculate D2E/DX2 analytically  !
 ! R14   R(12,13)                1.0837         calculate D2E/DX2 analytically  !
 ! R15   R(12,14)                1.3898         calculate D2E/DX2 analytically  !
 ! R16   R(14,15)                1.0843         calculate D2E/DX2 analytically  !
 ! A1    A(2,1,4)              112.0983         calculate D2E/DX2 analytically  !
 ! A2    A(4,3,7)              122.6467         calculate D2E/DX2 analytically  !
 ! A3    A(4,3,14)             119.3501         calculate D2E/DX2 analytically  !
 ! A4    A(7,3,14)             118.0032         calculate D2E/DX2 analytically  !
 ! A5    A(1,4,3)              118.3077         calculate D2E/DX2 analytically  !
 ! A6    A(1,4,5)              117.6027         calculate D2E/DX2 analytically  !
 ! A7    A(3,4,5)              124.0894         calculate D2E/DX2 analytically  !
 ! A8    A(4,5,6)              114.4569         calculate D2E/DX2 analytically  !
 ! A9    A(3,7,8)              120.5799         calculate D2E/DX2 analytically  !
 ! A10   A(3,7,9)              121.3254         calculate D2E/DX2 analytically  !
 ! A11   A(8,7,9)              118.0941         calculate D2E/DX2 analytically  !
 ! A12   A(7,9,10)             120.1633         calculate D2E/DX2 analytically  !
 ! A13   A(7,9,11)             119.7161         calculate D2E/DX2 analytically  !
 ! A14   A(10,9,11)            120.1206         calculate D2E/DX2 analytically  !
 ! A15   A(9,11,12)            119.9297         calculate D2E/DX2 analytically  !
 ! A16   A(9,11,16)            119.9738         calculate D2E/DX2 analytically  !
 ! A17   A(12,11,16)           120.0964         calculate D2E/DX2 analytically  !
 ! A18   A(11,12,13)           119.9739         calculate D2E/DX2 analytically  !
 ! A19   A(11,12,14)           119.9423         calculate D2E/DX2 analytically  !
 ! A20   A(13,12,14)           120.0838         calculate D2E/DX2 analytically  !
 ! A21   A(3,14,12)            121.0828         calculate D2E/DX2 analytically  !
 ! A22   A(3,14,15)            118.7874         calculate D2E/DX2 analytically  !
 ! A23   A(12,14,15)           120.1298         calculate D2E/DX2 analytically  !
 ! D1    D(2,1,4,3)            179.4321         calculate D2E/DX2 analytically  !
 ! D2    D(2,1,4,5)             -0.4323         calculate D2E/DX2 analytically  !
 ! D3    D(7,3,4,1)            176.3571         calculate D2E/DX2 analytically  !
 ! D4    D(7,3,4,5)             -3.788          calculate D2E/DX2 analytically  !
 ! D5    D(14,3,4,1)            -3.617          calculate D2E/DX2 analytically  !
 ! D6    D(14,3,4,5)           176.2379         calculate D2E/DX2 analytically  !
 ! D7    D(4,3,7,8)             -0.4723         calculate D2E/DX2 analytically  !
 ! D8    D(4,3,7,9)            179.8225         calculate D2E/DX2 analytically  !
 ! D9    D(14,3,7,8)           179.5021         calculate D2E/DX2 analytically  !
 ! D10   D(14,3,7,9)            -0.2031         calculate D2E/DX2 analytically  !
 ! D11   D(4,3,14,12)         -179.7549         calculate D2E/DX2 analytically  !
 ! D12   D(4,3,14,15)            0.2004         calculate D2E/DX2 analytically  !
 ! D13   D(7,3,14,12)            0.2698         calculate D2E/DX2 analytically  !
 ! D14   D(7,3,14,15)         -179.7749         calculate D2E/DX2 analytically  !
 ! D15   D(1,4,5,6)            178.3759         calculate D2E/DX2 analytically  !
 ! D16   D(3,4,5,6)             -1.48           calculate D2E/DX2 analytically  !
 ! D17   D(3,7,9,10)           179.9449         calculate D2E/DX2 analytically  !
 ! D18   D(3,7,9,11)             0.0287         calculate D2E/DX2 analytically  !
 ! D19   D(8,7,9,10)             0.2326         calculate D2E/DX2 analytically  !
 ! D20   D(8,7,9,11)          -179.6836         calculate D2E/DX2 analytically  !
 ! D21   D(7,9,11,12)            0.0852         calculate D2E/DX2 analytically  !
 ! D22   D(7,9,11,16)         -179.9745         calculate D2E/DX2 analytically  !
 ! D23   D(10,9,11,12)        -179.831          calculate D2E/DX2 analytically  !
 ! D24   D(10,9,11,16)           0.1093         calculate D2E/DX2 analytically  !
 ! D25   D(9,11,12,13)         179.9215         calculate D2E/DX2 analytically  !
 ! D26   D(9,11,12,14)          -0.0192         calculate D2E/DX2 analytically  !
 ! D27   D(16,11,12,13)         -0.0187         calculate D2E/DX2 analytically  !
 ! D28   D(16,11,12,14)       -179.9595         calculate D2E/DX2 analytically  !
 ! D29   D(11,12,14,3)          -0.1625         calculate D2E/DX2 analytically  !
 ! D30   D(11,12,14,15)        179.8828         calculate D2E/DX2 analytically  !
 ! D31   D(13,12,14,3)         179.8968         calculate D2E/DX2 analytically  !
 ! D32   D(13,12,14,15)         -0.0579         calculate D2E/DX2 analytically  !
 --------------------------------------------------------------------------------
 Trust Radius=3.00D-01 FncErr=1.00D-07 GrdErr=1.00D-06 EigMax=2.50D+02 EigMin=1.00D-04
 Number of steps in this run=     81 maximum allowed number of steps=    100.
 GradGradGradGradGradGradGradGradGradGradGradGradGradGradGradGradGradGrad

                          Input orientation:                          
 ---------------------------------------------------------------------
 Center     Atomic      Atomic             Coordinates (Angstroms)
 Number     Number       Type             X           Y           Z
 ---------------------------------------------------------------------
      1          8           0        8.693701    7.451595    5.541649
      2          1           0        9.502193    7.137737    5.956544
      3          6           0        6.245510    6.997434    5.171772
      4          5           0        7.641708    6.616527    5.771970
      5          8           0        7.874947    5.493847    6.519897
      6          1           0        7.099744    4.951929    6.674467
      7          6           0        5.122923    6.170805    5.288524
      8          1           0        5.190378    5.215994    5.803906
      9          6           0        3.895492    6.537926    4.748104
     10          1           0        3.038365    5.882688    4.848858
     11          6           0        3.772716    7.749791    4.075628
     12          6           0        4.877176    8.586807    3.945493
     13          1           0        4.782667    9.530279    3.420756
     14          6           0        6.100328    8.210725    4.487806
     15          1           0        6.963122    8.859535    4.386577
     16          9           0        2.583341    8.111632    3.549359
 ---------------------------------------------------------------------
                    Distance matrix (angstroms):
                    1          2          3          4          5
     1  O    0.000000
     2  H    0.961407   0.000000
     3  C    2.517282   3.352840   0.000000
     4  B    1.362746   1.940910   1.566747   0.000000
     5  O    2.336687   2.380687   2.594856   1.369016   0.000000
     6  H    3.173690   3.326399   2.678040   1.969546   0.958388
     7  C    3.801967   4.534227   1.398981   2.603203   3.090014
     8  H    4.164128   4.723150   2.164815   2.823390   2.792267
     9  C    4.948466   5.766732   2.431713   3.884407   4.479443
    10  H    5.909675   6.677064   3.410676   4.751991   5.131870
    11  C    5.143368   6.061300   2.807540   4.373896   5.281291
    12  C    4.289788   5.247372   2.429445   3.854952   5.018026
    13  H    4.910733   5.867572   3.408998   4.710868   5.954801
    14  C    2.900422   3.857613   1.400344   2.562498   3.828850
    15  H    2.512248   3.446196   2.144509   2.722293   4.087828
    16  F    6.460756   7.390096   4.157540   5.723846   6.608932
                    6          7          8          9         10
     6  H    0.000000
     7  C    2.704500   0.000000
     8  H    2.115014   1.087121   0.000000
     9  C    4.061218   1.390474   2.130482   0.000000
    10  H    4.549061   2.149814   2.446989   1.083584   0.000000
    11  C    5.064693   2.405696   3.378881   1.391372   2.150170
    12  C    5.059589   2.775102   3.861887   2.409523   3.392573
    13  H    6.075917   3.858808   4.945572   3.391623   4.288005
    14  C    4.049700   2.399530   3.395371   2.779805   3.863384
    15  H    4.530176   3.380697   4.292649   3.864055   4.947630
    16  F    6.336238   3.638816   4.501593   2.373874   2.619911
                   11         12         13         14         15
    11  C    0.000000
    12  C    1.391892   0.000000
    13  H    2.149185   1.083707   0.000000
    14  C    2.408346   1.389835   2.148499   0.000000
    15  H    3.392184   2.149443   2.477315   1.084258   0.000000
    16  F    1.350000   2.375793   2.620330   3.641387   4.521368
                   16
    16  F    0.000000
 Symmetry turned off by external request.
 Stoichiometry    C6H6BFO2
 Framework group  C1[X(C6H6BFO2)]
 Deg. of freedom    42
 Full point group                 C1      NOp   1
 Rotational constants (GHZ):           3.7008117           0.7187955           0.6020893
 Standard basis: 6-311+G(d,p) (5D, 7F)
   256 basis functions,   408 primitive gaussians,   266 cartesian basis functions
    36 alpha electrons       36 beta electrons
       nuclear repulsion energy       473.8119430328 Hartrees.
 NAtoms=   16 NActive=   16 NUniq=   16 SFac= 1.00D+00 NAtFMM=   60 NAOKFM=F Big=F
 Integral buffers will be    131072 words long.
 Raffenetti 2 integral format.
 Two-electron integral symmetry is turned off.
 One-electron integrals computed using PRISM.
 NBasis=   256 RedAO= T EigKep=  2.57D-06  NBF=   256
 NBsUse=   256 1.00D-06 EigRej= -1.00D+00 NBFU=   256
 ExpMin= 3.15D-02 ExpMax= 1.14D+04 ExpMxC= 1.72D+03 IAcc=3 IRadAn=         5 AccDes= 0.00D+00
 Harris functional with IExCor= 1009 and IRadAn=       5 diagonalized for initial guess.
 HarFok:  IExCor= 1009 AccDes= 0.00D+00 IRadAn=         5 IDoV= 1 UseB2=F ITyADJ=14
 ICtDFT=  3500011 ScaDFX=  1.000000  1.000000  1.000000  1.000000
 FoFCou: FMM=F IPFlag=           0 FMFlag=      100000 FMFlg1=           0
         NFxFlg=           0 DoJE=T BraDBF=F KetDBF=T FulRan=T
         wScrn=  0.000000 ICntrl=       500 IOpCl=  0 I1Cent=   200000004 NGrid=           0
         NMat0=    1 NMatS0=      1 NMatT0=    0 NMatD0=    1 NMtDS0=    0 NMtDT0=    0
 Symmetry not used in FoFCou.
 Requested convergence on RMS density matrix=1.00D-08 within 128 cycles.
 Requested convergence on MAX density matrix=1.00D-06.
 Requested convergence on             energy=1.00D-06.
 Level shift goal  0.100 maximum shift  0.100.
 No special actions if energy rises.
 Dynamic level shift is on during FON iterations.
 SCF Done:  E(RM062X) =  -507.466394433     A.U. after   14 cycles
            NFock= 14  Conv=0.38D-08     -V/T= 2.0035
 DoSCS=F DFT=T ScalE2(SS,OS)=  1.000000  1.000000
 Range of M.O.s used for correlation:     1   256
 NBasis=   256 NAE=    36 NBE=    36 NFC=     0 NFV=     0
 NROrb=    256 NOA=    36 NOB=    36 NVA=   220 NVB=   220

 **** Warning!!: The largest alpha MO coefficient is  0.13093098D+03

 Symmetrizing basis deriv contribution to polar:
 IMax=3 JMax=2 DiffMx= 0.00D+00
 G2DrvN: will do    17 centers at a time, making    1 passes.
 Calling FoFCou, ICntrl=  3107 FMM=F I1Cent=   0 AccDes= 0.00D+00.
 End of G2Drv F.D. properties file   721 does not exist.
 End of G2Drv F.D. properties file   722 does not exist.
 End of G2Drv F.D. properties file   788 does not exist.
          IDoAtm=1111111111111111
          Differentiating once with respect to nuclear coordinates.
 Keep R1 ints in memory in canonical form, NReq=576114704.
          There are    51 degrees of freedom in the 1st order CPHF.  IDoFFX=6 NUNeed=     0.
     45 vectors produced by pass  0 Test12= 1.55D-14 1.96D-09 XBig12= 1.40D-01 1.24D-01.
 AX will form    45 AO Fock derivatives at one time.
     45 vectors produced by pass  1 Test12= 1.55D-14 1.96D-09 XBig12= 1.05D-02 3.09D-02.
     45 vectors produced by pass  2 Test12= 1.55D-14 1.96D-09 XBig12= 3.37D-04 3.88D-03.
     45 vectors produced by pass  3 Test12= 1.55D-14 1.96D-09 XBig12= 2.57D-06 2.39D-04.
     45 vectors produced by pass  4 Test12= 1.55D-14 1.96D-09 XBig12= 1.67D-08 1.42D-05.
     45 vectors produced by pass  5 Test12= 1.55D-14 1.96D-09 XBig12= 6.92D-11 8.10D-07.
     43 vectors produced by pass  6 Test12= 1.55D-14 1.96D-09 XBig12= 2.73D-13 5.92D-08.
      7 vectors produced by pass  7 Test12= 1.55D-14 1.96D-09 XBig12= 1.19D-15 3.82D-09.
 InvSVY:  IOpt=1 It=  1 EMax= 6.11D-16
 Solved reduced A of dimension   320 with    51 vectors.
 End of Minotr F.D. properties file   721 does not exist.
 End of Minotr F.D. properties file   722 does not exist.
 End of Minotr F.D. properties file   788 does not exist.

 **********************************************************************

            Population analysis using the SCF Density.

 **********************************************************************

 Alpha  occ. eigenvalues --  -25.26165 -19.64519 -19.63693 -10.64430 -10.56844
 Alpha  occ. eigenvalues --  -10.56167 -10.56026 -10.55890 -10.53945  -7.09112
 Alpha  occ. eigenvalues --   -1.37914  -1.17547  -1.13829  -0.97847  -0.86499
 Alpha  occ. eigenvalues --   -0.85730  -0.72108  -0.71443  -0.66202  -0.64385
 Alpha  occ. eigenvalues --   -0.63049  -0.58546  -0.57376  -0.56491  -0.52949
 Alpha  occ. eigenvalues --   -0.50744  -0.49591  -0.48712  -0.48299  -0.46243
 Alpha  occ. eigenvalues --   -0.44232  -0.41499  -0.41158  -0.40127  -0.32662
 Alpha  occ. eigenvalues --   -0.31426
 Alpha virt. eigenvalues --   -0.00826  -0.00759   0.00277   0.01290   0.02033
 Alpha virt. eigenvalues --    0.02936   0.03616   0.04201   0.04791   0.07218
 Alpha virt. eigenvalues --    0.07719   0.07808   0.08975   0.10415   0.11277
 Alpha virt. eigenvalues --    0.11382   0.12198   0.13430   0.13781   0.14036
 Alpha virt. eigenvalues --    0.14945   0.15007   0.16112   0.17030   0.17165
 Alpha virt. eigenvalues --    0.17482   0.18069   0.18926   0.19717   0.20190
 Alpha virt. eigenvalues --    0.22165   0.22509   0.22884   0.23434   0.23636
 Alpha virt. eigenvalues --    0.24201   0.24758   0.25041   0.25251   0.25956
 Alpha virt. eigenvalues --    0.26928   0.27966   0.29134   0.30631   0.31747
 Alpha virt. eigenvalues --    0.32558   0.33996   0.34702   0.36698   0.36809
 Alpha virt. eigenvalues --    0.38725   0.40161   0.40928   0.43917   0.44451
 Alpha virt. eigenvalues --    0.44983   0.47852   0.48935   0.49417   0.50703
 Alpha virt. eigenvalues --    0.52577   0.54225   0.55997   0.56300   0.57896
 Alpha virt. eigenvalues --    0.59296   0.60712   0.62567   0.63092   0.63616
 Alpha virt. eigenvalues --    0.63925   0.66850   0.67651   0.69338   0.70156
 Alpha virt. eigenvalues --    0.70718   0.72476   0.72800   0.77150   0.77250
 Alpha virt. eigenvalues --    0.80054   0.83352   0.85102   0.86882   0.88869
 Alpha virt. eigenvalues --    0.89327   0.89811   0.90923   0.92021   0.94568
 Alpha virt. eigenvalues --    0.97542   0.99752   1.01940   1.04125   1.05833
 Alpha virt. eigenvalues --    1.07204   1.07772   1.08220   1.10642   1.12231
 Alpha virt. eigenvalues --    1.12591   1.12894   1.19202   1.19399   1.22244
 Alpha virt. eigenvalues --    1.25470   1.31557   1.32775   1.34325   1.38103
 Alpha virt. eigenvalues --    1.44802   1.45057   1.48258   1.48380   1.49510
 Alpha virt. eigenvalues --    1.50482   1.52337   1.53935   1.57477   1.59444
 Alpha virt. eigenvalues --    1.59831   1.60471   1.64854   1.65657   1.67754
 Alpha virt. eigenvalues --    1.69263   1.69762   1.75729   1.77436   1.79325
 Alpha virt. eigenvalues --    1.79660   1.84163   1.86135   1.91550   1.94099
 Alpha virt. eigenvalues --    1.95070   1.96047   1.97838   1.99627   2.00612
 Alpha virt. eigenvalues --    2.00873   2.07865   2.09404   2.10613   2.11997
 Alpha virt. eigenvalues --    2.14422   2.15878   2.20404   2.27172   2.30578
 Alpha virt. eigenvalues --    2.34918   2.41329   2.43653   2.47347   2.56409
 Alpha virt. eigenvalues --    2.57822   2.61226   2.62651   2.64698   2.67705
 Alpha virt. eigenvalues --    2.70193   2.72119   2.73904   2.76603   2.77354
 Alpha virt. eigenvalues --    2.77869   2.79432   2.83214   2.83547   2.93527
 Alpha virt. eigenvalues --    2.94310   2.97014   3.06762   3.10674   3.12916
 Alpha virt. eigenvalues --    3.17579   3.23520   3.25270   3.25997   3.30721
 Alpha virt. eigenvalues --    3.38612   3.41156   3.47793   3.53030   3.54696
 Alpha virt. eigenvalues --    3.60072   3.62247   3.65897   3.73850   3.87883
 Alpha virt. eigenvalues --    3.90911   3.93701   3.94999   4.02479   4.07395
 Alpha virt. eigenvalues --    4.10417   4.16472   4.20051   4.21466   4.85446
 Alpha virt. eigenvalues --    4.93284   5.07579   5.08694   5.38518   5.49200
 Alpha virt. eigenvalues --    5.68326   5.75934   6.45892   6.58267   6.86796
 Alpha virt. eigenvalues --   14.78896  23.63661  23.98259  24.01944  24.11879
 Alpha virt. eigenvalues --   24.16673  24.24441  49.99343  50.04928  66.93269
          Condensed to atoms (all electrons):
               1          2          3          4          5          6
     1  O    7.787921   0.266119   0.022950   0.444932  -0.117177   0.019209
     2  H    0.266119   0.452028   0.048188  -0.005323  -0.034450   0.003238
     3  C    0.022950   0.048188   8.442362   0.231392  -0.165863  -0.000478
     4  B    0.444932  -0.005323   0.231392   3.349523   0.370698   0.014723
     5  O   -0.117177  -0.034450  -0.165863   0.370698   7.989167   0.255772
     6  H    0.019209   0.003238  -0.000478   0.014723   0.255772   0.436258
     7  C    0.063742  -0.002055  -0.928774   0.090145  -0.021823  -0.031547
     8  H    0.002125  -0.000040   0.031163   0.012619  -0.005249   0.011408
     9  C    0.045976   0.004235  -0.374692   0.082425  -0.006222   0.051144
    10  H   -0.000030  -0.000001   0.002289   0.000259   0.000310  -0.000044
    11  C   -0.008611  -0.000721  -0.696739   0.001305   0.000861  -0.000076
    12  C   -0.006602  -0.016561  -0.511701   0.009653   0.044867  -0.009890
    13  H    0.000381   0.000000   0.013711   0.000533  -0.000012   0.000003
    14  C   -0.140276  -0.023624   0.121951  -0.066789   0.058337  -0.003176
    15  H    0.004496  -0.000690   0.052863  -0.008387   0.002110  -0.000093
    16  F    0.000012   0.000000  -0.017429  -0.000959  -0.000007  -0.000002
               7          8          9         10         11         12
     1  O    0.063742   0.002125   0.045976  -0.000030  -0.008611  -0.006602
     2  H   -0.002055  -0.000040   0.004235  -0.000001  -0.000721  -0.016561
     3  C   -0.928774   0.031163  -0.374692   0.002289  -0.696739  -0.511701
     4  B    0.090145   0.012619   0.082425   0.000259   0.001305   0.009653
     5  O   -0.021823  -0.005249  -0.006222   0.000310   0.000861   0.044867
     6  H   -0.031547   0.011408   0.051144  -0.000044  -0.000076  -0.009890
     7  C    9.554338   0.304030  -1.042031   0.057962   0.159628  -0.131682
     8  H    0.304030   0.540681   0.033246  -0.006742  -0.016724   0.000017
     9  C   -1.042031   0.033246   8.524372   0.328186  -0.136017  -0.935248
    10  H    0.057962  -0.006742   0.328186   0.486001  -0.000160  -0.030470
    11  C    0.159628  -0.016724  -0.136017  -0.000160   6.594865  -0.092436
    12  C   -0.131682   0.000017  -0.935248  -0.030470  -0.092436   8.351863
    13  H   -0.002804   0.000069  -0.028849  -0.000071  -0.018528   0.332138
    14  C   -1.748090  -0.034469  -0.627021   0.000622   0.113082  -1.089198
    15  H   -0.017357  -0.000132   0.003987   0.000046  -0.008147  -0.001531
    16  F   -0.003103  -0.000438  -0.232540  -0.006230   0.492183  -0.227571
              13         14         15         16
     1  O    0.000381  -0.140276   0.004496   0.000012
     2  H    0.000000  -0.023624  -0.000690   0.000000
     3  C    0.013711   0.121951   0.052863  -0.017429
     4  B    0.000533  -0.066789  -0.008387  -0.000959
     5  O   -0.000012   0.058337   0.002110  -0.000007
     6  H    0.000003  -0.003176  -0.000093  -0.000002
     7  C   -0.002804  -1.748090  -0.017357  -0.003103
     8  H    0.000069  -0.034469  -0.000132  -0.000438
     9  C   -0.028849  -0.627021   0.003987  -0.232540
    10  H   -0.000071   0.000622   0.000046  -0.006230
    11  C   -0.018528   0.113082  -0.008147   0.492183
    12  C    0.332138  -1.089198  -0.001531  -0.227571
    13  H    0.482908   0.062040  -0.005682  -0.006497
    14  C    0.062040   9.465082   0.321483   0.009566
    15  H   -0.005682   0.321483   0.468942  -0.000317
    16  F   -0.006497   0.009566  -0.000317   9.177232
 Mulliken charges:
               1
     1  O   -0.385167
     2  H    0.309656
     3  C   -0.271194
     4  B    0.473252
     5  O   -0.371318
     6  H    0.253553
     7  C   -0.300579
     8  H    0.128436
     9  C    0.309050
    10  H    0.168074
    11  C   -0.383765
    12  C    0.314352
    13  H    0.170662
    14  C   -0.419521
    15  H    0.188409
    16  F   -0.183899
 Sum of Mulliken charges =   0.00000
 Mulliken charges with hydrogens summed into heavy atoms:
               1
     1  O   -0.075511
     3  C   -0.271194
     4  B    0.473252
     5  O   -0.117765
     7  C   -0.172143
     9  C    0.477124
    11  C   -0.383765
    12  C    0.485014
    14  C   -0.231112
    16  F   -0.183899
 APT charges:
               1
     1  O   -0.442648
     2  H    2.023241
     3  C   -1.761930
     4  B   -0.362041
     5  O    1.258144
     6  H   -1.175233
     7  C   -0.405944
     8  H   -0.161444
     9  C   -0.016631
    10  H   -0.815907
    11  C   -0.320925
    12  C   -0.944769
    13  H    1.246574
    14  C    0.213337
    15  H    1.898399
    16  F   -0.232222
 Sum of APT charges =   0.00000
 APT charges with hydrogens summed into heavy atoms:
               1
     1  O    1.580592
     3  C   -1.761930
     4  B   -0.362041
     5  O    0.082911
     7  C   -0.567388
     9  C   -0.832539
    11  C   -0.320925
    12  C    0.301806
    14  C    2.111735
    16  F   -0.232222
 Electronic spatial extent (au):  <R**2>=          29538.4736
 Charge=              0.0000 electrons
 Dipole moment (field-independent basis, Debye):
    X=              0.5786    Y=             -1.3409    Z=              1.0262  Tot=              1.7849
 Quadrupole moment (field-independent basis, Debye-Ang):
   XX=            -52.6168   YY=            -71.6172   ZZ=            -48.4471
   XY=              0.0742   XZ=              7.1887   YZ=             -2.4427
 Traceless Quadrupole moment (field-independent basis, Debye-Ang):
   XX=              4.9436   YY=            -14.0569   ZZ=              9.1133
   XY=              0.0742   XZ=              7.1887   YZ=             -2.4427
 Octapole moment (field-independent basis, Debye-Ang**2):
  XXX=           -920.7094  YYY=          -1337.0275  ZZZ=           -790.2653  XYY=           -335.7122
  XXY=           -387.8293  XXZ=           -229.1208  XZZ=           -274.9817  YZZ=           -411.5808
  YYZ=           -345.8009  XYZ=             15.5374
 Hexadecapole moment (field-independent basis, Debye-Ang**3):
 XXXX=         -11489.1939 YYYY=         -18611.1153 ZZZZ=          -8366.8744 XXXY=          -6483.7641
 XXXZ=          -4474.5065 YYYX=          -6923.1110 YYYZ=          -6602.5872 ZZZX=          -4755.6823
 ZZZY=          -5934.8211 XXYY=          -4963.5857 XXZZ=          -3146.7332 YYZZ=          -4794.9458
 XXYZ=          -1704.6962 YYXZ=          -1745.4302 ZZXY=          -2182.5356
 N-N= 4.738119430328D+02 E-N=-2.138155466896D+03  KE= 5.057036460246D+02
  Exact polarizability:       0.000       0.000       0.000       0.000       0.000       0.000
 Approx polarizability:     126.988       4.313     109.951      15.128     -23.215      81.476
 Calling FoFJK, ICntrl=    100127 FMM=F ISym2X=0 I1Cent= 0 IOpClX= 0 NMat=1 NMatS=1 NMatT=0.
 -------------------------------------------------------------------
 Center     Atomic                   Forces (Hartrees/Bohr)
 Number     Number              X              Y              Z
 -------------------------------------------------------------------
      1        8          -0.000612617   -0.000006474   -0.000142426
      2        1           0.000120056    0.000068035    0.000001210
      3        6           0.001912825   -0.000864041    0.001016345
      4        5           0.000286166   -0.000059639    0.000108347
      5        8          -0.000517775    0.000167485   -0.000286855
      6        1           0.000358111   -0.000193177    0.000261351
      7        6           0.001042958    0.004900636   -0.002311562
      8        1          -0.001253928    0.000569138   -0.000668350
      9        6          -0.007721115   -0.001389052   -0.001423313
     10        1          -0.001164253    0.001595230   -0.001177798
     11        6           0.009542941   -0.002765407    0.004096445
     12        6          -0.004522705    0.005120208   -0.003968310
     13        1          -0.002169714   -0.000522275   -0.000340143
     14        6          -0.003652045   -0.004153267    0.001162190
     15        1          -0.001018375    0.000428789   -0.000515526
     16        9           0.009369470   -0.002896191    0.004188395
 -------------------------------------------------------------------
 Cartesian Forces:  Max     0.009542941 RMS     0.003022017
 FormGI is forming the generalized inverse of G from B-inverse, IUseBI=4.

 GradGradGradGradGradGradGradGradGradGradGradGradGradGradGradGradGradGrad
 Berny optimization.
 Internal  Forces:  Max     0.010663656 RMS     0.002697976
 Search for a local minimum.
 Step number   1 out of a maximum of   81
 All quantities printed in internal units (Hartrees-Bohrs-Radians)
 Mixed Optimization -- RFO/linear search
 Second derivative matrix not updated -- analytic derivatives used.
 ITU=  0
     Eigenvalues ---    0.00058   0.01010   0.01210   0.01486   0.01762
     Eigenvalues ---    0.01801   0.02088   0.02240   0.02431   0.02725
     Eigenvalues ---    0.02860   0.03479   0.03972   0.10304   0.10451
     Eigenvalues ---    0.10976   0.11268   0.11900   0.12522   0.15855
     Eigenvalues ---    0.17276   0.18317   0.18693   0.18958   0.19721
     Eigenvalues ---    0.20803   0.27919   0.29212   0.35500   0.36418
     Eigenvalues ---    0.36456   0.36589   0.38101   0.39248   0.42149
     Eigenvalues ---    0.44380   0.47039   0.47965   0.49049   0.52017
     Eigenvalues ---    0.55224   0.56243
 RFO step:  Lambda=-1.83405165D-03 EMin= 5.78181178D-04
 Linear search not attempted -- first point.
 Iteration  1 RMS(Cart)=  0.01565862 RMS(Int)=  0.00020134
 Iteration  2 RMS(Cart)=  0.00028172 RMS(Int)=  0.00004213
 Iteration  3 RMS(Cart)=  0.00000002 RMS(Int)=  0.00004213
 Variable       Old X    -DE/DX   Delta X   Delta X   Delta X     New X
                                 (Linear)    (Quad)   (Total)
    R1        1.81680   0.00008   0.00000   0.00005   0.00005   1.81684
    R2        2.57522  -0.00031   0.00000  -0.00032  -0.00032   2.57489
    R3        2.96072  -0.00034   0.00000  -0.00256  -0.00256   2.95816
    R4        2.64369   0.00008   0.00000  -0.00018  -0.00026   2.64343
    R5        2.64627   0.00037   0.00000   0.00120   0.00113   2.64739
    R6        2.58707  -0.00002   0.00000  -0.00079  -0.00079   2.58627
    R7        1.81109  -0.00014   0.00000  -0.00034  -0.00034   1.81075
    R8        2.05436  -0.00089   0.00000  -0.00129  -0.00129   2.05307
    R9        2.62762  -0.00173   0.00000  -0.00189  -0.00189   2.62572
   R10        2.04768  -0.00015   0.00000  -0.00219  -0.00219   2.04549
   R11        2.62931  -0.00744   0.00000  -0.01485  -0.01477   2.61454
   R12        2.63029  -0.00760   0.00000  -0.01509  -0.01501   2.61529
   R13        2.55113  -0.01066   0.00000  -0.01485  -0.01485   2.53628
   R14        2.04791  -0.00010   0.00000  -0.00205  -0.00205   2.04585
   R15        2.62641  -0.00194   0.00000  -0.00261  -0.00261   2.62380
   R16        2.04895  -0.00051   0.00000  -0.00064  -0.00064   2.04831
    A1        1.95648   0.00021   0.00000   0.00196   0.00196   1.95844
    A2        2.14059   0.00141   0.00000   0.00386   0.00394   2.14453
    A3        2.08305   0.00007   0.00000  -0.00208  -0.00200   2.08105
    A4        2.05954  -0.00148   0.00000  -0.00178  -0.00194   2.05761
    A5        2.06486  -0.00099   0.00000  -0.00432  -0.00432   2.06054
    A6        2.05255   0.00028   0.00000   0.00116   0.00116   2.05372
    A7        2.16577   0.00071   0.00000   0.00316   0.00316   2.16893
    A8        1.99765   0.00084   0.00000   0.00606   0.00606   2.00371
    A9        2.10452   0.00077   0.00000   0.00166   0.00170   2.10622
   A10        2.11753   0.00101   0.00000   0.00708   0.00701   2.12454
   A11        2.06113  -0.00178   0.00000  -0.00875  -0.00871   2.05242
   A12        2.09724   0.00504   0.00000   0.03680   0.03676   2.13400
   A13        2.08944  -0.00538   0.00000  -0.02870  -0.02862   2.06082
   A14        2.09650   0.00035   0.00000  -0.00810  -0.00814   2.08836
   A15        2.09317   0.01016   0.00000   0.04497   0.04512   2.13829
   A16        2.09394  -0.00515   0.00000  -0.02289  -0.02297   2.07097
   A17        2.09608  -0.00500   0.00000  -0.02208  -0.02216   2.07392
   A18        2.09394   0.00045   0.00000  -0.00708  -0.00712   2.08682
   A19        2.09339  -0.00553   0.00000  -0.02955  -0.02947   2.06392
   A20        2.09586   0.00508   0.00000   0.03663   0.03659   2.13245
   A21        2.11329   0.00122   0.00000   0.00797   0.00789   2.12119
   A22        2.07323   0.00053   0.00000   0.00105   0.00108   2.07431
   A23        2.09666  -0.00175   0.00000  -0.00901  -0.00898   2.08769
    D1        3.13168  -0.00001   0.00000  -0.00061  -0.00061   3.13107
    D2       -0.00754   0.00000   0.00000  -0.00077  -0.00077  -0.00831
    D3        3.07801  -0.00001   0.00000   0.00106   0.00106   3.07908
    D4       -0.06611  -0.00002   0.00000   0.00123   0.00123  -0.06489
    D5       -0.06313   0.00000   0.00000   0.00174   0.00174  -0.06139
    D6        3.07593  -0.00001   0.00000   0.00190   0.00190   3.07783
    D7       -0.00824   0.00000   0.00000   0.00071   0.00071  -0.00753
    D8        3.13850   0.00001   0.00000   0.00044   0.00044   3.13894
    D9        3.13290  -0.00001   0.00000   0.00004   0.00004   3.13295
   D10       -0.00354  -0.00001   0.00000  -0.00022  -0.00022  -0.00377
   D11       -3.13731  -0.00001   0.00000  -0.00055  -0.00055  -3.13787
   D12        0.00350  -0.00001   0.00000  -0.00044  -0.00044   0.00306
   D13        0.00471   0.00001   0.00000   0.00009   0.00009   0.00480
   D14       -3.13766   0.00001   0.00000   0.00020   0.00020  -3.13746
   D15        3.11325  -0.00005   0.00000  -0.00180  -0.00180   3.11145
   D16       -0.02583  -0.00004   0.00000  -0.00195  -0.00195  -0.02778
   D17        3.14063   0.00000   0.00000  -0.00008  -0.00009   3.14055
   D18        0.00050   0.00002   0.00000   0.00029   0.00029   0.00079
   D19        0.00406   0.00000   0.00000  -0.00037  -0.00037   0.00369
   D20       -3.13607   0.00001   0.00000   0.00000   0.00000  -3.13607
   D21        0.00149   0.00000   0.00000  -0.00013  -0.00013   0.00135
   D22       -3.14115   0.00000   0.00000   0.00017   0.00017  -3.14098
   D23       -3.13864   0.00001   0.00000   0.00020   0.00019  -3.13845
   D24        0.00191   0.00001   0.00000   0.00050   0.00049   0.00240
   D25        3.14022   0.00000   0.00000  -0.00014  -0.00014   3.14009
   D26       -0.00034   0.00000   0.00000  -0.00003  -0.00003  -0.00037
   D27       -0.00033  -0.00001   0.00000  -0.00044  -0.00044  -0.00077
   D28       -3.14089  -0.00001   0.00000  -0.00033  -0.00033  -3.14122
   D29       -0.00284   0.00000   0.00000   0.00003   0.00003  -0.00280
   D30        3.13955   0.00000   0.00000  -0.00009  -0.00009   3.13946
   D31        3.13979   0.00000   0.00000   0.00017   0.00017   3.13996
   D32       -0.00101   0.00000   0.00000   0.00005   0.00005  -0.00096
         Item               Value     Threshold  Converged?
 Maximum Force            0.010664     0.000015     NO 
 RMS     Force            0.002698     0.000010     NO 
 Maximum Displacement     0.067373     0.000060     NO 
 RMS     Displacement     0.015685     0.000040     NO 
 Predicted change in Energy=-9.249378D-04
 GradGradGradGradGradGradGradGradGradGradGradGradGradGradGradGradGradGrad

                          Input orientation:                          
 ---------------------------------------------------------------------
 Center     Atomic      Atomic             Coordinates (Angstroms)
 Number     Number       Type             X           Y           Z
 ---------------------------------------------------------------------
      1          8           0        8.686439    7.455425    5.538943
      2          1           0        9.498425    7.147473    5.951491
      3          6           0        6.243592    6.994254    5.173463
      4          5           0        7.639424    6.615192    5.772141
      5          8           0        7.878768    5.493619    6.519030
      6          1           0        7.109207    4.945720    6.679471
      7          6           0        5.119064    6.170235    5.288335
      8          1           0        5.181759    5.215426    5.802879
      9          6           0        3.890160    6.531878    4.750151
     10          1           0        3.014711    5.900717    4.833025
     11          6           0        3.800722    7.742805    4.086919
     12          6           0        4.882591    8.593758    3.942853
     13          1           0        4.759106    9.529861    3.413204
     14          6           0        6.099485    8.208042    4.488930
     15          1           0        6.961864    8.856781    4.387348
     16          9           0        2.618993    8.104065    3.563128
 ---------------------------------------------------------------------
                    Distance matrix (angstroms):
                    1          2          3          4          5
     1  O    0.000000
     2  H    0.961431   0.000000
     3  C    2.512719   3.350036   0.000000
     4  B    1.362575   1.942002   1.565392   0.000000
     5  O    2.337004   2.383406   2.595429   1.368596   0.000000
     6  H    3.176016   3.329569   2.685859   1.972692   0.958205
     7  C    3.800090   4.535810   1.398845   2.604664   3.096512
     8  H    4.167738   4.731648   2.165152   2.828499   2.804303
     9  C    4.947668   5.768432   2.435493   3.886951   4.485076
    10  H    5.923169   6.696559   3.425988   4.772880   5.164047
    11  C    5.105016   6.024521   2.776422   4.341327   5.253994
    12  C    4.279319   5.237584   2.434161   3.855016   5.022412
    13  H    4.924022   5.880460   3.425130   4.728225   5.972411
    14  C    2.891590   3.849244   1.400941   2.560315   3.828217
    15  H    2.502824   3.435464   2.145437   2.720563   4.086030
    16  F    6.413928   7.344789   4.118565   5.683415   6.573965
                    6          7          8          9         10
     6  H    0.000000
     7  C    2.719442   0.000000
     8  H    2.134528   1.086437   0.000000
     9  C    4.074363   1.389472   2.123561   0.000000
    10  H    4.591980   2.169849   2.471100   1.082425   0.000000
    11  C    5.048869   2.377898   3.352525   1.383553   2.137235
    12  C    5.074946   2.782033   3.868117   2.426520   3.396152
    13  H    6.099657   3.864295   4.950104   3.395644   4.269601
    14  C    4.057185   2.398527   3.394766   2.785476   3.867555
    15  H    4.535630   3.380122   4.293247   3.869389   4.951461
    16  F    6.312587   3.600887   4.464134   2.344496   2.573708
                   11         12         13         14         15
    11  C    0.000000
    12  C    1.383949   0.000000
    13  H    2.136811   1.082620   0.000000
    14  C    2.379573   1.388455   2.168180   0.000000
    15  H    3.365118   2.142460   2.500827   1.083919   0.000000
    16  F    1.342144   2.346884   2.575938   3.603018   4.484022
                   16
    16  F    0.000000
 Symmetry turned off by external request.
 Stoichiometry    C6H6BFO2
 Framework group  C1[X(C6H6BFO2)]
 Deg. of freedom    42
 Full point group                 C1      NOp   1
 Rotational constants (GHZ):           3.6897749           0.7260841           0.6068884
 Standard basis: 6-311+G(d,p) (5D, 7F)
   256 basis functions,   408 primitive gaussians,   266 cartesian basis functions
    36 alpha electrons       36 beta electrons
       nuclear repulsion energy       475.0927893027 Hartrees.
 NAtoms=   16 NActive=   16 NUniq=   16 SFac= 1.00D+00 NAtFMM=   60 NAOKFM=F Big=F
 Integral buffers will be    131072 words long.
 Raffenetti 2 integral format.
 Two-electron integral symmetry is turned off.
 One-electron integrals computed using PRISM.
 NBasis=   256 RedAO= T EigKep=  2.49D-06  NBF=   256
 NBsUse=   256 1.00D-06 EigRej= -1.00D+00 NBFU=   256
 Initial guess from the checkpoint file:  "4-f-phboh2-opt-freq.chk"
 B after Tr=     0.010049   -0.000801    0.000506
         Rot=    1.000000   -0.000099    0.000037    0.000003 Ang=  -0.01 deg.
 ExpMin= 3.15D-02 ExpMax= 1.14D+04 ExpMxC= 1.72D+03 IAcc=3 IRadAn=         5 AccDes= 0.00D+00
 Harris functional with IExCor= 1009 and IRadAn=       5 diagonalized for initial guess.
 HarFok:  IExCor= 1009 AccDes= 0.00D+00 IRadAn=         5 IDoV= 1 UseB2=F ITyADJ=14
 ICtDFT=  3500011 ScaDFX=  1.000000  1.000000  1.000000  1.000000
 FoFCou: FMM=F IPFlag=           0 FMFlag=      100000 FMFlg1=           0
         NFxFlg=           0 DoJE=T BraDBF=F KetDBF=T FulRan=T
         wScrn=  0.000000 ICntrl=       500 IOpCl=  0 I1Cent=   200000004 NGrid=           0
         NMat0=    1 NMatS0=      1 NMatT0=    0 NMatD0=    1 NMtDS0=    0 NMtDT0=    0
 Symmetry not used in FoFCou.
 Requested convergence on RMS density matrix=1.00D-08 within 128 cycles.
 Requested convergence on MAX density matrix=1.00D-06.
 Requested convergence on             energy=1.00D-06.
 Level shift goal  0.100 maximum shift  0.100.
 No special actions if energy rises.
 Dynamic level shift is on during FON iterations.
 SCF Done:  E(RM062X) =  -507.467312040     A.U. after   11 cycles
            NFock= 11  Conv=0.32D-08     -V/T= 2.0033
 Calling FoFJK, ICntrl=      2127 FMM=F ISym2X=0 I1Cent= 0 IOpClX= 0 NMat=1 NMatS=1 NMatT=0.
 -------------------------------------------------------------------
 Center     Atomic                   Forces (Hartrees/Bohr)
 Number     Number              X              Y              Z
 -------------------------------------------------------------------
      1        8           0.000003063   -0.000003420    0.000006687
      2        1          -0.000000116   -0.000003750    0.000004813
      3        6           0.000074533   -0.000027928    0.000038295
      4        5          -0.000000839    0.000000291    0.000000013
      5        8          -0.000010810   -0.000007037   -0.000010247
      6        1           0.000005727   -0.000005047    0.000006375
      7        6           0.000068296   -0.000021070    0.000028825
      8        1          -0.000002349   -0.000004582   -0.000000563
      9        6          -0.000025481   -0.000224842    0.000113510
     10        1          -0.000055514    0.000043558   -0.000040889
     11        6           0.000072940   -0.000033745    0.000034018
     12        6           0.000179393    0.000192800   -0.000051711
     13        1          -0.000072224   -0.000000341   -0.000016041
     14        6           0.000076499   -0.000017076    0.000029359
     15        1           0.000008991    0.000003603    0.000004419
     16        9          -0.000322109    0.000108586   -0.000146863
 -------------------------------------------------------------------
 Cartesian Forces:  Max     0.000322109 RMS     0.000080923

 GradGradGradGradGradGradGradGradGradGradGradGradGradGradGradGradGradGrad
 Berny optimization.
 Using GEDIIS/GDIIS optimizer.
 FormGI is forming the generalized inverse of G from B-inverse, IUseBI=4.
 Internal  Forces:  Max     0.000370199 RMS     0.000065704
 Search for a local minimum.
 Step number   2 out of a maximum of   81
 All quantities printed in internal units (Hartrees-Bohrs-Radians)
 Mixed Optimization -- En-DIIS/RFO-DIIS
 Update second derivatives using D2CorX and points    1    2
 DE= -9.18D-04 DEPred=-9.25D-04 R= 9.92D-01
 TightC=F SS=  1.41D+00  RLast= 9.29D-02 DXNew= 5.0454D-01 2.7867D-01
 Trust test= 9.92D-01 RLast= 9.29D-02 DXMaxT set to 3.00D-01
 ITU=  1  0
 Use linear search instead of GDIIS.
     Eigenvalues ---    0.00058   0.01010   0.01210   0.01486   0.01762
     Eigenvalues ---    0.01801   0.02088   0.02240   0.02430   0.02725
     Eigenvalues ---    0.02860   0.03479   0.03972   0.10302   0.10448
     Eigenvalues ---    0.10937   0.11267   0.11898   0.12508   0.15855
     Eigenvalues ---    0.17276   0.18304   0.18685   0.18960   0.19720
     Eigenvalues ---    0.20802   0.27919   0.29213   0.35498   0.36418
     Eigenvalues ---    0.36455   0.36589   0.38142   0.39249   0.42150
     Eigenvalues ---    0.44652   0.47039   0.48040   0.49062   0.52522
     Eigenvalues ---    0.55224   0.56243
 RFO step:  Lambda=-8.21891595D-07 EMin= 5.78180909D-04
 Quartic linear search produced a step of -0.00339.
 Iteration  1 RMS(Cart)=  0.00207014 RMS(Int)=  0.00000183
 Iteration  2 RMS(Cart)=  0.00000268 RMS(Int)=  0.00000014
 Iteration  3 RMS(Cart)=  0.00000000 RMS(Int)=  0.00000014
 Variable       Old X    -DE/DX   Delta X   Delta X   Delta X     New X
                                 (Linear)    (Quad)   (Total)
    R1        1.81684   0.00000   0.00000   0.00000   0.00000   1.81684
    R2        2.57489   0.00000   0.00000   0.00001   0.00001   2.57490
    R3        2.95816   0.00001   0.00001   0.00001   0.00002   2.95818
    R4        2.64343   0.00008   0.00000   0.00012   0.00012   2.64355
    R5        2.64739   0.00008   0.00000   0.00015   0.00015   2.64754
    R6        2.58627   0.00000   0.00000  -0.00002  -0.00001   2.58626
    R7        1.81075  -0.00001   0.00000  -0.00002  -0.00002   1.81072
    R8        2.05307   0.00000   0.00000   0.00001   0.00001   2.05308
    R9        2.62572   0.00013   0.00001   0.00020   0.00021   2.62593
   R10        2.04549   0.00002   0.00001   0.00003   0.00004   2.04553
   R11        2.61454   0.00021   0.00005   0.00035   0.00040   2.61494
   R12        2.61529   0.00022   0.00005   0.00039   0.00044   2.61572
   R13        2.53628   0.00037   0.00005   0.00082   0.00087   2.53715
   R14        2.04585   0.00001   0.00001   0.00002   0.00003   2.04589
   R15        2.62380   0.00013   0.00001   0.00020   0.00021   2.62401
   R16        2.04831   0.00001   0.00000   0.00002   0.00002   2.04833
    A1        1.95844   0.00000  -0.00001   0.00000   0.00000   1.95844
    A2        2.14453   0.00000  -0.00001   0.00006   0.00004   2.14457
    A3        2.08105  -0.00001   0.00001  -0.00010  -0.00009   2.08095
    A4        2.05761   0.00001   0.00001   0.00005   0.00005   2.05766
    A5        2.06054   0.00000   0.00001  -0.00006  -0.00004   2.06050
    A6        2.05372  -0.00001   0.00000  -0.00007  -0.00007   2.05365
    A7        2.16893   0.00001  -0.00001   0.00012   0.00011   2.16904
    A8        2.00371   0.00002  -0.00002   0.00027   0.00025   2.00396
    A9        2.10622  -0.00001  -0.00001  -0.00001  -0.00001   2.10620
   A10        2.12454   0.00003  -0.00002   0.00012   0.00009   2.12463
   A11        2.05242  -0.00001   0.00003  -0.00011  -0.00008   2.05234
   A12        2.13400   0.00008  -0.00012   0.00088   0.00076   2.13476
   A13        2.06082  -0.00001   0.00010  -0.00026  -0.00016   2.06066
   A14        2.08836  -0.00007   0.00003  -0.00062  -0.00060   2.08776
   A15        2.13829  -0.00004  -0.00015   0.00025   0.00010   2.13839
   A16        2.07097   0.00002   0.00008  -0.00010  -0.00002   2.07095
   A17        2.07392   0.00001   0.00008  -0.00015  -0.00008   2.07384
   A18        2.08682  -0.00007   0.00002  -0.00065  -0.00062   2.08619
   A19        2.06392  -0.00001   0.00010  -0.00025  -0.00015   2.06377
   A20        2.13245   0.00009  -0.00012   0.00090   0.00078   2.13322
   A21        2.12119   0.00002  -0.00003   0.00010   0.00007   2.12126
   A22        2.07431  -0.00001   0.00000  -0.00005  -0.00005   2.07426
   A23        2.08769  -0.00001   0.00003  -0.00005  -0.00002   2.08767
    D1        3.13107   0.00000   0.00000   0.00048   0.00048   3.13155
    D2       -0.00831   0.00000   0.00000   0.00028   0.00028  -0.00803
    D3        3.07908   0.00000   0.00000   0.00342   0.00342   3.08249
    D4       -0.06489   0.00000   0.00000   0.00363   0.00363  -0.06126
    D5       -0.06139   0.00000  -0.00001   0.00347   0.00346  -0.05792
    D6        3.07783   0.00000  -0.00001   0.00368   0.00367   3.08151
    D7       -0.00753   0.00000   0.00000   0.00050   0.00050  -0.00703
    D8        3.13894   0.00000   0.00000   0.00023   0.00022   3.13916
    D9        3.13295   0.00000   0.00000   0.00045   0.00045   3.13340
   D10       -0.00377   0.00000   0.00000   0.00018   0.00018  -0.00359
   D11       -3.13787   0.00000   0.00000  -0.00032  -0.00031  -3.13818
   D12        0.00306   0.00000   0.00000  -0.00028  -0.00028   0.00278
   D13        0.00480   0.00000   0.00000  -0.00027  -0.00027   0.00453
   D14       -3.13746   0.00000   0.00000  -0.00024  -0.00024  -3.13770
   D15        3.11145   0.00000   0.00001   0.00108   0.00109   3.11254
   D16       -0.02778   0.00000   0.00001   0.00087   0.00088  -0.02690
   D17        3.14055   0.00000   0.00000   0.00008   0.00008   3.14062
   D18        0.00079   0.00000   0.00000   0.00002   0.00002   0.00081
   D19        0.00369   0.00000   0.00000  -0.00019  -0.00019   0.00349
   D20       -3.13607   0.00000   0.00000  -0.00025  -0.00025  -3.13632
   D21        0.00135   0.00000   0.00000  -0.00013  -0.00013   0.00123
   D22       -3.14098   0.00000   0.00000  -0.00005  -0.00005  -3.14103
   D23       -3.13845   0.00000   0.00000  -0.00019  -0.00019  -3.13864
   D24        0.00240   0.00000   0.00000  -0.00011  -0.00011   0.00229
   D25        3.14009   0.00000   0.00000   0.00013   0.00013   3.14022
   D26       -0.00037   0.00000   0.00000   0.00004   0.00004  -0.00033
   D27       -0.00077   0.00000   0.00000   0.00005   0.00006  -0.00071
   D28       -3.14122   0.00000   0.00000  -0.00004  -0.00004  -3.14125
   D29       -0.00280   0.00000   0.00000   0.00017   0.00017  -0.00264
   D30        3.13946   0.00000   0.00000   0.00013   0.00013   3.13959
   D31        3.13996   0.00000   0.00000   0.00007   0.00007   3.14004
   D32       -0.00096   0.00000   0.00000   0.00004   0.00004  -0.00092
         Item               Value     Threshold  Converged?
 Maximum Force            0.000370     0.000015     NO 
 RMS     Force            0.000066     0.000010     NO 
 Maximum Displacement     0.008674     0.000060     NO 
 RMS     Displacement     0.002070     0.000040     NO 
 Predicted change in Energy=-4.208295D-07
 GradGradGradGradGradGradGradGradGradGradGradGradGradGradGradGradGradGrad

                          Input orientation:                          
 ---------------------------------------------------------------------
 Center     Atomic      Atomic             Coordinates (Angstroms)
 Number     Number       Type             X           Y           Z
 ---------------------------------------------------------------------
      1          8           0        8.685721    7.457191    5.541828
      2          1           0        9.497889    7.148920    5.953778
      3          6           0        6.243577    6.994366    5.173868
      4          5           0        7.639448    6.615331    5.772502
      5          8           0        7.879682    5.492208    6.516759
      6          1           0        7.110970    4.942468    6.674880
      7          6           0        5.118748    6.170770    5.289591
      8          1           0        5.181138    5.216525    5.805229
      9          6           0        3.889763    6.532230    4.751183
     10          1           0        3.013703    5.901928    4.834404
     11          6           0        3.800736    7.742774    4.086753
     12          6           0        4.882985    8.593484    3.941886
     13          1           0        4.759042    9.529050    3.411361
     14          6           0        6.099803    8.207759    4.488402
     15          1           0        6.962395    8.856168    4.386407
     16          9           0        2.618713    8.104079    3.562479
 ---------------------------------------------------------------------
                    Distance matrix (angstroms):
                    1          2          3          4          5
     1  O    0.000000
     2  H    0.961431   0.000000
     3  C    2.512702   3.350029   0.000000
     4  B    1.362580   1.942004   1.565403   0.000000
     5  O    2.336952   2.383324   2.595510   1.368589   0.000000
     6  H    3.176079   3.329534   2.686205   1.972827   0.958193
     7  C    3.800236   4.535944   1.398907   2.604758   3.096633
     8  H    4.167981   4.731866   2.165205   2.828607   2.804356
     9  C    4.947917   5.768675   2.435707   3.887175   4.485349
    10  H    5.923772   6.697213   3.426477   4.773520   5.164876
    11  C    5.105084   6.024616   2.776582   4.341496   5.254310
    12  C    4.279226   5.237539   2.434372   3.855170   5.022756
    13  H    4.924459   5.880950   3.425623   4.728793   5.973104
    14  C    2.891372   3.849085   1.401020   2.560321   3.828370
    15  H    2.502396   3.435124   2.145483   2.720479   4.086078
    16  F    6.414427   7.345318   4.119184   5.684043   6.574757
                    6          7          8          9         10
     6  H    0.000000
     7  C    2.719688   0.000000
     8  H    2.134398   1.086443   0.000000
     9  C    4.074817   1.389583   2.123615   0.000000
    10  H    4.592986   2.170412   2.471853   1.082446   0.000000
    11  C    5.049532   2.378061   3.352701   1.383766   2.137081
    12  C    5.075737   2.782344   3.868436   2.426977   3.396362
    13  H    6.100726   3.864606   4.950418   3.395835   4.269341
    14  C    4.057742   2.398686   3.394917   2.785808   3.867892
    15  H    4.536103   3.380257   4.293359   3.869730   4.951808
    16  F    6.313732   3.601497   4.464742   2.345057   2.573573
                   11         12         13         14         15
    11  C    0.000000
    12  C    1.384181   0.000000
    13  H    2.136653   1.082636   0.000000
    14  C    2.379757   1.388564   2.168748   0.000000
    15  H    3.365342   2.142557   2.501649   1.083929   0.000000
    16  F    1.342603   2.347423   2.575731   3.603619   4.484648
                   16
    16  F    0.000000
 Symmetry turned off by external request.
 Stoichiometry    C6H6BFO2
 Framework group  C1[X(C6H6BFO2)]
 Deg. of freedom    42
 Full point group                 C1      NOp   1
 Rotational constants (GHZ):           3.6893630           0.7259785           0.6067826
 Standard basis: 6-311+G(d,p) (5D, 7F)
   256 basis functions,   408 primitive gaussians,   266 cartesian basis functions
    36 alpha electrons       36 beta electrons
       nuclear repulsion energy       475.0547871460 Hartrees.
 NAtoms=   16 NActive=   16 NUniq=   16 SFac= 1.00D+00 NAtFMM=   60 NAOKFM=F Big=F
 Integral buffers will be    131072 words long.
 Raffenetti 2 integral format.
 Two-electron integral symmetry is turned off.
 One-electron integrals computed using PRISM.
 NBasis=   256 RedAO= T EigKep=  2.49D-06  NBF=   256
 NBsUse=   256 1.00D-06 EigRej= -1.00D+00 NBFU=   256
 Initial guess from the checkpoint file:  "4-f-phboh2-opt-freq.chk"
 B after Tr=     0.003400    0.000849   -0.004847
         Rot=    1.000000   -0.000126    0.000074   -0.000075 Ang=  -0.02 deg.
 Requested convergence on RMS density matrix=1.00D-08 within 128 cycles.
 Requested convergence on MAX density matrix=1.00D-06.
 Requested convergence on             energy=1.00D-06.
 Level shift goal  0.100 maximum shift  0.100.
 No special actions if energy rises.
 Dynamic level shift is on during FON iterations.
 SCF Done:  E(RM062X) =  -507.467312445     A.U. after    9 cycles
            NFock=  9  Conv=0.39D-08     -V/T= 2.0033
 Calling FoFJK, ICntrl=      2127 FMM=F ISym2X=0 I1Cent= 0 IOpClX= 0 NMat=1 NMatS=1 NMatT=0.
 -------------------------------------------------------------------
 Center     Atomic                   Forces (Hartrees/Bohr)
 Number     Number              X              Y              Z
 -------------------------------------------------------------------
      1        8           0.000000053   -0.000003280    0.000003350
      2        1          -0.000000813   -0.000004953    0.000003254
      3        6          -0.000000242   -0.000000456    0.000000826
      4        5          -0.000000612   -0.000002945    0.000000168
      5        8          -0.000002717   -0.000003799   -0.000000386
      6        1          -0.000004257   -0.000003156   -0.000000777
      7        6          -0.000000277   -0.000000486   -0.000001016
      8        1          -0.000001067   -0.000001064   -0.000003498
      9        6          -0.000001999    0.000008763   -0.000006481
     10        1          -0.000002496    0.000003129   -0.000004418
     11        6          -0.000006930    0.000006211   -0.000005187
     12        6          -0.000003901   -0.000001882    0.000002033
     13        1           0.000002496    0.000003849    0.000001316
     14        6           0.000002790    0.000000600    0.000001852
     15        1           0.000002571   -0.000000700    0.000003499
     16        9           0.000017400    0.000000169    0.000005467
 -------------------------------------------------------------------
 Cartesian Forces:  Max     0.000017400 RMS     0.000004122

 GradGradGradGradGradGradGradGradGradGradGradGradGradGradGradGradGradGrad
 Berny optimization.
 Using GEDIIS/GDIIS optimizer.
 FormGI is forming the generalized inverse of G from B-inverse, IUseBI=4.
 Internal  Forces:  Max     0.000017363 RMS     0.000002466
 Search for a local minimum.
 Step number   3 out of a maximum of   81
 All quantities printed in internal units (Hartrees-Bohrs-Radians)
 Mixed Optimization -- En-DIIS/RFO-DIIS
 Swapping is turned off.
 Update second derivatives using D2CorX and points    1    2    3
 DE= -4.05D-07 DEPred=-4.21D-07 R= 9.63D-01
 Trust test= 9.63D-01 RLast= 7.55D-03 DXMaxT set to 3.00D-01
 ITU=  0  1  0
     Eigenvalues ---    0.00060   0.01008   0.01210   0.01487   0.01762
     Eigenvalues ---    0.01801   0.02088   0.02240   0.02430   0.02725
     Eigenvalues ---    0.02860   0.03479   0.03971   0.10287   0.10425
     Eigenvalues ---    0.10803   0.11263   0.11893   0.12495   0.15855
     Eigenvalues ---    0.17278   0.18301   0.18708   0.18960   0.19721
     Eigenvalues ---    0.20803   0.27919   0.29214   0.35500   0.36418
     Eigenvalues ---    0.36452   0.36588   0.38248   0.39250   0.42152
     Eigenvalues ---    0.45017   0.47040   0.48279   0.49111   0.52665
     Eigenvalues ---    0.55224   0.56243
 En-DIIS/RFO-DIIS/Sim-DIIS IScMMF=       -3 using points:     3    2
 RFO step:  Lambda=-9.76361056D-10.
 DidBck=T Rises=F RFO-DIIS coefs:    0.56929    0.43071
 Iteration  1 RMS(Cart)=  0.00094544 RMS(Int)=  0.00000041
 Iteration  2 RMS(Cart)=  0.00000058 RMS(Int)=  0.00000000
 Variable       Old X    -DE/DX   Delta X   Delta X   Delta X     New X
                                 (Linear)    (Quad)   (Total)
    R1        1.81684   0.00000   0.00000   0.00000   0.00000   1.81684
    R2        2.57490   0.00000   0.00000   0.00000   0.00000   2.57490
    R3        2.95818   0.00000  -0.00001   0.00001   0.00000   2.95818
    R4        2.64355   0.00000  -0.00005   0.00005   0.00000   2.64355
    R5        2.64754   0.00000  -0.00006   0.00006   0.00000   2.64754
    R6        2.58626   0.00000   0.00001   0.00000   0.00000   2.58626
    R7        1.81072   0.00000   0.00001   0.00000   0.00000   1.81073
    R8        2.05308   0.00000   0.00000   0.00001   0.00000   2.05308
    R9        2.62593   0.00000  -0.00009   0.00010   0.00001   2.62594
   R10        2.04553   0.00000  -0.00002   0.00002   0.00000   2.04553
   R11        2.61494  -0.00001  -0.00017   0.00017  -0.00001   2.61493
   R12        2.61572  -0.00001  -0.00019   0.00018  -0.00001   2.61572
   R13        2.53715  -0.00002  -0.00037   0.00034  -0.00003   2.53712
   R14        2.04589   0.00000  -0.00001   0.00002   0.00000   2.04589
   R15        2.62401   0.00000  -0.00009   0.00009   0.00001   2.62401
   R16        2.04833   0.00000  -0.00001   0.00001   0.00000   2.04833
    A1        1.95844   0.00000   0.00000   0.00000   0.00000   1.95844
    A2        2.14457   0.00000  -0.00002  -0.00001  -0.00003   2.14454
    A3        2.08095   0.00000   0.00004  -0.00002   0.00002   2.08098
    A4        2.05766   0.00000  -0.00002   0.00003   0.00001   2.05767
    A5        2.06050   0.00000   0.00002   0.00000   0.00002   2.06052
    A6        2.05365   0.00000   0.00003  -0.00002   0.00001   2.05366
    A7        2.16904   0.00000  -0.00005   0.00002  -0.00003   2.16901
    A8        2.00396   0.00000  -0.00011   0.00008  -0.00003   2.00393
    A9        2.10620   0.00000   0.00001  -0.00003  -0.00002   2.10618
   A10        2.12463   0.00000  -0.00004   0.00003  -0.00001   2.12462
   A11        2.05234   0.00000   0.00003   0.00000   0.00003   2.05237
   A12        2.13476   0.00000  -0.00033   0.00034   0.00001   2.13478
   A13        2.06066   0.00000   0.00007  -0.00007   0.00000   2.06066
   A14        2.08776   0.00000   0.00026  -0.00027  -0.00002   2.08775
   A15        2.13839   0.00000  -0.00004   0.00005   0.00000   2.13840
   A16        2.07095   0.00000   0.00001  -0.00001   0.00000   2.07095
   A17        2.07384   0.00000   0.00003  -0.00004   0.00000   2.07384
   A18        2.08619   0.00000   0.00027  -0.00028  -0.00002   2.08618
   A19        2.06377   0.00000   0.00007  -0.00006   0.00000   2.06377
   A20        2.13322   0.00000  -0.00033   0.00035   0.00001   2.13324
   A21        2.12126   0.00000  -0.00003   0.00002  -0.00001   2.12125
   A22        2.07426   0.00000   0.00002  -0.00002   0.00000   2.07426
   A23        2.08767   0.00000   0.00001   0.00000   0.00001   2.08768
    D1        3.13155   0.00000  -0.00021  -0.00005  -0.00026   3.13129
    D2       -0.00803   0.00000  -0.00012  -0.00005  -0.00018  -0.00820
    D3        3.08249   0.00000  -0.00147  -0.00007  -0.00155   3.08095
    D4       -0.06126   0.00000  -0.00156  -0.00007  -0.00163  -0.06290
    D5       -0.05792   0.00000  -0.00149  -0.00005  -0.00154  -0.05946
    D6        3.08151   0.00000  -0.00158  -0.00004  -0.00162   3.07988
    D7       -0.00703   0.00000  -0.00022  -0.00002  -0.00024  -0.00726
    D8        3.13916   0.00000  -0.00010   0.00000  -0.00010   3.13906
    D9        3.13340   0.00000  -0.00020  -0.00005  -0.00024   3.13316
   D10       -0.00359   0.00000  -0.00008  -0.00003  -0.00011  -0.00370
   D11       -3.13818   0.00000   0.00014  -0.00002   0.00012  -3.13806
   D12        0.00278   0.00000   0.00012  -0.00002   0.00010   0.00287
   D13        0.00453   0.00000   0.00012   0.00001   0.00013   0.00466
   D14       -3.13770   0.00000   0.00010   0.00000   0.00011  -3.13759
   D15        3.11254   0.00000  -0.00047  -0.00026  -0.00073   3.11180
   D16       -0.02690   0.00000  -0.00038  -0.00027  -0.00065  -0.02755
   D17        3.14062   0.00000  -0.00003   0.00001  -0.00002   3.14060
   D18        0.00081   0.00000  -0.00001   0.00003   0.00002   0.00083
   D19        0.00349   0.00000   0.00008   0.00003   0.00011   0.00361
   D20       -3.13632   0.00000   0.00011   0.00005   0.00016  -3.13617
   D21        0.00123   0.00000   0.00006  -0.00001   0.00004   0.00127
   D22       -3.14103   0.00000   0.00002   0.00000   0.00002  -3.14101
   D23       -3.13864   0.00000   0.00008   0.00000   0.00008  -3.13856
   D24        0.00229   0.00000   0.00005   0.00002   0.00007   0.00235
   D25        3.14022   0.00000  -0.00006   0.00001  -0.00005   3.14017
   D26       -0.00033   0.00000  -0.00002   0.00000  -0.00002  -0.00035
   D27       -0.00071   0.00000  -0.00002   0.00000  -0.00003  -0.00074
   D28       -3.14125   0.00000   0.00002  -0.00002   0.00000  -3.14126
   D29       -0.00264   0.00000  -0.00007   0.00000  -0.00007  -0.00270
   D30        3.13959   0.00000  -0.00006   0.00001  -0.00005   3.13955
   D31        3.14004   0.00000  -0.00003  -0.00001  -0.00004   3.14000
   D32       -0.00092   0.00000  -0.00002   0.00000  -0.00002  -0.00094
         Item               Value     Threshold  Converged?
 Maximum Force            0.000017     0.000015     NO 
 RMS     Force            0.000002     0.000010     YES
 Maximum Displacement     0.004276     0.000060     NO 
 RMS     Displacement     0.000945     0.000040     NO 
 Predicted change in Energy=-3.940237D-09
 GradGradGradGradGradGradGradGradGradGradGradGradGradGradGradGradGradGrad

                          Input orientation:                          
 ---------------------------------------------------------------------
 Center     Atomic      Atomic             Coordinates (Angstroms)
 Number     Number       Type             X           Y           Z
 ---------------------------------------------------------------------
      1          8           0        8.686098    7.456370    5.540542
      2          1           0        9.498178    7.148249    5.952779
      3          6           0        6.243630    6.994297    5.173707
      4          5           0        7.639492    6.615238    5.772342
      5          8           0        7.879357    5.492799    6.517753
      6          1           0        7.110283    4.943929    6.677143
      7          6           0        5.118925    6.170475    5.289041
      8          1           0        5.181503    5.215962    5.804162
      9          6           0        3.889900    6.531988    4.750750
     10          1           0        3.013925    5.901521    4.833644
     11          6           0        3.800721    7.742791    4.086821
     12          6           0        4.882859    8.593693    3.942289
     13          1           0        4.758787    9.529438    3.412108
     14          6           0        6.099730    8.207907    4.488653
     15          1           0        6.962254    8.856441    4.386880
     16          9           0        2.618668    8.104152    3.562696
 ---------------------------------------------------------------------
                    Distance matrix (angstroms):
                    1          2          3          4          5
     1  O    0.000000
     2  H    0.961432   0.000000
     3  C    2.512714   3.350035   0.000000
     4  B    1.362578   1.942002   1.565401   0.000000
     5  O    2.336960   2.383336   2.595487   1.368590   0.000000
     6  H    3.176069   3.329530   2.686152   1.972815   0.958196
     7  C    3.800198   4.535906   1.398909   2.604736   3.096605
     8  H    4.167867   4.731755   2.165193   2.828550   2.804330
     9  C    4.947906   5.768659   2.435707   3.887161   4.485307
    10  H    5.923750   6.697188   3.426485   4.773512   5.164853
    11  C    5.105121   6.024641   2.776576   4.341489   5.254252
    12  C    4.279315   5.237608   2.434369   3.855179   5.022703
    13  H    4.924593   5.881063   3.425629   4.728819   5.973060
    14  C    2.891466   3.849154   1.401019   2.560336   3.828332
    15  H    2.502554   3.435239   2.145484   2.720506   4.086048
    16  F    6.414453   7.345332   4.119161   5.684019   6.574676
                    6          7          8          9         10
     6  H    0.000000
     7  C    2.719696   0.000000
     8  H    2.134547   1.086444   0.000000
     9  C    4.074774   1.389587   2.123638   0.000000
    10  H    4.592997   2.170426   2.471900   1.082447   0.000000
    11  C    5.049416   2.378061   3.352713   1.383762   2.137070
    12  C    5.075590   2.782346   3.868439   2.426974   3.396353
    13  H    6.100564   3.864610   4.950423   3.395826   4.269320
    14  C    4.057617   2.398693   3.394913   2.785812   3.867897
    15  H    4.535964   3.380262   4.293350   3.869734   4.951813
    16  F    6.313588   3.601480   4.464743   2.345037   2.573542
                   11         12         13         14         15
    11  C    0.000000
    12  C    1.384178   0.000000
    13  H    2.136642   1.082638   0.000000
    14  C    2.379758   1.388567   2.168761   0.000000
    15  H    3.365345   2.142564   2.501674   1.083929   0.000000
    16  F    1.342586   2.347404   2.575699   3.603603   4.484636
                   16
    16  F    0.000000
 Symmetry turned off by external request.
 Stoichiometry    C6H6BFO2
 Framework group  C1[X(C6H6BFO2)]
 Deg. of freedom    42
 Full point group                 C1      NOp   1
 Rotational constants (GHZ):           3.6893533           0.7259772           0.6067907
 Standard basis: 6-311+G(d,p) (5D, 7F)
   256 basis functions,   408 primitive gaussians,   266 cartesian basis functions
    36 alpha electrons       36 beta electrons
       nuclear repulsion energy       475.0553912624 Hartrees.
 NAtoms=   16 NActive=   16 NUniq=   16 SFac= 1.00D+00 NAtFMM=   60 NAOKFM=F Big=F
 Integral buffers will be    131072 words long.
 Raffenetti 2 integral format.
 Two-electron integral symmetry is turned off.
 One-electron integrals computed using PRISM.
 NBasis=   256 RedAO= T EigKep=  2.49D-06  NBF=   256
 NBsUse=   256 1.00D-06 EigRej= -1.00D+00 NBFU=   256
 Initial guess from the checkpoint file:  "4-f-phboh2-opt-freq.chk"
 B after Tr=    -0.001556   -0.000296    0.002085
         Rot=    1.000000    0.000052   -0.000035    0.000035 Ang=   0.01 deg.
 Requested convergence on RMS density matrix=1.00D-08 within 128 cycles.
 Requested convergence on MAX density matrix=1.00D-06.
 Requested convergence on             energy=1.00D-06.
 Level shift goal  0.100 maximum shift  0.100.
 No special actions if energy rises.
 Dynamic level shift is on during FON iterations.
 SCF Done:  E(RM062X) =  -507.467312448     A.U. after    8 cycles
            NFock=  8  Conv=0.40D-08     -V/T= 2.0033
 Calling FoFJK, ICntrl=      2127 FMM=F ISym2X=0 I1Cent= 0 IOpClX= 0 NMat=1 NMatS=1 NMatT=0.
 -------------------------------------------------------------------
 Center     Atomic                   Forces (Hartrees/Bohr)
 Number     Number              X              Y              Z
 -------------------------------------------------------------------
      1        8          -0.000000121   -0.000003436    0.000002941
      2        1          -0.000000829   -0.000004614    0.000003444
      3        6          -0.000000823   -0.000000515   -0.000000228
      4        5          -0.000001304   -0.000002655    0.000001389
      5        8          -0.000002908   -0.000003954   -0.000000023
      6        1          -0.000003211   -0.000003474   -0.000002186
      7        6          -0.000001507    0.000000592   -0.000002293
      8        1          -0.000002869   -0.000000127   -0.000002825
      9        6           0.000000077    0.000003607   -0.000003294
     10        1          -0.000000565    0.000002560   -0.000003894
     11        6           0.000000863    0.000003750   -0.000001282
     12        6           0.000001026    0.000000720    0.000001409
     13        1           0.000004252    0.000003197    0.000002432
     14        6           0.000000908    0.000000511    0.000001559
     15        1           0.000002189   -0.000000221    0.000003395
     16        9           0.000004822    0.000004059   -0.000000544
 -------------------------------------------------------------------
 Cartesian Forces:  Max     0.000004822 RMS     0.000002506

 GradGradGradGradGradGradGradGradGradGradGradGradGradGradGradGradGradGrad
 Berny optimization.
 Using GEDIIS/GDIIS optimizer.
 FormGI is forming the generalized inverse of G from B-inverse, IUseBI=4.
 Internal  Forces:  Max     0.000002895 RMS     0.000000534
 Search for a local minimum.
 Step number   4 out of a maximum of   81
 All quantities printed in internal units (Hartrees-Bohrs-Radians)
 Mixed Optimization -- En-DIIS/RFO-DIIS
 Swapping is turned off.
 Update second derivatives using D2CorX and points    1    2    3    4
 DE= -2.55D-09 DEPred=-3.94D-09 R= 6.48D-01
 Trust test= 6.48D-01 RLast= 3.37D-03 DXMaxT set to 3.00D-01
 ITU=  0  0  1  0
     Eigenvalues ---    0.00085   0.01013   0.01211   0.01489   0.01762
     Eigenvalues ---    0.01802   0.02089   0.02240   0.02430   0.02725
     Eigenvalues ---    0.02860   0.03479   0.03975   0.10291   0.10429
     Eigenvalues ---    0.10821   0.11263   0.11896   0.12495   0.15855
     Eigenvalues ---    0.17279   0.18305   0.18697   0.18960   0.19724
     Eigenvalues ---    0.20802   0.27921   0.29215   0.35499   0.36417
     Eigenvalues ---    0.36453   0.36589   0.38087   0.39249   0.42150
     Eigenvalues ---    0.44524   0.47038   0.47809   0.49036   0.52571
     Eigenvalues ---    0.55224   0.56246
 En-DIIS/RFO-DIIS/Sim-DIIS IScMMF=       -3 using points:     4    3    2
 RFO step:  Lambda=-6.34708127D-11.
 DidBck=T Rises=F RFO-DIIS coefs:    0.69270    0.30004    0.00727
 Iteration  1 RMS(Cart)=  0.00027573 RMS(Int)=  0.00000004
 Iteration  2 RMS(Cart)=  0.00000005 RMS(Int)=  0.00000000
 Variable       Old X    -DE/DX   Delta X   Delta X   Delta X     New X
                                 (Linear)    (Quad)   (Total)
    R1        1.81684   0.00000   0.00000   0.00000   0.00000   1.81684
    R2        2.57490   0.00000   0.00000   0.00000   0.00000   2.57490
    R3        2.95818   0.00000   0.00000   0.00000   0.00000   2.95818
    R4        2.64355   0.00000   0.00000   0.00000   0.00000   2.64355
    R5        2.64754   0.00000   0.00000   0.00000   0.00000   2.64754
    R6        2.58626   0.00000   0.00000   0.00000   0.00000   2.58626
    R7        1.81073   0.00000   0.00000   0.00000   0.00000   1.81073
    R8        2.05308   0.00000   0.00000   0.00000   0.00000   2.05308
    R9        2.62594   0.00000   0.00000   0.00000   0.00000   2.62594
   R10        2.04553   0.00000   0.00000   0.00000   0.00000   2.04553
   R11        2.61493   0.00000   0.00000   0.00000   0.00000   2.61493
   R12        2.61572   0.00000   0.00000   0.00000   0.00000   2.61571
   R13        2.53712   0.00000   0.00000  -0.00001  -0.00001   2.53711
   R14        2.04589   0.00000   0.00000   0.00000   0.00000   2.04589
   R15        2.62401   0.00000   0.00000   0.00000   0.00000   2.62401
   R16        2.04833   0.00000   0.00000   0.00000   0.00000   2.04833
    A1        1.95844   0.00000   0.00000   0.00000   0.00000   1.95844
    A2        2.14454   0.00000   0.00001   0.00000   0.00001   2.14455
    A3        2.08098   0.00000  -0.00001   0.00000  -0.00001   2.08097
    A4        2.05767   0.00000   0.00000   0.00000   0.00000   2.05766
    A5        2.06052   0.00000  -0.00001   0.00000  -0.00001   2.06051
    A6        2.05366   0.00000   0.00000   0.00000   0.00000   2.05365
    A7        2.16901   0.00000   0.00001   0.00000   0.00001   2.16902
    A8        2.00393   0.00000   0.00001   0.00000   0.00001   2.00394
    A9        2.10618   0.00000   0.00001   0.00000   0.00001   2.10619
   A10        2.12462   0.00000   0.00000   0.00000   0.00000   2.12462
   A11        2.05237   0.00000  -0.00001   0.00000  -0.00001   2.05237
   A12        2.13478   0.00000  -0.00001   0.00000  -0.00001   2.13477
   A13        2.06066   0.00000   0.00000   0.00000   0.00000   2.06066
   A14        2.08775   0.00000   0.00001   0.00000   0.00000   2.08775
   A15        2.13840   0.00000   0.00000   0.00000   0.00000   2.13840
   A16        2.07095   0.00000   0.00000   0.00000   0.00000   2.07095
   A17        2.07384   0.00000   0.00000   0.00000   0.00000   2.07384
   A18        2.08618   0.00000   0.00001   0.00000   0.00000   2.08618
   A19        2.06377   0.00000   0.00000   0.00000   0.00000   2.06377
   A20        2.13324   0.00000  -0.00001   0.00000  -0.00001   2.13323
   A21        2.12125   0.00000   0.00000   0.00000   0.00000   2.12125
   A22        2.07426   0.00000   0.00000   0.00000   0.00000   2.07426
   A23        2.08768   0.00000   0.00000   0.00000   0.00000   2.08768
    D1        3.13129   0.00000   0.00008   0.00000   0.00008   3.13137
    D2       -0.00820   0.00000   0.00005   0.00000   0.00005  -0.00815
    D3        3.08095   0.00000   0.00045   0.00000   0.00045   3.08140
    D4       -0.06290   0.00000   0.00048   0.00000   0.00048  -0.06242
    D5       -0.05946   0.00000   0.00045   0.00000   0.00045  -0.05901
[...]
     1         15.49239555         19.71453854          1.58725118
     6         10.09811747         17.51381184         -0.88977146
     5         12.13871832         18.30629704          1.09988846
     8         11.83289448         18.10315533          3.65995656
     1         10.22186139         17.46436674          4.18459906
     6          7.80274652         16.38642668         -0.21995789
     1          7.35804926         16.00481049          1.74771972
     6          6.02010734         15.70564525         -2.02391910
     1          4.23938069         14.83095338         -1.52580674
     6          6.57266694         16.17202036         -4.53689046
     6          8.81629405         17.27806919         -5.30157741
     1          9.15483940         17.59878382         -7.29361034
     6         10.56600667         17.93814368         -3.46086138
     1         12.33847663         18.80361575         -4.01309554
     9          4.86557631         15.52434724         -6.29850871

 Electric dipole moment (dipole orientation):
 (Debye = 10**-18 statcoulomb cm , SI units = C m)
                  (au)            (Debye)         (10**-30 SI)
   Tot        0.689379D+00      0.175223D+01      0.584479D+01
   x          0.000000D+00      0.000000D+00      0.000000D+00
   y          0.000000D+00      0.000000D+00      0.000000D+00
   z          0.689379D+00      0.175223D+01      0.584479D+01

 Dipole polarizability, Alpha (dipole orientation).
 (esu units = cm**3 , SI units = C**2 m**2 J**-1)
 Alpha(0;0):
               (au)            (10**-24 esu)      (10**-40 SI)
   iso        0.845419D+02      0.125278D+02      0.139391D+02
   aniso      0.546707D+02      0.810137D+01      0.901399D+01
   xx         0.941748D+02      0.139553D+02      0.155273D+02
   yx         0.196024D+02      0.290477D+01      0.323200D+01
   yy         0.586504D+02      0.869109D+01      0.967014D+01
   zx         0.987644D+01      0.146354D+01      0.162840D+01
   zy         0.864953D+00      0.128173D+00      0.142612D+00
   zz         0.100800D+03      0.149371D+02      0.166197D+02

 ----------------------------------------------------------------------
 Unable to Open any file for archive entry.
 1\1\GINC-CN007\Freq\RM062X\6-311+G(d,p)\C6H6B1F1O2\TAHMINAAFROZ\19-Apr
 -2025\0\\#N Geom=AllCheck Guess=TCheck SCRF=Check GenChk RM062X/6-311+
 G(d,p) Freq\\4-f-phboh2-opt-freq\\0,1\O,8.6859886659,7.4566093296,5.54
 09167925\H,9.498093216,7.1484440045,5.9530711575\C,6.2436144148,6.9943
 173227,5.1737530142\B,7.6394788106,6.615265477,5.7723886318\O,7.879450
 4612,5.4926284707,6.5174649291\H,7.1104823329,4.9435025646,6.676481169
 8\C,5.1188732964,6.1705614878,5.2892006013\H,5.1813967451,5.2161270744
 ,5.8044730328\C,3.889860778,6.5320611095,4.7508748372\H,3.0138603202,5
 .9016420902,4.8338649681\C,3.8007253411,7.7427862006,4.0868014447\C,4.
 8828938749,8.5936302396,3.9421722748\H,4.758858943,9.5293238461,3.4118
 905795\C,6.0997505108,8.2078634511,4.488578859\H,6.9622947496,8.856361
 2129,4.3867410657\F,2.6186888596,8.1041273387,3.5626368821\\Version=AS
 64L-G16RevC.01\HF=-507.4673124\RMSD=2.038e-09\RMSF=2.424e-06\ZeroPoint
 =0.1177634\Thermal=0.1264616\ETot=-507.3408509\HTot=-507.3399067\GTot=
 -507.3842389\Dipole=0.2076861,-0.5247059,0.3959709\DipoleDeriv=-1.3506
 912,-0.3020747,-0.0278361,-0.4003259,-0.7108982,-0.0023542,0.0389455,0
 .0207236,-0.544533,0.3612392,0.039565,-0.0208582,0.0651995,0.295185,0.
 0487185,-0.0438595,0.0442347,0.3076298,-0.6444288,0.089465,-0.185837,0
 .0683884,-0.3124021,0.105224,-0.1662318,0.1140058,-0.2673828,1.9767086
 ,-0.0325047,0.3931678,0.0763855,1.3542615,-0.4744661,0.3293766,-0.4962
 546,0.9447258,-0.6981578,0.2246268,-0.1837326,0.1952545,-1.1014295,0.4
 007285,-0.1692753,0.3991758,-0.8212937,0.2315382,-0.0974306,0.037656,-
 0.0831783,0.3673376,-0.0515597,0.0370978,-0.0518177,0.363982,0.1932043
 ,0.008469,0.0897919,0.0443064,0.0623554,-0.0926807,0.0550502,-0.106917
 3,-0.0705705,0.0765703,0.0225174,-0.0252775,0.0218226,-0.0628237,0.105
 0929,-0.0240908,0.1037867,0.0601833,-0.1561578,0.046617,-0.0293482,0.2
 602836,-0.1699348,0.0915196,-0.1376017,0.0375329,-0.1942312,0.0121928,
 -0.0464518,-0.0182431,-0.0563738,0.0700734,0.0335552,-0.0131858,0.0356
 024,0.1412082,1.276807,-0.2699453,0.4704837,-0.3014449,0.3794858,-0.22
 41903,0.482453,-0.2170889,0.3682563,-0.3241926,0.0459059,-0.078326,-0.
 1131159,-0.0256811,-0.087115,0.0099184,-0.0421982,-0.1067655,0.0793679
 ,0.0050333,-0.0259607,0.015332,0.028936,0.0743273,-0.031449,0.0716437,
 0.1147279,0.1186504,0.0258189,0.0513367,-0.0347322,0.068143,-0.111301,
 0.0811526,-0.0962558,-0.0478187,0.0512316,-0.0580126,0.009108,-0.05585
 16,0.0543344,0.0227466,0.005792,0.0224676,0.116076,-1.2038821,0.298401
 3,-0.4561248,0.2980502,-0.2969426,0.1617545,-0.4540921,0.1613593,-0.36
 41939\Polar=105.0871305,0.7199106,84.4091892,15.1283455,-18.6416564,64
 .1292708\Quadrupole=3.4683286,-10.237875,6.7695463,-0.2058685,5.122620
 8,-1.9333167\PG=C01 [X(C6H6B1F1O2)]\NImag=0\\0.66055554,0.02845058,0.2
 8304205,0.15309412,-0.14454125,0.16602861,-0.38608368,0.11865506,-0.17
 508052,0.41361091,0.14980840,-0.08181530,0.08345921,-0.12793842,0.0748
 7971,-0.19428527,0.07494791,-0.11242468,0.18909381,-0.07503806,0.10823
 153,-0.02947253,-0.00195608,-0.00899425,-0.00034314,-0.00217278,0.0000
 5278,0.61418756,-0.01707507,0.00821037,-0.00409540,-0.00360553,-0.0008
 2958,0.00205878,0.06768721,0.53911633,-0.00010000,-0.00018512,0.009141
 42,0.00092033,0.00247532,0.00288020,0.10137836,-0.19984047,0.26389272,
 -0.24455226,-0.11407708,0.01744416,-0.03133733,-0.02239197,0.00432574,
 -0.17274126,0.02704065,-0.04545989,0.54772839,-0.14192780,-0.16679683,
 0.03283847,0.00761059,0.00935491,-0.00173269,0.02613584,-0.07939356,0.
 01657582,0.07704925,0.49467985,0.03457392,0.04049273,-0.06548121,-0.01
 404451,-0.00984155,0.00541359,-0.04549955,0.01663671,-0.08415974,0.059
 31387,-0.18883043,0.27832927,0.00582772,-0.03414053,0.01864751,0.00406
 122,0.00238146,0.00057048,0.00183690,0.02123231,-0.01691597,-0.0940427
 5,0.02335271,-0.02653840,0.45339441,-0.02161775,-0.04163052,0.02744719
 ,0.00455580,-0.00144217,0.00003541,0.00531507,-0.00540558,0.01489034,0
 .05551517,-0.23802750,0.13204361,0.20784149,0.47952414,0.01130529,0.02
 427715,0.00081962,-0.00082055,-0.00062231,-0.00324037,-0.00690043,0.01
 907485,0.00336736,-0.04661706,0.12461991,-0.13235919,-0.02748647,-0.22
 885966,0.16331660,0.00238405,0.00193627,-0.00207296,0.00020192,0.00041
 690,0.00001357,-0.00155536,0.00087942,-0.00015522,0.00416669,0.0023343
 1,0.00014351,-0.36565177,-0.25353441,0.07284660,0.36203975,0.00058431,
 -0.00112460,0.00454162,0.00062695,-0.00042398,-0.00005508,0.00042315,0
 .00090848,-0.00227163,-0.02547696,-0.01783686,0.00348533,-0.22291145,-
 0.19239251,0.06097452,0.24719576,0.20921640,-0.00143380,0.00473552,0.0
 0296987,-0.00006958,-0.00007340,-0.00079926,-0.00007575,-0.00206429,-0
 .00142283,0.01751209,0.00956937,-0.00407261,0.05398535,0.05429344,-0.0
 3016307,-0.06916183,-0.06648231,0.03252520,-0.00043478,0.00105702,-0.0
 0111774,-0.00077734,-0.00029541,0.00004462,-0.24979701,-0.07760101,-0.
 01339271,-0.02063344,-0.00778995,-0.00204397,0.00092575,-0.00388326,0.
 00284328,0.00121823,0.00050780,0.00011360,0.63796347,0.00479169,-0.000
 23331,0.00187870,0.00058481,0.00045369,0.00007806,-0.12546718,-0.17990
 621,0.02764269,-0.00081597,0.01164857,-0.00610327,0.00006880,-0.005015
 80,0.00216569,0.00353455,0.00060816,0.00125270,0.04819853,0.60632093,-
 0.00282632,0.00093130,-0.00031741,-0.00058063,-0.00013006,0.00037236,0
 .01196202,0.04081822,-0.07874410,-0.00578359,-0.00782474,0.00332617,0.
 00072256,0.00079758,-0.00116971,-0.00165028,0.00006187,-0.00038465,0.1
 1639278,-0.23210138,0.29216673,0.00032701,0.00039579,-0.00019854,-0.00
 005472,-0.00008635,-0.00003232,0.00734251,-0.01988005,0.01206343,0.000
 06650,-0.00098735,0.00135384,0.00001450,0.00080688,-0.00008429,-0.0020
 3555,0.00022203,-0.00157307,-0.05902286,0.01027668,-0.01123512,0.05988
 062,-0.00018700,0.00064395,-0.00033396,-0.00016298,-0.00003808,0.00008
 702,0.00248884,-0.01182810,0.00780927,0.00166646,-0.00311561,0.0007123
 4,0.00096326,0.00182894,-0.00105728,-0.00138947,0.00096212,-0.00029873
 ,0.01393173,-0.26635385,0.12308838,-0.01307789,0.28031305,0.00023779,-
 0.00010379,0.00029202,0.00001719,0.00012186,0.00014705,0.00054620,0.00
 156487,0.00102306,-0.00002259,-0.00014923,-0.00290838,-0.00038609,-0.0
 0109533,-0.00015320,-0.00058601,0.00038823,0.00098797,-0.01336533,0.12
 156564,-0.10540812,0.01702872,-0.13705539,0.10131737,-0.00254029,0.000
 34741,-0.00071467,-0.00004370,-0.00012174,0.00016016,-0.05239828,-0.03
 683922,0.00238922,0.00111811,-0.00687315,0.00239407,0.00065240,0.00148
 166,-0.00076426,-0.00051685,0.00024055,-0.00005071,-0.29942130,0.07431
 903,-0.10744880,0.00159463,-0.00154839,-0.00000458,0.71576910,0.000968
 23,0.00103747,-0.00059153,-0.00047922,-0.00013376,-0.00018419,0.009389
 97,0.05054187,-0.01981815,-0.00548646,0.00023158,0.00141900,0.00054417
 ,0.00024278,0.00015866,-0.00081771,-0.00010438,-0.00076926,0.00886517,
 -0.12905036,0.04018854,0.02583605,-0.00475048,0.01226914,0.10047274,0.
 59828554,-0.00128831,-0.00066497,-0.00026177,0.00034015,-0.00021926,-0
 .00028051,-0.02213389,-0.03254006,0.01954320,0.00164578,0.00092375,0.0
 0559610,-0.00021258,0.00036337,-0.00012344,0.00061753,-0.00032973,-0.0
 0028177,-0.07293362,0.05861922,-0.10903702,-0.01435960,0.00437923,-0.0
 0199342,0.11498198,-0.22190875,0.27210679,-0.00058355,0.00002707,-0.00
 011543,-0.00004597,-0.00003365,0.00002912,-0.00269811,0.00195526,-0.00
 394911,0.00029103,-0.00102615,0.00049429,-0.00012455,0.00031659,-0.000
 20781,-0.00005004,-0.00009531,0.00003556,-0.01477570,-0.01681187,0.004
 01335,0.00057331,0.00065917,0.00103087,-0.24435563,-0.14137127,0.01478
 076,0.25558683,0.00018468,-0.00006770,-0.00001135,0.00004245,0.0000025
 9,-0.00002352,0.00173471,0.00203466,0.00335024,0.00014222,0.00051763,0
 .00001643,-0.00003783,-0.00008942,0.00002797,0.00004677,0.00002084,0.0
 0001286,0.00850277,0.00958949,-0.00144776,0.00012436,-0.00033035,-0.00
 203242,-0.13980144,-0.15510262,0.02377487,0.15197294,0.15657284,-0.000
 21526,-0.00004723,-0.00021313,-0.00002884,-0.00004301,-0.00003726,-0.0
 0373898,0.00345349,0.00456341,-0.00012006,-0.00031318,0.00059745,-0.00
 002651,0.00014529,-0.00008745,-0.00003224,-0.00004411,0.00000695,-0.00
 937238,-0.00868398,0.00416224,0.00129291,-0.00184903,-0.00291015,0.013
 92837,0.02322917,-0.04263662,-0.01429404,-0.02640474,0.03413327,0.0017
 8036,0.00077530,0.00014774,-0.00020547,-0.00005863,-0.00006169,-0.0114
 2686,-0.03077061,0.01449217,-0.00558479,-0.00043670,-0.00144422,0.0017
 1990,-0.00192194,0.00163224,0.00003563,0.00061524,-0.00038830,0.030549
 31,0.03274477,-0.00833915,-0.00344794,0.00035934,-0.00351878,-0.120831
 93,0.02598437,-0.02949617,0.00383152,-0.02505162,0.01291740,0.66611007
 ,-0.00230398,-0.00036630,-0.00044447,0.00018332,-0.00009685,0.00006983
 ,-0.03200261,-0.06311243,0.02211742,0.00118519,-0.00387418,0.00245140,
 0.00032970,0.00027452,-0.00024052,0.00017220,0.00021792,0.00017576,0.0
 9439417,0.00245335,0.02466427,-0.00040377,0.00342325,0.00237041,-0.052
 65314,-0.28477668,0.10074290,0.00287139,-0.01009854,0.00881923,0.07048
 352,0.60649819,0.00179570,0.00028170,-0.00000805,-0.00016944,0.0000718
 8,0.00002995,0.01493449,0.02221588,-0.01225999,-0.00234151,0.00204008,
 -0.00145863,0.00044147,-0.00081757,0.00039209,-0.00022464,0.00022589,0
 .00007034,-0.04080340,0.00738585,-0.01648828,-0.00306563,0.00253062,0.
 00593506,0.01203593,0.12320569,-0.12698304,-0.00181992,0.00077391,0.00
 394809,0.10677640,-0.21809477,0.30095547,-0.00007499,-0.00047711,0.000
 17654,0.00009882,0.00019063,-0.00001844,0.02280617,0.07381964,-0.03546
 639,0.00503748,0.00104393,-0.00067308,-0.00107890,0.00131186,-0.000603
 21,-0.00002739,-0.00047462,0.00017273,-0.07356894,-0.01492827,-0.01234
 061,-0.00124344,-0.00009280,0.00001162,0.04591340,-0.05964552,0.042581
 69,0.00136785,0.00088563,-0.00170048,-0.23322345,-0.07317524,-0.008637
 45,0.66063591,-0.00037029,0.00086126,-0.00062024,0.00015511,0.00010642
 ,-0.00001807,0.02922754,0.00439409,0.01055374,-0.00127723,-0.00364064,
 0.00468972,0.00162896,0.00000031,-0.00003984,-0.00016999,0.00021234,-0
 .00020441,-0.01516786,-0.00483193,-0.00264970,-0.00000487,0.00023815,-
 0.00078135,-0.01168527,-0.03109658,0.01687145,0.00053785,-0.00299660,0
 .00468515,-0.15220441,-0.21293670,0.03471790,0.04831502,0.63315313,0.0
 0006304,-0.00068459,0.00025107,-0.00005658,-0.00001660,0.00001575,-0.0
 1160042,0.02355948,-0.00663046,0.00059614,0.00521981,0.00311313,-0.000
 80792,-0.00036713,-0.00128496,0.00009731,-0.00015313,0.00024016,-0.012
 21873,-0.00261403,-0.00388566,-0.00000771,-0.00079671,-0.00082683,0.01
 715639,0.00327882,0.01018664,-0.00149600,0.00479005,0.00264653,0.03319
 623,0.05706783,-0.08665097,0.12503746,-0.25452537,0.29575280,-0.000265
 54,-0.00021885,0.00006144,0.00000856,0.00001350,-0.00001654,-0.0041158
 1,0.00049019,-0.00355398,0.00092052,0.00093115,-0.00032316,-0.00054084
 ,0.00029732,-0.00028222,-0.00002908,-0.00010441,0.00005553,-0.00157251
 ,-0.00014125,-0.00009718,0.00005097,0.00014360,0.00017912,-0.00362885,
 -0.00358914,-0.00072114,0.00024264,-0.00110346,0.00062167,0.00736753,-
 0.02187696,0.01227158,-0.06023055,0.02394202,-0.01964334,0.05580351,0.
 00016891,0.00004423,0.00000376,-0.00001524,0.00000351,0.00001253,0.000
 49233,0.00298839,0.00261713,-0.00044293,-0.00002763,0.00005105,0.00016
 020,-0.00015993,0.00001422,-0.00000287,0.00003934,-0.00001104,-0.00047
 034,0.00038564,-0.00085228,0.00012035,-0.00023552,-0.00029674,-0.00387
 808,0.00025575,0.00177029,0.00022978,-0.00056459,0.00040755,0.00605907
 ,-0.01248512,0.01091569,0.02223247,-0.27158264,0.13126292,-0.02546914,
 0.28302189,-0.00014053,-0.00009875,-0.00000897,-0.00000069,0.00001885,
 0.00002472,-0.00359843,0.00256058,0.00529971,0.00040390,0.00043130,0.0
 0017624,-0.00015970,0.00003052,-0.00030838,-0.00000491,-0.00002185,0.0
 0004752,0.00010867,-0.00073821,-0.00054270,0.00019175,-0.00028304,-0.0
 0065704,-0.00055894,0.00186435,0.00451669,-0.00007924,0.00003816,0.000
 04398,-0.00253251,0.00301572,0.00261058,-0.01870354,0.13177193,-0.1106
 0527,0.02222628,-0.14388247,0.10732976,-0.00227140,-0.00040648,-0.0003
 0758,0.00057292,0.00024724,0.00003775,-0.12251353,-0.01406149,-0.00858
 215,0.00173030,0.02098235,-0.01115518,-0.00513710,0.00169625,-0.003168
 45,-0.00037058,-0.00064427,0.00037583,0.04529614,-0.01659396,0.0204039
 9,-0.00350254,-0.00447086,-0.00067539,-0.02464454,0.02765594,-0.021069
 09,0.00006835,0.00129245,-0.00032702,-0.05979029,-0.04642621,0.0078887
 5,-0.29742518,0.07908987,-0.10834029,0.00341547,-0.00075117,0.00048729
 ,0.70142252,-0.00299820,-0.00298258,0.00076209,-0.00033306,-0.00036551
 ,0.00000066,0.03578204,-0.25892341,0.11363164,0.01145700,-0.00159245,0
 .00466736,-0.00227416,0.00197219,-0.00085827,-0.00023530,-0.00053050,0
 .00017362,-0.06205341,-0.03903259,0.00519342,-0.00400468,0.00064129,0.
 00236895,0.02878374,-0.03625454,0.02632651,0.00086684,-0.00072764,0.00
 003028,0.01433014,0.06201074,-0.02908433,0.01353667,-0.13595067,0.0434
 9840,0.02453781,-0.00179411,0.00937139,0.09168389,0.57543653,0.0011946
 4,0.00140538,-0.00068861,0.00038032,0.00010569,-0.00021800,-0.03518192
 ,0.09953271,-0.12628126,-0.00636436,0.00755481,-0.00434119,-0.00065275
 ,0.00033333,0.00115933,-0.00007328,0.00003033,0.00000295,0.04448543,0.
 01802982,0.00692084,-0.00093050,0.00220611,0.00590673,-0.02168969,0.02
 597304,-0.02179143,-0.00012691,0.00017522,-0.00119270,-0.02431894,-0.0
 4636120,0.01687739,-0.07342461,0.06210501,-0.11395365,-0.01282839,0.00
 223010,-0.00201082,0.10768490,-0.20232564,0.28227530,-0.00136622,0.000
 47680,-0.00059313,-0.00004580,-0.00001566,0.00004400,0.00628042,0.0022
 2225,-0.00016951,0.00061462,0.00119838,0.00027187,-0.00002607,-0.00045
 199,0.00014215,0.00002882,-0.00001640,0.00003397,0.00174862,0.00074256
 ,-0.00185460,0.00031818,0.00027664,-0.00007520,-0.00014772,0.00095272,
 -0.00017534,-0.00008095,0.00003284,0.00017245,-0.00154439,0.00150076,-
 0.00360439,-0.01588314,-0.01675580,0.00306667,0.00061347,0.00068754,0.
 00104764,-0.23896849,-0.13909213,0.01815860,0.25017760,0.00030528,0.00
 067731,-0.00039897,0.00022614,0.00034728,-0.00021225,-0.02112006,-0.01
 166210,0.00164532,-0.00192342,-0.00242921,-0.00061047,0.00033080,0.000
 68400,-0.00005484,-0.00013530,0.00003764,-0.00010165,0.00056483,-0.002
 75273,0.00534356,-0.00113994,-0.00072961,0.00011694,0.00094733,-0.0004
 4598,-0.00020736,0.00000611,-0.00012391,-0.00033477,0.00121834,0.00191
 886,0.00384572,0.00907944,0.00945802,0.00007707,0.00008774,-0.00049430
 ,-0.00206179,-0.13825912,-0.15773633,0.02294512,0.14892009,0.16297441,
 -0.00040255,-0.00032301,-0.00009047,-0.00006941,-0.00027829,-0.0001150
 6,0.01207718,0.00817230,0.00170124,0.00199751,0.00020878,-0.00234386,-
 0.00034153,-0.00013978,0.00048105,0.00007775,-0.00006304,0.00002718,-0
 .00178309,0.00536967,0.00364294,0.00067636,0.00052259,0.00002283,-0.00
 019673,-0.00019421,-0.00128428,0.00018975,-0.00032123,-0.00052546,-0.0
 0348565,0.00388714,0.00547810,-0.01061745,-0.00720047,0.00562734,0.001
 36716,-0.00188917,-0.00303454,0.01780276,0.02268679,-0.04835356,-0.016
 43929,-0.02990560,0.03909679,-0.00322942,-0.00084518,-0.00037668,0.000
 38278,0.00005645,0.00004220,-0.00539167,0.00450604,-0.00349856,0.00721
 820,-0.00159742,0.00317669,-0.00183082,0.00227127,-0.00183481,0.000161
 52,-0.00069240,0.00046836,0.00230236,-0.00050292,-0.00133843,-0.000861
 18,0.00044035,-0.00041752,-0.01651855,0.01071996,-0.01255814,0.0007529
 6,0.00103254,0.00092301,-0.27533920,0.05772165,-0.09547794,-0.05310366
 ,0.01473933,-0.02504224,0.00196050,0.00087912,0.00131296,0.00211795,-0
 .00998719,0.00368745,-0.00171895,0.00089174,-0.00085275,0.34309717,0.0
 0121799,0.00050049,0.00010613,-0.00010578,-0.00000286,-0.00002633,0.00
 404201,0.00286677,-0.00119356,-0.00216393,0.00030193,-0.00127996,0.000
 53012,-0.00036345,0.00041978,-0.00023114,0.00018959,-0.00020818,-0.008
 76079,-0.00428303,0.00391878,0.00180276,-0.00066914,0.00074820,0.04680
 796,-0.00887960,0.02209856,-0.00010475,0.00136332,-0.00305011,0.057873
 82,-0.08905003,0.03978585,-0.02162173,0.01461203,-0.00959682,0.0020598
 7,0.00060512,-0.00201668,-0.00103443,-0.00417041,0.00606018,-0.0006786
 2,0.00027665,-0.00053245,-0.07963336,0.08670262,-0.00157246,-0.0004229
 9,-0.00000832,0.00016893,0.00000974,-0.00000002,-0.00322740,-0.0011076
 1,-0.00191393,0.00346987,-0.00113182,0.00057285,-0.00083946,0.00089939
 ,-0.00064629,0.00016511,-0.00028690,0.00024606,0.00304258,0.00625285,0
 .00538641,-0.00112022,0.00033859,-0.00077495,-0.03161773,0.01187967,-0
 .00727612,0.00151475,-0.00271868,-0.00249915,-0.09557676,0.03975905,-0
 .09244809,-0.00579479,0.00064456,0.00600437,0.00068316,-0.00235355,-0.
 00288149,-0.00105612,0.00355714,0.00568867,-0.00002587,-0.00008605,-0.
 00033025,0.13178640,-0.05523340,0.09088025\\0.00000015,0.00000338,-0.0
 0000306,0.00000080,0.00000469,-0.00000340,0.00000023,0.00000057,-0.000
 00023,0.00000113,0.00000272,-0.00000102,0.00000288,0.00000390,0.000000
 27,0.00000353,0.00000340,0.00000168,0.00000117,-0.00000031,0.00000189,
 0.00000250,0.00000044,0.00000308,0.00000028,-0.00000213,0.00000247,0.0
 0000094,-0.00000289,0.00000413,-0.00000164,-0.00000308,0.00000091,-0.0
 0000249,-0.00000234,-0.00000113,-0.00000376,-0.00000310,-0.00000226,-0
 .00000147,-0.00000047,-0.00000168,-0.00000222,0.00000024,-0.00000335,-
 0.00000203,-0.00000502,0.00000169\\\@
 The archive entry for this job was punched.


 IF AT FIRST YOU DON'T SUCCEED, TRY, TRY AGAIN.
 THEN GIVE UP;
 THERE'S NO USE BEING A DAMN FOOL ABOUT IT.

                                 -- W. C. FIELDS
 Job cpu time:       0 days  0 hours 36 minutes 54.6 seconds.
 Elapsed time:       0 days  0 hours  1 minutes 10.9 seconds.
 File lengths (MBytes):  RWF=    106 Int=      0 D2E=      0 Chk=      7 Scr=      1
 Normal termination of Gaussian 16 at Sat Apr 19 13:35:54 2025.
