/home/tahminaafroz
cn018.cluster.local
tahminaafroz
Tue May 27 07:48:30 CDT 2025
 Entering Gaussian System, Link 0=g16
 Initial command:
 /home/apps/g16/l1.exe "/tmp/4-isopropyl-ph-anion-opt-freq-thf-2/Gau-716583.inp" -scrdir="/tmp/4-isopropyl-ph-anion-opt-freq-thf-2/"
 Entering Link 1 = /home/apps/g16/l1.exe PID=    716584.
  
 Copyright (c) 1988-2019, Gaussian, Inc.  All Rights Reserved.
  
 This is part of the Gaussian(R) 16 program.  It is based on
 the Gaussian(R) 09 system (copyright 2009, Gaussian, Inc.),
 the Gaussian(R) 03 system (copyright 2003, Gaussian, Inc.),
 the Gaussian(R) 98 system (copyright 1998, Gaussian, Inc.),
 the Gaussian(R) 94 system (copyright 1995, Gaussian, Inc.),
 the Gaussian 92(TM) system (copyright 1992, Gaussian, Inc.),
 the Gaussian 90(TM) system (copyright 1990, Gaussian, Inc.),
 the Gaussian 88(TM) system (copyright 1988, Gaussian, Inc.),
 the Gaussian 86(TM) system (copyright 1986, Carnegie Mellon
 University), and the Gaussian 82(TM) system (copyright 1983,
 Carnegie Mellon University). Gaussian is a federally registered
 trademark of Gaussian, Inc.
  
 This software contains proprietary and confidential information,
 including trade secrets, belonging to Gaussian, Inc.
  
 This software is provided under written license and may be
 used, copied, transmitted, or stored only in accord with that
 written license.
  
 The following legend is applicable only to US Government
 contracts under FAR:
  
                    RESTRICTED RIGHTS LEGEND
  
 Use, reproduction and disclosure by the US Government is
 subject to restrictions as set forth in subparagraphs (a)
 and (c) of the Commercial Computer Software - Restricted
 Rights clause in FAR 52.227-19.
  
 Gaussian, Inc.
 340 Quinnipiac St., Bldg. 40, Wallingford CT 06492
  
  
 ---------------------------------------------------------------
 Warning -- This program may not be used in any manner that
 competes with the business of Gaussian, Inc. or will provide
 assistance to any competitor of Gaussian, Inc.  The licensee
 of this program is prohibited from giving any competitor of
 Gaussian, Inc. access to this program.  By using this program,
 the user acknowledges that Gaussian, Inc. is engaged in the
 business of creating and licensing software in the field of
 computational chemistry and represents and warrants to the
 licensee that it is not a competitor of Gaussian, Inc. and that
 it will not use this program in any manner prohibited above.
 ---------------------------------------------------------------
  

 Cite this work as:
 Gaussian 16, Revision C.01,
 M. J. Frisch, G. W. Trucks, H. B. Schlegel, G. E. Scuseria, 
 M. A. Robb, J. R. Cheeseman, G. Scalmani, V. Barone, 
 G. A. Petersson, H. Nakatsuji, X. Li, M. Caricato, A. V. Marenich, 
 J. Bloino, B. G. Janesko, R. Gomperts, B. Mennucci, H. P. Hratchian, 
 J. V. Ortiz, A. F. Izmaylov, J. L. Sonnenberg, D. Williams-Young, 
 F. Ding, F. Lipparini, F. Egidi, J. Goings, B. Peng, A. Petrone, 
 T. Henderson, D. Ranasinghe, V. G. Zakrzewski, J. Gao, N. Rega, 
 G. Zheng, W. Liang, M. Hada, M. Ehara, K. Toyota, R. Fukuda, 
 J. Hasegawa, M. Ishida, T. Nakajima, Y. Honda, O. Kitao, H. Nakai, 
 T. Vreven, K. Throssell, J. A. Montgomery, Jr., J. E. Peralta, 
 F. Ogliaro, M. J. Bearpark, J. J. Heyd, E. N. Brothers, K. N. Kudin, 
 V. N. Staroverov, T. A. Keith, R. Kobayashi, J. Normand, 
 K. Raghavachari, A. P. Rendell, J. C. Burant, S. S. Iyengar, 
 J. Tomasi, M. Cossi, J. M. Millam, M. Klene, C. Adamo, R. Cammi, 
 J. W. Ochterski, R. L. Martin, K. Morokuma, O. Farkas, 
 J. B. Foresman, and D. J. Fox, Gaussian, Inc., Wallingford CT, 2019.
 
 ******************************************
 Gaussian 16:  AS64L-G16RevC.01  3-Jul-2019
                27-May-2025 
 ******************************************
 %mem=20GB
 %nprocshared=32
 Will use up to   32 processors via shared memory.
 %chk=4-isopropyl-ph-anion-opt-freq-thf-2.chk
 ----------------------------------------------------------------------
 # opt=(calcfc,tight) freq 6-311+g(d,p) scrf=(smd,solvent=thf) nosymm s
 cf=(qc,fermi,xqc) geom=connectivity int=ultrafine m062x
 ----------------------------------------------------------------------
 1/7=10,10=4,18=20,19=15,26=6,38=1,57=2/1,3;
 2/9=110,12=2,15=1,17=6,18=5,40=1/2;
 3/5=4,6=6,7=111,11=2,25=1,30=1,70=32201,71=2,72=20,74=-55,75=-5,140=1/1,2,3;
 4//1;
 5/5=2,22=13,38=5,53=20/2;
 8/6=4,10=90,11=11/1;
 11/6=1,8=1,9=11,15=111,16=1,31=1/1,2,10;
 10/6=1,13=1,31=1/2;
 6/7=2,8=2,9=2,10=2,28=1/1;
 7/10=1,25=1,30=1/1,2,3,16;
 1/7=10,10=4,18=20,19=15,26=6/3(2);
 2/9=110,15=1/2;
 99//99;
 2/9=110,15=1/2;
 3/5=4,6=6,7=111,11=2,25=1,30=1,70=32205,71=1,72=20,74=-55,75=-5/1,2,3;
 4/5=5,16=3,69=1/1;
 5/5=2,22=13,38=5,53=20/2;
 7/30=1/1,2,3,16;
 1/7=10,18=20,19=15,26=6/3(-5);
 2/9=110,15=1/2;
 6/7=2,8=2,9=2,10=2,19=2,28=1/1;
 99/9=1/99;
 -----------------------------------
 4-isopropyl-ph-anion-opt-freq-thf-2
 -----------------------------------
 Symbolic Z-matrix:
 Charge = -1 Multiplicity = 1
 C                     6.1876    6.98767   5.12504 
 C                     5.07541   6.2861    5.51634 
 H                     5.12221   5.47871   6.2389 
 C                     3.85694   6.66049   4.93619 
 H                     2.94979   6.13333   5.21638 
 C                     3.78755   7.69878   4.005 
 C                     4.96399   8.37119   3.65244 
 H                     4.92743   9.18071   2.92954 
 C                     6.19308   8.01903   4.21565 
 H                     7.10161   8.54289   3.9396 
 C                     2.46023   8.08904   3.3815 
 H                     1.69434   7.44496   3.82434 
 C                     2.10019   9.54436   3.69621 
 H                     2.82675   10.23003   3.25058 
 H                     1.11533   9.78958   3.28984 
 H                     2.08131   9.72384   4.77396 
 C                     2.46711   7.85009   1.86809 
 H                     2.70325   6.80945   1.63257 
 H                     1.48908   8.08583   1.44003 
 H                     3.21055   8.48599   1.37843 
 

 GradGradGradGradGradGradGradGradGradGradGradGradGradGradGradGradGradGrad
 Berny optimization.
 Initialization pass.
                           ----------------------------
                           !    Initial Parameters    !
                           ! (Angstroms and Degrees)  !
 --------------------------                            --------------------------
 ! Name  Definition              Value          Derivative Info.                !
 --------------------------------------------------------------------------------
 ! R1    R(1,2)                  1.372          calculate D2E/DX2 analytically  !
 ! R2    R(1,9)                  1.375          calculate D2E/DX2 analytically  !
 ! R3    R(2,3)                  1.0845         calculate D2E/DX2 analytically  !
 ! R4    R(2,4)                  1.4005         calculate D2E/DX2 analytically  !
 ! R5    R(4,5)                  1.086          calculate D2E/DX2 analytically  !
 ! R6    R(4,6)                  1.3964         calculate D2E/DX2 analytically  !
 ! R7    R(6,7)                  1.4002         calculate D2E/DX2 analytically  !
 ! R8    R(6,11)                 1.5175         calculate D2E/DX2 analytically  !
 ! R9    R(7,8)                  1.0859         calculate D2E/DX2 analytically  !
 ! R10   R(7,9)                  1.3971         calculate D2E/DX2 analytically  !
 ! R11   R(9,10)                 1.0845         calculate D2E/DX2 analytically  !
 ! R12   R(11,12)                1.0943         calculate D2E/DX2 analytically  !
 ! R13   R(11,13)                1.5319         calculate D2E/DX2 analytically  !
 ! R14   R(11,17)                1.5322         calculate D2E/DX2 analytically  !
 ! R15   R(13,14)                1.0939         calculate D2E/DX2 analytically  !
 ! R16   R(13,15)                1.0933         calculate D2E/DX2 analytically  !
 ! R17   R(13,16)                1.0928         calculate D2E/DX2 analytically  !
 ! R18   R(17,18)                1.0928         calculate D2E/DX2 analytically  !
 ! R19   R(17,19)                1.0933         calculate D2E/DX2 analytically  !
 ! R20   R(17,20)                1.094          calculate D2E/DX2 analytically  !
 ! A1    A(2,1,9)              125.128          calculate D2E/DX2 analytically  !
 ! A2    A(1,2,3)              122.3941         calculate D2E/DX2 analytically  !
 ! A3    A(1,2,4)              116.7721         calculate D2E/DX2 analytically  !
 ! A4    A(3,2,4)              120.8338         calculate D2E/DX2 analytically  !
 ! A5    A(2,4,5)              119.3484         calculate D2E/DX2 analytically  !
 ! A6    A(2,4,6)              121.2139         calculate D2E/DX2 analytically  !
 ! A7    A(5,4,6)              119.4377         calculate D2E/DX2 analytically  !
 ! A8    A(4,6,7)              118.8967         calculate D2E/DX2 analytically  !
 ! A9    A(4,6,11)             120.5752         calculate D2E/DX2 analytically  !
 ! A10   A(7,6,11)             120.5277         calculate D2E/DX2 analytically  !
 ! A11   A(6,7,8)              119.8235         calculate D2E/DX2 analytically  !
 ! A12   A(6,7,9)              121.106          calculate D2E/DX2 analytically  !
 ! A13   A(8,7,9)              119.0705         calculate D2E/DX2 analytically  !
 ! A14   A(1,9,7)              116.8833         calculate D2E/DX2 analytically  !
 ! A15   A(1,9,10)             122.2765         calculate D2E/DX2 analytically  !
 ! A16   A(7,9,10)             120.8402         calculate D2E/DX2 analytically  !
 ! A17   A(6,11,12)            107.1298         calculate D2E/DX2 analytically  !
 ! A18   A(6,11,13)            111.4379         calculate D2E/DX2 analytically  !
 ! A19   A(6,11,17)            111.2115         calculate D2E/DX2 analytically  !
 ! A20   A(12,11,13)           108.1507         calculate D2E/DX2 analytically  !
 ! A21   A(12,11,17)           108.1234         calculate D2E/DX2 analytically  !
 ! A22   A(13,11,17)           110.618          calculate D2E/DX2 analytically  !
 ! A23   A(11,13,14)           110.8357         calculate D2E/DX2 analytically  !
 ! A24   A(11,13,15)           110.3937         calculate D2E/DX2 analytically  !
 ! A25   A(11,13,16)           111.267          calculate D2E/DX2 analytically  !
 ! A26   A(14,13,15)           107.8373         calculate D2E/DX2 analytically  !
 ! A27   A(14,13,16)           108.0773         calculate D2E/DX2 analytically  !
 ! A28   A(15,13,16)           108.3124         calculate D2E/DX2 analytically  !
 ! A29   A(11,17,18)           111.2456         calculate D2E/DX2 analytically  !
 ! A30   A(11,17,19)           110.4317         calculate D2E/DX2 analytically  !
 ! A31   A(11,17,20)           110.763          calculate D2E/DX2 analytically  !
 ! A32   A(18,17,19)           108.3157         calculate D2E/DX2 analytically  !
 ! A33   A(18,17,20)           108.072          calculate D2E/DX2 analytically  !
 ! A34   A(19,17,20)           107.8985         calculate D2E/DX2 analytically  !
 ! D1    D(9,1,2,3)           -179.9912         calculate D2E/DX2 analytically  !
 ! D2    D(9,1,2,4)             -0.0068         calculate D2E/DX2 analytically  !
 ! D3    D(2,1,9,7)             -0.0105         calculate D2E/DX2 analytically  !
 ! D4    D(2,1,9,10)           179.9945         calculate D2E/DX2 analytically  !
 ! D5    D(1,2,4,5)           -179.9638         calculate D2E/DX2 analytically  !
 ! D6    D(1,2,4,6)              0.0187         calculate D2E/DX2 analytically  !
 ! D7    D(3,2,4,5)              0.0209         calculate D2E/DX2 analytically  !
 ! D8    D(3,2,4,6)           -179.9966         calculate D2E/DX2 analytically  !
 ! D9    D(2,4,6,7)             -0.0131         calculate D2E/DX2 analytically  !
 ! D10   D(2,4,6,11)           179.7714         calculate D2E/DX2 analytically  !
 ! D11   D(5,4,6,7)            179.9694         calculate D2E/DX2 analytically  !
 ! D12   D(5,4,6,11)            -0.2461         calculate D2E/DX2 analytically  !
 ! D13   D(4,6,7,8)            179.9783         calculate D2E/DX2 analytically  !
 ! D14   D(4,6,7,9)             -0.0052         calculate D2E/DX2 analytically  !
 ! D15   D(11,6,7,8)             0.1937         calculate D2E/DX2 analytically  !
 ! D16   D(11,6,7,9)          -179.7898         calculate D2E/DX2 analytically  !
 ! D17   D(4,6,11,12)            1.4293         calculate D2E/DX2 analytically  !
 ! D18   D(4,6,11,13)          119.5434         calculate D2E/DX2 analytically  !
 ! D19   D(4,6,11,17)         -116.5255         calculate D2E/DX2 analytically  !
 ! D20   D(7,6,11,12)         -178.7897         calculate D2E/DX2 analytically  !
 ! D21   D(7,6,11,13)          -60.6757         calculate D2E/DX2 analytically  !
 ! D22   D(7,6,11,17)           63.2554         calculate D2E/DX2 analytically  !
 ! D23   D(6,7,9,1)              0.0164         calculate D2E/DX2 analytically  !
 ! D24   D(6,7,9,10)          -179.9885         calculate D2E/DX2 analytically  !
 ! D25   D(8,7,9,1)           -179.9672         calculate D2E/DX2 analytically  !
 ! D26   D(8,7,9,10)             0.0279         calculate D2E/DX2 analytically  !
 ! D27   D(6,11,13,14)          63.9256         calculate D2E/DX2 analytically  !
 ! D28   D(6,11,13,15)        -176.6579         calculate D2E/DX2 analytically  !
 ! D29   D(6,11,13,16)         -56.3661         calculate D2E/DX2 analytically  !
 ! D30   D(12,11,13,14)       -178.5759         calculate D2E/DX2 analytically  !
 ! D31   D(12,11,13,15)        -59.1595         calculate D2E/DX2 analytically  !
 ! D32   D(12,11,13,16)         61.1324         calculate D2E/DX2 analytically  !
 ! D33   D(17,11,13,14)        -60.3405         calculate D2E/DX2 analytically  !
 ! D34   D(17,11,13,15)         59.076          calculate D2E/DX2 analytically  !
 ! D35   D(17,11,13,16)        179.3678         calculate D2E/DX2 analytically  !
 ! D36   D(6,11,17,18)          56.7453         calculate D2E/DX2 analytically  !
 ! D37   D(6,11,17,19)         177.0527         calculate D2E/DX2 analytically  !
 ! D38   D(6,11,17,20)         -63.4766         calculate D2E/DX2 analytically  !
 ! D39   D(12,11,17,18)        -60.6071         calculate D2E/DX2 analytically  !
 ! D40   D(12,11,17,19)         59.7003         calculate D2E/DX2 analytically  !
 ! D41   D(12,11,17,20)        179.171          calculate D2E/DX2 analytically  !
 ! D42   D(13,11,17,18)       -178.8592         calculate D2E/DX2 analytically  !
 ! D43   D(13,11,17,19)        -58.5518         calculate D2E/DX2 analytically  !
 ! D44   D(13,11,17,20)         60.9189         calculate D2E/DX2 analytically  !
 --------------------------------------------------------------------------------
 Trust Radius=3.00D-01 FncErr=5.00D-06 GrdErr=5.00D-06 EigMax=2.50D+02 EigMin=1.00D-04
 Number of steps in this run=    108 maximum allowed number of steps=    120.
 GradGradGradGradGradGradGradGradGradGradGradGradGradGradGradGradGradGrad

                          Input orientation:                          
 ---------------------------------------------------------------------
 Center     Atomic      Atomic             Coordinates (Angstroms)
 Number     Number       Type             X           Y           Z
 ---------------------------------------------------------------------
      1          6           0        6.187604    6.987667    5.125039
      2          6           0        5.075409    6.286099    5.516344
      3          1           0        5.122205    5.478712    6.238903
      4          6           0        3.856935    6.660486    4.936186
      5          1           0        2.949786    6.133331    5.216376
      6          6           0        3.787546    7.698776    4.005001
      7          6           0        4.963994    8.371185    3.652443
      8          1           0        4.927433    9.180706    2.929544
      9          6           0        6.193075    8.019032    4.215655
     10          1           0        7.101609    8.542886    3.939597
     11          6           0        2.460234    8.089038    3.381500
     12          1           0        1.694336    7.444962    3.824336
     13          6           0        2.100188    9.544356    3.696206
     14          1           0        2.826754   10.230031    3.250578
     15          1           0        1.115335    9.789581    3.289841
     16          1           0        2.081314    9.723837    4.773962
     17          6           0        2.467106    7.850093    1.868090
     18          1           0        2.703246    6.809452    1.632568
     19          1           0        1.489082    8.085833    1.440031
     20          1           0        3.210545    8.485987    1.378434
 ---------------------------------------------------------------------
                    Distance matrix (angstroms):
                    1          2          3          4          5
     1  C    0.000000
     2  C    1.371968   0.000000
     3  H    2.157015   1.084507   0.000000
     4  C    2.361087   1.400510   2.166696   0.000000
     5  H    3.349880   2.152113   2.488673   1.085964   0.000000
     6  C    2.742342   2.436884   3.420573   1.396412   2.149393
     7  C    2.362177   2.798950   3.883453   2.408333   3.392773
     8  H    3.349276   3.884866   4.969361   3.394715   4.292689
     9  C    1.375036   2.438037   3.419579   2.796849   3.882813
    10  H    2.158561   3.418290   4.312077   3.881305   4.967268
    11  C    4.259840   3.827178   4.697302   2.531518   2.726027
    12  H    4.700043   3.954429   4.631043   2.555083   2.287861
    13  C    5.028438   4.772953   5.668100   3.597279   3.829860
    14  H    5.032081   5.073928   6.064175   4.079730   4.545597
    15  H    6.078370   5.737063   6.582975   4.474154   4.521605
    16  H    4.946868   4.618850   5.423482   3.544470   3.720444
    17  C    5.019323   4.749640   5.637110   3.572115   3.793583
    18  H    4.936584   4.580914   5.370340   3.502439   3.655352
    19  H    6.071356   5.719887   6.559408   4.456618   4.495187
    20  H    5.014468   5.043761   6.026799   4.050663   4.509189
                    6          7          8          9         10
     6  C    0.000000
     7  C    1.400165   0.000000
     8  H    2.156865   1.085930   0.000000
     9  C    2.435879   1.397090   2.146024   0.000000
    10  H    3.420499   2.163640   2.480738   1.084465   0.000000
    11  C    1.517503   2.534133   2.735521   3.825548   4.696787
    12  H    2.116268   3.402661   3.777086   4.552070   5.518815
    13  C    2.519662   3.095098   2.951834   4.398655   5.106505
    14  H    2.810610   2.860874   2.370021   4.141498   4.647106
    15  H    3.467511   4.117706   3.877194   5.456686   6.149139
    16  H    2.757426   3.375991   3.434714   4.486050   5.224382
    17  C    2.516515   3.112861   2.991726   4.407091   5.123448
    18  H    2.755910   3.410262   3.500286   4.507142   5.260492
    19  H    3.465807   4.129311   3.903800   5.462243   6.160940
    20  H    2.802050   2.873827   2.415840   4.142868   4.658666
                   11         12         13         14         15
    11  C    0.000000
    12  H    1.094321   0.000000
    13  C    1.531869   2.142099   0.000000
    14  H    2.176081   3.060748   1.093907   0.000000
    15  H    2.170023   2.473493   1.093254   1.767623   0.000000
    16  H    2.180619   2.498962   1.092761   1.769919   1.772019
    17  C    1.532172   2.142009   2.519358   2.775739   2.758673
    18  H    2.180633   2.495119   3.478790   3.785970   3.761540
    19  H    2.170817   2.477449   2.755189   3.108863   2.542487
    20  H    2.175502   3.060238   2.779407   2.587259   3.121336
                   16         17         18         19         20
    16  H    0.000000
    17  C    3.479058   0.000000
    18  H    4.329988   1.092779   0.000000
    19  H    3.761501   1.093316   1.772121   0.000000
    20  H    3.786429   1.093995   1.769945   1.768432   0.000000
 Symmetry turned off by external request.
 Stoichiometry    C9H11(1-)
 Framework group  C1[X(C9H11)]
 Deg. of freedom    54
 Full point group                 C1      NOp   1
 Rotational constants (GHZ):           3.3416719           1.1298682           1.0307561
 Standard basis: 6-311+G(d,p) (5D, 7F)
   264 basis functions,   412 primitive gaussians,   273 cartesian basis functions
    33 alpha electrons       33 beta electrons
       nuclear repulsion energy       412.4700707111 Hartrees.
 NAtoms=   20 NActive=   20 NUniq=   20 SFac= 1.00D+00 NAtFMM=   60 NAOKFM=F Big=F
 Integral buffers will be    131072 words long.
 Raffenetti 2 integral format.
 Two-electron integral symmetry is turned off.
 Force inversion solution in PCM.
 ------------------------------------------------------------------------------
 Polarizable Continuum Model (PCM)
 =================================
 Model                : PCM.
 Atomic radii         : SMD-Coulomb.
 Polarization charges : Total charges.
 Charge compensation  : None.
 Solution method      : Matrix inversion.
 Cavity type          : VdW (van der Waals Surface) (Alpha=1.000).
 Cavity algorithm     : GePol (No added spheres)
                        Default sphere list used, NSphG=   20.
                        Lebedev-Laikov grids with approx.  5.0 points / Ang**2.
                        Smoothing algorithm: York/Karplus (Gamma=1.0000).
                        Polarization charges: spherical gaussians, with
                                              point-specific exponents (IZeta= 3).
                        Self-potential: point-specific (ISelfS= 7).
                        Self-field    : sphere-specific E.n sum rule (ISelfD= 2).
 1st derivatives      : Analytical E(r).r(x)/FMM algorithm (CHGder, D1EAlg=3).
                        Cavity 1st derivative terms included.
 2nd derivatives      : Analytical E(r).r(xy)/FMM algorithm (CHGder, D2EAlg=3).
                        Cavity 2nd derivative terms included.
 Solvent              : TetraHydroFuran, Eps=   7.425700 Eps(inf)=   1.974025
 ------------------------------------------------------------------------------
 Spheres list:
 ISph  on   Nord     Re0    Alpha      Xe            Ye            Ze
    1   C      1    1.8500  1.000      6.187604      6.987667      5.125039
    2   C      2    1.8500  1.000      5.075409      6.286099      5.516344
    3   H      3    1.2000  1.000      5.122205      5.478712      6.238903
    4   C      4    1.8500  1.000      3.856935      6.660486      4.936186
    5   H      5    1.2000  1.000      2.949786      6.133331      5.216376
    6   C      6    1.8500  1.000      3.787546      7.698776      4.005001
    7   C      7    1.8500  1.000      4.963994      8.371185      3.652443
    8   H      8    1.2000  1.000      4.927433      9.180706      2.929544
    9   C      9    1.8500  1.000      6.193075      8.019032      4.215655
   10   H     10    1.2000  1.000      7.101609      8.542886      3.939597
   11   C     11    1.8500  1.000      2.460234      8.089038      3.381500
   12   H     12    1.2000  1.000      1.694336      7.444962      3.824336
   13   C     13    1.8500  1.000      2.100188      9.544356      3.696206
   14   H     14    1.2000  1.000      2.826754     10.230031      3.250578
   15   H     15    1.2000  1.000      1.115335      9.789581      3.289841
   16   H     16    1.2000  1.000      2.081314      9.723837      4.773962
   17   C     17    1.8500  1.000      2.467106      7.850093      1.868090
   18   H     18    1.2000  1.000      2.703246      6.809452      1.632568
   19   H     19    1.2000  1.000      1.489082      8.085833      1.440031
   20   H     20    1.2000  1.000      3.210545      8.485987      1.378434
 ------------------------------------------------------------------------------
 ------------------------------------------------------------------------------
 Atomic radii for non-electrostatic terms: SMD-CDS.
 ------------------------------------------------------------------------------
 Nuclear repulsion after PCM non-electrostatic terms =      412.4665764750 Hartrees.
 One-electron integrals computed using PRISM.
 NBasis=   264 RedAO= T EigKep=  2.61D-06  NBF=   264
 NBsUse=   264 1.00D-06 EigRej= -1.00D+00 NBFU=   264
 ExpMin= 4.38D-02 ExpMax= 4.56D+03 ExpMxC= 6.82D+02 IAcc=3 IRadAn=         5 AccDes= 0.00D+00
 Harris functional with IExCor= 1009 and IRadAn=       5 diagonalized for initial guess.
 HarFok:  IExCor= 1009 AccDes= 0.00D+00 IRadAn=         5 IDoV= 1 UseB2=F ITyADJ=14
 ICtDFT=  3500011 ScaDFX=  1.000000  1.000000  1.000000  1.000000
 FoFCou: FMM=F IPFlag=           0 FMFlag=      100000 FMFlg1=           0
         NFxFlg=           0 DoJE=T BraDBF=F KetDBF=T FulRan=T
         wScrn=  0.000000 ICntrl=       500 IOpCl=  0 I1Cent=   200000004 NGrid=           0
         NMat0=    1 NMatS0=      1 NMatT0=    0 NMatD0=    1 NMtDS0=    0 NMtDT0=    0
 Symmetry not used in FoFCou.
 Requested convergence on RMS density matrix=1.00D-08 within 128 cycles.
 Requested convergence on MAX density matrix=1.00D-06.
 Requested convergence on             energy=1.00D-06.
 Level shift goal  0.100 maximum shift  0.100.
 No special actions if energy rises.
 Dynamic level shift is on during FON iterations.
 Inv3:  Mode=1 IEnd=     7096332.
 Iteration    1 A*A^-1 deviation from unit magnitude is 5.33D-15 for   1524.
 Iteration    1 A*A^-1 deviation from orthogonality  is 2.03D-15 for   1521   1492.
 Iteration    1 A^-1*A deviation from unit magnitude is 5.33D-15 for   1524.
 Iteration    1 A^-1*A deviation from orthogonality  is 1.44D-15 for   1538   1004.
 Error on total polarization charges =  0.07484
 SCF Done:  E(RM062X) =  -349.543843446     A.U. after   16 cycles
            NFock= 16  Conv=0.60D-08     -V/T= 2.0039
 SMD-CDS (non-electrostatic) energy       (kcal/mol) =      -2.19
 (included in total energy above)
 DoSCS=F DFT=T ScalE2(SS,OS)=  1.000000  1.000000
 Range of M.O.s used for correlation:     1   264
 NBasis=   264 NAE=    33 NBE=    33 NFC=     0 NFV=     0
 NROrb=    264 NOA=    33 NOB=    33 NVA=   231 NVB=   231

 **** Warning!!: The largest alpha MO coefficient is  0.18782228D+03

 Symmetrizing basis deriv contribution to polar:
 IMax=3 JMax=2 DiffMx= 0.00D+00
 G2DrvN: will do    21 centers at a time, making    1 passes.
 Calling FoFCou, ICntrl=  3107 FMM=F I1Cent=   0 AccDes= 0.00D+00.
 NEqPCM:  Using equilibrium solvation (IEInf=0, Eps=   7.4257, EpsInf=   1.9740)
 G2PCM: DoFxE=T DoFxN=T DoGrad=T DoDP/DQ/DG/TGxP=FFFF NFrqRd=   0 IEInf=0 SqF1=F DoCFld=F IF1Alg=4.
 End of G2Drv F.D. properties file   721 does not exist.
 End of G2Drv F.D. properties file   722 does not exist.
 End of G2Drv F.D. properties file   788 does not exist.
          IDoAtm=11111111111111111111
 NEqPCM:  Using equilibrium solvation (IEInf=0, Eps=   7.4257, EpsInf=   1.9740)
          Differentiating once with respect to nuclear coordinates.
 Keep R1 ints in memory in canonical form, NReq=647117361.
          There are    63 degrees of freedom in the 1st order CPHF.  IDoFFX=6 NUNeed=     0.
     57 vectors produced by pass  0 Test12= 1.21D-14 1.59D-09 XBig12= 1.02D-01 9.40D-02.
 AX will form    57 AO Fock derivatives at one time.
     57 vectors produced by pass  1 Test12= 1.21D-14 1.59D-09 XBig12= 9.10D-03 2.27D-02.
     57 vectors produced by pass  2 Test12= 1.21D-14 1.59D-09 XBig12= 2.74D-04 3.54D-03.
     57 vectors produced by pass  3 Test12= 1.21D-14 1.59D-09 XBig12= 2.64D-06 3.75D-04.
     57 vectors produced by pass  4 Test12= 1.21D-14 1.59D-09 XBig12= 2.02D-08 1.86D-05.
     57 vectors produced by pass  5 Test12= 1.21D-14 1.59D-09 XBig12= 1.04D-10 1.37D-06.
     41 vectors produced by pass  6 Test12= 1.21D-14 1.59D-09 XBig12= 4.18D-13 1.00D-07.
      8 vectors produced by pass  7 Test12= 1.21D-14 1.59D-09 XBig12= 1.75D-15 4.19D-09.
 InvSVY:  IOpt=1 It=  1 EMax= 7.22D-16
 Solved reduced A of dimension   391 with    63 vectors.
 End of Minotr F.D. properties file   721 does not exist.
 End of Minotr F.D. properties file   722 does not exist.
 End of Minotr F.D. properties file   788 does not exist.

 **********************************************************************

            Population analysis using the SCF Density.

 **********************************************************************

 Alpha  occ. eigenvalues --  -10.51748 -10.50351 -10.50119 -10.50111 -10.49678
 Alpha  occ. eigenvalues --  -10.49672 -10.48466 -10.48356 -10.43084  -0.91923
 Alpha  occ. eigenvalues --   -0.86410  -0.79437  -0.76606  -0.75269  -0.65642
 Alpha  occ. eigenvalues --   -0.63573  -0.59799  -0.52866  -0.49558  -0.47110
 Alpha  occ. eigenvalues --   -0.45767  -0.45623  -0.44944  -0.43754  -0.42814
 Alpha  occ. eigenvalues --   -0.39176  -0.37375  -0.36977  -0.35822  -0.34719
 Alpha  occ. eigenvalues --   -0.26580  -0.24296  -0.16493
 Alpha virt. eigenvalues --    0.03236   0.04742   0.04948   0.05259   0.05566
 Alpha virt. eigenvalues --    0.06913   0.06941   0.07292   0.08063   0.09050
 Alpha virt. eigenvalues --    0.09273   0.09415   0.10078   0.10711   0.12344
 Alpha virt. eigenvalues --    0.12895   0.13274   0.13786   0.13925   0.14468
 Alpha virt. eigenvalues --    0.16951   0.17178   0.17738   0.18641   0.18920
 Alpha virt. eigenvalues --    0.19346   0.19679   0.21013   0.21192   0.21811
 Alpha virt. eigenvalues --    0.22445   0.22696   0.24167   0.24792   0.24994
 Alpha virt. eigenvalues --    0.26258   0.26411   0.26823   0.26879   0.27684
 Alpha virt. eigenvalues --    0.27706   0.28229   0.29358   0.29667   0.30217
 Alpha virt. eigenvalues --    0.30503   0.32132   0.32734   0.33020   0.34057
 Alpha virt. eigenvalues --    0.34639   0.35255   0.40237   0.42321   0.43687
 Alpha virt. eigenvalues --    0.44607   0.45957   0.46288   0.47482   0.53269
 Alpha virt. eigenvalues --    0.53797   0.55688   0.56132   0.57395   0.58416
 Alpha virt. eigenvalues --    0.61492   0.62328   0.62822   0.64975   0.65033
 Alpha virt. eigenvalues --    0.66862   0.67010   0.67717   0.69122   0.69811
 Alpha virt. eigenvalues --    0.72268   0.72743   0.73121   0.73285   0.74393
 Alpha virt. eigenvalues --    0.75258   0.75887   0.76984   0.77622   0.78708
 Alpha virt. eigenvalues --    0.79480   0.80105   0.82041   0.83392   0.83432
 Alpha virt. eigenvalues --    0.83832   0.85720   0.89442   0.92023   0.93089
 Alpha virt. eigenvalues --    0.93768   0.96426   0.98048   0.99348   0.99574
 Alpha virt. eigenvalues --    1.02713   1.04393   1.05289   1.08984   1.12498
 Alpha virt. eigenvalues --    1.14469   1.16850   1.17279   1.18464   1.25774
 Alpha virt. eigenvalues --    1.27160   1.29697   1.32244   1.35623   1.36128
 Alpha virt. eigenvalues --    1.46441   1.49330   1.52817   1.54155   1.55817
 Alpha virt. eigenvalues --    1.55999   1.59159   1.59703   1.61831   1.62311
 Alpha virt. eigenvalues --    1.63353   1.64824   1.64978   1.67621   1.70085
 Alpha virt. eigenvalues --    1.70160   1.71115   1.72473   1.74739   1.75080
 Alpha virt. eigenvalues --    1.75631   1.80635   1.81021   1.82134   1.84806
 Alpha virt. eigenvalues --    1.84932   1.85909   1.86282   1.91405   1.94667
 Alpha virt. eigenvalues --    1.97184   1.97607   2.00651   2.00992   2.02546
 Alpha virt. eigenvalues --    2.03207   2.05154   2.10041   2.11265   2.12484
 Alpha virt. eigenvalues --    2.13837   2.16375   2.17186   2.19605   2.21318
 Alpha virt. eigenvalues --    2.24373   2.30405   2.36045   2.36785   2.42749
 Alpha virt. eigenvalues --    2.44736   2.46636   2.47577   2.50333   2.50742
 Alpha virt. eigenvalues --    2.56644   2.57046   2.57274   2.59251   2.60732
 Alpha virt. eigenvalues --    2.61751   2.64579   2.65855   2.69459   2.71904
 Alpha virt. eigenvalues --    2.72575   2.74335   2.74736   2.76418   2.77990
 Alpha virt. eigenvalues --    2.81076   2.81398   2.81811   2.83172   2.90499
 Alpha virt. eigenvalues --    2.90938   2.93781   2.96669   2.97452   2.97884
 Alpha virt. eigenvalues --    3.02953   3.04216   3.04488   3.08291   3.12232
 Alpha virt. eigenvalues --    3.17202   3.23322   3.28521   3.34730   3.50193
 Alpha virt. eigenvalues --    3.50560   3.54769   3.60485   3.71293   3.76744
 Alpha virt. eigenvalues --    3.84444   3.85615   3.85985   3.90170   3.92366
 Alpha virt. eigenvalues --    4.08130   4.18034   4.23238   4.26237   4.36105
 Alpha virt. eigenvalues --    4.44679   4.90462  23.69535  23.96635  24.07236
 Alpha virt. eigenvalues --   24.07338  24.08937  24.11391  24.22887  24.23203
 Alpha virt. eigenvalues --   24.35113
          Condensed to atoms (all electrons):
               1          2          3          4          5          6
     1  C    9.393475  -1.627777  -0.145712   1.229550  -0.049868  -1.531102
     2  C   -1.627777   7.520102   0.554375  -1.616295   0.107132   1.377854
     3  H   -0.145712   0.554375   0.549693  -0.191362  -0.001042   0.062412
     4  C    1.229550  -1.616295  -0.191362  10.340896   0.136908  -2.113594
     5  H   -0.049868   0.107132  -0.001042   0.136908   0.518359   0.136705
     6  C   -1.531102   1.377854   0.062412  -2.113594   0.136705   9.518631
     7  C    1.960359  -1.587886  -0.050770  -1.125187  -0.025419  -1.051366
     8  H   -0.068111   0.025074   0.000172   0.029351  -0.000024   0.158534
     9  C   -1.965405   1.505572   0.058200  -0.926651   0.025993   1.451001
    10  H   -0.155024   0.057452   0.000382  -0.047959   0.000152   0.069483
    11  C    0.004581  -0.221339   0.011807   0.479036  -0.007278  -2.097200
    12  H   -0.005032   0.005545   0.000023   0.126620   0.003687  -0.239220
    13  C   -0.018557   0.032598   0.000453   0.021788   0.003587   0.075421
    14  H   -0.000920  -0.004585   0.000001  -0.004551  -0.000004  -0.088070
    15  H    0.000768   0.000448  -0.000001   0.001117   0.000015   0.085388
    16  H    0.000732   0.007586   0.000002   0.016305   0.000200  -0.025618
    17  C   -0.018627   0.034626   0.000554   0.065699   0.003646   0.048310
    18  H    0.001138   0.007586   0.000002   0.014387   0.000194  -0.032620
    19  H    0.000619   0.000626  -0.000001  -0.000845   0.000015   0.088064
    20  H   -0.000144  -0.005374   0.000001  -0.002725  -0.000002  -0.092801
               7          8          9         10         11         12
     1  C    1.960359  -0.068111  -1.965405  -0.155024   0.004581  -0.005032
     2  C   -1.587886   0.025074   1.505572   0.057452  -0.221339   0.005545
     3  H   -0.050770   0.000172   0.058200   0.000382   0.011807   0.000023
     4  C   -1.125187   0.029351  -0.926651  -0.047959   0.479036   0.126620
     5  H   -0.025419  -0.000024   0.025993   0.000152  -0.007278   0.003687
     6  C   -1.051366   0.158534   1.451001   0.069483  -2.097200  -0.239220
     7  C   10.943262   0.066598  -2.175180  -0.196198  -0.381371  -0.094496
     8  H    0.066598   0.515440   0.066074  -0.001006   0.073154   0.000104
     9  C   -2.175180   0.066074   7.545071   0.564105  -0.228556   0.000597
    10  H   -0.196198  -0.001006   0.564105   0.547666   0.008198   0.000021
    11  C   -0.381371   0.073154  -0.228556   0.008198   7.809194   0.591497
    12  H   -0.094496   0.000104   0.000597   0.000021   0.591497   0.512876
    13  C   -0.052816  -0.007589   0.060148   0.000556   0.003841  -0.029334
    14  H   -0.003868  -0.001908  -0.000281   0.000026   0.094240   0.005767
    15  H    0.009658  -0.000057   0.002330  -0.000001  -0.168013  -0.006400
    16  H   -0.012081   0.000020  -0.005108   0.000003   0.009292  -0.005788
    17  C   -0.081931  -0.004762   0.059225   0.000611   0.013283  -0.024328
    18  H   -0.006357   0.000018  -0.004932   0.000003   0.013811  -0.005871
    19  H    0.008176  -0.000079   0.002302  -0.000001  -0.167201  -0.006290
    20  H    0.000695  -0.002034  -0.000181   0.000027   0.093307   0.005661
              13         14         15         16         17         18
     1  C   -0.018557  -0.000920   0.000768   0.000732  -0.018627   0.001138
     2  C    0.032598  -0.004585   0.000448   0.007586   0.034626   0.007586
     3  H    0.000453   0.000001  -0.000001   0.000002   0.000554   0.000002
     4  C    0.021788  -0.004551   0.001117   0.016305   0.065699   0.014387
     5  H    0.003587  -0.000004   0.000015   0.000200   0.003646   0.000194
     6  C    0.075421  -0.088070   0.085388  -0.025618   0.048310  -0.032620
     7  C   -0.052816  -0.003868   0.009658  -0.012081  -0.081931  -0.006357
     8  H   -0.007589  -0.001908  -0.000057   0.000020  -0.004762   0.000018
     9  C    0.060148  -0.000281   0.002330  -0.005108   0.059225  -0.004932
    10  H    0.000556   0.000026  -0.000001   0.000003   0.000611   0.000003
    11  C    0.003841   0.094240  -0.168013   0.009292   0.013283   0.013811
    12  H   -0.029334   0.005767  -0.006400  -0.005788  -0.024328  -0.005871
    13  C    5.522775   0.403073   0.433580   0.378741  -0.200112   0.013651
    14  H    0.403073   0.502387  -0.031390  -0.028312  -0.016033  -0.000239
    15  H    0.433580  -0.031390   0.522286  -0.023233   0.007910   0.000147
    16  H    0.378741  -0.028312  -0.023233   0.498211   0.013584  -0.000330
    17  C   -0.200112  -0.016033   0.007910   0.013584   5.520588   0.376350
    18  H    0.013651  -0.000239   0.000147  -0.000330   0.376350   0.499316
    19  H    0.008747  -0.000717   0.002592   0.000136   0.432521  -0.023380
    20  H   -0.018560   0.001385  -0.000714  -0.000228   0.405623  -0.028070
              19         20
     1  C    0.000619  -0.000144
     2  C    0.000626  -0.005374
     3  H   -0.000001   0.000001
     4  C   -0.000845  -0.002725
     5  H    0.000015  -0.000002
     6  C    0.088064  -0.092801
     7  C    0.008176   0.000695
     8  H   -0.000079  -0.002034
     9  C    0.002302  -0.000181
    10  H   -0.000001   0.000027
    11  C   -0.167201   0.093307
    12  H   -0.006290   0.005661
    13  C    0.008747  -0.018560
    14  H   -0.000717   0.001385
    15  H    0.002592  -0.000714
    16  H    0.000136  -0.000228
    17  C    0.432521   0.405623
    18  H   -0.023380  -0.028070
    19  H    0.522823  -0.031290
    20  H   -0.031290   0.499888
 Mulliken charges:
               1
     1  C   -1.004943
     2  C   -0.173321
     3  H    0.150811
     4  C   -0.432488
     5  H    0.147044
     6  C    0.199787
     7  C   -0.143822
     8  H    0.151032
     9  C   -0.034325
    10  H    0.151503
    11  C    0.065718
    12  H    0.164362
    13  C   -0.631991
    14  H    0.173998
    15  H    0.163570
    16  H    0.175885
    17  C   -0.636734
    18  H    0.175196
    19  H    0.163182
    20  H    0.175537
 Sum of Mulliken charges =  -1.00000
 Mulliken charges with hydrogens summed into heavy atoms:
               1
     1  C   -1.004943
     2  C   -0.022510
     4  C   -0.285445
     6  C    0.199787
     7  C    0.007210
     9  C    0.117179
    11  C    0.230080
    13  C   -0.118538
    17  C   -0.122819
 APT charges:
               1
     1  C   -2.516130
     2  C    0.823605
     3  H    0.324403
     4  C   -1.048423
     5  H   -0.495026
     6  C   -1.096701
     7  C    0.332047
     8  H    0.916343
     9  C    0.128089
    10  H    1.530886
    11  C    0.551577
    12  H   -0.414684
    13  C   -2.858734
    14  H    1.166364
    15  H    0.174093
    16  H    1.081663
    17  C   -0.039361
    18  H   -0.722598
    19  H    0.125612
    20  H    1.036977
 Sum of APT charges =  -1.00000
 APT charges with hydrogens summed into heavy atoms:
               1
     1  C   -2.516130
     2  C    1.148008
     4  C   -1.543449
     6  C   -1.096701
     7  C    1.248390
     9  C    1.658975
    11  C    0.136893
    13  C   -0.436614
    17  C    0.400630
 Electronic spatial extent (au):  <R**2>=          23071.4242
 Charge=             -1.0000 electrons
 Dipole moment (field-independent basis, Debye):
    X=            -30.6687    Y=            -33.3083    Z=            -25.0350  Tot=             51.7374
 Quadrupole moment (field-independent basis, Debye-Ang):
   XX=           -259.2992   YY=           -292.5093   ZZ=           -193.6007
   XY=           -209.9859   XZ=           -162.0379   YZ=           -175.6867
 Traceless Quadrupole moment (field-independent basis, Debye-Ang):
   XX=            -10.8295   YY=            -44.0395   ZZ=             54.8690
   XY=           -209.9859   XZ=           -162.0379   YZ=           -175.6867
 Octapole moment (field-independent basis, Debye-Ang**2):
  XXX=          -2063.3214  YYY=          -3030.5156  ZZZ=          -1446.7214  XYY=          -1690.1516
  XXY=          -1816.2375  XXZ=          -1307.9508  XZZ=          -1118.8178  YZZ=          -1410.8556
  YYZ=          -1483.4199  XYZ=          -1121.9047
 Hexadecapole moment (field-independent basis, Debye-Ang**3):
 XXXX=         -16038.4414 YYYY=         -33704.6812 ZZZZ=         -10338.6813 XXXY=         -14501.3184
 XXXZ=         -10330.4538 YYYX=         -15558.2567 YYYZ=         -14352.9159 ZZZX=          -7934.0478
 ZZZY=         -10642.2482 XXYY=         -14050.7336 XXZZ=          -8040.9748 YYZZ=         -11481.6255
 XXYZ=          -9142.5490 YYXZ=          -8870.7492 ZZXY=          -7956.5580
 N-N= 4.124665764750D+02 E-N=-1.646151330246D+03  KE= 3.481692474570D+02
  Exact polarizability:       0.000       0.000       0.000       0.000       0.000       0.000
 Approx polarizability:     160.327       3.605     136.970       7.727     -25.257     131.464
 D2PCM: PCM CHGder 2nd derivatives, FixD1E=F FixD2E=F DoIter=F DoCFld=F I1PDM=0
 Calling FoFJK, ICntrl=    100127 FMM=F ISym2X=0 I1Cent= 0 IOpClX= 0 NMat=1 NMatS=1 NMatT=0.
 -------------------------------------------------------------------
 Center     Atomic                   Forces (Hartrees/Bohr)
 Number     Number              X              Y              Z
 -------------------------------------------------------------------
      1        6           0.074078973   -0.021586994    0.034341834
      2        6          -0.023269819    0.016655030   -0.019930387
      3        1          -0.001869041   -0.002079078    0.001450533
      4        6          -0.005853020   -0.006943580    0.004853525
      5        1          -0.005327977    0.000307737   -0.001352173
      6        6          -0.001610703    0.000118104   -0.000366355
      7        6           0.002912482    0.007814163   -0.006316029
      8        1          -0.003712427    0.002325570   -0.002833071
      9        6          -0.034184717   -0.000176021   -0.006485671
     10        1           0.000960204    0.002283967   -0.001860153
     11        6           0.002467199    0.000312080    0.000101807
     12        1          -0.000739334   -0.000081234   -0.000036319
     13        6          -0.001355196   -0.000343042   -0.001112928
     14        1           0.000042464   -0.000066888    0.000163510
     15        1          -0.000740728    0.000860811   -0.000113674
     16        1           0.000157581   -0.000131827    0.000062375
     17        6          -0.001674023    0.000824309    0.000257512
     18        1           0.000143479   -0.000026931    0.000126702
     19        1          -0.000535634    0.000042161   -0.001021202
     20        1           0.000110238   -0.000108336    0.000070164
 -------------------------------------------------------------------
 Cartesian Forces:  Max     0.074078973 RMS     0.012826639
 FormGI is forming the generalized inverse of G from B-inverse, IUseBI=4.

 GradGradGradGradGradGradGradGradGradGradGradGradGradGradGradGradGradGrad
 Berny optimization.
 Internal  Forces:  Max     0.050932339 RMS     0.008063252
 Search for a local minimum.
 Step number   1 out of a maximum of  108
 All quantities printed in internal units (Hartrees-Bohrs-Radians)
 Mixed Optimization -- RFO/linear search
 Second derivative matrix not updated -- analytic derivatives used.
 ITU=  0
     Eigenvalues ---    0.00226   0.00341   0.00369   0.01049   0.01722
     Eigenvalues ---    0.02156   0.02463   0.02708   0.02879   0.03811
     Eigenvalues ---    0.04024   0.04142   0.04415   0.04484   0.04531
     Eigenvalues ---    0.04605   0.04692   0.05010   0.11096   0.11150
     Eigenvalues ---    0.11808   0.11882   0.12180   0.12296   0.12828
     Eigenvalues ---    0.13125   0.14242   0.14753   0.17397   0.18622
     Eigenvalues ---    0.18805   0.19583   0.19978   0.20593   0.28388
     Eigenvalues ---    0.29107   0.29576   0.32296   0.33724   0.33816
     Eigenvalues ---    0.33901   0.34046   0.34073   0.34665   0.34792
     Eigenvalues ---    0.35087   0.35223   0.35709   0.35978   0.41751
     Eigenvalues ---    0.43127   0.46520   0.50467   0.52793
 RFO step:  Lambda=-2.50459256D-02 EMin= 2.26153050D-03
 Linear search not attempted -- first point.
 Maximum step size (   0.300) exceeded in Quadratic search.
    -- Step size scaled by   0.920
 Iteration  1 RMS(Cart)=  0.03270607 RMS(Int)=  0.00198958
 Iteration  2 RMS(Cart)=  0.00289164 RMS(Int)=  0.00064396
 Iteration  3 RMS(Cart)=  0.00000279 RMS(Int)=  0.00064396
 Iteration  4 RMS(Cart)=  0.00000000 RMS(Int)=  0.00064396
 Variable       Old X    -DE/DX   Delta X   Delta X   Delta X     New X
                                 (Linear)    (Quad)   (Total)
    R1        2.59264   0.02624   0.00000   0.06048   0.06167   2.65432
    R2        2.59844   0.02590   0.00000   0.06063   0.06183   2.66027
    R3        2.04942   0.00243   0.00000   0.00934   0.00934   2.05877
    R4        2.64658   0.00875   0.00000   0.00005   0.00006   2.64664
    R5        2.05217   0.00395   0.00000   0.00504   0.00504   2.05722
    R6        2.63884  -0.00277   0.00000  -0.00533  -0.00655   2.63229
    R7        2.64593  -0.00312   0.00000  -0.00609  -0.00731   2.63862
    R8        2.86766   0.00280   0.00000   0.00168   0.00168   2.86935
    R9        2.05211   0.00374   0.00000   0.00464   0.00464   2.05675
   R10        2.64012   0.00899   0.00000   0.00032   0.00033   2.64045
   R11        2.04934   0.00238   0.00000   0.00934   0.00934   2.05869
   R12        2.06797   0.00055   0.00000   0.00200   0.00200   2.06997
   R13        2.89481   0.00056   0.00000   0.00121   0.00121   2.89602
   R14        2.89539   0.00043   0.00000   0.00086   0.00086   2.89624
   R15        2.06718  -0.00006   0.00000   0.00026   0.00026   2.06745
   R16        2.06595   0.00090   0.00000   0.00169   0.00169   2.06764
   R17        2.06502   0.00002   0.00000   0.00023   0.00023   2.06525
   R18        2.06505   0.00004   0.00000   0.00027   0.00027   2.06532
   R19        2.06607   0.00089   0.00000   0.00166   0.00166   2.06772
   R20        2.06735  -0.00004   0.00000   0.00033   0.00033   2.06768
    A1        2.18390  -0.05093   0.00000  -0.20023  -0.19658   1.98731
    A2        2.13618  -0.01104   0.00000  -0.04741  -0.04793   2.08825
    A3        2.03806   0.02619   0.00000   0.11547   0.11652   2.15457
    A4        2.10895  -0.01514   0.00000  -0.06806  -0.06858   2.04036
    A5        2.08302   0.00331   0.00000   0.00821   0.00896   2.09198
    A6        2.11558   0.00124   0.00000  -0.00073  -0.00221   2.11337
    A7        2.08458  -0.00455   0.00000  -0.00749  -0.00675   2.07784
    A8        2.07514  -0.00391   0.00000  -0.02904  -0.03183   2.04331
    A9        2.10444   0.00167   0.00000   0.01476   0.01615   2.12059
   A10        2.10360   0.00223   0.00000   0.01429   0.01568   2.11928
   A11        2.09131  -0.00421   0.00000  -0.00572  -0.00499   2.08633
   A12        2.11370   0.00096   0.00000  -0.00168  -0.00315   2.11055
   A13        2.07817   0.00325   0.00000   0.00740   0.00814   2.08631
   A14        2.04000   0.02645   0.00000   0.11621   0.11726   2.15726
   A15        2.13413  -0.01120   0.00000  -0.04870  -0.04922   2.08491
   A16        2.10906  -0.01526   0.00000  -0.06751  -0.06804   2.04102
   A17        1.86977  -0.00047   0.00000   0.00038   0.00038   1.87015
   A18        1.94496   0.00099   0.00000   0.00397   0.00398   1.94894
   A19        1.94101   0.00097   0.00000   0.00387   0.00388   1.94488
   A20        1.88759   0.00000   0.00000  -0.00148  -0.00150   1.88609
   A21        1.88711  -0.00003   0.00000  -0.00128  -0.00129   1.88581
   A22        1.93065  -0.00149   0.00000  -0.00556  -0.00557   1.92508
   A23        1.93445  -0.00021   0.00000  -0.00180  -0.00180   1.93265
   A24        1.92673   0.00114   0.00000   0.00539   0.00538   1.93212
   A25        1.94198  -0.00042   0.00000  -0.00123  -0.00124   1.94074
   A26        1.88212  -0.00034   0.00000  -0.00060  -0.00060   1.88151
   A27        1.88630   0.00005   0.00000  -0.00155  -0.00155   1.88475
   A28        1.89041  -0.00025   0.00000  -0.00030  -0.00030   1.89011
   A29        1.94160  -0.00046   0.00000  -0.00115  -0.00116   1.94045
   A30        1.92740   0.00120   0.00000   0.00577   0.00576   1.93316
   A31        1.93318  -0.00020   0.00000  -0.00191  -0.00191   1.93127
   A32        1.89047  -0.00028   0.00000  -0.00052  -0.00052   1.88995
   A33        1.88621   0.00005   0.00000  -0.00168  -0.00168   1.88453
   A34        1.88318  -0.00033   0.00000  -0.00062  -0.00062   1.88257
    D1       -3.14144   0.00004   0.00000   0.00089   0.00084  -3.14060
    D2       -0.00012  -0.00008   0.00000   0.00073   0.00070   0.00058
    D3       -0.00018  -0.00003   0.00000  -0.00125  -0.00123  -0.00141
    D4        3.14150   0.00007   0.00000  -0.00017  -0.00011   3.14138
    D5       -3.14096   0.00009   0.00000   0.00014   0.00012  -3.14084
    D6        0.00033   0.00011   0.00000   0.00018   0.00013   0.00046
    D7        0.00037  -0.00003   0.00000   0.00000  -0.00001   0.00035
    D8       -3.14153   0.00000   0.00000   0.00003  -0.00001  -3.14154
    D9       -0.00023  -0.00004   0.00000  -0.00048  -0.00048  -0.00071
   D10        3.13760  -0.00004   0.00000  -0.00010  -0.00008   3.13752
   D11        3.14106  -0.00001   0.00000  -0.00044  -0.00047   3.14059
   D12       -0.00430  -0.00001   0.00000  -0.00006  -0.00007  -0.00436
   D13        3.14121  -0.00003   0.00000   0.00020   0.00025   3.14146
   D14       -0.00009  -0.00007   0.00000  -0.00005  -0.00001  -0.00010
   D15        0.00338  -0.00002   0.00000  -0.00018  -0.00015   0.00323
   D16       -3.13792  -0.00007   0.00000  -0.00043  -0.00040  -3.13833
   D17        0.02495   0.00009   0.00000   0.00049   0.00048   0.02542
   D18        2.08643   0.00036   0.00000   0.00114   0.00112   2.08755
   D19       -2.03375  -0.00014   0.00000  -0.00034  -0.00035  -2.03410
   D20       -3.12047   0.00007   0.00000   0.00078   0.00079  -3.11968
   D21       -1.05899   0.00034   0.00000   0.00143   0.00144  -1.05755
   D22        1.10402  -0.00016   0.00000  -0.00005  -0.00003   1.10398
   D23        0.00029   0.00011   0.00000   0.00088   0.00094   0.00123
   D24       -3.14139   0.00001   0.00000  -0.00018  -0.00015  -3.14154
   D25       -3.14102   0.00006   0.00000   0.00064   0.00069  -3.14033
   D26        0.00049  -0.00004   0.00000  -0.00043  -0.00040   0.00009
   D27        1.11571   0.00010   0.00000  -0.00193  -0.00193   1.11378
   D28       -3.08326   0.00028   0.00000  -0.00036  -0.00036  -3.08362
   D29       -0.98377   0.00046   0.00000   0.00206   0.00205  -0.98172
   D30       -3.11674   0.00010   0.00000  -0.00010  -0.00011  -3.11684
   D31       -1.03253   0.00029   0.00000   0.00147   0.00147  -1.03106
   D32        1.06696   0.00046   0.00000   0.00388   0.00388   1.07084
   D33       -1.05314  -0.00079   0.00000  -0.00575  -0.00574  -1.05888
   D34        1.03107  -0.00060   0.00000  -0.00417  -0.00417   1.02690
   D35        3.13056  -0.00042   0.00000  -0.00176  -0.00175   3.12881
   D36        0.99039  -0.00047   0.00000  -0.00222  -0.00222   0.98817
   D37        3.09015  -0.00032   0.00000   0.00022   0.00022   3.09037
   D38       -1.10788  -0.00009   0.00000   0.00195   0.00195  -1.10593
   D39       -1.05779  -0.00044   0.00000  -0.00410  -0.00410  -1.06189
   D40        1.04197  -0.00029   0.00000  -0.00166  -0.00166   1.04031
   D41        3.12712  -0.00006   0.00000   0.00006   0.00006   3.12719
   D42       -3.12168   0.00043   0.00000   0.00166   0.00165  -3.12003
   D43       -1.02192   0.00058   0.00000   0.00410   0.00409  -1.01783
   D44        1.06323   0.00081   0.00000   0.00582   0.00582   1.06905
         Item               Value     Threshold  Converged?
 Maximum Force            0.050932     0.000015     NO 
 RMS     Force            0.008063     0.000010     NO 
 Maximum Displacement     0.235543     0.000060     NO 
 RMS     Displacement     0.033143     0.000040     NO 
 Predicted change in Energy=-1.356821D-02
 GradGradGradGradGradGradGradGradGradGradGradGradGradGradGradGradGradGrad

                          Input orientation:                          
 ---------------------------------------------------------------------
 Center     Atomic      Atomic             Coordinates (Angstroms)
 Number     Number       Type             X           Y           Z
 ---------------------------------------------------------------------
      1          6           0        6.312248    6.948551    5.184580
      2          6           0        5.100839    6.310958    5.499023
      3          1           0        5.093146    5.493528    6.219200
      4          6           0        3.870834    6.667825    4.932239
      5          1           0        2.966548    6.133879    5.219097
      6          6           0        3.780227    7.700494    4.001816
      7          6           0        4.965027    8.358001    3.664805
      8          1           0        4.940478    9.171071    2.941689
      9          6           0        6.181744    7.986759    4.242845
     10          1           0        7.065549    8.543340    3.933134
     11          6           0        2.452534    8.091742    3.377579
     12          1           0        1.685082    7.447819    3.820563
     13          6           0        2.088504    9.547638    3.688111
     14          1           0        2.816174   10.232324    3.242421
     15          1           0        1.103422    9.795239    3.281331
     16          1           0        2.070229    9.729177    4.765658
     17          6           0        2.454407    7.855531    1.863266
     18          1           0        2.691213    6.815244    1.626195
     19          1           0        1.476653    8.091777    1.432639
     20          1           0        3.198877    8.491155    1.374442
 ---------------------------------------------------------------------
                    Distance matrix (angstroms):
                    1          2          3          4          5
     1  C    0.000000
     2  C    1.404603   0.000000
     3  H    2.161884   1.089452   0.000000
     4  C    2.470422   1.400540   2.128213   0.000000
     5  H    3.443631   2.159842   2.435709   1.088632   0.000000
     6  C    2.894042   2.432377   3.392823   1.392947   2.144325
     7  C    2.472099   2.751943   3.840125   2.379147   3.369935
     8  H    3.442660   3.840042   4.928459   3.372338   4.278729
     9  C    1.407754   2.356830   3.362622   2.748665   3.837150
    10  H    2.162621   3.360896   4.291599   3.836922   4.925548
    11  C    4.412429   3.832132   4.668871   2.540882   2.736535
    12  H    4.849791   3.972037   4.603000   2.573271   2.307485
    13  C    5.180221   4.778040   5.645361   3.608029   3.842997
    14  H    5.174715   5.068438   6.041689   4.083313   4.552704
    15  H    6.233606   5.747844   6.561531   4.490521   4.542216
    16  H    5.089410   4.626731   5.402919   3.555530   3.732983
    17  C    5.170752   4.754791   5.613926   3.582667   3.806307
    18  H    5.078560   4.589052   5.349010   3.513284   3.667290
    19  H    6.226316   5.730753   6.537667   4.472912   4.515575
    20  H    5.156536   5.038144   6.003807   4.053884   4.515761
                    6          7          8          9         10
     6  C    0.000000
     7  C    1.396296   0.000000
     8  H    2.152358   1.088385   0.000000
     9  C    2.430499   1.397266   2.153217   0.000000
    10  H    3.392410   2.125687   2.427537   1.089410   0.000000
    11  C    1.518392   2.542835   2.746782   3.829714   4.668242
    12  H    2.118096   3.407452   3.786769   4.548488   5.492018
    13  C    2.524337   3.112903   2.971986   4.415732   5.083270
    14  H    2.813582   2.882544   2.393608   4.167790   4.624601
    15  H    3.474527   4.138199   3.902299   5.475807   6.126912
    16  H    2.760996   3.387012   3.446254   4.495988   5.201204
    17  C    2.520959   3.130692   3.012340   4.424100   5.100987
    18  H    2.759202   3.421441   3.512782   4.516980   5.238616
    19  H    3.472785   4.149963   3.929401   5.481439   6.139393
    20  H    2.804676   2.895302   2.439616   4.168891   4.636894
                   11         12         13         14         15
    11  C    0.000000
    12  H    1.095379   0.000000
    13  C    1.532508   2.142319   0.000000
    14  H    2.175452   3.060570   1.094047   0.000000
    15  H    2.175148   2.477797   1.094148   1.768071   0.000000
    16  H    2.180393   2.499227   1.092886   1.769136   1.772655
    17  C    1.532626   2.142218   2.515386   2.771659   2.756544
    18  H    2.180312   2.495536   3.475735   3.782095   3.760442
    19  H    2.176037   2.481997   2.753370   3.106698   2.541406
    20  H    2.174653   3.060005   2.775274   2.582146   3.118941
                   16         17         18         19         20
    16  H    0.000000
    17  C    3.475920   0.000000
    18  H    4.328147   1.092921   0.000000
    19  H    3.760642   1.094192   1.772613   0.000000
    20  H    3.782445   1.094168   1.769118   1.768883   0.000000
 Symmetry turned off by external request.
 Stoichiometry    C9H11(1-)
 Framework group  C1[X(C9H11)]
 Deg. of freedom    54
 Full point group                 C1      NOp   1
 Rotational constants (GHZ):           3.4155119           1.1005772           1.0123155
 Standard basis: 6-311+G(d,p) (5D, 7F)
   264 basis functions,   412 primitive gaussians,   273 cartesian basis functions
    33 alpha electrons       33 beta electrons
       nuclear repulsion energy       410.6639881422 Hartrees.
 NAtoms=   20 NActive=   20 NUniq=   20 SFac= 1.00D+00 NAtFMM=   60 NAOKFM=F Big=F
 Integral buffers will be    131072 words long.
 Raffenetti 2 integral format.
 Two-electron integral symmetry is turned off.
 ------------------------------------------------------------------------------
 Polarizable Continuum Model (PCM)
 =================================
 Model                : PCM.
 Atomic radii         : SMD-Coulomb.
 Polarization charges : Total charges.
 Charge compensation  : None.
 Solution method      : Matrix inversion.
 Cavity type          : VdW (van der Waals Surface) (Alpha=1.000).
 Cavity algorithm     : GePol (No added spheres)
                        Default sphere list used, NSphG=   20.
                        Lebedev-Laikov grids with approx.  5.0 points / Ang**2.
                        Smoothing algorithm: York/Karplus (Gamma=1.0000).
                        Polarization charges: spherical gaussians, with
                                              point-specific exponents (IZeta= 3).
                        Self-potential: point-specific (ISelfS= 7).
                        Self-field    : sphere-specific E.n sum rule (ISelfD= 2).
 1st derivatives      : Analytical E(r).r(x)/FMM algorithm (CHGder, D1EAlg=3).
                        Cavity 1st derivative terms included.
 Solvent              : TetraHydroFuran, Eps=   7.425700 Eps(inf)=   1.974025
 ------------------------------------------------------------------------------
 Spheres list:
 ISph  on   Nord     Re0    Alpha      Xe            Ye            Ze
    1   C      1    1.8500  1.000      6.312248      6.948551      5.184580
    2   C      2    1.8500  1.000      5.100839      6.310958      5.499023
    3   H      3    1.2000  1.000      5.093146      5.493528      6.219200
    4   C      4    1.8500  1.000      3.870834      6.667825      4.932239
    5   H      5    1.2000  1.000      2.966548      6.133879      5.219097
    6   C      6    1.8500  1.000      3.780227      7.700494      4.001816
    7   C      7    1.8500  1.000      4.965027      8.358001      3.664805
    8   H      8    1.2000  1.000      4.940478      9.171071      2.941689
    9   C      9    1.8500  1.000      6.181744      7.986759      4.242845
   10   H     10    1.2000  1.000      7.065549      8.543340      3.933134
   11   C     11    1.8500  1.000      2.452534      8.091742      3.377579
   12   H     12    1.2000  1.000      1.685082      7.447819      3.820563
   13   C     13    1.8500  1.000      2.088504      9.547638      3.688111
   14   H     14    1.2000  1.000      2.816174     10.232324      3.242421
   15   H     15    1.2000  1.000      1.103422      9.795239      3.281331
   16   H     16    1.2000  1.000      2.070229      9.729177      4.765658
   17   C     17    1.8500  1.000      2.454407      7.855531      1.863266
   18   H     18    1.2000  1.000      2.691213      6.815244      1.626195
   19   H     19    1.2000  1.000      1.476653      8.091777      1.432639
   20   H     20    1.2000  1.000      3.198877      8.491155      1.374442
 ------------------------------------------------------------------------------
 ------------------------------------------------------------------------------
 Atomic radii for non-electrostatic terms: SMD-CDS.
 ------------------------------------------------------------------------------
 Nuclear repulsion after PCM non-electrostatic terms =      410.6605806038 Hartrees.
 One-electron integrals computed using PRISM.
 NBasis=   264 RedAO= T EigKep=  2.89D-06  NBF=   264
 NBsUse=   264 1.00D-06 EigRej= -1.00D+00 NBFU=   264
 Initial guess from the checkpoint file:  "4-isopropyl-ph-anion-opt-freq-thf-2.chk"
 B after Tr=     0.019017   -0.007887    0.010303
         Rot=    1.000000   -0.000003   -0.000132   -0.000148 Ang=  -0.02 deg.
 ExpMin= 4.38D-02 ExpMax= 4.56D+03 ExpMxC= 6.82D+02 IAcc=3 IRadAn=         5 AccDes= 0.00D+00
 Harris functional with IExCor= 1009 and IRadAn=       5 diagonalized for initial guess.
 HarFok:  IExCor= 1009 AccDes= 0.00D+00 IRadAn=         5 IDoV= 1 UseB2=F ITyADJ=14
 ICtDFT=  3500011 ScaDFX=  1.000000  1.000000  1.000000  1.000000
 FoFCou: FMM=F IPFlag=           0 FMFlag=      100000 FMFlg1=           0
         NFxFlg=           0 DoJE=T BraDBF=F KetDBF=T FulRan=T
         wScrn=  0.000000 ICntrl=       500 IOpCl=  0 I1Cent=   200000004 NGrid=           0
         NMat0=    1 NMatS0=      1 NMatT0=    0 NMatD0=    1 NMtDS0=    0 NMtDT0=    0
 Symmetry not used in FoFCou.
 Requested convergence on RMS density matrix=1.00D-08 within 128 cycles.
 Requested convergence on MAX density matrix=1.00D-06.
 Requested convergence on             energy=1.00D-06.
 Level shift goal  0.100 maximum shift  0.100.
 No special actions if energy rises.
 Dynamic level shift is on during FON iterations.
 Inv3:  Mode=1 IEnd=     7059468.
 Iteration    1 A*A^-1 deviation from unit magnitude is 6.99D-15 for   1532.
 Iteration    1 A*A^-1 deviation from orthogonality  is 1.99D-15 for   1035    810.
 Iteration    1 A^-1*A deviation from unit magnitude is 6.99D-15 for   1532.
 Iteration    1 A^-1*A deviation from orthogonality  is 3.14D-14 for   1441   1395.
 Error on total polarization charges =  0.07100
 SCF Done:  E(RM062X) =  -349.557230226     A.U. after   14 cycles
            NFock= 14  Conv=0.53D-08     -V/T= 2.0044
 SMD-CDS (non-electrostatic) energy       (kcal/mol) =      -2.14
 (included in total energy above)
 D1PCM: PCM CHGder 1st derivatives, ID1Alg=3 FixD1E=F DoIter=F DoCFld=F I1PDM=0.
 Calling FoFJK, ICntrl=      2127 FMM=F ISym2X=0 I1Cent= 0 IOpClX= 0 NMat=1 NMatS=1 NMatT=0.
 -------------------------------------------------------------------
 Center     Atomic                   Forces (Hartrees/Bohr)
 Number     Number              X              Y              Z
 -------------------------------------------------------------------
      1        6           0.012085761   -0.003228787    0.006065671
      2        6          -0.003139537    0.002476835   -0.003223438
      3        1          -0.000734152   -0.000965394    0.000695592
      4        6          -0.001828654   -0.002514864    0.001811675
      5        1          -0.000983252   -0.000046092   -0.000165090
      6        6          -0.001680677    0.000514691   -0.000763309
      7        6           0.001361371    0.002688975   -0.002059094
      8        1          -0.000582507    0.000496697   -0.000556308
      9        6          -0.004821288   -0.000560928   -0.000923403
     10        1           0.000530537    0.001056274   -0.000836783
     11        6           0.000956973   -0.000045833    0.000211294
     12        1          -0.000191604    0.000035532   -0.000044032
     13        6          -0.000510590   -0.000127439   -0.000252005
     14        1           0.000052853   -0.000017621    0.000116688
     15        1          -0.000095192    0.000148325   -0.000017937
     16        1           0.000068979   -0.000007977    0.000022941
     17        6          -0.000590663    0.000144192    0.000059820
     18        1           0.000081342    0.000011203    0.000002868
     19        1          -0.000059396    0.000020940   -0.000171402
     20        1           0.000079696   -0.000078729    0.000026253
 -------------------------------------------------------------------
 Cartesian Forces:  Max     0.012085761 RMS     0.002167143

 GradGradGradGradGradGradGradGradGradGradGradGradGradGradGradGradGradGrad
 Berny optimization.
 Using GEDIIS/GDIIS optimizer.
 FormGI is forming the generalized inverse of G from B-inverse, IUseBI=4.
 Internal  Forces:  Max     0.007008029 RMS     0.001374523
 Search for a local minimum.
 Step number   2 out of a maximum of  108
 All quantities printed in internal units (Hartrees-Bohrs-Radians)
 Mixed Optimization -- RFO/linear search
 Update second derivatives using D2CorX and points    1    2
 DE= -1.34D-02 DEPred=-1.36D-02 R= 9.87D-01
 TightC=F SS=  1.41D+00  RLast= 3.00D-01 DXNew= 5.0454D-01 9.0024D-01
 Trust test= 9.87D-01 RLast= 3.00D-01 DXMaxT set to 5.05D-01
 ITU=  1  0
 Use linear search instead of GDIIS.
     Eigenvalues ---    0.00226   0.00341   0.00369   0.01048   0.01721
     Eigenvalues ---    0.02156   0.02462   0.02706   0.02873   0.03790
     Eigenvalues ---    0.04019   0.04141   0.04415   0.04484   0.04531
     Eigenvalues ---    0.04605   0.04692   0.05009   0.11097   0.11149
     Eigenvalues ---    0.11808   0.11882   0.12181   0.12309   0.12828
     Eigenvalues ---    0.13125   0.14242   0.14753   0.17397   0.18630
     Eigenvalues ---    0.18883   0.19974   0.20355   0.20596   0.28394
     Eigenvalues ---    0.29107   0.29587   0.32323   0.33726   0.33816
     Eigenvalues ---    0.33901   0.34049   0.34076   0.34665   0.34795
     Eigenvalues ---    0.35084   0.35249   0.35704   0.35972   0.41744
     Eigenvalues ---    0.43107   0.46490   0.50441   0.51754
 RFO step:  Lambda=-7.40291560D-05 EMin= 2.26152505D-03
 Quartic linear search produced a step of  0.17742.
 Iteration  1 RMS(Cart)=  0.01080116 RMS(Int)=  0.00016048
 Iteration  2 RMS(Cart)=  0.00011660 RMS(Int)=  0.00012920
 Iteration  3 RMS(Cart)=  0.00000001 RMS(Int)=  0.00012920
 Variable       Old X    -DE/DX   Delta X   Delta X   Delta X     New X
                                 (Linear)    (Quad)   (Total)
    R1        2.65432   0.00572   0.01094   0.00287   0.01404   2.66836
    R2        2.66027   0.00567   0.01097   0.00288   0.01409   2.67436
    R3        2.05877   0.00119   0.00166   0.00269   0.00434   2.06311
    R4        2.64664   0.00217   0.00001   0.00230   0.00232   2.64895
    R5        2.05722   0.00080   0.00089   0.00047   0.00136   2.05858
    R6        2.63229   0.00145  -0.00116   0.00480   0.00340   2.63568
    R7        2.63862   0.00148  -0.00130   0.00500   0.00346   2.64208
    R8        2.86935   0.00022   0.00030  -0.00129  -0.00099   2.86835
    R9        2.05675   0.00075   0.00082   0.00045   0.00127   2.05802
   R10        2.64045   0.00235   0.00006   0.00275   0.00281   2.64326
   R11        2.05869   0.00120   0.00166   0.00274   0.00439   2.06308
   R12        2.06997   0.00009   0.00035   0.00011   0.00046   2.07043
   R13        2.89602   0.00010   0.00021   0.00035   0.00057   2.89659
   R14        2.89624   0.00006   0.00015  -0.00007   0.00009   2.89633
   R15        2.06745  -0.00002   0.00005   0.00013   0.00018   2.06763
   R16        2.06764   0.00012   0.00030  -0.00012   0.00018   2.06782
   R17        2.06525   0.00002   0.00004   0.00010   0.00014   2.06540
   R18        2.06532   0.00000   0.00005   0.00007   0.00011   2.06544
   R19        2.06772   0.00013   0.00029  -0.00016   0.00013   2.06785
   R20        2.06768   0.00000   0.00006   0.00002   0.00008   2.06776
    A1        1.98731  -0.00701  -0.03488   0.00204  -0.03211   1.95520
    A2        2.08825  -0.00123  -0.00850   0.00409  -0.00451   2.08373
    A3        2.15457   0.00398   0.02067  -0.00039   0.02049   2.17506
    A4        2.04036  -0.00275  -0.01217  -0.00371  -0.01598   2.02439
    A5        2.09198   0.00073   0.00159   0.00159   0.00333   2.09531
    A6        2.11337  -0.00021  -0.00039  -0.00138  -0.00208   2.11130
    A7        2.07784  -0.00052  -0.00120  -0.00021  -0.00126   2.07658
    A8        2.04331  -0.00045  -0.00565   0.00175  -0.00446   2.03885
    A9        2.12059   0.00004   0.00287  -0.00168   0.00146   2.12205
   A10        2.11928   0.00042   0.00278  -0.00006   0.00300   2.12228
   A11        2.08633  -0.00045  -0.00088  -0.00008  -0.00082   2.08551
   A12        2.11055  -0.00027  -0.00056  -0.00148  -0.00234   2.10821
   A13        2.08631   0.00072   0.00144   0.00156   0.00315   2.08946
   A14        2.15726   0.00396   0.02080  -0.00053   0.02047   2.17773
   A15        2.08491  -0.00116  -0.00873   0.00477  -0.00406   2.08084
   A16        2.04102  -0.00280  -0.01207  -0.00424  -0.01641   2.02461
   A17        1.87015  -0.00005   0.00007   0.00068   0.00075   1.87089
   A18        1.94894   0.00014   0.00071  -0.00067   0.00004   1.94897
   A19        1.94488   0.00024   0.00069   0.00253   0.00322   1.94811
   A20        1.88609  -0.00005  -0.00027  -0.00157  -0.00184   1.88425
   A21        1.88581  -0.00005  -0.00023  -0.00119  -0.00143   1.88439
   A22        1.92508  -0.00024  -0.00099   0.00007  -0.00092   1.92416
   A23        1.93265  -0.00004  -0.00032  -0.00050  -0.00082   1.93183
   A24        1.93212   0.00023   0.00096   0.00098   0.00194   1.93405
   A25        1.94074  -0.00008  -0.00022  -0.00058  -0.00080   1.93994
   A26        1.88151  -0.00004  -0.00011   0.00087   0.00076   1.88227
   A27        1.88475  -0.00004  -0.00028  -0.00131  -0.00159   1.88316
   A28        1.89011  -0.00003  -0.00005   0.00056   0.00051   1.89062
   A29        1.94045  -0.00006  -0.00021  -0.00020  -0.00041   1.94004
   A30        1.93316   0.00023   0.00102   0.00033   0.00135   1.93452
   A31        1.93127  -0.00006  -0.00034   0.00027  -0.00007   1.93119
   A32        1.88995  -0.00004  -0.00009   0.00051   0.00041   1.89036
   A33        1.88453  -0.00004  -0.00030  -0.00117  -0.00147   1.88306
   A34        1.88257  -0.00004  -0.00011   0.00025   0.00014   1.88270
    D1       -3.14060  -0.00008   0.00015  -0.00331  -0.00311   3.13948
    D2        0.00058  -0.00019   0.00012  -0.00608  -0.00593  -0.00535
    D3       -0.00141   0.00021  -0.00022   0.00745   0.00721   0.00580
    D4        3.14138   0.00009  -0.00002   0.00439   0.00432  -3.13749
    D5       -3.14084   0.00010   0.00002   0.00239   0.00244  -3.13840
    D6        0.00046   0.00005   0.00002   0.00046   0.00053   0.00099
    D7        0.00035  -0.00001   0.00000  -0.00031  -0.00030   0.00005
    D8       -3.14154  -0.00007   0.00000  -0.00224  -0.00220   3.13944
    D9       -0.00071   0.00009  -0.00008   0.00420   0.00413   0.00342
   D10        3.13752   0.00011  -0.00001   0.00763   0.00760  -3.13806
   D11        3.14059   0.00004  -0.00008   0.00229   0.00224  -3.14035
   D12       -0.00436   0.00005  -0.00001   0.00572   0.00572   0.00135
   D13        3.14146  -0.00005   0.00004  -0.00171  -0.00171   3.13975
   D14       -0.00010  -0.00008   0.00000  -0.00288  -0.00291  -0.00300
   D15        0.00323  -0.00006  -0.00003  -0.00514  -0.00518  -0.00195
   D16       -3.13833  -0.00009  -0.00007  -0.00631  -0.00638   3.13848
   D17        0.02542   0.00000   0.00008  -0.01177  -0.01168   0.01375
   D18        2.08755  -0.00002   0.00020  -0.01363  -0.01343   2.07412
   D19       -2.03410  -0.00005  -0.00006  -0.01215  -0.01221  -2.04631
   D20       -3.11968   0.00001   0.00014  -0.00819  -0.00805  -3.12773
   D21       -1.05755   0.00000   0.00026  -0.01005  -0.00980  -1.06735
   D22        1.10398  -0.00004  -0.00001  -0.00857  -0.00858   1.09540
   D23        0.00123  -0.00008   0.00017  -0.00322  -0.00311  -0.00188
   D24       -3.14154   0.00004  -0.00003  -0.00023  -0.00029   3.14136
   D25       -3.14033  -0.00011   0.00012  -0.00439  -0.00431   3.13855
   D26        0.00009   0.00001  -0.00007  -0.00140  -0.00149  -0.00140
   D27        1.11378   0.00000  -0.00034  -0.00611  -0.00646   1.10733
   D28       -3.08362   0.00007  -0.00006  -0.00472  -0.00478  -3.08840
   D29       -0.98172   0.00013   0.00036  -0.00374  -0.00338  -0.98510
   D30       -3.11684  -0.00001  -0.00002  -0.00664  -0.00666  -3.12350
   D31       -1.03106   0.00006   0.00026  -0.00524  -0.00498  -1.03605
   D32        1.07084   0.00012   0.00069  -0.00427  -0.00358   1.06726
   D33       -1.05888  -0.00024  -0.00102  -0.00896  -0.00998  -1.06886
   D34        1.02690  -0.00017  -0.00074  -0.00757  -0.00831   1.01860
   D35        3.12881  -0.00011  -0.00031  -0.00659  -0.00690   3.12191
   D36        0.98817  -0.00009  -0.00039   0.00198   0.00159   0.98976
   D37        3.09037  -0.00002   0.00004   0.00271   0.00275   3.09312
   D38       -1.10593   0.00004   0.00035   0.00341   0.00375  -1.10218
   D39       -1.06189  -0.00014  -0.00073   0.00044  -0.00029  -1.06218
   D40        1.04031  -0.00007  -0.00029   0.00117   0.00087   1.04118
   D41        3.12719  -0.00002   0.00001   0.00186   0.00188   3.12906
   D42       -3.12003   0.00009   0.00029   0.00299   0.00329  -3.11674
   D43       -1.01783   0.00015   0.00073   0.00372   0.00445  -1.01338
   D44        1.06905   0.00021   0.00103   0.00442   0.00545   1.07450
         Item               Value     Threshold  Converged?
 Maximum Force            0.007008     0.000015     NO 
 RMS     Force            0.001375     0.000010     NO 
 Maximum Displacement     0.040148     0.000060     NO 
 RMS     Displacement     0.010804     0.000040     NO 
 Predicted change in Energy=-3.646863D-04
 GradGradGradGradGradGradGradGradGradGradGradGradGradGradGradGradGradGrad

                          Input orientation:                          
 ---------------------------------------------------------------------
 Center     Atomic      Atomic             Coordinates (Angstroms)
 Number     Number       Type             X           Y           Z
 ---------------------------------------------------------------------
      1          6           0        6.333493    6.948884    5.203992
      2          6           0        5.104728    6.321339    5.504272
      3          1           0        5.082740    5.506275    6.230294
      4          6           0        3.872383    6.669499    4.934136
      5          1           0        2.967539    6.136060    5.222913
      6          6           0        3.780378    7.697923    3.996485
      7          6           0        4.969345    8.350905    3.657763
      8          1           0        4.947946    9.159556    2.928602
      9          6           0        6.183088    7.978636    4.244926
     10          1           0        7.062406    8.540204    3.923477
     11          6           0        2.452698    8.089514    3.373714
     12          1           0        1.685425    7.442672    3.813348
     13          6           0        2.084868    9.542999    3.692430
     14          1           0        2.815366   10.231056    3.256428
     15          1           0        1.101702    9.794024    3.282875
     16          1           0        2.062215    9.716576    4.771282
     17          6           0        2.451043    7.862127    1.858005
     18          1           0        2.687175    6.823051    1.614750
     19          1           0        1.473130    8.101816    1.429471
     20          1           0        3.196067    8.498934    1.371471
 ---------------------------------------------------------------------
                    Distance matrix (angstroms):
                    1          2          3          4          5
     1  C    0.000000
     2  C    1.412036   0.000000
     3  H    2.167671   1.091751   0.000000
     4  C    2.491574   1.401765   2.120868   0.000000
     5  H    3.462758   2.163578   2.426009   1.089354   0.000000
     6  C    2.921905   2.433579   3.389597   1.394744   2.145751
     7  C    2.493469   2.747192   3.837016   2.378988   3.370825
     8  H    3.461822   3.835901   4.926033   3.373335   4.281052
     9  C    1.415210   2.344237   3.356340   2.743758   3.832924
    10  H    2.168717   3.354814   4.294788   3.833695   4.923046
    11  C    4.439767   3.833926   4.663721   2.543003   2.738719
    12  H    4.876705   3.975958   4.597065   2.576188   2.310394
    13  C    5.202410   4.772989   5.632329   3.604726   3.837802
    14  H    5.190653   5.057654   6.025646   4.076355   4.545240
    15  H    6.257567   5.746160   6.551391   4.490656   4.541563
    16  H    5.107952   4.617552   5.383207   3.547944   3.720709
    17  C    5.206060   4.765641   5.620745   3.592374   3.816894
    18  H    5.118020   4.607023   5.364315   3.527976   3.683666
    19  H    6.260942   5.741307   6.543242   4.482256   4.526329
    20  H    5.189828   5.046281   6.010299   4.061627   4.524268
                    6          7          8          9         10
     6  C    0.000000
     7  C    1.398128   0.000000
     8  H    2.154057   1.089059   0.000000
     9  C    2.431777   1.398755   2.157048   0.000000
    10  H    3.389170   2.118334   2.417501   1.091736   0.000000
    11  C    1.517868   2.546080   2.751251   3.832377   4.664201
    12  H    2.118377   3.410752   3.791374   4.549999   5.488955
    13  C    2.524185   3.121298   2.987922   4.421300   5.082800
    14  H    2.809928   2.887155   2.409041   4.170381   4.619662
    15  H    3.475368   4.145093   3.914288   5.481027   6.124738
    16  H    2.761767   3.399468   3.468888   4.503230   5.206201
    17  C    2.523329   3.133669   3.010653   4.431605   5.098101
    18  H    2.762816   3.422943   3.506644   4.524887   5.236552
    19  H    3.475066   4.153415   3.929448   5.488685   6.136143
    20  H    2.806017   2.897164   2.435192   4.177289   4.632819
                   11         12         13         14         15
    11  C    0.000000
    12  H    1.095623   0.000000
    13  C    1.532807   2.141390   0.000000
    14  H    2.175198   3.059740   1.094141   0.000000
    15  H    2.176877   2.480119   1.094241   1.768711   0.000000
    16  H    2.180138   2.496046   1.092961   1.768250   1.773115
    17  C    1.532671   2.141373   2.514862   2.774913   2.753761
    18  H    2.180106   2.494246   3.475290   3.784975   3.758064
    19  H    2.177105   2.482420   2.751766   3.110150   2.537052
    20  H    2.174672   3.059492   2.776991   2.588096   3.117224
                   16         17         18         19         20
    16  H    0.000000
    17  C    3.475248   0.000000
    18  H    4.327441   1.092982   0.000000
    19  H    3.757947   1.094261   1.772984   0.000000
    20  H    3.785100   1.094211   1.768258   1.769061   0.000000
 Symmetry turned off by external request.
 Stoichiometry    C9H11(1-)
 Framework group  C1[X(C9H11)]
 Deg. of freedom    54
[...]
 00023855,-0.00410075,-0.00307393,0.00036959,-0.00004339,-0.00116121,0.
 00095054,0.00605382,-0.01872891,0.01770598,-0.05780134,0.00050135,-0.0
 0458388,0.05574769,0.00154978,0.00329950,0.00336048,0.00012123,0.00022
 753,-0.00049112,0.00022991,-0.00095208,-0.00088324,-0.00391965,0.00335
 805,0.00317675,0.00013586,-0.00031858,0.00074336,0.00180469,-0.0075701
 0,0.01045975,0.00030634,-0.19407031,0.14377721,-0.00005209,0.20135371,
 -0.00359800,0.00310751,0.00297736,-0.00026605,-0.00053587,0.00012652,0
 .00025490,-0.00087954,-0.00111103,0.00114645,0.00340415,0.00485314,-0.
 00023091,0.00048347,-0.00002686,-0.00117397,0.00617925,-0.00246434,-0.
 00417188,0.14370748,-0.16947569,0.00632174,-0.16130917,0.17395457,-0.1
 0816727,0.00183462,-0.01231438,0.03656153,-0.02217742,0.02774840,-0.00
 274923,-0.00412848,0.00098897,-0.02472817,0.02508864,-0.02630291,-0.00
 004557,0.00073087,-0.00056619,-0.05935797,-0.03292475,0.01645796,-0.27
 090256,0.06682898,-0.10362637,0.00449113,-0.00269167,0.00243456,0.6521
 9779,0.01847145,-0.17917713,0.11569293,-0.04364564,-0.02411854,0.01233
 646,-0.00497026,0.00371980,0.00537583,0.01997886,-0.02827230,0.0211533
 8,0.00085401,-0.00042513,0.00019383,0.01070495,0.04047316,-0.02749387,
 0.00869320,-0.11163655,0.04491260,0.02071957,-0.00249193,0.01042083,0.
 07873383,0.41241535,-0.02722079,0.11251735,-0.16448264,0.04714384,0.01
 635788,-0.00644413,0.00170609,0.00558613,0.00604980,-0.02132100,0.0223
 5621,-0.03432604,-0.00068929,0.00019781,-0.00066648,-0.02384521,-0.036
 70164,0.03630393,-0.05062404,0.05715868,-0.12654093,-0.01888841,0.0054
 9517,-0.00486137,0.03362250,-0.23084842,0.35945393,0.00625887,0.001454
 86,0.00046826,0.00274977,-0.00075339,-0.00089726,-0.00003288,0.0000689
 1,-0.00006056,0.00033921,0.00097073,-0.00056042,-0.00009149,0.00005636
 ,0.00032811,-0.00328216,0.00213785,-0.00431184,-0.02210856,-0.01641435
 ,0.00951256,0.00100603,0.00071880,0.00037955,-0.22814303,-0.10460350,0
 .05676837,0.24461519,-0.01543639,-0.01247404,0.00616732,-0.00154132,0.
 00110617,0.00810060,-0.00098019,-0.00058833,0.00030289,0.00075715,-0.0
 0095825,-0.00013067,0.00003399,-0.00079446,-0.00100665,0.00085892,0.00
 420186,0.00377167,0.00724451,0.00627684,0.00004996,0.00009856,-0.00133
 085,-0.00243825,-0.10857961,-0.11102017,0.04273996,0.11730379,0.115405
 88,0.01601559,0.00963005,-0.00782693,-0.00012476,0.00829623,0.00264478
 ,0.00091048,0.00053613,-0.00031983,-0.00040240,-0.00004762,-0.00131257
 ,0.00034813,-0.00099606,-0.00091010,-0.00318545,0.00398350,0.00381601,
 -0.01214221,-0.00484608,0.00661050,0.00094938,-0.00229963,-0.00170611,
 0.06035435,0.04355463,-0.06721284,-0.06221904,-0.05750337,0.06598600,-
 0.00044859,0.00016750,0.00043479,0.00328285,-0.00195851,0.00077140,0.0
 0038319,-0.00042081,0.00045022,-0.00291517,0.00448791,-0.00558839,0.00
 062565,-0.00120930,0.00205793,-0.17919893,0.02331672,-0.04355072,-0.02
 715807,0.00588359,-0.01127765,0.00083387,0.00120643,-0.00026514,-0.000
 07994,-0.00408713,0.00245121,-0.00055875,0.00030402,-0.00046620,0.5424
 8840,0.00066498,-0.00192055,-0.00112441,-0.00191306,0.00142259,0.00588
 498,0.00085158,-0.00027606,0.00056111,0.02159589,-0.00331290,0.0112849
 4,0.00153815,-0.00129422,-0.00220321,0.01744881,-0.08731259,0.02004536
 ,-0.00990128,0.00867974,-0.00824800,0.00040735,-0.00177864,-0.00136279
 ,-0.00409725,0.00101579,0.00405463,-0.00109843,0.00027684,-0.00018480,
 0.05300786,0.51479431,-0.00000006,-0.00125149,-0.00218247,0.00066639,0
 .00594199,0.00307336,-0.00072612,0.00028650,-0.00028640,-0.02125765,0.
 00784115,-0.00719522,-0.00043307,-0.00278579,-0.00164407,-0.03827013,0
 .02117698,-0.09641955,0.00317113,-0.00502652,0.00715173,0.00047430,-0.
 00120378,-0.00218839,0.00239607,0.00405317,0.00315272,0.00081933,0.000
 11541,0.00040402,-0.02963247,-0.04266768,0.48887568,0.00038504,0.00035
 881,-0.00027799,-0.00051851,0.00023893,-0.00028685,0.00000524,0.000026
 60,-0.00001673,0.00153194,-0.00191351,0.00206325,0.00054189,0.00075171
 ,-0.00074065,-0.02460714,-0.01729412,0.01068540,-0.00354935,0.00312797
 ,-0.00381218,0.00020891,-0.00014332,0.00020259,-0.00067597,-0.00125757
 ,0.00099889,-0.00056119,0.00008279,-0.00016245,-0.17254687,-0.10610798
 ,0.06972225,0.19077390,0.00014393,0.00014185,-0.00003330,-0.00009618,0
 .00016178,-0.00025899,-0.00003480,-0.00000235,-0.00004090,0.00186512,0
 .00026307,0.00013700,-0.00000311,0.00022014,-0.00000899,0.00622730,0.0
 0361537,-0.00254206,0.00094415,0.00024965,0.00100319,0.00005885,-0.000
 01748,-0.00010781,0.00029326,0.00009918,0.00011715,0.00006793,-0.00006
 875,-0.00004994,-0.10862577,-0.13788817,0.06025999,0.11365957,0.153830
 79,-0.00005550,0.00002359,0.00004533,-0.00000249,-0.00018965,0.0000536
 5,0.00004103,-0.00002840,-0.00000272,-0.00144786,-0.00068680,0.0003031
 8,0.00002094,0.00017872,-0.00010367,-0.01045576,-0.00733054,0.00382875
 ,-0.00183662,0.00142793,-0.00055203,0.00001780,-0.00015206,-0.00001245
 ,-0.00041959,-0.00020064,0.00026612,-0.00014226,-0.00004751,-0.0001264
 3,0.07196680,0.06079624,-0.08639438,-0.07442993,-0.06582112,0.09926550
 ,0.00010941,0.00078261,-0.00037500,-0.00120978,-0.00046025,-0.00141222
 ,-0.00018089,0.00005413,-0.00028034,-0.00179129,-0.00089008,0.00132882
 ,0.00016589,0.00039690,0.00010687,-0.01079853,0.03115358,0.00406061,-0
 .00045380,0.00097638,-0.00049522,-0.00034456,0.00012187,0.00001542,0.0
 0077188,-0.00030002,-0.00031879,-0.00005709,-0.00006982,0.00004249,-0.
 08285478,0.02392870,0.00755458,0.00586803,-0.02110184,-0.00557431,0.56
 658036,-0.00007955,0.00002249,-0.00019647,-0.00003478,0.00033629,0.000
 29599,-0.00005030,0.00004319,-0.00002523,-0.00016392,0.00047004,-0.001
 05723,0.00007467,-0.00008917,-0.00023201,0.01154857,-0.01077834,0.0032
 3269,-0.00195981,0.00027009,-0.00061147,0.00013691,-0.00025909,0.00013
 503,-0.00017625,-0.00015225,0.00050250,-0.00010824,-0.00006006,-0.0001
 0239,0.02073363,-0.18167326,-0.02566876,0.00606325,-0.02216606,-0.0053
 6224,0.02291107,0.47867206,-0.00021743,0.00014802,0.00002104,-0.000092
 73,-0.00034592,-0.00093305,-0.00014304,0.00015408,-0.00013297,-0.00226
 417,0.00008389,-0.00081254,-0.00008461,0.00025420,0.00033901,-0.002572
 24,0.01320281,0.00248761,-0.00023619,0.00054489,0.00028384,0.00003236,
 0.00009280,0.00003981,-0.00002971,0.00001615,-0.00037096,-0.00009775,-
 0.00002120,0.00002952,0.00568062,-0.02050355,-0.07865999,-0.00367059,0
 .01180639,0.00280754,0.00785340,-0.01830056,0.57753645,-0.00001568,-0.
 00010084,-0.00002505,0.00013260,0.00001314,0.00007055,0.00001498,0.000
 00931,0.00003305,-0.00005921,0.00000984,-0.00023609,-0.00001400,-0.000
 01902,0.00000593,0.00058286,-0.00031240,-0.00071087,-0.00025573,0.0003
 3726,0.00036664,-0.00065167,0.00056007,-0.00004744,0.00002929,0.000144
 61,-0.00001482,0.00002382,0.00002716,0.00002950,0.00525626,0.00529746,
 -0.00302162,0.00063005,0.00188883,0.00023606,-0.16727830,-0.11288779,0
 .07076987,0.17945084,0.00021349,0.00029694,-0.00035657,-0.00049730,0.0
 0009786,-0.00010734,0.00001577,-0.00002700,-0.00000796,0.00045391,-0.0
 0027192,0.00057916,0.00008174,0.00005649,-0.00009395,-0.00146708,0.001
 48351,-0.00062021,-0.00044872,0.00010977,0.00026865,0.00045087,0.00001
 834,-0.00032007,0.00052887,0.00001001,0.00032387,0.00002429,-0.0000176
 4,0.00001124,-0.02162913,-0.02183725,0.01246867,0.00223621,-0.00561536
 ,-0.00183751,-0.11146307,-0.14840982,0.06550174,0.12209608,0.16451852,
 -0.00002107,-0.00000763,0.00006917,0.00005423,-0.00001683,0.00001526,-
 0.00000144,-0.00002189,-0.00001382,-0.00007171,0.00012252,-0.00001149,
 -0.00001630,-0.00001012,-0.00000355,0.00040406,0.00035279,0.00000856,0
 .00001293,-0.00014642,-0.00014038,0.00009117,-0.00008455,0.00027555,-0
 .00007202,-0.00005648,-0.00010859,0.00000040,-0.00000112,0.00000518,-0
 .00520907,-0.00435027,0.00167627,0.00015058,-0.00159068,0.00051321,0.0
 7035324,0.06594217,-0.08815018,-0.07814419,-0.07083637,0.09086736,0.00
 008072,0.00018038,-0.00019247,-0.00042713,0.00003046,-0.00025727,-0.00
 004473,0.00001348,-0.00008993,-0.00038250,-0.00016181,0.00055662,0.000
 03645,0.00005512,-0.00000042,0.00083811,0.00206893,0.00024791,0.000144
 91,0.00039682,-0.00014871,0.00010465,-0.00008559,-0.00016030,0.0001009
 3,0.00007781,0.00013387,-0.00006096,-0.00001683,0.00000762,-0.00624645
 ,-0.00026361,-0.00293083,0.00063669,0.00028260,0.00007803,-0.26159717,
 0.05209580,-0.08942950,-0.01800538,0.00513345,-0.00836189,0.28210989,0
 .00011794,-0.00016594,-0.00006241,0.00020077,0.00016992,0.00049798,0.0
 0009785,-0.00006339,0.00012840,0.00106962,0.00011892,-0.00006296,-0.00
 005043,-0.00017188,-0.00008533,-0.00015600,-0.00558671,-0.00231965,-0.
 00014298,-0.00016485,0.00040325,0.00006379,0.00006085,-0.00029774,0.00
 014384,0.00014850,0.00036857,0.00010563,0.00002250,0.00000382,0.028986
 44,-0.00691711,0.01158845,-0.00056755,0.00131802,0.00053601,0.05080196
 ,-0.05858472,0.02142320,-0.01746849,0.00467691,-0.00903412,-0.05831243
 ,0.06384635,-0.00004380,-0.00007614,0.00010043,0.00007377,-0.00007226,
 0.00007407,0.00001244,0.00001314,0.00001975,0.00022092,-0.00002694,0.0
 0017612,-0.00000807,-0.00001253,-0.00002858,0.00016039,-0.00096151,0.0
 0071515,0.00029331,0.00006345,0.00017404,-0.00007069,0.00002301,0.0000
 7049,-0.00013652,0.00002357,-0.00018193,-0.00000112,-0.00000917,-0.000
 01205,0.00661554,-0.00105392,0.00102491,-0.00023763,0.00037675,0.00005
 441,-0.09045214,0.02187702,-0.08604712,0.01197095,-0.00393620,0.004868
 26,0.09947542,-0.02290305,0.08819181,-0.00005548,-0.00001695,0.0000301
 0,0.00004852,-0.00002280,-0.00000402,0.00000558,-0.00000685,0.00000866
 ,0.00009738,0.00004333,-0.00016913,-0.00001499,0.00001390,0.00002789,0
 .00032692,-0.00008484,0.00100770,-0.00003404,-0.00031761,0.00004333,0.
 00003154,0.00010268,0.00006360,-0.00002680,-0.00000584,-0.00014854,-0.
 00000251,0.00000867,0.00000570,-0.00209504,0.00060492,0.00751615,0.000
 14040,-0.00012388,-0.00043877,-0.04769518,0.00056750,0.00551222,-0.000
 25442,0.00403946,0.02160505,0.00214857,-0.00438433,-0.02856399,0.04643
 286,-0.00008007,-0.00003165,0.00005844,0.00007997,-0.00011291,0.000016
 46,0.00000980,-0.00000481,-0.00000563,-0.00011549,0.00014490,0.0002124
 8,-0.00004360,-0.00004631,0.00001268,-0.00116112,0.00122615,-0.0007964
 6,0.00019440,0.00003461,0.00023655,-0.00002283,0.00004885,0.00004121,-
 0.00001385,0.00004830,-0.00020970,0.00001096,-0.00000317,0.00001634,0.
 00131760,-0.00353917,-0.03103660,-0.00062980,0.00132900,0.00046504,0.0
 0067836,-0.05104261,-0.03431603,0.00101443,0.00279430,0.01991992,-0.00
 101705,-0.00004768,0.00690760,-0.00229537,0.05577758,0.00003445,0.0000
 2173,0.00006378,-0.00004797,-0.00010915,-0.00002203,0.00002030,-0.0000
 1087,0.00002003,0.00043454,-0.00022838,0.00027839,0.00003145,0.0000077
 7,-0.00001440,-0.00083069,0.00058213,0.00074529,0.00049079,0.00013512,
 0.00004155,-0.00003459,-0.00005713,0.00005673,-0.00001374,-0.00004425,
 -0.00008886,0.00001974,-0.00000325,-0.00000345,-0.00021623,0.00047878,
 -0.00556400,-0.00019352,-0.00034862,0.00040131,0.00659070,-0.03630815,
 -0.31111347,-0.00040596,-0.00163499,-0.01115904,0.00070227,-0.00105910
 ,-0.00987564,-0.00697357,0.04075531,0.33537320,0.00010162,0.00044289,-
 0.00071933,-0.00151627,0.00118410,0.00026581,-0.00025523,0.00025935,-0
 .00012361,-0.00218806,-0.00133080,0.00014212,0.00026124,-0.00005395,-0
 .00038470,-0.00038836,-0.00313014,-0.03229973,-0.00105061,0.00038039,-
 0.00156372,-0.00026179,-0.00012161,-0.00015949,0.00051220,0.00040445,0
 .00044424,-0.00010100,-0.00005317,0.00005860,-0.07737339,-0.00202903,0
 .00213255,0.00013429,0.00406624,0.02312219,-0.00018319,0.00147089,0.00
 836601,0.00048078,-0.00039994,-0.00094575,0.00008751,0.00012805,0.0005
 6853,0.00010882,0.00192155,0.00042070,0.57382953,0.00017989,0.00015585
 ,0.00006204,0.00007400,-0.00064634,-0.00035569,0.00008171,-0.00006295,
 0.00014967,0.00192380,-0.00054398,0.00053751,0.00001183,0.00033290,0.0
 0021488,-0.00030887,0.00009208,0.00804477,-0.00049566,0.00043398,0.000
 15198,-0.00009216,-0.00004568,0.00010346,0.00019260,-0.00031787,0.0001
 0638,0.00006071,0.00004740,0.00001763,-0.00171046,-0.07643403,-0.01203
 599,0.00064116,0.00315552,0.01950672,0.00221774,-0.00929535,-0.0375450
 5,-0.00023739,0.00156946,-0.00042325,-0.00061995,0.00130213,-0.0001458
 9,0.00175571,-0.00637163,-0.00232370,-0.00453343,0.57860384,0.00014650
 ,-0.00009110,-0.00009349,-0.00036982,0.00042132,0.00038546,0.00000511,
 0.00002102,0.00005481,0.00007730,-0.00137724,0.00048260,0.00004754,-0.
 00022236,-0.00016910,-0.01018585,0.00139984,-0.01950926,0.00138757,-0.
 00015848,0.00042976,-0.00019893,0.00008535,-0.00034098,0.00018640,0.00
 063108,0.00001251,0.00013846,-0.00007649,-0.00003030,0.00646712,-0.016
 57750,-0.19006281,-0.00017859,-0.00250542,-0.01675273,0.00223556,-0.00
 682008,-0.01347925,-0.00057036,0.00140959,0.00105102,-0.00023086,0.001
 30712,0.00052146,0.00003116,-0.00041081,0.00103316,0.00108711,-0.01101
 797,0.47245191,-0.00004407,-0.00006429,-0.00000475,0.00002943,0.000006
 43,0.00007822,0.00001133,-0.00000847,0.00001233,0.00015078,0.00007244,
 0.00002431,-0.00000833,-0.00002598,-0.00000921,0.00019880,-0.00084673,
 -0.00031283,0.00007304,-0.00012695,0.00021409,0.00004974,-0.00006231,-
 0.00009555,-0.00007550,0.00018595,0.00001046,0.00000718,-0.00000667,-0
 .00000696,-0.00175135,-0.00019978,-0.00036390,-0.00007408,0.00023174,-
 0.00005768,0.00057573,-0.00005570,0.00019457,0.00002949,0.00032404,-0.
 00004413,0.00028717,-0.00031532,0.00005008,0.00049902,0.00014243,0.000
 06558,-0.06078978,0.05714979,0.01282174,0.06045739,-0.00006719,0.00003
 251,0.00001994,0.00009019,-0.00000447,-0.00006750,-0.00001888,0.000015
 55,-0.00001129,-0.00040802,0.00019856,-0.00032472,-0.00003410,-0.00002
 509,0.00000637,0.00050096,0.00069728,0.00060457,-0.00048125,-0.0001103
 2,0.00004502,0.00003861,0.00005337,-0.00007523,0.00001768,-0.00002325,
 -0.00005361,-0.00001621,-0.00001033,-0.00000956,0.00046371,-0.00297766
 ,0.00054492,0.00013633,0.00049757,-0.00040333,-0.00000217,0.00121437,-
 0.00170060,0.00002735,0.00029363,0.00014378,-0.00000410,0.00004595,0.0
 0017731,0.00015730,-0.00034020,-0.00013801,0.05655319,-0.29041083,-0.0
 5571525,-0.06253175,0.31231653,0.00004873,0.00006834,-0.00000191,-0.00
 002813,0.00000931,-0.00011666,-0.00000757,-0.00000652,-0.00000706,0.00
 001787,0.00029002,0.00014958,0.00004117,0.00001818,-0.00003797,0.00122
 513,-0.00076070,0.00144852,-0.00029008,0.00016470,0.00006847,0.0000200
 6,0.00003118,0.00002640,0.00002919,-0.00017199,0.00002784,-0.00001541,
 0.00001091,-0.00000757,0.00615080,-0.03129783,-0.00644884,0.00024791,0
 .00054121,0.00142832,-0.00038101,0.00015286,-0.00700758,-0.00015827,0.
 00005335,0.00005695,0.00013726,0.00020494,0.00013872,0.00052116,-0.002
 09370,-0.00055071,0.01213595,-0.05373041,-0.05888744,-0.01385788,0.061
 56118,0.06510411,0.00006842,0.00019256,-0.00009160,-0.00034722,0.00006
 586,-0.00011151,-0.00003119,0.00004909,-0.00000559,-0.00001691,-0.0005
 6488,0.00006807,0.00002028,0.00002846,-0.00000991,0.00089145,0.0002874
 9,-0.00042550,0.00026196,0.00010275,-0.00023953,0.00003513,0.00021581,
 0.00008624,0.00014706,-0.00011941,-0.00009770,-0.00003807,-0.00001288,
 0.00000600,0.00075214,0.00028631,0.00208202,0.00058703,-0.00002524,-0.
 00052074,0.00021195,-0.00015767,0.00037187,-0.00000823,0.00003185,-0.0
 0007832,0.00021096,-0.00027998,0.00001928,0.00026395,-0.00014883,-0.00
 001101,-0.26179280,0.05151446,-0.09075117,-0.00516874,0.00072563,-0.00
 152605,0.28211657,0.00004938,0.00015735,-0.00005577,-0.00010260,0.0000
 4093,-0.00011546,-0.00001618,0.00001559,0.00001558,-0.00016706,0.00004
 379,-0.00004698,0.00001197,-0.00001270,0.00000144,-0.00008849,0.000999
 85,-0.00054790,-0.00027266,0.00007859,-0.00003891,0.00005656,0.0001563
 2,0.00004987,0.00021179,-0.00020061,-0.00000302,0.00000631,-0.00001154
 ,-0.00000824,-0.00385430,-0.00065608,-0.00095401,0.00025103,0.00000658
 ,0.00019941,-0.00054842,0.00029750,-0.00024563,-0.00006644,-0.00003293
 ,0.00005078,0.00007644,0.00003390,-0.00034233,-0.00008257,0.00005381,0
 .00016218,0.05228601,-0.06053697,0.02165262,0.02716172,-0.00476739,0.0
 1203026,-0.05768481,0.05976652,-0.00003805,-0.00001126,-0.00022974,-0.
 00043221,0.00046347,0.00011540,-0.00012142,0.00012646,-0.00007777,-0.0
 0110812,-0.00039495,-0.00011273,0.00011029,-0.00005264,-0.00016860,0.0
 0200599,-0.00136878,-0.00588785,0.00008419,0.00049634,-0.00019170,0.00
 000927,-0.00025797,0.00006573,-0.00019544,0.00026031,0.00012181,-0.000
 11523,-0.00002382,-0.00000046,-0.03007770,0.00657742,-0.01220255,0.000
 32089,0.00047801,0.00139683,-0.00072482,0.00111121,0.00140083,0.000068
 11,-0.00012950,-0.00005214,0.00045830,-0.00049168,0.00004418,0.0002971
 1,0.00023570,0.00015359,-0.08922347,0.02129704,-0.08378747,0.00702306,
 -0.00063322,0.00207509,0.09930591,-0.02331139,0.09222475,-0.00001179,0
 .00007488,0.00005259,0.00006094,-0.00004014,-0.00001537,0.00002235,-0.
 00002445,0.00000365,-0.00001491,0.00011012,0.00002641,-0.00000549,0.00
 000960,0.00000944,0.00016140,0.00084361,0.00010419,-0.00022342,-0.0003
 9402,-0.00045366,-0.00044480,0.00000276,-0.00073632,0.00014021,0.00002
 066,-0.00011088,0.00003763,-0.00002269,-0.00001836,-0.00039503,-0.0000
 2158,0.00010108,0.00108969,0.00028129,-0.00010135,0.00016130,0.0000717
 3,0.00005701,-0.00008834,0.00027520,0.00029423,-0.00002224,-0.00003838
 ,0.00005335,0.00007489,0.00015852,-0.00008327,-0.16961552,-0.10780547,
 0.07785399,0.00554275,0.00485272,-0.00431080,-0.01816373,-0.01722768,0
 .01235332,0.18169412,0.00001250,0.00012041,-0.00000607,-0.00007425,-0.
 00000176,-0.00004322,0.00001450,-0.00001626,-0.00001868,0.00008575,-0.
 00001891,0.00015967,0.00002367,0.00001178,-0.00000571,-0.00053667,0.00
 007482,0.00015249,0.00000168,-0.00021725,-0.00018677,-0.00016594,0.000
 25820,-0.00030579,0.00018430,-0.00009435,-0.00006591,0.00000697,0.0000
 0010,-0.00000189,0.00362000,0.00162842,-0.00164662,0.00033950,0.000869
 63,-0.00107386,0.00081239,0.00118468,-0.00024961,-0.00033316,0.0002861
 8,0.00004777,0.00007005,-0.00004167,0.00007808,0.00004759,0.00008265,0
 .00012259,-0.10744503,-0.14102753,0.06804476,-0.02103060,-0.01669580,0
 .01292472,0.00549344,0.00456748,-0.00437077,0.11887331,0.14902918,-0.0
 0018207,-0.00039511,0.00023537,0.00048349,-0.00002677,0.00019221,-0.00
 000205,-0.00001503,-0.00003232,-0.00050839,0.00052801,-0.00029321,-0.0
 0007025,-0.00011438,0.00003598,0.00125158,-0.00031754,0.00179503,0.000
 19420,0.00026251,-0.00011220,-0.00053727,-0.00050640,-0.00025908,-0.00
 054154,0.00019090,-0.00010388,-0.00001388,0.00000277,-0.00002737,0.023
 23715,0.01989051,-0.01611002,-0.00038463,-0.00141188,-0.00641972,-0.00
 012782,0.00143512,0.00176148,-0.00021598,-0.00073561,0.00023240,0.0000
 0488,-0.00014570,-0.00002848,-0.00037182,-0.00000879,0.00022456,0.0766
 7597,0.06738585,-0.09330984,-0.00574156,-0.00397078,0.00254175,-0.0080
 7077,-0.00849250,0.00511282,-0.08507922,-0.07355518,0.10456453\\-0.000
 00256,-0.00000158,0.00000329,-0.00000336,-0.00000069,0.00000241,-0.000
 00469,-0.00000009,0.00000248,-0.00000232,0.00000041,0.00000070,-0.0000
 0305,0.00000118,0.00000007,-0.00000043,-0.00000012,0.00000038,0.000000
 35,-0.00000124,0.00000136,0.00000184,-0.00000146,0.00000095,-0.0000004
 4,-0.00000172,0.00000244,0.00000020,-0.00000287,0.00000339,0.00000043,
 0.00000084,-0.00000128,-0.00000052,0.00000163,-0.00000179,0.00000133,0
 .00000128,-0.00000225,0.00000235,0.00000049,-0.00000179,0.00000196,0.0
 0000192,-0.00000339,0.00000032,0.00000174,-0.00000235,0.00000190,0.000
 00020,-0.00000117,0.00000127,-0.00000011,-0.00000049,0.00000251,0.0000
 0083,-0.00000229,0.00000291,-0.00000062,-0.00000066\\\@
 The archive entry for this job was punched.


 There was a great rattling of the words for the fewness of ideas.
                   -- Charles Baxter in Gryphon
 Job cpu time:       0 days  0 hours 58 minutes 52.9 seconds.
 Elapsed time:       0 days  0 hours  1 minutes 55.4 seconds.
 File lengths (MBytes):  RWF=    171 Int=      0 D2E=      0 Chk=     16 Scr=      1
 Normal termination of Gaussian 16 at Tue May 27 07:54:13 2025.
