/home/tahminaafroz
cn018.cluster.local
tahminaafroz
Mon Apr 21 18:16:40 CDT 2025
 Entering Gaussian System, Link 0=g16
 Initial command:
 /home/apps/g16/l1.exe "/tmp/4-isopropyl-phboh2-opt-freq/Gau-779746.inp" -scrdir="/tmp/4-isopropyl-phboh2-opt-freq/"
 Entering Link 1 = /home/apps/g16/l1.exe PID=    779747.
  
 Copyright (c) 1988-2019, Gaussian, Inc.  All Rights Reserved.
  
 This is part of the Gaussian(R) 16 program.  It is based on
 the Gaussian(R) 09 system (copyright 2009, Gaussian, Inc.),
 the Gaussian(R) 03 system (copyright 2003, Gaussian, Inc.),
 the Gaussian(R) 98 system (copyright 1998, Gaussian, Inc.),
 the Gaussian(R) 94 system (copyright 1995, Gaussian, Inc.),
 the Gaussian 92(TM) system (copyright 1992, Gaussian, Inc.),
 the Gaussian 90(TM) system (copyright 1990, Gaussian, Inc.),
 the Gaussian 88(TM) system (copyright 1988, Gaussian, Inc.),
 the Gaussian 86(TM) system (copyright 1986, Carnegie Mellon
 University), and the Gaussian 82(TM) system (copyright 1983,
 Carnegie Mellon University). Gaussian is a federally registered
 trademark of Gaussian, Inc.
  
 This software contains proprietary and confidential information,
 including trade secrets, belonging to Gaussian, Inc.
  
 This software is provided under written license and may be
 used, copied, transmitted, or stored only in accord with that
 written license.
  
 The following legend is applicable only to US Government
 contracts under FAR:
  
                    RESTRICTED RIGHTS LEGEND
  
 Use, reproduction and disclosure by the US Government is
 subject to restrictions as set forth in subparagraphs (a)
 and (c) of the Commercial Computer Software - Restricted
 Rights clause in FAR 52.227-19.
  
 Gaussian, Inc.
 340 Quinnipiac St., Bldg. 40, Wallingford CT 06492
  
  
 ---------------------------------------------------------------
 Warning -- This program may not be used in any manner that
 competes with the business of Gaussian, Inc. or will provide
 assistance to any competitor of Gaussian, Inc.  The licensee
 of this program is prohibited from giving any competitor of
 Gaussian, Inc. access to this program.  By using this program,
 the user acknowledges that Gaussian, Inc. is engaged in the
 business of creating and licensing software in the field of
 computational chemistry and represents and warrants to the
 licensee that it is not a competitor of Gaussian, Inc. and that
 it will not use this program in any manner prohibited above.
 ---------------------------------------------------------------
  

 Cite this work as:
 Gaussian 16, Revision C.01,
 M. J. Frisch, G. W. Trucks, H. B. Schlegel, G. E. Scuseria, 
 M. A. Robb, J. R. Cheeseman, G. Scalmani, V. Barone, 
 G. A. Petersson, H. Nakatsuji, X. Li, M. Caricato, A. V. Marenich, 
 J. Bloino, B. G. Janesko, R. Gomperts, B. Mennucci, H. P. Hratchian, 
 J. V. Ortiz, A. F. Izmaylov, J. L. Sonnenberg, D. Williams-Young, 
 F. Ding, F. Lipparini, F. Egidi, J. Goings, B. Peng, A. Petrone, 
 T. Henderson, D. Ranasinghe, V. G. Zakrzewski, J. Gao, N. Rega, 
 G. Zheng, W. Liang, M. Hada, M. Ehara, K. Toyota, R. Fukuda, 
 J. Hasegawa, M. Ishida, T. Nakajima, Y. Honda, O. Kitao, H. Nakai, 
 T. Vreven, K. Throssell, J. A. Montgomery, Jr., J. E. Peralta, 
 F. Ogliaro, M. J. Bearpark, J. J. Heyd, E. N. Brothers, K. N. Kudin, 
 V. N. Staroverov, T. A. Keith, R. Kobayashi, J. Normand, 
 K. Raghavachari, A. P. Rendell, J. C. Burant, S. S. Iyengar, 
 J. Tomasi, M. Cossi, J. M. Millam, M. Klene, C. Adamo, R. Cammi, 
 J. W. Ochterski, R. L. Martin, K. Morokuma, O. Farkas, 
 J. B. Foresman, and D. J. Fox, Gaussian, Inc., Wallingford CT, 2019.
 
 ******************************************
 Gaussian 16:  AS64L-G16RevC.01  3-Jul-2019
                21-Apr-2025 
 ******************************************
 %mem=20GB
 %nprocshared=32
 Will use up to   32 processors via shared memory.
 %chk=4-isopropyl-phboh2-opt-freq.chk
 ----------------------------------------------------------------------
 # opt=(calcfc,tight) freq 6-311+g(d,p) nosymm scf=(qc,fermi,xqc) geom=
 connectivity int=ultrafine m062x
 ----------------------------------------------------------------------
 1/7=10,10=4,18=20,19=15,26=4,38=1,57=2/1,3;
 2/9=110,12=2,15=1,17=6,18=5,40=1/2;
 3/5=4,6=6,7=111,11=2,25=1,30=1,71=2,74=-55,75=-5,140=1/1,2,3;
 4//1;
 5/5=2,22=13,38=5/2;
 8/6=4,10=90,11=11/1;
 11/6=1,8=1,9=11,15=111,16=1,31=1/1,2,10;
 10/6=1,13=1,31=1/2;
 6/7=2,8=2,9=2,10=2,28=1/1;
 7/10=1,25=1,30=1/1,2,3,16;
 1/7=10,10=4,18=20,19=15,26=4/3(2);
 2/9=110,15=1/2;
 99//99;
 2/9=110,15=1/2;
 3/5=4,6=6,7=111,11=2,25=1,30=1,71=1,74=-55,75=-5/1,2,3;
 4/5=5,16=3,69=1/1;
 5/5=2,22=13,38=5/2;
 7/30=1/1,2,3,16;
 1/7=10,18=20,19=15,26=4/3(-5);
 2/9=110,15=1/2;
 6/7=2,8=2,9=2,10=2,19=2,28=1/1;
 99/9=1/99;
 ---------------------------
 4-isopropyl-phboh2-opt-freq
 ---------------------------
 Symbolic Z-matrix:
 Charge =  0 Multiplicity = 1
 O                     8.6937    7.4516    5.54165 
 H                     9.50219   7.13774   5.95654 
 C                     6.24551   6.99743   5.17177 
 B                     7.64171   6.61653   5.77197 
 O                     7.87495   5.49385   6.5199 
 H                     7.09974   4.95193   6.67447 
 C                     5.12292   6.1708    5.28852 
 H                     5.19038   5.21599   5.80391 
 C                     3.89549   6.53793   4.7481 
 H                     3.03837   5.88269   4.84886 
 C                     3.77272   7.74979   4.07563 
 C                     4.87718   8.58681   3.94549 
 H                     4.78267   9.53028   3.42076 
 C                     6.10033   8.21073   4.48781 
 H                     6.96312   8.85954   4.38658 
 C                     2.41595   8.16256   3.47529 
 H                     1.62474   7.78273   4.08735 
 C                     2.32686   9.69884   3.4161 
 H                     2.98872   10.0656   2.65958 
 H                     1.3236    9.98923   3.18362 
 H                     2.60635   10.1091   4.36398 
 C                     2.28702   7.58572   2.05324 
 H                     2.31125   6.51694   2.09833 
 H                     1.3608    7.90361   1.62202 
 H                     3.09944   7.93581   1.45132 
 

 GradGradGradGradGradGradGradGradGradGradGradGradGradGradGradGradGradGrad
 Berny optimization.
 Initialization pass.
                           ----------------------------
                           !    Initial Parameters    !
                           ! (Angstroms and Degrees)  !
 --------------------------                            --------------------------
 ! Name  Definition              Value          Derivative Info.                !
 --------------------------------------------------------------------------------
 ! R1    R(1,2)                  0.9614         calculate D2E/DX2 analytically  !
 ! R2    R(1,4)                  1.3627         calculate D2E/DX2 analytically  !
 ! R3    R(3,4)                  1.5667         calculate D2E/DX2 analytically  !
 ! R4    R(3,7)                  1.399          calculate D2E/DX2 analytically  !
 ! R5    R(3,14)                 1.4003         calculate D2E/DX2 analytically  !
 ! R6    R(4,5)                  1.369          calculate D2E/DX2 analytically  !
 ! R7    R(5,6)                  0.9584         calculate D2E/DX2 analytically  !
 ! R8    R(7,8)                  1.0871         calculate D2E/DX2 analytically  !
 ! R9    R(7,9)                  1.3905         calculate D2E/DX2 analytically  !
 ! R10   R(9,10)                 1.0836         calculate D2E/DX2 analytically  !
 ! R11   R(9,11)                 1.3914         calculate D2E/DX2 analytically  !
 ! R12   R(11,12)                1.3919         calculate D2E/DX2 analytically  !
 ! R13   R(11,16)                1.54           calculate D2E/DX2 analytically  !
 ! R14   R(12,13)                1.0837         calculate D2E/DX2 analytically  !
 ! R15   R(12,14)                1.3898         calculate D2E/DX2 analytically  !
 ! R16   R(14,15)                1.0843         calculate D2E/DX2 analytically  !
 ! R17   R(16,17)                1.07           calculate D2E/DX2 analytically  !
 ! R18   R(16,18)                1.54           calculate D2E/DX2 analytically  !
 ! R19   R(16,22)                1.54           calculate D2E/DX2 analytically  !
 ! R20   R(18,19)                1.07           calculate D2E/DX2 analytically  !
 ! R21   R(18,20)                1.07           calculate D2E/DX2 analytically  !
 ! R22   R(18,21)                1.07           calculate D2E/DX2 analytically  !
 ! R23   R(22,23)                1.07           calculate D2E/DX2 analytically  !
 ! R24   R(22,24)                1.07           calculate D2E/DX2 analytically  !
 ! R25   R(22,25)                1.07           calculate D2E/DX2 analytically  !
 ! A1    A(2,1,4)              112.0983         calculate D2E/DX2 analytically  !
 ! A2    A(4,3,7)              122.6467         calculate D2E/DX2 analytically  !
 ! A3    A(4,3,14)             119.3501         calculate D2E/DX2 analytically  !
 ! A4    A(7,3,14)             118.0032         calculate D2E/DX2 analytically  !
 ! A5    A(1,4,3)              118.3077         calculate D2E/DX2 analytically  !
 ! A6    A(1,4,5)              117.6027         calculate D2E/DX2 analytically  !
 ! A7    A(3,4,5)              124.0894         calculate D2E/DX2 analytically  !
 ! A8    A(4,5,6)              114.4569         calculate D2E/DX2 analytically  !
 ! A9    A(3,7,8)              120.5799         calculate D2E/DX2 analytically  !
 ! A10   A(3,7,9)              121.3254         calculate D2E/DX2 analytically  !
 ! A11   A(8,7,9)              118.0941         calculate D2E/DX2 analytically  !
 ! A12   A(7,9,10)             120.1633         calculate D2E/DX2 analytically  !
 ! A13   A(7,9,11)             119.7161         calculate D2E/DX2 analytically  !
 ! A14   A(10,9,11)            120.1206         calculate D2E/DX2 analytically  !
 ! A15   A(9,11,12)            119.9297         calculate D2E/DX2 analytically  !
 ! A16   A(9,11,16)            119.9738         calculate D2E/DX2 analytically  !
 ! A17   A(12,11,16)           120.0964         calculate D2E/DX2 analytically  !
 ! A18   A(11,12,13)           119.9739         calculate D2E/DX2 analytically  !
 ! A19   A(11,12,14)           119.9423         calculate D2E/DX2 analytically  !
 ! A20   A(13,12,14)           120.0838         calculate D2E/DX2 analytically  !
 ! A21   A(3,14,12)            121.0828         calculate D2E/DX2 analytically  !
 ! A22   A(3,14,15)            118.7874         calculate D2E/DX2 analytically  !
 ! A23   A(12,14,15)           120.1298         calculate D2E/DX2 analytically  !
 ! A24   A(11,16,17)           109.4712         calculate D2E/DX2 analytically  !
 ! A25   A(11,16,18)           109.4712         calculate D2E/DX2 analytically  !
 ! A26   A(11,16,22)           109.4712         calculate D2E/DX2 analytically  !
 ! A27   A(17,16,18)           109.4712         calculate D2E/DX2 analytically  !
 ! A28   A(17,16,22)           109.4713         calculate D2E/DX2 analytically  !
 ! A29   A(18,16,22)           109.4712         calculate D2E/DX2 analytically  !
 ! A30   A(16,18,19)           109.4712         calculate D2E/DX2 analytically  !
 ! A31   A(16,18,20)           109.4712         calculate D2E/DX2 analytically  !
 ! A32   A(16,18,21)           109.4712         calculate D2E/DX2 analytically  !
 ! A33   A(19,18,20)           109.4713         calculate D2E/DX2 analytically  !
 ! A34   A(19,18,21)           109.4712         calculate D2E/DX2 analytically  !
 ! A35   A(20,18,21)           109.4712         calculate D2E/DX2 analytically  !
 ! A36   A(16,22,23)           109.4712         calculate D2E/DX2 analytically  !
 ! A37   A(16,22,24)           109.4712         calculate D2E/DX2 analytically  !
 ! A38   A(16,22,25)           109.4712         calculate D2E/DX2 analytically  !
 ! A39   A(23,22,24)           109.4713         calculate D2E/DX2 analytically  !
 ! A40   A(23,22,25)           109.4712         calculate D2E/DX2 analytically  !
 ! A41   A(24,22,25)           109.4712         calculate D2E/DX2 analytically  !
 ! D1    D(2,1,4,3)            179.4321         calculate D2E/DX2 analytically  !
 ! D2    D(2,1,4,5)             -0.4323         calculate D2E/DX2 analytically  !
 ! D3    D(7,3,4,1)            176.3571         calculate D2E/DX2 analytically  !
 ! D4    D(7,3,4,5)             -3.788          calculate D2E/DX2 analytically  !
 ! D5    D(14,3,4,1)            -3.617          calculate D2E/DX2 analytically  !
 ! D6    D(14,3,4,5)           176.2379         calculate D2E/DX2 analytically  !
 ! D7    D(4,3,7,8)             -0.4723         calculate D2E/DX2 analytically  !
 ! D8    D(4,3,7,9)            179.8225         calculate D2E/DX2 analytically  !
 ! D9    D(14,3,7,8)           179.5021         calculate D2E/DX2 analytically  !
 ! D10   D(14,3,7,9)            -0.2031         calculate D2E/DX2 analytically  !
 ! D11   D(4,3,14,12)         -179.7549         calculate D2E/DX2 analytically  !
 ! D12   D(4,3,14,15)            0.2004         calculate D2E/DX2 analytically  !
 ! D13   D(7,3,14,12)            0.2698         calculate D2E/DX2 analytically  !
 ! D14   D(7,3,14,15)         -179.7749         calculate D2E/DX2 analytically  !
 ! D15   D(1,4,5,6)            178.3759         calculate D2E/DX2 analytically  !
 ! D16   D(3,4,5,6)             -1.48           calculate D2E/DX2 analytically  !
 ! D17   D(3,7,9,10)           179.9449         calculate D2E/DX2 analytically  !
 ! D18   D(3,7,9,11)             0.0287         calculate D2E/DX2 analytically  !
 ! D19   D(8,7,9,10)             0.2326         calculate D2E/DX2 analytically  !
 ! D20   D(8,7,9,11)          -179.6836         calculate D2E/DX2 analytically  !
 ! D21   D(7,9,11,12)            0.0852         calculate D2E/DX2 analytically  !
 ! D22   D(7,9,11,16)         -179.9745         calculate D2E/DX2 analytically  !
 ! D23   D(10,9,11,12)        -179.831          calculate D2E/DX2 analytically  !
 ! D24   D(10,9,11,16)           0.1093         calculate D2E/DX2 analytically  !
 ! D25   D(9,11,12,13)         179.9215         calculate D2E/DX2 analytically  !
 ! D26   D(9,11,12,14)          -0.0192         calculate D2E/DX2 analytically  !
 ! D27   D(16,11,12,13)         -0.0187         calculate D2E/DX2 analytically  !
 ! D28   D(16,11,12,14)       -179.9595         calculate D2E/DX2 analytically  !
 ! D29   D(9,11,16,17)          32.7435         calculate D2E/DX2 analytically  !
 ! D30   D(9,11,16,18)         152.7435         calculate D2E/DX2 analytically  !
 ! D31   D(9,11,16,22)         -87.2565         calculate D2E/DX2 analytically  !
 ! D32   D(12,11,16,17)       -147.3163         calculate D2E/DX2 analytically  !
 ! D33   D(12,11,16,18)        -27.3163         calculate D2E/DX2 analytically  !
 ! D34   D(12,11,16,22)         92.6837         calculate D2E/DX2 analytically  !
 ! D35   D(11,12,14,3)          -0.1625         calculate D2E/DX2 analytically  !
 ! D36   D(11,12,14,15)        179.8828         calculate D2E/DX2 analytically  !
 ! D37   D(13,12,14,3)         179.8968         calculate D2E/DX2 analytically  !
 ! D38   D(13,12,14,15)         -0.0579         calculate D2E/DX2 analytically  !
 ! D39   D(11,16,18,19)         71.0553         calculate D2E/DX2 analytically  !
 ! D40   D(11,16,18,20)       -168.9447         calculate D2E/DX2 analytically  !
 ! D41   D(11,16,18,21)        -48.9447         calculate D2E/DX2 analytically  !
 ! D42   D(17,16,18,19)       -168.9448         calculate D2E/DX2 analytically  !
 ! D43   D(17,16,18,20)        -48.9447         calculate D2E/DX2 analytically  !
 ! D44   D(17,16,18,21)         71.0552         calculate D2E/DX2 analytically  !
 ! D45   D(22,16,18,19)        -48.9447         calculate D2E/DX2 analytically  !
 ! D46   D(22,16,18,20)         71.0553         calculate D2E/DX2 analytically  !
 ! D47   D(22,16,18,21)       -168.9447         calculate D2E/DX2 analytically  !
 ! D48   D(11,16,22,23)         62.1531         calculate D2E/DX2 analytically  !
 ! D49   D(11,16,22,24)       -177.8469         calculate D2E/DX2 analytically  !
 ! D50   D(11,16,22,25)        -57.8469         calculate D2E/DX2 analytically  !
 ! D51   D(17,16,22,23)        -57.8469         calculate D2E/DX2 analytically  !
 ! D52   D(17,16,22,24)         62.1531         calculate D2E/DX2 analytically  !
 ! D53   D(17,16,22,25)       -177.8469         calculate D2E/DX2 analytically  !
 ! D54   D(18,16,22,23)       -177.8469         calculate D2E/DX2 analytically  !
 ! D55   D(18,16,22,24)        -57.8469         calculate D2E/DX2 analytically  !
 ! D56   D(18,16,22,25)         62.1531         calculate D2E/DX2 analytically  !
 --------------------------------------------------------------------------------
 Trust Radius=3.00D-01 FncErr=1.00D-07 GrdErr=1.00D-06 EigMax=2.50D+02 EigMin=1.00D-04
 Number of steps in this run=    132 maximum allowed number of steps=    150.
 GradGradGradGradGradGradGradGradGradGradGradGradGradGradGradGradGradGrad

                          Input orientation:                          
 ---------------------------------------------------------------------
 Center     Atomic      Atomic             Coordinates (Angstroms)
 Number     Number       Type             X           Y           Z
 ---------------------------------------------------------------------
      1          8           0        8.693701    7.451595    5.541649
      2          1           0        9.502193    7.137737    5.956544
      3          6           0        6.245510    6.997434    5.171772
      4          5           0        7.641708    6.616527    5.771970
      5          8           0        7.874947    5.493847    6.519897
      6          1           0        7.099744    4.951929    6.674467
      7          6           0        5.122923    6.170805    5.288524
      8          1           0        5.190378    5.215994    5.803906
      9          6           0        3.895492    6.537926    4.748104
     10          1           0        3.038365    5.882688    4.848858
     11          6           0        3.772716    7.749791    4.075628
     12          6           0        4.877176    8.586807    3.945493
     13          1           0        4.782667    9.530279    3.420756
     14          6           0        6.100328    8.210725    4.487806
     15          1           0        6.963122    8.859535    4.386577
     16          6           0        2.415948    8.162558    3.475292
     17          1           0        1.624738    7.782725    4.087349
     18          6           0        2.326857    9.698839    3.416104
     19          1           0        2.988719   10.065605    2.659585
     20          1           0        1.323601    9.989232    3.183622
     21          1           0        2.606351   10.109096    4.363982
     22          6           0        2.287022    7.585719    2.053239
     23          1           0        2.311248    6.516944    2.098330
     24          1           0        1.360796    7.903607    1.622016
     25          1           0        3.099443    7.935815    1.451321
 ---------------------------------------------------------------------
                    Distance matrix (angstroms):
                    1          2          3          4          5
     1  O    0.000000
     2  H    0.961407   0.000000
     3  C    2.517282   3.352840   0.000000
     4  B    1.362746   1.940910   1.566747   0.000000
     5  O    2.336687   2.380687   2.594856   1.369016   0.000000
     6  H    3.173690   3.326399   2.678040   1.969546   0.958388
     7  C    3.801967   4.534227   1.398981   2.603203   3.090014
     8  H    4.164128   4.723150   2.164815   2.823390   2.792267
     9  C    4.948466   5.766732   2.431713   3.884407   4.479443
    10  H    5.909675   6.677064   3.410676   4.751991   5.131870
    11  C    5.143368   6.061300   2.807540   4.373896   5.281291
    12  C    4.289788   5.247372   2.429445   3.854952   5.018026
    13  H    4.910733   5.867572   3.408998   4.710868   5.954801
    14  C    2.900422   3.857613   1.400344   2.562498   3.828850
    15  H    2.512248   3.446196   2.144509   2.722293   4.087828
    16  C    6.647216   7.577713   4.347540   5.913841   6.796493
    17  H    7.224602   8.121835   4.810841   6.356249   7.086704
    18  C    7.078471   8.031097   5.073046   6.580151   7.622125
    19  H    6.905516   7.865602   5.131417   6.575210   7.725167
    20  H    8.143603   9.094476   6.093340   7.615324   8.617387
    21  H    6.745742   7.675797   4.855764   6.287709   7.328478
    22  C    7.296063   8.215545   5.073555   6.590976   7.453313
    23  H    7.312027   8.184186   5.015510   6.474516   7.179954
    24  H    8.327024   9.255109   6.105927   7.637313   8.498844
    25  H    6.947012   7.869509   4.961859   6.406301   7.379641
                    6          7          8          9         10
     6  H    0.000000
     7  C    2.704500   0.000000
     8  H    2.115014   1.087121   0.000000
     9  C    4.061218   1.390474   2.130482   0.000000
    10  H    4.549061   2.149814   2.446989   1.083584   0.000000
    11  C    5.064693   2.405696   3.378881   1.391372   2.150170
    12  C    5.059589   2.775102   3.861887   2.409523   3.392573
    13  H    6.075917   3.858808   4.945572   3.391623   4.288005
    14  C    4.049700   2.399530   3.395371   2.779805   3.863384
    15  H    4.530176   3.380697   4.292649   3.864055   4.947630
    16  C    6.517730   3.818718   4.669277   2.539396   2.733477
    17  H    6.684481   4.034651   4.716828   2.672536   2.487645
    18  C    7.478672   4.875548   5.830716   3.771765   4.137878
    19  H    7.692170   5.160970   6.184883   4.198651   4.721459
    20  H    8.421654   5.783239   6.678447   4.579710   4.751540
    21  H    7.219785   4.764247   5.717781   3.816109   4.276010
    22  C    7.173207   4.528950   5.302130   3.308677   3.358618
    23  H    6.805880   4.266459   4.869616   3.087325   2.914856
    24  H    8.196047   5.531680   6.275123   4.249964   4.160632
    25  H    7.224073   4.683359   5.542060   3.668319   3.970178
                   11         12         13         14         15
    11  C    0.000000
    12  C    1.391892   0.000000
    13  H    2.149185   1.083707   0.000000
    14  C    2.408346   1.389835   2.148499   0.000000
    15  H    3.392184   2.149443   2.477315   1.084258   0.000000
    16  C    1.540000   2.541401   2.734044   3.821278   4.689671
    17  H    2.148263   3.353360   3.670260   4.513807   5.454118
    18  C    2.514810   2.832136   2.461592   4.195487   4.810530
    19  H    2.825389   2.721520   2.020941   4.057719   4.498109
    20  H    3.436413   3.895528   3.497429   5.261284   5.876012
    21  H    2.647617   2.765708   2.441527   3.978318   4.532479
    22  C    2.514809   3.360313   3.446689   4.567171   5.378939
    23  H    2.750547   3.778933   4.115448   4.789115   5.688914
    24  H    3.444014   4.269688   4.194130   5.547093   6.320020
    25  H    2.715674   3.131296   3.042077   4.277981   4.939332
                   16         17         18         19         20
    16  C    0.000000
    17  H    1.070000   0.000000
    18  C    1.540000   2.148263   0.000000
    19  H    2.148263   3.018360   1.070000   0.000000
    20  H    2.148263   2.403347   1.070000   1.747303   0.000000
    21  H    2.148263   2.540097   1.070000   1.747303   1.747303
    22  C    1.540000   2.148263   2.514809   2.647616   2.825389
    23  H    2.148263   2.455544   3.444014   3.656087   3.769628
    24  H    2.148263   2.482367   2.715674   2.898434   2.605730
    25  H    2.148263   3.024373   2.750548   2.451156   3.220404
                   21         22         23         24         25
    21  H    0.000000
    22  C    3.436414   0.000000
    23  H    4.257208   1.070000   0.000000
    24  H    3.732823   1.070000   1.747303   0.000000
    25  H    3.667408   1.070000   1.747303   1.747303   0.000000
 Symmetry turned off by external request.
 Stoichiometry    C9H13BO2
 Framework group  C1[X(C9H13BO2)]
 Deg. of freedom    69
 Full point group                 C1      NOp   1
 Rotational constants (GHZ):           2.4963172           0.4344573           0.3928789
 Standard basis: 6-311+G(d,p) (5D, 7F)
   342 basis functions,   536 primitive gaussians,   354 cartesian basis functions
    44 alpha electrons       44 beta electrons
       nuclear repulsion energy       654.4422566172 Hartrees.
 NAtoms=   25 NActive=   25 NUniq=   25 SFac= 1.00D+00 NAtFMM=   60 NAOKFM=F Big=F
 Integral buffers will be    131072 words long.
 Raffenetti 2 integral format.
 Two-electron integral symmetry is turned off.
 One-electron integrals computed using PRISM.
 NBasis=   342 RedAO= T EigKep=  1.22D-06  NBF=   342
 NBsUse=   342 1.00D-06 EigRej= -1.00D+00 NBFU=   342
 ExpMin= 3.15D-02 ExpMax= 8.59D+03 ExpMxC= 1.30D+03 IAcc=3 IRadAn=         5 AccDes= 0.00D+00
 Harris functional with IExCor= 1009 and IRadAn=       5 diagonalized for initial guess.
 HarFok:  IExCor= 1009 AccDes= 0.00D+00 IRadAn=         5 IDoV= 1 UseB2=F ITyADJ=14
 ICtDFT=  3500011 ScaDFX=  1.000000  1.000000  1.000000  1.000000
 FoFCou: FMM=F IPFlag=           0 FMFlag=      100000 FMFlg1=           0
         NFxFlg=           0 DoJE=T BraDBF=F KetDBF=T FulRan=T
         wScrn=  0.000000 ICntrl=       500 IOpCl=  0 I1Cent=   200000004 NGrid=           0
         NMat0=    1 NMatS0=      1 NMatT0=    0 NMatD0=    1 NMtDS0=    0 NMtDT0=    0
 Symmetry not used in FoFCou.
 Requested convergence on RMS density matrix=1.00D-08 within 128 cycles.
 Requested convergence on MAX density matrix=1.00D-06.
 Requested convergence on             energy=1.00D-06.
 Level shift goal  0.100 maximum shift  0.100.
 No special actions if energy rises.
 Dynamic level shift is on during FON iterations.
 SCF Done:  E(RM062X) =  -526.134611575     A.U. after   15 cycles
            NFock= 15  Conv=0.26D-08     -V/T= 2.0035
 DoSCS=F DFT=T ScalE2(SS,OS)=  1.000000  1.000000
 Range of M.O.s used for correlation:     1   342
 NBasis=   342 NAE=    44 NBE=    44 NFC=     0 NFV=     0
 NROrb=    342 NOA=    44 NOB=    44 NVA=   298 NVB=   298

 **** Warning!!: The largest alpha MO coefficient is  0.17551965D+03

 Symmetrizing basis deriv contribution to polar:
 IMax=3 JMax=2 DiffMx= 0.00D+00
 G2DrvN: will do    26 centers at a time, making    1 passes.
 Calling FoFCou, ICntrl=  3107 FMM=F I1Cent=   0 AccDes= 0.00D+00.
 End of G2Drv F.D. properties file   721 does not exist.
 End of G2Drv F.D. properties file   722 does not exist.
 End of G2Drv F.D. properties file   788 does not exist.
          IDoAtm=1111111111111111111111111
          Differentiating once with respect to nuclear coordinates.
 Keep R1 ints in memory in canonical form, NReq=1757083893.
          There are    78 degrees of freedom in the 1st order CPHF.  IDoFFX=6 NUNeed=     0.
     72 vectors produced by pass  0 Test12= 1.68D-14 1.28D-09 XBig12= 1.95D-01 1.01D-01.
 AX will form    72 AO Fock derivatives at one time.
     72 vectors produced by pass  1 Test12= 1.68D-14 1.28D-09 XBig12= 1.23D-02 3.67D-02.
     72 vectors produced by pass  2 Test12= 1.68D-14 1.28D-09 XBig12= 4.28D-04 3.02D-03.
     72 vectors produced by pass  3 Test12= 1.68D-14 1.28D-09 XBig12= 3.00D-06 1.95D-04.
     72 vectors produced by pass  4 Test12= 1.68D-14 1.28D-09 XBig12= 1.67D-08 1.22D-05.
     72 vectors produced by pass  5 Test12= 1.68D-14 1.28D-09 XBig12= 6.42D-11 6.50D-07.
     56 vectors produced by pass  6 Test12= 1.68D-14 1.28D-09 XBig12= 2.32D-13 4.66D-08.
      8 vectors produced by pass  7 Test12= 1.68D-14 1.28D-09 XBig12= 8.15D-16 2.52D-09.
 InvSVY:  IOpt=1 It=  1 EMax= 5.00D-16
 Solved reduced A of dimension   496 with    78 vectors.
 End of Minotr F.D. properties file   721 does not exist.
 End of Minotr F.D. properties file   722 does not exist.
 End of Minotr F.D. properties file   788 does not exist.

 **********************************************************************

            Population analysis using the SCF Density.

 **********************************************************************

 Alpha  occ. eigenvalues --  -19.63660 -19.62863 -10.55189 -10.55054 -10.54663
 Alpha  occ. eigenvalues --  -10.54261 -10.54217 -10.53882 -10.52573 -10.52107
 Alpha  occ. eigenvalues --  -10.51990  -7.08110  -1.16699  -1.12987  -0.96780
 Alpha  occ. eigenvalues --   -0.90588  -0.84547  -0.82766  -0.78466  -0.71144
 Alpha  occ. eigenvalues --   -0.68968  -0.65907  -0.64339  -0.62844  -0.57841
 Alpha  occ. eigenvalues --   -0.54782  -0.52343  -0.51375  -0.50779  -0.49070
 Alpha  occ. eigenvalues --   -0.47951  -0.47809  -0.47539  -0.45835  -0.45300
 Alpha  occ. eigenvalues --   -0.43206  -0.41652  -0.40652  -0.40334  -0.40109
 Alpha  occ. eigenvalues --   -0.38783  -0.37041  -0.30926  -0.29982
 Alpha virt. eigenvalues --   -0.00241   0.00026   0.01266   0.01614   0.01720
 Alpha virt. eigenvalues --    0.02877   0.03049   0.03390   0.04177   0.04504
 Alpha virt. eigenvalues --    0.05915   0.06165   0.06654   0.07453   0.07760
 Alpha virt. eigenvalues --    0.09117   0.09325   0.09980   0.10594   0.10783
 Alpha virt. eigenvalues --    0.11782   0.12706   0.12929   0.13479   0.14431
 Alpha virt. eigenvalues --    0.15027   0.15523   0.15768   0.16096   0.16795
 Alpha virt. eigenvalues --    0.17018   0.17437   0.17827   0.19061   0.19536
 Alpha virt. eigenvalues --    0.19812   0.20766   0.20813   0.21509   0.21985
 Alpha virt. eigenvalues --    0.22468   0.22716   0.23413   0.23996   0.24255
 Alpha virt. eigenvalues --    0.24678   0.25304   0.25636   0.26250   0.26531
 Alpha virt. eigenvalues --    0.26671   0.27096   0.27156   0.28249   0.28607
 Alpha virt. eigenvalues --    0.28812   0.29785   0.30078   0.30752   0.30816
 Alpha virt. eigenvalues --    0.31591   0.32800   0.33117   0.34401   0.35495
 Alpha virt. eigenvalues --    0.36372   0.36766   0.38646   0.40182   0.41702
 Alpha virt. eigenvalues --    0.42970   0.43415   0.44275   0.46292   0.47819
 Alpha virt. eigenvalues --    0.49577   0.49939   0.51123   0.52131   0.52544
 Alpha virt. eigenvalues --    0.54021   0.54560   0.55006   0.55694   0.58314
 Alpha virt. eigenvalues --    0.58776   0.59537   0.60267   0.62102   0.62501
 Alpha virt. eigenvalues --    0.63101   0.65236   0.65579   0.66990   0.67755
 Alpha virt. eigenvalues --    0.68849   0.69413   0.70057   0.70809   0.72555
 Alpha virt. eigenvalues --    0.72793   0.73161   0.73432   0.74013   0.75504
 Alpha virt. eigenvalues --    0.76146   0.76633   0.77028   0.78167   0.79455
 Alpha virt. eigenvalues --    0.80297   0.81784   0.83856   0.84360   0.85998
 Alpha virt. eigenvalues --    0.87014   0.89707   0.91372   0.91933   0.92415
 Alpha virt. eigenvalues --    0.93018   0.94781   0.96014   0.97769   1.00962
 Alpha virt. eigenvalues --    1.01676   1.02552   1.04622   1.05719   1.07206
 Alpha virt. eigenvalues --    1.10406   1.10742   1.11719   1.12289   1.12963
 Alpha virt. eigenvalues --    1.13627   1.14796   1.15480   1.19225   1.20975
 Alpha virt. eigenvalues --    1.21380   1.26412   1.27857   1.32146   1.34563
 Alpha virt. eigenvalues --    1.34999   1.36273   1.38761   1.39959   1.44490
 Alpha virt. eigenvalues --    1.45941   1.48918   1.49671   1.50955   1.51796
 Alpha virt. eigenvalues --    1.51832   1.53326   1.54963   1.56743   1.57337
 Alpha virt. eigenvalues --    1.59566   1.60086   1.60621   1.61991   1.62354
 Alpha virt. eigenvalues --    1.63463   1.65205   1.66832   1.67645   1.68620
 Alpha virt. eigenvalues --    1.70907   1.71236   1.73571   1.75302   1.76681
 Alpha virt. eigenvalues --    1.78663   1.79271   1.80734   1.81960   1.83608
 Alpha virt. eigenvalues --    1.84152   1.84850   1.88195   1.88457   1.90846
 Alpha virt. eigenvalues --    1.94031   1.95423   1.96989   1.97355   1.99986
 Alpha virt. eigenvalues --    2.00766   2.02692   2.03307   2.06244   2.06611
 Alpha virt. eigenvalues --    2.11220   2.11888   2.13069   2.14828   2.15409
 Alpha virt. eigenvalues --    2.16271   2.18340   2.19483   2.21487   2.22721
 Alpha virt. eigenvalues --    2.29060   2.33376   2.36387   2.38758   2.42892
 Alpha virt. eigenvalues --    2.45432   2.45983   2.47363   2.49947   2.55284
 Alpha virt. eigenvalues --    2.57364   2.57692   2.58231   2.58984   2.60235
 Alpha virt. eigenvalues --    2.61338   2.63443   2.63544   2.64940   2.66073
 Alpha virt. eigenvalues --    2.66195   2.70505   2.71125   2.72796   2.73871
 Alpha virt. eigenvalues --    2.75008   2.75397   2.77156   2.78017   2.80132
 Alpha virt. eigenvalues --    2.81117   2.81666   2.86719   2.88283   2.91088
 Alpha virt. eigenvalues --    2.91871   2.94070   2.97946   2.98417   3.01009
 Alpha virt. eigenvalues --    3.01470   3.05650   3.07634   3.11597   3.16077
 Alpha virt. eigenvalues --    3.19627   3.20776   3.24468   3.26925   3.31565
 Alpha virt. eigenvalues --    3.32669   3.40152   3.44851   3.45988   3.50959
 Alpha virt. eigenvalues --    3.56195   3.56686   3.62029   3.65642   3.67099
 Alpha virt. eigenvalues --    3.73618   3.88178   3.88711   3.92419   3.93603
 Alpha virt. eigenvalues --    3.94832   3.95803   4.05917   4.11372   4.16606
 Alpha virt. eigenvalues --    4.21525   4.22738   4.33378   4.42232   4.88233
 Alpha virt. eigenvalues --    5.08842   5.09743   5.40403   5.50870   5.69437
 Alpha virt. eigenvalues --    5.77177  14.80301  23.70011  23.93643  24.04208
 Alpha virt. eigenvalues --   24.05700  24.10922  24.11442  24.16270  24.19195
 Alpha virt. eigenvalues --   24.27232  50.01244  50.06025
          Condensed to atoms (all electrons):
               1          2          3          4          5          6
     1  O    7.746488   0.271400   0.062642   0.442409  -0.130241   0.020854
     2  H    0.271400   0.458106   0.055496  -0.004268  -0.035481   0.003224
     3  C    0.062642   0.055496  10.425804   0.244861  -0.234333   0.030608
     4  B    0.442409  -0.004268   0.244861   3.358745   0.359848   0.015895
     5  O   -0.130241  -0.035481  -0.234333   0.359848   7.983834   0.251140
     6  H    0.020854   0.003224   0.030608   0.015895   0.251140   0.434624
     7  C   -0.008666  -0.005703  -1.478375   0.144194   0.096038  -0.093811
     8  H    0.002621  -0.000029   0.020384   0.014812  -0.009522   0.012753
     9  C    0.096394   0.007975   0.393564   0.049421  -0.048878   0.084325
    10  H   -0.000075  -0.000001  -0.058946  -0.000176   0.000393  -0.000074
    11  C   -0.015139  -0.001597  -2.706586   0.024219   0.029751  -0.008942
    12  C   -0.034794  -0.028090  -0.941216  -0.041834   0.092097  -0.021655
    13  H    0.000649   0.000003  -0.024076   0.000459  -0.000055   0.000004
    14  C   -0.108449  -0.021008   0.709076  -0.057428  -0.016273   0.019947
    15  H    0.002033  -0.000660   0.067957  -0.007355   0.002610  -0.000105
    16  C   -0.001542  -0.000070  -0.174262  -0.014621   0.000755  -0.000052
    17  H    0.000002   0.000000   0.009117   0.000292  -0.000003   0.000001
    18  C    0.000569   0.000030   0.055105   0.001013  -0.000234   0.000063
    19  H   -0.000002   0.000000  -0.013965   0.000221   0.000000   0.000000
    20  H    0.000000   0.000000   0.001023  -0.000019   0.000000   0.000000
    21  H   -0.000009   0.000000  -0.000014  -0.000273   0.000001   0.000000
    22  C   -0.000255  -0.000009  -0.006699  -0.002061   0.000010  -0.000060
    23  H    0.000000   0.000000   0.003504  -0.000049  -0.000001   0.000000
    24  H    0.000000   0.000000  -0.000800  -0.000007   0.000000   0.000000
    25  H    0.000001   0.000000   0.006153   0.000161   0.000001   0.000000
               7          8          9         10         11         12
     1  O   -0.008666   0.002621   0.096394  -0.000075  -0.015139  -0.034794
     2  H   -0.005703  -0.000029   0.007975  -0.000001  -0.001597  -0.028090
     3  C   -1.478375   0.020384   0.393564  -0.058946  -2.706586  -0.941216
     4  B    0.144194   0.014812   0.049421  -0.000176   0.024219  -0.041834
     5  O    0.096038  -0.009522  -0.048878   0.000393   0.029751   0.092097
     6  H   -0.093811   0.012753   0.084325  -0.000074  -0.008942  -0.021655
     7  C   14.990238   0.262968  -4.941689   0.095201   0.141668   1.208874
     8  H    0.262968   0.557065   0.041559  -0.007442   0.003957  -0.017121
     9  C   -4.941689   0.041559  21.188523  -0.006171  -3.421679  -8.410483
    10  H    0.095201  -0.007442  -0.006171   0.509893   0.249902   0.082660
    11  C    0.141668   0.003957  -3.421679   0.249902  14.460999  -0.308520
    12  C    1.208874  -0.017121  -8.410483   0.082660  -0.308520  21.203538
    13  H   -0.023451   0.000105   0.083479  -0.000238   0.144679   0.053392
    14  C   -4.063208  -0.007784   0.584805  -0.019321  -0.123488  -6.626150
    15  H    0.026344  -0.000147  -0.031816   0.000070  -0.019141   0.016606
    16  C    0.072023   0.006956   0.563889   0.009225  -2.659132  -0.512149
    17  H    0.011470   0.000010   0.324853  -0.000703  -0.252111  -0.218101
    18  C   -0.231969   0.000422  -0.527258  -0.000965   0.224686   0.687663
    19  H    0.000579   0.000000   0.092564  -0.000001   0.127378  -0.263571
    20  H    0.000866  -0.000001  -0.038975  -0.000004  -0.018603   0.080123
    21  H    0.007242   0.000000   0.003470   0.000161   0.020752   0.041722
    22  C    0.117974  -0.000821   0.147013  -0.000072  -0.102613   0.009905
    23  H    0.011649   0.000018   0.024532  -0.000450  -0.123627   0.022001
    24  H    0.003875  -0.000001  -0.039637  -0.000040   0.103659   0.017781
    25  H   -0.021006   0.000008   0.043369   0.000024  -0.081780  -0.018656
              13         14         15         16         17         18
     1  O    0.000649  -0.108449   0.002033  -0.001542   0.000002   0.000569
     2  H    0.000003  -0.021008  -0.000660  -0.000070   0.000000   0.000030
     3  C   -0.024076   0.709076   0.067957  -0.174262   0.009117   0.055105
     4  B    0.000459  -0.057428  -0.007355  -0.014621   0.000292   0.001013
     5  O   -0.000055  -0.016273   0.002610   0.000755  -0.000003  -0.000234
     6  H    0.000004   0.019947  -0.000105  -0.000052   0.000001   0.000063
     7  C   -0.023451  -4.063208   0.026344   0.072023   0.011470  -0.231969
     8  H    0.000105  -0.007784  -0.000147   0.006956   0.000010   0.000422
     9  C    0.083479   0.584805  -0.031816   0.563889   0.324853  -0.527258
    10  H   -0.000238  -0.019321   0.000070   0.009225  -0.000703  -0.000965
    11  C    0.144679  -0.123488  -0.019141  -2.659132  -0.252111   0.224686
    12  C    0.053392  -6.626150   0.016606  -0.512149  -0.218101   0.687663
    13  H    0.516888   0.106397  -0.006646   0.014008   0.000228  -0.017027
    14  C    0.106397  15.898637   0.283227  -0.214678   0.014681   0.023443
    15  H   -0.006646   0.283227   0.483416   0.004684   0.000013   0.000345
    16  C    0.014008  -0.214678   0.004684   8.546957   0.535406  -0.310031
    17  H    0.000228   0.014681   0.000013   0.535406   0.509923  -0.068861
    18  C   -0.017027   0.023443   0.000345  -0.310031  -0.068861   5.755489
    19  H   -0.000962  -0.004382   0.000035   0.082350   0.006950   0.359273
    20  H    0.000933   0.016371  -0.000004  -0.071101  -0.007929   0.412650
    21  H   -0.002548  -0.061745   0.000048  -0.069809  -0.005499   0.426058
    22  C    0.003081  -0.078110  -0.000166   0.124169  -0.029248  -0.244007
    23  H    0.000015  -0.009379   0.000001   0.060893  -0.006009   0.005971
    24  H   -0.000001   0.004408  -0.000001  -0.160683  -0.004582   0.011253
    25  H   -0.000596   0.006969   0.000033   0.078149   0.004887  -0.030364
              19         20         21         22         23         24
     1  O   -0.000002   0.000000  -0.000009  -0.000255   0.000000   0.000000
     2  H    0.000000   0.000000   0.000000  -0.000009   0.000000   0.000000
     3  C   -0.013965   0.001023  -0.000014  -0.006699   0.003504  -0.000800
     4  B    0.000221  -0.000019  -0.000273  -0.002061  -0.000049  -0.000007
     5  O    0.000000   0.000000   0.000001   0.000010  -0.000001   0.000000
     6  H    0.000000   0.000000   0.000000  -0.000060   0.000000   0.000000
     7  C    0.000579   0.000866   0.007242   0.117974   0.011649   0.003875
     8  H    0.000000  -0.000001   0.000000  -0.000821   0.000018  -0.000001
     9  C    0.092564  -0.038975   0.003470   0.147013   0.024532  -0.039637
    10  H   -0.000001  -0.000004   0.000161  -0.000072  -0.000450  -0.000040
    11  C    0.127378  -0.018603   0.020752  -0.102613  -0.123627   0.103659
    12  C   -0.263571   0.080123   0.041722   0.009905   0.022001   0.017781
    13  H   -0.000962   0.000933  -0.002548   0.003081   0.000015  -0.000001
    14  C   -0.004382   0.016371  -0.061745  -0.078110  -0.009379   0.004408
    15  H    0.000035  -0.000004   0.000048  -0.000166   0.000001  -0.000001
    16  C    0.082350  -0.071101  -0.069809   0.124169   0.060893  -0.160683
    17  H    0.006950  -0.007929  -0.005499  -0.029248  -0.006009  -0.004582
    18  C    0.359273   0.412650   0.426058  -0.244007   0.005971   0.011253
    19  H    0.516784  -0.028093  -0.031610  -0.003212   0.000075  -0.001296
    20  H   -0.028093   0.496942  -0.016969   0.000267  -0.000117   0.002228
    21  H   -0.031610  -0.016969   0.496107   0.016922  -0.000358   0.000289
    22  C   -0.003212   0.000267   0.016922   5.450853   0.388895   0.434931
    23  H    0.000075  -0.000117  -0.000358   0.388895   0.506165  -0.024396
    24  H   -0.001296   0.002228   0.000289   0.434931  -0.024396   0.516129
    25  H    0.000210  -0.000255  -0.000286   0.402543  -0.024725  -0.027469
              25
     1  O    0.000001
     2  H    0.000000
     3  C    0.006153
     4  B    0.000161
     5  O    0.000001
     6  H    0.000000
     7  C   -0.021006
     8  H    0.000008
     9  C    0.043369
    10  H    0.000024
    11  C   -0.081780
    12  C   -0.018656
    13  H   -0.000596
    14  C    0.006969
    15  H    0.000033
    16  C    0.078149
    17  H    0.004887
    18  C   -0.030364
    19  H    0.000210
    20  H   -0.000255
    21  H   -0.000286
    22  C    0.402543
    23  H   -0.024725
    24  H   -0.027469
    25  H    0.481044
 Mulliken charges:
               1
     1  O   -0.346893
     2  H    0.300682
     3  C   -0.446020
     4  B    0.471540
     5  O   -0.341457
     6  H    0.251263
     7  C   -0.323325
     8  H    0.119231
     9  C   -0.263149
    10  H    0.147149
    11  C    0.311311
    12  C   -0.074022
    13  H    0.151279
    14  C   -0.256557
    15  H    0.178617
    16  C    0.088666
    17  H    0.175212
    18  C   -0.533317
    19  H    0.160675
    20  H    0.170666
    21  H    0.176346
    22  C   -0.629231
    23  H    0.165391
    24  H    0.164360
    25  H    0.181586
 Sum of Mulliken charges =   0.00000
 Mulliken charges with hydrogens summed into heavy atoms:
               1
     1  O   -0.046211
     3  C   -0.446020
     4  B    0.471540
     5  O   -0.090194
     7  C   -0.204094
     9  C   -0.116000
    11  C    0.311311
    12  C    0.077256
    14  C   -0.077940
    16  C    0.263877
    18  C   -0.025631
    22  C   -0.117895
 APT charges:
               1
     1  O   -0.389601
     2  H    2.026466
     3  C   -1.624251
     4  B   -0.415390
     5  O    1.268403
     6  H   -1.185775
     7  C   -0.365196
     8  H   -0.177676
     9  C    0.908449
    10  H   -0.801610
    11  C   -2.507737
    12  C   -0.241559
    13  H    1.164141
    14  C   -0.032302
    15  H    1.843666
    16  C    1.093168
    17  H   -0.035076
    18  C   -2.994539
    19  H    0.630048
    20  H    0.217254
    21  H    1.324291
    22  C    0.010488
    23  H   -0.721414
    24  H    0.255923
    25  H    0.749829
 Sum of APT charges =   0.00000
 APT charges with hydrogens summed into heavy atoms:
               1
     1  O    1.636865
     3  C   -1.624251
     4  B   -0.415390
     5  O    0.082628
     7  C   -0.542871
     9  C    0.106839
    11  C   -2.507737
    12  C    0.922582
    14  C    1.811364
    16  C    1.058091
    18  C   -0.822946
    22  C    0.294826
 Electronic spatial extent (au):  <R**2>=          34732.1991
 Charge=              0.0000 electrons
 Dipole moment (field-independent basis, Debye):
    X=             -1.5083    Y=             -0.7141    Z=              0.0988  Tot=              1.6717
 Quadrupole moment (field-independent basis, Debye-Ang):
   XX=            -83.8715   YY=            -79.4851   ZZ=            -72.3851
   XY=            -14.3815   XZ=             -4.4819   YZ=             -6.7568
 Traceless Quadrupole moment (field-independent basis, Debye-Ang):
   XX=             -5.2909   YY=             -0.9046   ZZ=              6.1955
   XY=            -14.3815   XZ=             -4.4819   YZ=             -6.7568
 Octapole moment (field-independent basis, Debye-Ang**2):
  XXX=          -1124.9975  YYY=          -1676.0186  ZZZ=           -973.2734  XYY=           -477.5762
  XXY=           -637.8747  XXZ=           -350.0635  XZZ=           -373.9890  YZZ=           -596.2004
  YYZ=           -408.2068  XYZ=            -65.3368
 Hexadecapole moment (field-independent basis, Debye-Ang**3):
 XXXX=         -12642.8040 YYYY=         -25358.8216 ZZZZ=          -9482.5547 XXXY=          -8133.8313
 XXXZ=          -5252.2895 YYYX=          -8682.6243 YYYZ=          -7853.1200 ZZZX=          -5390.3026
 ZZZY=          -7419.2483 XXYY=          -7125.5353 XXZZ=          -3763.8171 YYZZ=          -6427.6435
 XXYZ=          -2650.1363 YYXZ=          -2432.0799 ZZXY=          -2923.3605
 N-N= 6.544422566172D+02 E-N=-2.535476948752D+03  KE= 5.242862673013D+02
  Exact polarizability:       0.000       0.000       0.000       0.000       0.000       0.000
 Approx polarizability:     167.695       4.585     151.080      16.490     -23.368     123.056
 Calling FoFJK, ICntrl=    100127 FMM=F ISym2X=0 I1Cent= 0 IOpClX= 0 NMat=1 NMatS=1 NMatT=0.
 -------------------------------------------------------------------
 Center     Atomic                   Forces (Hartrees/Bohr)
 Number     Number              X              Y              Z
 -------------------------------------------------------------------
      1        8           0.000871703    0.000264094    0.000039477
      2        1          -0.000067591   -0.000025207    0.000002898
      3        6           0.002201331   -0.000440976    0.000986221
      4        5          -0.002016791    0.000519514   -0.000599541
      5        8           0.000467314   -0.000603080    0.000428687
      6        1          -0.000031144    0.000160247   -0.000097746
      7        6          -0.000621858   -0.000270572   -0.000735837
      8        1           0.000089483   -0.000097320    0.000299000
      9        6           0.006613705   -0.000406160    0.001172164
     10        1          -0.001405495   -0.000018080    0.000050462
     11        6          -0.020826717    0.004019130   -0.004682796
     12        6           0.006378146   -0.003489665    0.001738213
     13        1           0.002430122   -0.001207507    0.001650406
     14        6          -0.000522259   -0.000905089   -0.000661805
     15        1           0.000141614    0.000066551    0.000076639
     16        6           0.028826918    0.012322381   -0.012106141
     17        1          -0.010207168   -0.006712475    0.010165581
     18        6          -0.005395879   -0.023063600    0.003657553
     19        1           0.006273734    0.008065269   -0.010527007
     20        1          -0.013224087    0.006305970   -0.004508181
     21        1           0.002700995    0.009123265    0.012134355
     22        6          -0.001301233    0.004189001    0.022396909
     23        1           0.000508267   -0.015411976   -0.002950031
     24        1          -0.013235454    0.003548873   -0.008293092
     25        1           0.011352343    0.004067411   -0.009636389
 -------------------------------------------------------------------
 Cartesian Forces:  Max     0.028826918 RMS     0.007751658
 FormGI is forming the generalized inverse of G from B-inverse, IUseBI=4.

 GradGradGradGradGradGradGradGradGradGradGradGradGradGradGradGradGradGrad
 Berny optimization.
 Internal  Forces:  Max     0.015853255 RMS     0.004641118
 Search for a local minimum.
 Step number   1 out of a maximum of  132
 All quantities printed in internal units (Hartrees-Bohrs-Radians)
 Mixed Optimization -- RFO/linear search
 Second derivative matrix not updated -- analytic derivatives used.
 ITU=  0
     Eigenvalues ---   -0.00115   0.00099   0.00325   0.00459   0.01057
     Eigenvalues ---    0.01192   0.01474   0.01607   0.01699   0.02093
     Eigenvalues ---    0.02200   0.02415   0.02634   0.02749   0.02808
     Eigenvalues ---    0.03979   0.04080   0.04473   0.04634   0.04729
     Eigenvalues ---    0.04773   0.04838   0.05397   0.10363   0.11220
     Eigenvalues ---    0.11436   0.11534   0.11998   0.12280   0.12476
     Eigenvalues ---    0.12721   0.12891   0.13931   0.14687   0.15425
     Eigenvalues ---    0.16037   0.17512   0.18131   0.18747   0.18860
     Eigenvalues ---    0.19081   0.19520   0.19904   0.23554   0.27496
     Eigenvalues ---    0.28754   0.29214   0.30575   0.34370   0.35451
     Eigenvalues ---    0.36370   0.36480   0.38123   0.38623   0.38813
     Eigenvalues ---    0.38881   0.38979   0.39171   0.39270   0.39456
     Eigenvalues ---    0.39729   0.42441   0.45253   0.47748   0.48983
     Eigenvalues ---    0.49046   0.52206   0.55207   0.56238
 RFO step:  Lambda=-9.04834366D-03 EMin=-1.15226602D-03
 Linear search not attempted -- first point.
 Iteration  1 RMS(Cart)=  0.14694551 RMS(Int)=  0.02232459
 Iteration  2 RMS(Cart)=  0.06546095 RMS(Int)=  0.00111520
 Iteration  3 RMS(Cart)=  0.00180054 RMS(Int)=  0.00026984
 Iteration  4 RMS(Cart)=  0.00000121 RMS(Int)=  0.00026983
 Iteration  5 RMS(Cart)=  0.00000000 RMS(Int)=  0.00026983
 Variable       Old X    -DE/DX   Delta X   Delta X   Delta X     New X
                                 (Linear)    (Quad)   (Total)
    R1        1.81680  -0.00005   0.00000  -0.00008  -0.00008   1.81672
    R2        2.57522   0.00076   0.00000   0.00148   0.00148   2.57670
    R3        2.96072  -0.00085   0.00000  -0.00471  -0.00471   2.95601
    R4        2.64369  -0.00148   0.00000   0.00377   0.00373   2.64742
    R5        2.64627  -0.00127   0.00000  -0.00686  -0.00690   2.63937
    R6        2.58707   0.00062   0.00000   0.00211   0.00211   2.58917
    R7        1.81109  -0.00008   0.00000  -0.00003  -0.00003   1.81106
    R8        2.05436   0.00023   0.00000   0.00047   0.00047   2.05483
    R9        2.62762  -0.00015   0.00000  -0.00857  -0.00858   2.61903
   R10        2.04768   0.00113   0.00000   0.00498   0.00498   2.05265
   R11        2.62931   0.00338   0.00000   0.01428   0.01432   2.64363
   R12        2.63029   0.00560   0.00000   0.00413   0.00417   2.63447
   R13        2.91018  -0.00502   0.00000  -0.04204  -0.04204   2.86814
   R14        2.04791  -0.00206   0.00000  -0.00110  -0.00110   2.04681
   R15        2.62641   0.00085   0.00000   0.00509   0.00510   2.63151
   R16        2.04895   0.00015   0.00000   0.00051   0.00051   2.04946
   R17        2.02201   0.01575   0.00000   0.04326   0.04326   2.06527
   R18        2.91018   0.00095   0.00000  -0.02660  -0.02660   2.88358
   R19        2.91018   0.00017   0.00000  -0.00341  -0.00341   2.90677
   R20        2.02201   0.01409   0.00000   0.04203   0.04203   2.06404
   R21        2.02201   0.01509   0.00000   0.03759   0.03759   2.05959
   R22        2.02201   0.01495   0.00000   0.03879   0.03879   2.06080
   R23        2.02201   0.01528   0.00000   0.03811   0.03811   2.06011
   R24        2.02201   0.01585   0.00000   0.03984   0.03984   2.06185
   R25        2.02201   0.01537   0.00000   0.04024   0.04024   2.06224
    A1        1.95648  -0.00009   0.00000  -0.00190  -0.00190   1.95458
    A2        2.14059   0.00079   0.00000   0.00415   0.00419   2.14478
    A3        2.08305   0.00104   0.00000   0.00636   0.00640   2.08945
    A4        2.05954  -0.00183   0.00000  -0.01051  -0.01060   2.04895
    A5        2.06486   0.00048   0.00000   0.00342   0.00342   2.06828
    A6        2.05255  -0.00052   0.00000  -0.00221  -0.00222   2.05034
    A7        2.16577   0.00004   0.00000  -0.00120  -0.00120   2.16457
    A8        1.99765  -0.00031   0.00000  -0.00275  -0.00275   1.99490
    A9        2.10452  -0.00041   0.00000   0.00128   0.00130   2.10582
   A10        2.11753   0.00055   0.00000  -0.00031  -0.00036   2.11717
   A11        2.06113  -0.00014   0.00000  -0.00096  -0.00093   2.06020
   A12        2.09724  -0.00178   0.00000  -0.00510  -0.00512   2.09212
   A13        2.08944   0.00509   0.00000   0.02211   0.02214   2.11158
   A14        2.09650  -0.00331   0.00000  -0.01701  -0.01702   2.07948
   A15        2.09317  -0.00848   0.00000  -0.03174  -0.03170   2.06147
   A16        2.09394  -0.00673   0.00000  -0.02550  -0.02559   2.06835
   A17        2.09608   0.01521   0.00000   0.05722   0.05710   2.15318
   A18        2.09394   0.00104   0.00000   0.00376   0.00372   2.09766
   A19        2.09339   0.00283   0.00000   0.01299   0.01304   2.10642
   A20        2.09586  -0.00387   0.00000  -0.01675  -0.01679   2.07907
   A21        2.11329   0.00184   0.00000   0.00747   0.00744   2.12073
   A22        2.07323  -0.00099   0.00000  -0.00029  -0.00029   2.07295
   A23        2.09666  -0.00084   0.00000  -0.00718  -0.00717   2.08949
   A24        1.91063  -0.00418   0.00000  -0.03607  -0.03649   1.87415
   A25        1.91063   0.01174   0.00000   0.07807   0.07813   1.98877
   A26        1.91063  -0.00402   0.00000  -0.01136  -0.01300   1.89763
   A27        1.91063  -0.00346   0.00000  -0.01241  -0.01189   1.89874
   A28        1.91063   0.00177   0.00000  -0.02302  -0.02359   1.88704
   A29        1.91063  -0.00186   0.00000   0.00478   0.00407   1.91470
   A30        1.91063   0.00383   0.00000   0.02155   0.02121   1.93184
   A31        1.91063   0.00134   0.00000   0.00769   0.00759   1.91822
   A32        1.91063   0.00456   0.00000   0.03817   0.03771   1.94835
   A33        1.91063  -0.00388   0.00000  -0.02878  -0.02876   1.88187
   A34        1.91063  -0.00300   0.00000  -0.01757  -0.01822   1.89241
   A35        1.91063  -0.00286   0.00000  -0.02106  -0.02128   1.88935
   A36        1.91063   0.00442   0.00000   0.03187   0.03158   1.94222
   A37        1.91063   0.00233   0.00000   0.02041   0.02014   1.93077
   A38        1.91063   0.00056   0.00000   0.00504   0.00499   1.91562
   A39        1.91063  -0.00285   0.00000  -0.01767  -0.01815   1.89249
   A40        1.91063  -0.00273   0.00000  -0.02351  -0.02358   1.88705
   A41        1.91063  -0.00173   0.00000  -0.01613  -0.01616   1.89447
    D1        3.13168   0.00001   0.00000   0.00157   0.00157   3.13325
    D2       -0.00754  -0.00002   0.00000  -0.00022  -0.00022  -0.00776
    D3        3.07801  -0.00001   0.00000  -0.00561  -0.00557   3.07244
    D4       -0.06611   0.00002   0.00000  -0.00370  -0.00366  -0.06978
    D5       -0.06313  -0.00001   0.00000  -0.00904  -0.00908  -0.07220
    D6        3.07593   0.00002   0.00000  -0.00713  -0.00717   3.06877
    D7       -0.00824   0.00001   0.00000   0.00532   0.00540  -0.00284
    D8        3.13850  -0.00009   0.00000   0.00083   0.00078   3.13928
    D9        3.13290   0.00001   0.00000   0.00871   0.00883  -3.14145
   D10       -0.00354  -0.00009   0.00000   0.00421   0.00421   0.00067
   D11       -3.13731   0.00020   0.00000   0.00119   0.00115  -3.13617
   D12        0.00350   0.00004   0.00000  -0.00468  -0.00469  -0.00119
   D13        0.00471   0.00020   0.00000  -0.00208  -0.00217   0.00254
   D14       -3.13766   0.00005   0.00000  -0.00795  -0.00801   3.13751
   D15        3.11325   0.00001   0.00000  -0.00488  -0.00488   3.10836
   D16       -0.02583  -0.00002   0.00000  -0.00678  -0.00678  -0.03261
   D17        3.14063  -0.00001   0.00000   0.00147   0.00172  -3.14084
   D18        0.00050  -0.00012   0.00000   0.00148   0.00168   0.00219
   D19        0.00406  -0.00011   0.00000  -0.00292  -0.00280   0.00126
   D20       -3.13607  -0.00022   0.00000  -0.00291  -0.00283  -3.13890
   D21        0.00149   0.00023   0.00000  -0.00940  -0.00952  -0.00803
   D22       -3.14115  -0.00079   0.00000  -0.02922  -0.02865   3.11339
   D23       -3.13864   0.00011   0.00000  -0.00940  -0.00956   3.13498
   D24        0.00191  -0.00090   0.00000  -0.02922  -0.02869  -0.02678
   D25        3.14022  -0.00020   0.00000   0.02066   0.02059  -3.12237
   D26       -0.00034  -0.00012   0.00000   0.01151   0.01152   0.01118
   D27       -0.00033   0.00083   0.00000   0.04055   0.04077   0.04045
   D28       -3.14089   0.00091   0.00000   0.03140   0.03170  -3.10919
   D29        0.57148  -0.00113   0.00000   0.27929   0.27997   0.85146
   D30        2.66588  -0.00074   0.00000   0.28982   0.28961   2.95548
   D31       -1.52291   0.00172   0.00000   0.33653   0.33658  -1.18634
   D32       -2.57115  -0.00216   0.00000   0.25938   0.25971  -2.31144
   D33       -0.47676  -0.00177   0.00000   0.26991   0.26935  -0.20741
   D34        1.61763   0.00068   0.00000   0.31662   0.31632   1.93395
   D35       -0.00284  -0.00010   0.00000  -0.00575  -0.00583  -0.00867
   D36        3.13955   0.00006   0.00000   0.00019   0.00006   3.13961
   D37        3.13979  -0.00002   0.00000  -0.01492  -0.01482   3.12497
   D38       -0.00101   0.00014   0.00000  -0.00898  -0.00893  -0.00994
   D39        1.24015   0.00140   0.00000  -0.04443  -0.04392   1.19622
   D40       -2.94864  -0.00018   0.00000  -0.06178  -0.06151  -3.01015
   D41       -0.85425  -0.00007   0.00000  -0.05949  -0.05927  -0.91352
   D42       -2.94864   0.00135   0.00000  -0.04840  -0.04812  -2.99676
   D43       -0.85425  -0.00023   0.00000  -0.06575  -0.06570  -0.91995
   D44        1.24015  -0.00012   0.00000  -0.06346  -0.06346   1.17669
   D45       -0.85425   0.00026   0.00000  -0.08126  -0.08153  -0.93577
   D46        1.24015  -0.00132   0.00000  -0.09861  -0.09911   1.14104
   D47       -2.94864  -0.00120   0.00000  -0.09632  -0.09687  -3.04552
   D48        1.08478  -0.00612   0.00000  -0.06823  -0.06804   1.01674
   D49       -3.10401  -0.00547   0.00000  -0.05787  -0.05745   3.12172
   D50       -1.00962  -0.00583   0.00000  -0.06204  -0.06175  -1.07137
   D51       -1.00962   0.00038   0.00000  -0.00300  -0.00316  -1.01278
   D52        1.08478   0.00102   0.00000   0.00736   0.00743   1.09220
   D53       -3.10401   0.00067   0.00000   0.00319   0.00313  -3.10088
   D54       -3.10401   0.00467   0.00000   0.02336   0.02300  -3.08101
   D55       -1.00962   0.00531   0.00000   0.03372   0.03359  -0.97603
   D56        1.08478   0.00496   0.00000   0.02955   0.02929   1.11407
         Item               Value     Threshold  Converged?
 Maximum Force            0.015853     0.000015     NO 
 RMS     Force            0.004641     0.000010     NO 
 Maximum Displacement     0.631814     0.000060     NO 
 RMS     Displacement     0.205004     0.000040     NO 
 Predicted change in Energy=-5.157192D-03
 GradGradGradGradGradGradGradGradGradGradGradGradGradGradGradGradGradGrad

                          Input orientation:                          
 ---------------------------------------------------------------------
 Center     Atomic      Atomic             Coordinates (Angstroms)
 Number     Number       Type             X           Y           Z
 ---------------------------------------------------------------------
      1          8           0        8.705100    7.438818    5.664187
      2          1           0        9.506099    7.080720    6.057110
      3          6           0        6.272427    7.006284    5.177544
      4          5           0        7.657529    6.571266    5.759904
      5          8           0        7.889381    5.364664    6.366219
      6          1           0        7.116143    4.802609    6.434565
      7          6           0        5.157246    6.158662    5.153483
      8          1           0        5.221540    5.146606    5.545884
      9          6           0        3.944127    6.579313    4.631753
     10          1           0        3.094255    5.902891    4.625443
     11          6           0        3.793404    7.867661    4.107825
     12          6           0        4.895795    8.720632    4.134091
     13          1           0        4.811637    9.731253    3.753667
     14          6           0        6.113684    8.292157    4.655925
     15          1           0        6.961606    8.968257    4.666868
     16          6           0        2.450635    8.256883    3.517016
     17          1           0        1.681527    7.974497    4.240307
     18          6           0        2.316097    9.746091    3.212716
     19          1           0        2.971442   10.031917    2.386989
     20          1           0        1.291382    9.973842    2.919544
     21          1           0        2.567268   10.357892    4.079818
     22          6           0        2.221499    7.442289    2.232499
     23          1           0        2.251476    6.371079    2.432671
     24          1           0        1.253067    7.683907    1.791788
     25          1           0        3.001328    7.673570    1.504973
 ---------------------------------------------------------------------
                    Distance matrix (angstroms):
                    1          2          3          4          5
     1  O    0.000000
     2  H    0.961365   0.000000
     3  C    2.518294   3.351986   0.000000
     4  B    1.363530   1.940383   1.564254   0.000000
     5  O    2.336742   2.377851   2.592760   1.370132   0.000000
     6  H    3.172990   3.323274   2.673601   1.968861   0.958370
     7  C    3.806164   4.536436   1.400954   2.605648   3.092850
     8  H    4.171741   4.728593   2.167589   2.830106   2.799620
     9  C    4.946871   5.763556   2.429233   3.880997   4.477585
    10  H    5.909284   6.674480   3.409262   4.749441   5.129641
    11  C    5.170196   6.087189   2.834048   4.397894   5.304938
    12  C    4.300587   5.257586   2.433701   3.858785   5.020605
    13  H    4.905548   5.862520   3.403937   4.702085   5.946851
    14  C    2.908645   3.865149   1.396694   2.561971   3.827325
    15  H    2.524599   3.459770   2.141284   2.724813   4.090776
    16  C    6.663175   7.590455   4.350569   5.914693   6.786961
    17  H    7.186443   8.082298   4.784581   6.323831   7.061741
    18  C    7.221674   8.178686   5.198042   6.715548   7.759058
    19  H    7.095000   8.054880   5.276188   6.731424   7.861529
    20  H    8.301965   9.257216   6.222201   7.757126   8.755437
    21  H    6.978839   7.924450   5.115319   6.562925   7.647538
    22  C    7.335774   8.235519   5.027267   6.538478   7.316355
    23  H    7.296028   8.140620   4.909772   6.351060   6.947779
    24  H    8.401687   9.309638   6.092331   7.615842   8.387191
    25  H    7.063086   7.961499   4.963178   6.403102   7.270200
                    6          7          8          9         10
     6  H    0.000000
     7  C    2.705056   0.000000
     8  H    2.120757   1.087369   0.000000
     9  C    4.058139   1.385932   2.126046   0.000000
    10  H    4.545231   2.144802   2.438139   1.086218   0.000000
    11  C    5.084177   2.423663   3.392894   1.398949   2.148734
    12  C    5.056979   2.769695   3.856544   2.395535   3.380331
    13  H    6.065434   3.852575   4.939540   3.385016   4.285528
    14  C    4.042948   2.390426   3.388575   2.764307   3.850516
    15  H    4.527832   3.374364   4.290165   3.848827   4.935037
    16  C    6.497004   3.795563   4.633362   2.507468   2.680324
    17  H    6.664135   4.026384   4.715209   2.686844   2.536865
    18  C    7.606496   4.970750   5.919505   3.833097   4.167915
    19  H    7.804299   5.237684   6.237614   4.231496   4.698363
    20  H    8.545459   5.872903   6.756184   4.635898   4.767923
    21  H    7.556340   5.049186   6.029264   4.059315   4.519122
    22  C    6.970137   4.335719   5.024831   3.077108   2.976177
    23  H    6.491551   3.986407   4.473557   2.782875   2.395355
    24  H    8.014545   5.373080   6.023281   4.065383   3.819895
    25  H    7.033846   4.500506   5.257742   3.444273   3.589049
                   11         12         13         14         15
    11  C    0.000000
    12  C    1.394101   0.000000
    13  H    2.152952   1.083125   0.000000
    14  C    2.421634   1.392536   2.140185   0.000000
    15  H    3.400198   2.147730   2.457329   1.084529   0.000000
    16  C    1.517754   2.564109   2.793582   3.836181   4.709254
    17  H    2.118724   3.301442   3.622237   4.462921   5.389689
    18  C    2.551893   2.924951   2.553540   4.314910   4.929538
    19  H    2.884597   2.911180   2.311823   4.248355   4.717057
    20  H    3.479673   4.004679   3.625853   5.394227   6.017955
    21  H    2.775869   2.847034   2.352922   4.144421   4.646065
    22  C    2.483681   3.521658   3.776523   4.663087   5.542865
    23  H    2.724598   3.925258   4.426085   4.852839   5.824285
    24  H    3.442544   4.453162   4.550167   5.674403   6.519438
    25  H    2.727616   3.405525   3.545124   4.471902   5.230449
                   16         17         18         19         20
    16  C    0.000000
    17  H    1.092895   0.000000
    18  C    1.525923   2.144101   0.000000
    19  H    2.167705   3.054774   1.092244   0.000000
    20  H    2.156105   2.427758   1.089890   1.763403   0.000000
    21  H    2.178208   2.547718   1.090529   1.770674   1.766810
    22  C    1.538197   2.146184   2.505450   2.700454   2.783148
    23  H    2.184428   2.482607   3.464586   3.731243   3.760150
    24  H    2.176898   2.502652   2.720602   2.969887   2.552863
    25  H    2.166064   3.051964   2.771510   2.518064   3.196276
                   21         22         23         24         25
    21  H    0.000000
    22  C    3.468845   0.000000
    23  H    4.325217   1.090164   0.000000
    24  H    3.756649   1.091085   1.769483   0.000000
    25  H    3.744839   1.091292   1.766178   1.771662   0.000000
 Symmetry turned off by external request.
 Stoichiometry    C9H13BO2
 Framework group  C1[X(C9H13BO2)]
 Deg. of freedom    69
 Full point group                 C1      NOp   1
 Rotational constants (GHZ):           2.5154104           0.4340187           0.3863779
 Standard basis: 6-311+G(d,p) (5D, 7F)
   342 basis functions,   536 primitive gaussians,   354 cartesian basis functions
    44 alpha electrons       44 beta electrons
       nuclear repulsion energy       653.1669689284 Hartrees.
 NAtoms=   25 NActive=   25 NUniq=   25 SFac= 1.00D+00 NAtFMM=   60 NAOKFM=F Big=F
 Integral buffers will be    131072 words long.
 Raffenetti 2 integral format.
 Two-electron integral symmetry is turned off.
 One-electron integrals computed using PRISM.
 NBasis=   342 RedAO= T EigKep=  1.19D-06  NBF=   342
 NBsUse=   342 1.00D-06 EigRej= -1.00D+00 NBFU=   342
 Initial guess from the checkpoint file:  "4-isopropyl-phboh2-opt-freq.chk"
 B after Tr=     0.106260    0.176553   -0.346768
         Rot=    0.999933   -0.011226    0.002286   -0.001724 Ang=  -1.33 deg.
 ExpMin= 3.15D-02 ExpMax= 8.59D+03 ExpMxC= 1.30D+03 IAcc=3 IRadAn=         5 AccDes= 0.00D+00
 Harris functional with IExCor= 1009 and IRadAn=       5 diagonalized for initial guess.
 HarFok:  IExCor= 1009 AccDes= 0.00D+00 IRadAn=         5 IDoV= 1 UseB2=F ITyADJ=14
 ICtDFT=  3500011 ScaDFX=  1.000000  1.000000  1.000000  1.000000
 FoFCou: FMM=F IPFlag=           0 FMFlag=      100000 FMFlg1=           0
         NFxFlg=           0 DoJE=T BraDBF=F KetDBF=T FulRan=T
         wScrn=  0.000000 ICntrl=       500 IOpCl=  0 I1Cent=   200000004 NGrid=           0
         NMat0=    1 NMatS0=      1 NMatT0=    0 NMatD0=    1 NMtDS0=    0 NMtDT0=    0
 Symmetry not used in FoFCou.
 Requested convergence on RMS density matrix=1.00D-08 within 128 cycles.
 Requested convergence on MAX density matrix=1.00D-06.
 Requested convergence on             energy=1.00D-06.
 Level shift goal  0.100 maximum shift  0.100.
 No special actions if energy rises.
 Dynamic level shift is on during FON iterations.
 SCF Done:  E(RM062X) =  -526.139223282     A.U. after   15 cycles
            NFock= 15  Conv=0.31D-08     -V/T= 2.0039
 Calling FoFJK, ICntrl=      2127 FMM=F ISym2X=0 I1Cent= 0 IOpClX= 0 NMat=1 NMatS=1 NMatT=0.
 -------------------------------------------------------------------
 Center     Atomic                   Forces (Hartrees/Bohr)
 Number     Number              X              Y              Z
 -------------------------------------------------------------------
      1        8           0.000046818    0.000028484    0.000051022
      2        1          -0.000018958    0.000000695    0.000015409
      3        6           0.000164951   -0.000272638    0.000060918
      4        5          -0.000105093   -0.000048907   -0.000138876
      5        8           0.000062991    0.000060739    0.000095295
      6        1          -0.000025766   -0.000033493   -0.000069730
      7        6           0.000073574    0.000026798    0.000326927
      8        1           0.000003418   -0.000000314   -0.000016988
      9        6           0.000526584   -0.000220791    0.000012507
     10        1           0.000318258    0.000103813    0.000416297
     11        6          -0.001111262   -0.000054799    0.002158291
     12        6           0.000477822   -0.000446824    0.000140431
     13        1           0.000085051   -0.000014388   -0.000488237
     14        6          -0.000205113    0.000374952   -0.000044703
     15        1           0.000014622    0.000010155   -0.000087480
     16        6           0.003518630   -0.000676177   -0.005084758
     17        1          -0.001089331   -0.000094221    0.001446978
     18        6          -0.000088444   -0.000911639    0.001821560
     19        1           0.000516861    0.000701502   -0.000417142
     20        1          -0.000941721    0.000485584   -0.000762381
     21        1          -0.000311733    0.001008600    0.000729051
     22        6          -0.001591798    0.000502299    0.002219556
     23        1          -0.000049095   -0.000794843   -0.000654761
     24        1          -0.000991617    0.000153444   -0.000717422
     25        1           0.000720350    0.000111969   -0.001011764
 -------------------------------------------------------------------
 Cartesian Forces:  Max     0.005084758 RMS     0.000965739

 GradGradGradGradGradGradGradGradGradGradGradGradGradGradGradGradGradGrad
 Berny optimization.
 Using GEDIIS/GDIIS optimizer.
 FormGI is forming the generalized inverse of G from B-inverse, IUseBI=4.
 Internal  Forces:  Max     0.001990712 RMS     0.000558901
 Search for a local minimum.
 Step number   2 out of a maximum of  132
 All quantities printed in internal units (Hartrees-Bohrs-Radians)
 Mixed Optimization -- En-DIIS/RFO-DIIS
 Update second derivatives using D2CorX and points    1    2
 DE= -4.61D-03 DEPred=-5.16D-03 R= 8.94D-01
 TightC=F SS=  1.41D+00  RLast= 7.85D-01 DXNew= 5.0454D-01 2.3558D+00
 Trust test= 8.94D-01 RLast= 7.85D-01 DXMaxT set to 5.05D-01
 ITU=  1  0
 Use linear search instead of GDIIS.
     Eigenvalues ---   -0.00176   0.00099   0.00325   0.00455   0.01057
     Eigenvalues ---    0.01192   0.01474   0.01623   0.01699   0.02092
     Eigenvalues ---    0.02201   0.02412   0.02634   0.02750   0.02807
     Eigenvalues ---    0.03979   0.04057   0.04459   0.04622   0.04723
     Eigenvalues ---    0.04769   0.04779   0.05219   0.10362   0.11217
     Eigenvalues ---    0.11432   0.11529   0.12004   0.12280   0.12417
     Eigenvalues ---    0.12470   0.12734   0.13825   0.14671   0.15413
     Eigenvalues ---    0.16034   0.17512   0.18093   0.18490   0.18777
     Eigenvalues ---    0.19076   0.19514   0.19910   0.24013   0.27531
     Eigenvalues ---    0.28745   0.29219   0.30772   0.33703   0.34852
     Eigenvalues ---    0.35455   0.36386   0.36485   0.38189   0.38742
     Eigenvalues ---    0.38825   0.38884   0.38980   0.39179   0.39333
     Eigenvalues ---    0.39692   0.42447   0.45121   0.47751   0.48981
     Eigenvalues ---    0.49039   0.52111   0.55207   0.56238
 RFO step:  Lambda=-2.87781686D-03 EMin=-1.76438422D-03
 Quartic linear search produced a step of -0.04481.
 Iteration  1 RMS(Cart)=  0.13590083 RMS(Int)=  0.04995334
 Iteration  2 RMS(Cart)=  0.13106032 RMS(Int)=  0.00687589
 Iteration  3 RMS(Cart)=  0.01725898 RMS(Int)=  0.00017472
 Iteration  4 RMS(Cart)=  0.00013936 RMS(Int)=  0.00015912
 Iteration  5 RMS(Cart)=  0.00000002 RMS(Int)=  0.00015912
 Variable       Old X    -DE/DX   Delta X   Delta X   Delta X     New X
                                 (Linear)    (Quad)   (Total)
    R1        1.81672  -0.00001   0.00000  -0.00004  -0.00004   1.81668
    R2        2.57670   0.00004  -0.00007   0.00091   0.00084   2.57754
    R3        2.95601  -0.00005   0.00021  -0.00214  -0.00193   2.95408
    R4        2.64742  -0.00009  -0.00017  -0.00519  -0.00535   2.64206
    R5        2.63937   0.00008   0.00031   0.00555   0.00586   2.64523
    R6        2.58917  -0.00001  -0.00009   0.00044   0.00035   2.58952
    R7        1.81106   0.00003   0.00000   0.00012   0.00012   1.81118
    R8        2.05483  -0.00001  -0.00002   0.00016   0.00014   2.05497
    R9        2.61903   0.00026   0.00038   0.00559   0.00597   2.62500
   R10        2.05265  -0.00032  -0.00022  -0.00011  -0.00034   2.05232
   R11        2.64363   0.00064  -0.00064  -0.00159  -0.00223   2.64140
   R12        2.63447   0.00027  -0.00019   0.00894   0.00875   2.64322
   R13        2.86814   0.00134   0.00188  -0.02189  -0.02001   2.84813
   R14        2.04681   0.00015   0.00005   0.00331   0.00336   2.05017
   R15        2.63151  -0.00023  -0.00023  -0.00757  -0.00780   2.62371
   R16        2.04946   0.00002  -0.00002   0.00015   0.00012   2.04959
   R17        2.06527   0.00175  -0.00194   0.02424   0.02230   2.08757
   R18        2.88358   0.00105   0.00119   0.00791   0.00910   2.89268
   R19        2.90677   0.00044   0.00015  -0.01254  -0.01239   2.89438
   R20        2.06404   0.00081  -0.00188   0.01729   0.01541   2.07945
   R21        2.05959   0.00119  -0.00168   0.02144   0.01975   2.07935
   R22        2.06080   0.00107  -0.00174   0.02002   0.01828   2.07908
   R23        2.06011   0.00066  -0.00171   0.01885   0.01714   2.07725
   R24        2.06185   0.00120  -0.00179   0.02112   0.01934   2.08119
   R25        2.06224   0.00121  -0.00180   0.02217   0.02037   2.08261
    A1        1.95458  -0.00002   0.00009  -0.00045  -0.00037   1.95421
    A2        2.14478   0.00010  -0.00019   0.00298   0.00280   2.14758
    A3        2.08945   0.00005  -0.00029   0.00095   0.00068   2.09013
    A4        2.04895  -0.00015   0.00047  -0.00393  -0.00347   2.04547
    A5        2.06828   0.00003  -0.00015   0.00017   0.00001   2.06829
    A6        2.05034  -0.00006   0.00010  -0.00140  -0.00131   2.04903
    A7        2.16457   0.00003   0.00005   0.00124   0.00129   2.16586
    A8        1.99490  -0.00004   0.00012  -0.00085  -0.00073   1.99417
    A9        2.10582  -0.00006  -0.00006   0.00005   0.00000   2.10582
   A10        2.11717   0.00011   0.00002   0.00269   0.00270   2.11987
   A11        2.06020  -0.00006   0.00004  -0.00275  -0.00270   2.05750
   A12        2.09212  -0.00039   0.00023  -0.00423  -0.00403   2.08810
   A13        2.11158   0.00020  -0.00099   0.00565   0.00462   2.11620
   A14        2.07948   0.00019   0.00076  -0.00141  -0.00068   2.07880
   A15        2.06147  -0.00074   0.00142  -0.01359  -0.01220   2.04927
   A16        2.06835   0.00199   0.00115   0.03546   0.03658   2.10493
   A17        2.15318  -0.00125  -0.00256  -0.02212  -0.02469   2.12849
   A18        2.09766  -0.00031  -0.00017  -0.00990  -0.01009   2.08758
   A19        2.10642   0.00055  -0.00058   0.01076   0.01013   2.11656
   A20        2.07907  -0.00024   0.00075  -0.00077  -0.00004   2.07903
   A21        2.12073   0.00003  -0.00033  -0.00143  -0.00179   2.11894
   A22        2.07295   0.00002   0.00001   0.00048   0.00050   2.07345
   A23        2.08949  -0.00005   0.00032   0.00098   0.00131   2.09079
   A24        1.87415  -0.00041   0.00163  -0.02082  -0.01967   1.85447
   A25        1.98877  -0.00075  -0.00350  -0.00358  -0.00821   1.98056
   A26        1.89763   0.00192   0.00058   0.04232   0.04284   1.94047
   A27        1.89874  -0.00027   0.00053  -0.03313  -0.03288   1.86586
   A28        1.88704  -0.00036   0.00106  -0.00123   0.00020   1.88724
   A29        1.91470  -0.00013  -0.00018   0.01554   0.01510   1.92981
   A30        1.93184   0.00049  -0.00095   0.02613   0.02509   1.95693
   A31        1.91822   0.00020  -0.00034   0.00729   0.00691   1.92513
   A32        1.94835   0.00058  -0.00169   0.00906   0.00730   1.95565
   A33        1.88187  -0.00044   0.00129  -0.02405  -0.02281   1.85906
   A34        1.89241  -0.00045   0.00082  -0.01495  -0.01425   1.87817
   A35        1.88935  -0.00044   0.00095  -0.00557  -0.00463   1.88472
   A36        1.94222   0.00107  -0.00142   0.01926   0.01776   1.95998
   A37        1.93077   0.00011  -0.00090   0.00619   0.00525   1.93602
   A38        1.91562   0.00014  -0.00022   0.00929   0.00902   1.92464
   A39        1.89249  -0.00052   0.00081  -0.00788  -0.00713   1.88535
   A40        1.88705  -0.00056   0.00106  -0.01428  -0.01331   1.87374
   A41        1.89447  -0.00030   0.00072  -0.01402  -0.01330   1.88117
    D1        3.13325  -0.00005  -0.00007  -0.00204  -0.00211   3.13114
    D2       -0.00776   0.00001   0.00001   0.00101   0.00102  -0.00674
    D3        3.07244   0.00009   0.00025   0.02107   0.02131   3.09374
    D4       -0.06978   0.00002   0.00016   0.01780   0.01795  -0.05183
    D5       -0.07220   0.00007   0.00041   0.02039   0.02082  -0.05139
    D6        3.06877   0.00001   0.00032   0.01712   0.01746   3.08623
    D7       -0.00284   0.00001  -0.00024  -0.00565  -0.00594  -0.00878
    D8        3.13928   0.00003  -0.00003  -0.00573  -0.00573   3.13354
    D9       -3.14145   0.00002  -0.00040  -0.00499  -0.00547   3.13627
   D10        0.00067   0.00004  -0.00019  -0.00507  -0.00526  -0.00460
   D11       -3.13617   0.00004  -0.00005   0.00572   0.00569  -3.13048
   D12       -0.00119   0.00010   0.00021   0.01091   0.01112   0.00992
   D13        0.00254   0.00003   0.00010   0.00508   0.00524   0.00778
   D14        3.13751   0.00008   0.00036   0.01028   0.01067  -3.13500
   D15        3.10836   0.00003   0.00022   0.01333   0.01355   3.12191
   D16       -0.03261   0.00009   0.00030   0.01656   0.01687  -0.01574
   D17       -3.14084   0.00014  -0.00008   0.00893   0.00869  -3.13214
   D18        0.00219  -0.00012  -0.00008  -0.00691  -0.00710  -0.00491
   D19        0.00126   0.00016   0.00013   0.00885   0.00889   0.01015
   D20       -3.13890  -0.00010   0.00013  -0.00698  -0.00690   3.13738
   D21       -0.00803   0.00013   0.00043   0.01868   0.01906   0.01103
   D22        3.11339   0.00010   0.00128   0.00480   0.00586   3.11925
   D23        3.13498  -0.00012   0.00043   0.00296   0.00336   3.13834
   D24       -0.02678  -0.00016   0.00129  -0.01092  -0.00985  -0.03663
   D25       -3.12237  -0.00027  -0.00092  -0.03325  -0.03402   3.12679
   D26        0.01118  -0.00006  -0.00052  -0.01856  -0.01904  -0.00786
   D27        0.04045  -0.00027  -0.00183  -0.01937  -0.02139   0.01906
   D28       -3.10919  -0.00006  -0.00142  -0.00469  -0.00641  -3.11559
   D29        0.85146  -0.00007  -0.01254  -0.37776  -0.39048   0.46098
   D30        2.95548  -0.00117  -0.01298  -0.43635  -0.44923   2.50626
   D31       -1.18634  -0.00043  -0.01508  -0.38719  -0.40215  -1.58849
   D32       -2.31144  -0.00010  -0.01164  -0.39226  -0.40410  -2.71554
   D33       -0.20741  -0.00119  -0.01207  -0.45085  -0.46285  -0.67026
[...]
 00288,-0.00000613,-0.00005119,0.00007084,0.00006829,0.00002442,-0.0000
 0078,0.00001265,-0.00000236,0.00000505,-0.00001004,-0.00000640,0.00000
 227,-0.00000302,0.00000651,-0.00024668,-0.00000233,0.00003984,-0.00002
 266,-0.00000278,-0.00159304,-0.00070228,0.00023553,-0.00007019,0.00032
 377,0.00001470,-0.01096717,-0.00759335,0.00394652,-0.00198050,0.001658
 82,-0.00059941,-0.00001405,-0.00022808,-0.00006528,-0.00048160,-0.0003
 1736,0.00035021,-0.00013437,-0.00003665,-0.00015258,0.07429293,0.06193
 181,-0.08869431,-0.07612805,-0.06690381,0.10211383,-0.00044661,-0.0001
 2056,0.00003165,0.00004305,0.00000546,0.00000639,-0.00051273,0.0009845
 2,-0.00092851,0.00106845,-0.00017474,0.00035001,-0.00024790,0.00026129
 ,-0.00023685,0.00002326,-0.00009276,0.00006129,-0.00049842,-0.00050361
 ,-0.00125387,-0.00020469,0.00009425,-0.00017246,-0.00223782,-0.0008013
 3,0.00058336,0.00009014,0.00051662,0.00001271,-0.01006659,0.03211932,0
 .00487791,-0.00160370,0.00105665,-0.00082577,-0.00053634,0.00015623,0.
 00005057,0.00140800,-0.00078234,0.00029867,-0.00002337,0.00002370,0.00
 009361,-0.08403960,0.02310616,0.00734576,0.00624968,-0.02159792,-0.005
 43277,0.57146305,-0.00021561,-0.00006294,0.00001921,0.00001924,0.00000
 185,0.00000545,-0.00062668,0.00024072,-0.00029148,0.00053184,-0.000149
 66,0.00018672,-0.00008303,0.00011570,-0.00012077,-0.00000346,-0.000026
 03,0.00002575,0.00044750,0.00019232,0.00039681,-0.00004734,0.00005954,
 -0.00000330,-0.00045596,0.00073631,-0.00146799,0.00003328,-0.00007788,
 -0.00022329,0.01255705,-0.01169150,0.00333815,-0.00213831,0.00033022,-
 0.00084854,-0.00015023,-0.00015547,0.00031533,0.00001306,-0.00044084,0
 .00071510,-0.00007560,-0.00006671,-0.00014694,0.01970398,-0.18112960,-
 0.02473531,0.00586375,-0.02224008,-0.00511468,0.02293853,0.47856360,-0
 .00034841,-0.00007903,-0.00002860,0.00003402,0.00000554,0.00000495,-0.
 00058929,0.00025307,-0.00035418,0.00069886,-0.00010337,0.00037403,-0.0
 0019490,0.00018749,-0.00023500,0.00003697,-0.00005824,0.00008190,0.000
 12105,-0.00040232,-0.00094614,-0.00014755,0.00016372,-0.00007470,-0.00
 218936,0.00025409,-0.00144971,-0.00009261,0.00029768,0.00046358,-0.002
 07453,0.01327803,0.00245329,-0.00074260,0.00028023,0.00042311,0.000097
 78,0.00005679,-0.00012830,0.00028243,-0.00013801,-0.00010645,-0.000040
 18,0.00002368,0.00005641,0.00530073,-0.01873301,-0.07892794,-0.0037841
 7,0.01234071,0.00304813,0.00826404,-0.01834264,0.58174279,0.00009671,0
 .00001639,-0.00000614,-0.00001290,-0.00000327,0.00000051,0.00006964,-0
 .00016862,0.00007800,-0.00019229,0.00002986,-0.00005930,0.00005250,-0.
 00004218,0.00004921,-0.00001010,0.00001614,-0.00001470,0.00010782,0.00
 001175,0.00005492,0.00001563,-0.00001230,0.00001914,-0.00007404,0.0000
 0405,-0.00019388,-0.00001419,-0.00002124,0.00002920,0.00069264,-0.0003
 0385,-0.00069587,-0.00023552,0.00036481,0.00016355,-0.00106155,0.00085
 618,0.00017795,-0.00007269,0.00015401,-0.00007155,0.00001076,0.0000353
 2,0.00004591,0.00529262,0.00535292,-0.00323039,0.00056472,0.00214142,0
 .00018073,-0.16780079,-0.11177630,0.07332369,0.18092658,-0.00001808,0.
 00000927,-0.00000563,0.00000750,0.00000294,0.00000204,0.00022533,0.000
 34248,-0.00037322,0.00008497,-0.00001750,-0.00002993,-0.00004733,0.000
 05657,-0.00004101,0.00000141,-0.00001908,0.00001253,-0.00058372,0.0001
 3560,-0.00016174,0.00000944,-0.00001962,-0.00001376,0.00046271,-0.0003
 9415,0.00070270,0.00007129,0.00013668,-0.00018594,-0.00163428,0.001376
 71,-0.00065896,-0.00047026,-0.00025895,0.00058562,0.00090437,-0.000003
 97,-0.00053612,0.00061138,0.00012460,0.00023466,0.00003518,-0.00001109
 ,0.00003318,-0.02201079,-0.02216374,0.01310595,0.00235440,-0.00557584,
 -0.00183319,-0.11062164,-0.14724543,0.06701607,0.12084164,0.16373968,0
 .00000921,-0.00002589,0.00000054,-0.00000482,0.00000354,0.00000322,-0.
 00008675,-0.00002589,0.00008053,-0.00001681,0.00004617,-0.00001214,0.0
 0001736,-0.00003895,0.00002773,-0.00000164,0.00001201,-0.00000847,0.00
 013950,-0.00003989,0.00006851,-0.00000193,-0.00001478,-0.00000848,-0.0
 0011721,0.00017550,-0.00005910,-0.00002933,-0.00004724,-0.00001338,0.0
 0062764,0.00032628,0.00005652,0.00002365,-0.00019162,-0.00025066,0.000
 16759,-0.00008494,0.00038860,-0.00013362,-0.00004488,-0.00015696,-0.00
 001622,0.00000019,-0.00000062,-0.00534135,-0.00425223,0.00176221,0.000
 11302,-0.00173913,0.00041365,0.07294955,0.06729042,-0.09132112,-0.0810
 4914,-0.07246349,0.09474111,-0.00021777,-0.00003166,-0.00000632,0.0000
 2849,0.00000407,-0.00000070,-0.00010989,0.00023619,-0.00026283,0.00042
 671,-0.00009940,0.00014520,-0.00013336,0.00012622,-0.00013122,0.000026
 61,-0.00004814,0.00004554,-0.00024901,0.00001138,-0.00019997,-0.000036
 47,0.00001077,-0.00006203,-0.00029108,-0.00009170,0.00039501,0.0000209
 0,0.00005026,0.00000158,0.00075071,0.00172404,0.00011065,-0.00000692,0
 .00026725,0.00002672,0.00020968,-0.00011381,-0.00026467,0.00024912,0.0
 0003588,0.00022665,-0.00001174,-0.00000421,0.00000463,-0.00610485,0.00
 001040,-0.00271851,0.00058210,0.00030595,0.00008267,-0.26536245,0.0520
 6696,-0.09019838,-0.01844692,0.00513683,-0.00843509,0.28619567,0.00025
 534,0.00006734,0.00000211,-0.00002394,-0.00000292,-0.00000391,0.000475
 46,-0.00022409,0.00019337,-0.00054428,0.00008515,-0.00026179,0.0001255
 2,-0.00012546,0.00014897,-0.00001828,0.00004224,-0.00004268,-0.0002039
 6,0.00021276,0.00037495,0.00009433,-0.00006658,0.00006909,0.00115820,-
 0.00004205,0.00039434,-0.00001026,-0.00017156,-0.00009950,-0.00049007,
 -0.00576153,-0.00242002,0.00014790,-0.00009084,0.00048794,0.00017266,0
 .00003098,-0.00037701,-0.00010957,0.00035627,0.00010182,0.00005650,-0.
 00000708,0.00000429,0.03004974,-0.00783871,0.01150468,-0.00047699,0.00
 110735,0.00063486,0.05096600,-0.05812785,0.02126071,-0.01795655,0.0045
 8506,-0.00896462,-0.05814411,0.06457080,-0.00005131,-0.00000040,-0.000
 00153,0.00000840,-0.00000321,-0.00000035,-0.00008989,-0.00007824,0.000
 08353,0.00009355,-0.00003344,0.00006488,-0.00002277,0.00002814,-0.0000
 3657,0.00000401,-0.00001098,0.00000924,0.00013871,-0.00005323,0.000120
 77,0.00001366,0.00000816,0.00001382,0.00015859,0.00001427,0.00022410,-
 0.00001680,-0.00003093,-0.00003759,0.00022675,-0.00120099,0.00036345,0
 .00033147,0.00008820,0.00012080,-0.00013185,0.00004176,0.00009842,-0.0
 0010057,-0.00000004,-0.00013931,0.00000296,-0.00001453,-0.00002106,0.0
 0675275,-0.00111081,0.00115677,-0.00027764,0.00048683,0.00002471,-0.09
 116334,0.02151122,-0.08595504,0.01276621,-0.00397004,0.00479196,0.0998
 3689,-0.02257613,0.08849881,0.00009097,0.00000119,-0.00000813,-0.00001
 420,0.00000395,0.00000294,0.00002460,-0.00006690,0.00007213,-0.0001850
 7,0.00007371,-0.00006190,0.00005023,-0.00006415,0.00005129,-0.00000929
 ,0.00002524,-0.00001605,-0.00000356,-0.00000295,-0.00001801,0.00000866
 ,-0.00000684,0.00001395,0.00014223,0.00006373,-0.00023213,-0.00000992,
 0.00000095,0.00003883,0.00048816,-0.00009303,0.00107829,-0.00004534,-0
 .00044611,0.00007299,0.00011943,0.00010406,0.00009325,-0.00012495,0.00
 005839,-0.00022956,-0.00000784,0.00001296,0.00001545,-0.00212842,0.000
 80719,0.00761872,0.00010313,-0.00021817,-0.00048304,-0.04775414,0.0002
 6101,0.00317270,-0.00033139,0.00430640,0.02201379,0.00188047,-0.004899
 44,-0.02919952,0.04681494,-0.00011239,-0.00002530,-0.00000044,0.000011
 79,0.00000153,-0.00000017,-0.00020855,-0.00006545,-0.00000286,0.000203
 57,-0.00003072,0.00008366,-0.00005674,0.00004606,-0.00004619,0.0000146
 1,-0.00001974,0.00001267,0.00019808,-0.00010497,0.00008791,0.00000993,
 0.00000264,-0.00000947,-0.00016071,0.00020352,0.00020114,-0.00004819,-
 0.00011515,-0.00001650,-0.00108847,0.00107588,-0.00092295,0.00016492,0
 .00007131,0.00027374,0.00001171,0.00000894,0.00003814,-0.00001196,0.00
 007124,-0.00020335,0.00000546,-0.00000560,0.00001251,0.00114244,-0.003
 96092,-0.03153745,-0.00069595,0.00112627,0.00035680,0.00036800,-0.0521
 7197,-0.03742663,0.00112559,0.00303891,0.02024689,-0.00105103,-0.00000
 842,0.00707695,-0.00186725,0.05763183,0.00002090,0.00001340,0.00001349
 ,-0.00000042,-0.00000444,-0.00000500,0.00008059,0.00000284,0.00004389,
 -0.00004506,0.00000199,-0.00002335,0.00001493,-0.00000609,0.00002758,-
 0.00000308,-0.00000179,-0.00001361,-0.00005481,-0.00010631,-0.00001398
 ,0.00001969,-0.00001196,0.00001438,0.00040865,-0.00023957,0.00029727,0
 .00003495,-0.00000817,-0.00002948,-0.00079997,0.00039735,0.00053466,0.
 00048931,0.00021883,-0.00000994,-0.00009381,-0.00007827,0.00002243,0.0
 0001503,-0.00007463,-0.00003397,0.00001360,-0.00000873,-0.00001100,-0.
 00009331,0.00018262,-0.00488262,-0.00015345,-0.00044456,0.00033771,0.0
 0417591,-0.03888815,-0.31287206,-0.00069689,-0.00188656,-0.01177936,0.
 00090064,-0.00112482,-0.01001481,-0.00448044,0.04381215,0.33734061,-0.
 00054614,-0.00014680,0.00002577,0.00005324,0.00000148,0.00000280,-0.00
 072986,0.00096445,-0.00112126,0.00128359,-0.00021473,0.00046257,-0.000
 28634,0.00027025,-0.00035121,0.00002398,-0.00008353,0.00010497,-0.0007
 4612,0.00114781,0.00053598,-0.00023588,0.00014360,-0.00017231,-0.00268
 207,-0.00054847,-0.00003302,0.00019034,0.00000953,-0.00051835,0.000113
 52,-0.00402629,-0.03246302,-0.00196221,0.00057297,-0.00149535,-0.00042
 676,-0.00017727,-0.00022762,0.00125780,-0.00020372,0.00113730,-0.00002
 706,-0.00007750,-0.00002954,-0.07867968,-0.00230914,0.00181803,0.00047
 646,0.00440368,0.02354369,0.00042713,0.00142434,0.00850195,0.00037617,
 -0.00050037,-0.00112690,0.00003136,0.00024821,0.00083148,-0.00010885,0
 .00184669,0.00030622,0.57877660,0.00023937,0.00001519,0.00000020,-0.00
 002373,-0.00000173,-0.00000035,0.00042480,-0.00004382,0.00010674,-0.00
 045522,0.00019333,-0.00012612,0.00014049,-0.00015147,0.00013848,-0.000
 03700,0.00005903,-0.00004014,0.00003914,-0.00069737,-0.00039905,0.0000
 7471,-0.00003195,0.00015036,0.00180843,-0.00106455,0.00058328,-0.00003
 960,0.00046059,0.00025444,-0.00051323,0.00057048,0.00797974,0.00002413
 ,0.00065863,0.00012174,-0.00017283,-0.00020306,-0.00002297,0.00003827,
 -0.00023695,0.00004470,0.00000971,0.00005202,0.00003381,-0.00180583,-0
 .07742142,-0.01282086,0.00067470,0.00365421,0.01952089,0.00199261,-0.0
 0941305,-0.03814265,-0.00023262,0.00161501,-0.00047476,-0.00069662,0.0
 0140520,-0.00004959,0.00174442,-0.00660039,-0.00200189,-0.00503263,0.5
 8157439,0.00013670,0.00004114,-0.00000968,-0.00001230,0.00000202,-0.00
 000105,0.00053772,-0.00000506,0.00015263,-0.00032383,0.00007217,-0.000
 17591,0.00004243,-0.00007919,0.00007003,0.00000394,0.00001918,-0.00000
 640,-0.00071658,0.00044822,0.00018350,-0.00000465,0.00002461,0.0000502
 5,0.00028510,-0.00168100,0.00080531,0.00006960,-0.00016913,-0.00018015
 ,-0.01076532,0.00129382,-0.02001374,0.00185424,-0.00025519,0.00045929,
 0.00001693,0.00030230,-0.00013037,0.00016468,0.00069247,-0.00016046,0.
 00011604,-0.00013347,-0.00006206,0.00653979,-0.01824064,-0.18782412,0.
 00000906,-0.00272753,-0.01705215,0.00225931,-0.00671986,-0.01238644,-0
 .00055481,0.00158391,0.00116915,-0.00023992,0.00139775,0.00066989,-0.0
 0001494,-0.00015360,0.00090226,0.00122491,-0.01352639,0.47127544,0.000
 06504,0.00001857,0.00001645,-0.00000979,-0.00000379,-0.00000592,0.0000
 0191,-0.00008396,0.00007043,-0.00013795,0.00002464,-0.00009252,0.00003
 771,-0.00004225,0.00005870,-0.00000575,0.00001563,-0.00002036,0.000013
 16,0.00000398,0.00005350,0.00001549,-0.00001253,0.00001005,0.00016671,
 0.00016349,-0.00000473,-0.00000885,-0.00003174,0.00001879,0.00031903,-
 0.00090562,-0.00023201,0.00004864,-0.00014366,0.00037198,0.00012925,-0
 .00006499,-0.00007141,-0.00016207,0.00024078,-0.00006391,0.00000176,-0
 .00001423,-0.00001095,-0.00174003,-0.00039299,-0.00041061,-0.00015005,
 0.00028907,0.00008064,0.00033189,-0.00008002,0.00012138,0.00005835,0.0
 0036518,0.00000257,0.00036210,-0.00039857,-0.00005008,0.00059181,0.000
 11148,0.00003742,-0.06143797,0.05828524,0.01231046,0.06146723,-0.00002
 023,0.00001032,0.00001338,0.00000114,-0.00000518,-0.00000587,-0.000097
 45,0.00001241,-0.00000092,0.00003401,-0.00001161,-0.00000449,-0.000015
 21,0.00001833,0.00000066,0.00000590,-0.00000997,-0.00000419,0.00008199
 ,0.00000672,-0.00007719,-0.00001626,0.00000975,-0.00001310,-0.00037890
 ,0.00025749,-0.00031969,-0.00003375,-0.00004299,-0.00000905,0.00058806
 ,0.00050680,0.00048452,-0.00049525,-0.00017102,0.00017790,0.00012888,0
 .00003651,-0.00006838,-0.00002115,0.00002666,-0.00009143,-0.00000818,-
 0.00001638,-0.00001422,0.00037048,-0.00305618,0.00020034,0.00011329,0.
 00045450,-0.00044264,-0.00000135,0.00101360,-0.00155675,0.00008010,0.0
 0039209,0.00019488,-0.00007382,0.00009172,0.00019414,0.00016199,-0.000
 21771,-0.00009645,0.05763332,-0.29398174,-0.05237351,-0.06351800,0.316
 40374,0.00012611,0.00002839,0.00000306,-0.00001377,-0.00000353,-0.0000
 0234,0.00021215,0.00003755,-0.00001063,-0.00023454,0.00004991,-0.00008
 926,0.00006215,-0.00004586,0.00006745,-0.00001360,0.00001366,-0.000026
 52,-0.00019062,0.00006364,-0.00014187,-0.00000754,-0.00001275,0.000000
 41,0.00006153,0.00026347,0.00022898,0.00007053,-0.00000386,-0.00010886
 ,0.00120166,-0.00093437,0.00123092,-0.00028764,0.00018471,0.00013889,0
 .00001845,0.00002486,-0.00001297,0.00001334,-0.00016153,0.00004353,-0.
 00000777,0.00000769,-0.00000932,0.00622473,-0.03176293,-0.00617693,0.0
 0035590,0.00048021,0.00126091,-0.00038632,0.00024096,-0.00714414,-0.00
 020808,0.00004328,0.00001764,0.00014549,0.00022573,0.00005807,0.000538
 32,-0.00212801,-0.00037191,0.01183748,-0.05078194,-0.05757201,-0.01348
 590,0.05815232,0.06418218,-0.00016692,-0.00002829,-0.00001794,0.000023
 57,0.00000613,0.00000228,-0.00003819,0.00020315,-0.00015564,0.00031244
 ,-0.00004458,0.00014681,-0.00010494,0.00009008,-0.00011693,0.00002167,
 -0.00003533,0.00004210,-0.00025098,0.00004432,-0.00008842,-0.00002259,
 0.00003919,0.00000127,0.00007470,-0.00050684,0.00005513,0.00000959,0.0
 0002853,-0.00000246,0.00062930,0.00044834,-0.00010270,0.00017717,-0.00
 009088,-0.00024301,0.00011101,0.00032467,0.00016012,0.00025235,-0.0001
 5344,-0.00007047,-0.00000108,-0.00000165,0.00000817,0.00108649,0.00020
 444,0.00204066,0.00054725,-0.00006303,-0.00053335,0.00021350,-0.000185
 54,0.00042668,-0.00007053,0.00005965,-0.00010417,0.00028148,-0.0003619
 1,-0.00014284,0.00028594,-0.00014318,0.00005489,-0.26468376,0.05101393
 ,-0.09223139,-0.00535842,0.00043989,-0.00155188,0.28524403,0.00003167,
 0.00000611,0.00000636,-0.00000415,-0.00000037,-0.00000452,0.00010925,0
 .00015120,-0.00007182,-0.00006761,0.00004962,-0.00003069,0.00001060,-0
 .00002448,0.00001507,-0.00000028,0.00000485,-0.00000526,-0.00021919,0.
 00008641,-0.00010997,-0.00001726,0.00001480,0.00001151,-0.00011198,0.0
 0007060,0.00002618,0.00002947,-0.00002145,-0.00002151,-0.00005457,0.00
 064169,-0.00091216,-0.00032805,-0.00000115,-0.00002756,0.00012710,0.00
 021150,0.00011735,0.00018823,-0.00016352,-0.00001621,0.00000793,-0.000
 02005,-0.00001384,-0.00457804,-0.00040425,-0.00125542,0.00027510,-0.00
 002599,0.00036266,-0.00084667,0.00040254,-0.00017954,-0.00010934,-0.00
 004177,0.00003394,0.00027558,-0.00003316,-0.00038738,0.00003500,0.0000
 0064,0.00020812,0.05179067,-0.06017772,0.02142261,0.02784001,-0.004778
 91,0.01243167,-0.05679682,0.05991407,-0.00029575,-0.00006078,0.0000093
 2,0.00002937,0.00000192,0.00000153,-0.00046519,0.00017698,-0.00035567,
 0.00063290,-0.00016473,0.00021603,-0.00015113,0.00015303,-0.00016719,0
 .00002277,-0.00004951,0.00005218,0.00000311,0.00040536,0.00025663,-0.0
 0009932,0.00006597,-0.00008135,-0.00120189,0.00007409,-0.00026037,0.00
 007220,-0.00007345,-0.00017867,0.00228366,-0.00156134,-0.00587539,-0.0
 0024416,0.00044341,-0.00014443,-0.00005642,-0.00032471,0.00000505,0.00
 008125,0.00004229,0.00036985,-0.00005440,-0.00000908,-0.00001953,-0.03
 064769,0.00631590,-0.01345436,0.00024860,0.00060208,0.00116862,-0.0008
 7632,0.00120649,0.00148450,0.00012687,-0.00011271,-0.00005430,0.000631
 62,-0.00078157,-0.00005532,0.00038518,0.00026419,0.00022645,-0.0910573
 8,0.02123975,-0.08443491,0.00686678,-0.00055858,0.00195442,0.10072774,
 -0.02297994,0.09394006,0.00008695,0.00002470,0.00000716,-0.00001133,-0
 .00000375,-0.00000062,0.00007531,-0.00000886,0.00011393,-0.00016871,0.
 00003353,-0.00006592,0.00004417,-0.00003838,0.00004315,-0.00000899,0.0
 0001215,-0.00001510,0.00002768,-0.00002488,-0.00002963,0.00001457,-0.0
 0001177,0.00002108,-0.00002254,0.00005140,0.00003927,-0.00000869,0.000
 01043,0.00000310,0.00032418,0.00087238,0.00008321,-0.00022288,-0.00026
 158,-0.00035746,-0.00050375,-0.00020536,-0.00089550,0.00004235,0.00007
 666,-0.00014690,0.00003052,-0.00004301,-0.00003111,-0.00045039,0.00005
 844,0.00002266,0.00108146,0.00035760,-0.00035310,0.00001700,-0.0000224
 8,0.00001971,0.00005879,0.00040880,0.00040109,-0.00007493,-0.00011192,
 0.00008116,0.00012238,0.00023012,-0.00015151,-0.17045750,-0.10750065,0
 .07929283,0.00540082,0.00504050,-0.00448017,-0.01857306,-0.01758664,0.
 01303760,0.18317661,0.00001335,0.00000617,-0.00002725,0.00000148,0.000
 00318,0.00000474,0.00010224,0.00012531,0.00000600,-0.00002096,-0.00000
 400,0.00003812,-0.00000810,0.00002191,-0.00003574,-0.00000079,-0.00000
 740,0.00000972,-0.00017266,0.00004293,-0.00008755,0.00000955,-0.000007
 75,-0.00000879,0.00011759,-0.00008520,0.00023068,0.00004197,0.00001221
 ,-0.00004854,-0.00070222,0.00009874,0.00011905,0.00001785,-0.00030413,
 -0.00027546,-0.00028451,0.00035153,-0.00028453,0.00022242,-0.00011819,
 -0.00004990,0.00002430,-0.00000727,-0.00000180,0.00422693,0.00208589,-
 0.00194339,0.00041509,0.00074332,-0.00143228,0.00095359,0.00134264,-0.
 00025560,-0.00040394,0.00019553,0.00007849,0.00009273,-0.00005461,0.00
 007028,0.00000465,0.00004759,0.00014508,-0.10713656,-0.14023285,0.0687
 6437,-0.02166569,-0.01694895,0.01358672,0.00550914,0.00413879,-0.00431
 504,0.11864257,0.14855461,0.00003641,0.00000242,0.00001092,-0.00001054
 ,-0.00000015,0.00000178,-0.00018592,-0.00045083,0.00029377,-0.00010980
 ,-0.00003878,-0.00004819,0.00005167,-0.00004219,0.00006958,-0.00000224
 ,0.00001575,-0.00002065,0.00057750,-0.00005979,0.00024200,0.00000197,-
 0.00001676,-0.00001951,-0.00052430,0.00065547,-0.00041343,-0.00005204,
 -0.00021123,0.00010234,0.00147254,-0.00029696,0.00175311,0.00032204,0.
 00060886,-0.00022900,-0.00087604,-0.00071771,-0.00044236,-0.00065154,0
 .00010901,-0.00004313,-0.00003096,0.00001748,-0.00002314,0.02353694,0.
 02005057,-0.01683879,-0.00052673,-0.00158504,-0.00640435,-0.00008452,0
 .00165134,0.00179712,-0.00023517,-0.00104763,0.00014323,-0.00003367,-0
 .00014856,-0.00003764,-0.00042410,-0.00001914,0.00030034,0.07826280,0.
 06821258,-0.09572830,-0.00557074,-0.00378169,0.00248029,-0.00830465,-0
 .00861966,0.00539683,-0.08663892,-0.07428735,0.10765717\\-0.00000019,-
 0.00000169,-0.00000044,-0.00000009,-0.00000170,-0.00000019,-0.00000016
 ,-0.00000006,0.00000026,-0.00000031,-0.00000027,0.00000052,-0.00000092
 ,0.00000078,0.00000179,-0.00000142,0.00000150,0.00000242,-0.00000094,0
 .00000103,0.00000182,-0.00000092,0.00000213,0.00000253,-0.00000067,0.0
 0000140,0.00000123,-0.00000090,0.00000234,0.00000207,0.00000156,-0.000
 00005,0.00000094,0.00000020,-0.00000089,-0.00000100,0.00000084,-0.0000
 0176,-0.00000202,0.00000045,-0.00000115,-0.00000057,0.00000055,-0.0000
 0217,-0.00000161,-0.00000110,0.00000069,-0.00000111,-0.00000023,0.0000
 0160,0.00000078,0.00000137,0.00000130,-0.00000152,0.00000163,-0.000000
 01,-0.00000274,0.00000145,0.00000134,-0.00000176,0.00000161,0.00000245
 ,-0.00000219,-0.00000033,-0.00000129,-0.00000004,-0.00000116,-0.000001
 63,0.00000142,-0.00000010,-0.00000115,0.00000012,-0.00000021,-0.000002
 72,-0.00000072\\\@
 The archive entry for this job was punched.


 WHAT THE SLIME CONTAINS, THE GLOWING REVEALS
 BY THE FLAME'S BRIGHT HUE WHEN YOU IGNITE IT.
   --  LEONARD THURNEYSSER, 1531-1596
 DESCRIBING HIS FLAME PHOTOLYSIS ANALYTIC METHOD
 Job cpu time:       0 days  1 hours 47 minutes 19.2 seconds.
 Elapsed time:       0 days  0 hours  3 minutes 25.4 seconds.
 File lengths (MBytes):  RWF=    262 Int=      0 D2E=      0 Chk=     11 Scr=      1
 Normal termination of Gaussian 16 at Mon Apr 21 18:32:29 2025.
