/home/tahminaafroz
cn012.cluster.local
tahminaafroz
Sat Apr 26 19:58:51 CDT 2025
 Entering Gaussian System, Link 0=g16
 Initial command:
 /home/apps/g16/l1.exe "/tmp/4-isopropyl-phboh2-opt-freq-thf-2/Gau-3953705.inp" -scrdir="/tmp/4-isopropyl-phboh2-opt-freq-thf-2/"
 Entering Link 1 = /home/apps/g16/l1.exe PID=   3953706.
  
 Copyright (c) 1988-2019, Gaussian, Inc.  All Rights Reserved.
  
 This is part of the Gaussian(R) 16 program.  It is based on
 the Gaussian(R) 09 system (copyright 2009, Gaussian, Inc.),
 the Gaussian(R) 03 system (copyright 2003, Gaussian, Inc.),
 the Gaussian(R) 98 system (copyright 1998, Gaussian, Inc.),
 the Gaussian(R) 94 system (copyright 1995, Gaussian, Inc.),
 the Gaussian 92(TM) system (copyright 1992, Gaussian, Inc.),
 the Gaussian 90(TM) system (copyright 1990, Gaussian, Inc.),
 the Gaussian 88(TM) system (copyright 1988, Gaussian, Inc.),
 the Gaussian 86(TM) system (copyright 1986, Carnegie Mellon
 University), and the Gaussian 82(TM) system (copyright 1983,
 Carnegie Mellon University). Gaussian is a federally registered
 trademark of Gaussian, Inc.
  
 This software contains proprietary and confidential information,
 including trade secrets, belonging to Gaussian, Inc.
  
 This software is provided under written license and may be
 used, copied, transmitted, or stored only in accord with that
 written license.
  
 The following legend is applicable only to US Government
 contracts under FAR:
  
                    RESTRICTED RIGHTS LEGEND
  
 Use, reproduction and disclosure by the US Government is
 subject to restrictions as set forth in subparagraphs (a)
 and (c) of the Commercial Computer Software - Restricted
 Rights clause in FAR 52.227-19.
  
 Gaussian, Inc.
 340 Quinnipiac St., Bldg. 40, Wallingford CT 06492
  
  
 ---------------------------------------------------------------
 Warning -- This program may not be used in any manner that
 competes with the business of Gaussian, Inc. or will provide
 assistance to any competitor of Gaussian, Inc.  The licensee
 of this program is prohibited from giving any competitor of
 Gaussian, Inc. access to this program.  By using this program,
 the user acknowledges that Gaussian, Inc. is engaged in the
 business of creating and licensing software in the field of
 computational chemistry and represents and warrants to the
 licensee that it is not a competitor of Gaussian, Inc. and that
 it will not use this program in any manner prohibited above.
 ---------------------------------------------------------------
  

 Cite this work as:
 Gaussian 16, Revision C.01,
 M. J. Frisch, G. W. Trucks, H. B. Schlegel, G. E. Scuseria, 
 M. A. Robb, J. R. Cheeseman, G. Scalmani, V. Barone, 
 G. A. Petersson, H. Nakatsuji, X. Li, M. Caricato, A. V. Marenich, 
 J. Bloino, B. G. Janesko, R. Gomperts, B. Mennucci, H. P. Hratchian, 
 J. V. Ortiz, A. F. Izmaylov, J. L. Sonnenberg, D. Williams-Young, 
 F. Ding, F. Lipparini, F. Egidi, J. Goings, B. Peng, A. Petrone, 
 T. Henderson, D. Ranasinghe, V. G. Zakrzewski, J. Gao, N. Rega, 
 G. Zheng, W. Liang, M. Hada, M. Ehara, K. Toyota, R. Fukuda, 
 J. Hasegawa, M. Ishida, T. Nakajima, Y. Honda, O. Kitao, H. Nakai, 
 T. Vreven, K. Throssell, J. A. Montgomery, Jr., J. E. Peralta, 
 F. Ogliaro, M. J. Bearpark, J. J. Heyd, E. N. Brothers, K. N. Kudin, 
 V. N. Staroverov, T. A. Keith, R. Kobayashi, J. Normand, 
 K. Raghavachari, A. P. Rendell, J. C. Burant, S. S. Iyengar, 
 J. Tomasi, M. Cossi, J. M. Millam, M. Klene, C. Adamo, R. Cammi, 
 J. W. Ochterski, R. L. Martin, K. Morokuma, O. Farkas, 
 J. B. Foresman, and D. J. Fox, Gaussian, Inc., Wallingford CT, 2019.
 
 ******************************************
 Gaussian 16:  AS64L-G16RevC.01  3-Jul-2019
                26-Apr-2025 
 ******************************************
 %mem=20GB
 %nprocshared=32
 Will use up to   32 processors via shared memory.
 %chk=4-isopropyl-phboh2-opt-freq-thf-2.chk
 ----------------------------------------------------------------------
 # opt=(calcfc,tight) freq 6-311+g(d,p) scrf=(smd,solvent=thf) nosymm s
 cf=(qc,fermi,xqc) geom=connectivity int=ultrafine m062x
 ----------------------------------------------------------------------
 1/7=10,10=4,18=20,19=15,26=6,38=1,57=2/1,3;
 2/9=110,12=2,15=1,17=6,18=5,40=1/2;
 3/5=4,6=6,7=111,11=2,25=1,30=1,70=32201,71=2,72=20,74=-55,75=-5,140=1/1,2,3;
 4//1;
 5/5=2,22=13,38=5,53=20/2;
 8/6=4,10=90,11=11/1;
 11/6=1,8=1,9=11,15=111,16=1,31=1/1,2,10;
 10/6=1,13=1,31=1/2;
 6/7=2,8=2,9=2,10=2,28=1/1;
 7/10=1,25=1,30=1/1,2,3,16;
 1/7=10,10=4,18=20,19=15,26=6/3(2);
 2/9=110,15=1/2;
 99//99;
 2/9=110,15=1/2;
 3/5=4,6=6,7=111,11=2,25=1,30=1,70=32205,71=1,72=20,74=-55,75=-5/1,2,3;
 4/5=5,16=3,69=1/1;
 5/5=2,22=13,38=5,53=20/2;
 7/30=1/1,2,3,16;
 1/7=10,18=20,19=15,26=6/3(-5);
 2/9=110,15=1/2;
 6/7=2,8=2,9=2,10=2,19=2,28=1/1;
 99/9=1/99;
 ---------------------------------
 4-isopropyl-phboh2-opt-freq-thf-2
 ---------------------------------
 Symbolic Z-matrix:
 Charge =  0 Multiplicity = 1
 O                     8.76269   7.25993   5.33771 
 H                     9.56498   6.97193   5.78803 
 C                     6.26553   6.97052   5.16258 
 B                     7.65377   6.60193   5.78833 
 O                     7.83119   5.66053   6.76657 
 H                     7.01934   5.23736   7.06148 
 C                     5.08227   6.30503   5.50004 
 H                     5.08788   5.48637   6.21522 
 C                     3.86306   6.66304   4.9313 
 H                     2.95995   6.1299    5.21172 
 C                     3.78304   7.70124   4.00246 
 C                     4.96278   8.37007   3.65609 
 H                     4.92922   9.18037   2.93436 
 C                     6.17721   8.00973   4.22451 
 H                     7.07879   8.54248   3.94079 
 C                     2.45623   8.08943   3.38195 
 H                     1.69035   7.44666   3.82683 
 C                     2.09958   9.54639   3.69416 
 H                     2.82596   10.2297   3.24499 
 H                     1.114     9.79113   3.2894 
 H                     2.0832    9.72866   4.77148 
 C                     2.46349   7.848     1.86864 
 H                     2.69844   6.80676   1.63466 
 H                     1.48533   8.08399   1.44112 
 H                     3.20741   8.48261   1.37838 
 

 GradGradGradGradGradGradGradGradGradGradGradGradGradGradGradGradGradGrad
 Berny optimization.
 Initialization pass.
                           ----------------------------
                           !    Initial Parameters    !
                           ! (Angstroms and Degrees)  !
 --------------------------                            --------------------------
 ! Name  Definition              Value          Derivative Info.                !
 --------------------------------------------------------------------------------
 ! R1    R(1,2)                  0.964          calculate D2E/DX2 analytically  !
 ! R2    R(1,4)                  1.3659         calculate D2E/DX2 analytically  !
 ! R3    R(3,4)                  1.5667         calculate D2E/DX2 analytically  !
 ! R4    R(3,7)                  1.3989         calculate D2E/DX2 analytically  !
 ! R5    R(3,14)                 1.4028         calculate D2E/DX2 analytically  !
 ! R6    R(4,5)                  1.3692         calculate D2E/DX2 analytically  !
 ! R7    R(5,6)                  0.9618         calculate D2E/DX2 analytically  !
 ! R8    R(7,8)                  1.0871         calculate D2E/DX2 analytically  !
 ! R9    R(7,9)                  1.3922         calculate D2E/DX2 analytically  !
 ! R10   R(9,10)                 1.0856         calculate D2E/DX2 analytically  !
 ! R11   R(9,11)                 1.3954         calculate D2E/DX2 analytically  !
 ! R12   R(11,12)                1.3997         calculate D2E/DX2 analytically  !
 ! R13   R(11,16)                1.5153         calculate D2E/DX2 analytically  !
 ! R14   R(12,13)                1.0856         calculate D2E/DX2 analytically  !
 ! R15   R(12,14)                1.3884         calculate D2E/DX2 analytically  !
 ! R16   R(14,15)                1.085          calculate D2E/DX2 analytically  !
 ! R17   R(16,17)                1.0944         calculate D2E/DX2 analytically  !
 ! R18   R(16,18)                1.5321         calculate D2E/DX2 analytically  !
 ! R19   R(16,22)                1.5325         calculate D2E/DX2 analytically  !
 ! R20   R(18,19)                1.0937         calculate D2E/DX2 analytically  !
 ! R21   R(18,20)                1.0932         calculate D2E/DX2 analytically  !
 ! R22   R(18,21)                1.0928         calculate D2E/DX2 analytically  !
 ! R23   R(22,23)                1.0928         calculate D2E/DX2 analytically  !
 ! R24   R(22,24)                1.0933         calculate D2E/DX2 analytically  !
 ! R25   R(22,25)                1.0939         calculate D2E/DX2 analytically  !
 ! A1    A(2,1,4)              112.1861         calculate D2E/DX2 analytically  !
 ! A2    A(4,3,7)              122.7673         calculate D2E/DX2 analytically  !
 ! A3    A(4,3,14)             119.8132         calculate D2E/DX2 analytically  !
 ! A4    A(7,3,14)             117.4193         calculate D2E/DX2 analytically  !
 ! A5    A(1,4,3)              118.3116         calculate D2E/DX2 analytically  !
 ! A6    A(1,4,5)              117.4984         calculate D2E/DX2 analytically  !
 ! A7    A(3,4,5)              124.1897         calculate D2E/DX2 analytically  !
 ! A8    A(4,5,6)              114.3426         calculate D2E/DX2 analytically  !
 ! A9    A(3,7,8)              120.8383         calculate D2E/DX2 analytically  !
 ! A10   A(3,7,9)              121.3252         calculate D2E/DX2 analytically  !
 ! A11   A(8,7,9)              117.8361         calculate D2E/DX2 analytically  !
 ! A12   A(7,9,10)             119.7852         calculate D2E/DX2 analytically  !
 ! A13   A(7,9,11)             120.8973         calculate D2E/DX2 analytically  !
 ! A14   A(10,9,11)            119.3176         calculate D2E/DX2 analytically  !
 ! A15   A(9,11,12)            118.1598         calculate D2E/DX2 analytically  !
 ! A16   A(9,11,16)            120.8912         calculate D2E/DX2 analytically  !
 ! A17   A(12,11,16)           120.9485         calculate D2E/DX2 analytically  !
 ! A18   A(11,12,13)           119.6775         calculate D2E/DX2 analytically  !
 ! A19   A(11,12,14)           120.7906         calculate D2E/DX2 analytically  !
 ! A20   A(13,12,14)           119.5319         calculate D2E/DX2 analytically  !
 ! A21   A(3,14,12)            121.407          calculate D2E/DX2 analytically  !
 ! A22   A(3,14,15)            119.0991         calculate D2E/DX2 analytically  !
 ! A23   A(12,14,15)           119.4938         calculate D2E/DX2 analytically  !
 ! A24   A(11,16,17)           107.2085         calculate D2E/DX2 analytically  !
 ! A25   A(11,16,18)           111.3454         calculate D2E/DX2 analytically  !
 ! A26   A(11,16,22)           111.0924         calculate D2E/DX2 analytically  !
 ! A27   A(17,16,18)           108.2269         calculate D2E/DX2 analytically  !
 ! A28   A(17,16,22)           108.1928         calculate D2E/DX2 analytically  !
 ! A29   A(18,16,22)           110.6188         calculate D2E/DX2 analytically  !
 ! A30   A(16,18,19)           110.8433         calculate D2E/DX2 analytically  !
 ! A31   A(16,18,20)           110.3225         calculate D2E/DX2 analytically  !
 ! A32   A(16,18,21)           111.2847         calculate D2E/DX2 analytically  !
 ! A33   A(19,18,20)           107.8678         calculate D2E/DX2 analytically  !
 ! A34   A(19,18,21)           108.0964         calculate D2E/DX2 analytically  !
 ! A35   A(20,18,21)           108.3106         calculate D2E/DX2 analytically  !
 ! A36   A(16,22,23)           111.2587         calculate D2E/DX2 analytically  !
 ! A37   A(16,22,24)           110.3597         calculate D2E/DX2 analytically  !
 ! A38   A(16,22,25)           110.7576         calculate D2E/DX2 analytically  !
 ! A39   A(23,22,24)           108.3193         calculate D2E/DX2 analytically  !
 ! A40   A(23,22,25)           108.0961         calculate D2E/DX2 analytically  !
 ! A41   A(24,22,25)           107.938          calculate D2E/DX2 analytically  !
 ! D1    D(2,1,4,3)            179.376          calculate D2E/DX2 analytically  !
 ! D2    D(2,1,4,5)             -0.4312         calculate D2E/DX2 analytically  !
 ! D3    D(7,3,4,1)            176.3458         calculate D2E/DX2 analytically  !
 ! D4    D(7,3,4,5)             -3.8609         calculate D2E/DX2 analytically  !
 ! D5    D(14,3,4,1)            -3.8151         calculate D2E/DX2 analytically  !
 ! D6    D(14,3,4,5)           175.9781         calculate D2E/DX2 analytically  !
 ! D7    D(4,3,7,8)             -0.6215         calculate D2E/DX2 analytically  !
 ! D8    D(4,3,7,9)            179.5983         calculate D2E/DX2 analytically  !
 ! D9    D(14,3,7,8)           179.5359         calculate D2E/DX2 analytically  !
 ! D10   D(14,3,7,9)            -0.2443         calculate D2E/DX2 analytically  !
 ! D11   D(4,3,14,12)         -179.5536         calculate D2E/DX2 analytically  !
 ! D12   D(4,3,14,15)            0.3258         calculate D2E/DX2 analytically  !
 ! D13   D(7,3,14,12)            0.294          calculate D2E/DX2 analytically  !
 ! D14   D(7,3,14,15)         -179.8267         calculate D2E/DX2 analytically  !
 ! D15   D(1,4,5,6)            178.9128         calculate D2E/DX2 analytically  !
 ! D16   D(3,4,5,6)             -0.8819         calculate D2E/DX2 analytically  !
 ! D17   D(3,7,9,10)          -179.9671         calculate D2E/DX2 analytically  !
 ! D18   D(3,7,9,11)             0.0186         calculate D2E/DX2 analytically  !
 ! D19   D(8,7,9,10)             0.2463         calculate D2E/DX2 analytically  !
 ! D20   D(8,7,9,11)          -179.768          calculate D2E/DX2 analytically  !
 ! D21   D(7,9,11,12)            0.1633         calculate D2E/DX2 analytically  !
 ! D22   D(7,9,11,16)          179.9077         calculate D2E/DX2 analytically  !
 ! D23   D(10,9,11,12)        -179.8509         calculate D2E/DX2 analytically  !
 ! D24   D(10,9,11,16)          -0.1065         calculate D2E/DX2 analytically  !
 ! D25   D(9,11,12,13)         179.8783         calculate D2E/DX2 analytically  !
 ! D26   D(9,11,12,14)          -0.1141         calculate D2E/DX2 analytically  !
 ! D27   D(16,11,12,13)          0.1341         calculate D2E/DX2 analytically  !
 ! D28   D(16,11,12,14)       -179.8584         calculate D2E/DX2 analytically  !
 ! D29   D(9,11,16,17)           1.6927         calculate D2E/DX2 analytically  !
 ! D30   D(9,11,16,18)         119.8952         calculate D2E/DX2 analytically  !
 ! D31   D(9,11,16,22)        -116.3272         calculate D2E/DX2 analytically  !
 ! D32   D(12,11,16,17)       -178.57           calculate D2E/DX2 analytically  !
 ! D33   D(12,11,16,18)        -60.3676         calculate D2E/DX2 analytically  !
 ! D34   D(12,11,16,22)         63.41           calculate D2E/DX2 analytically  !
 ! D35   D(11,12,14,3)          -0.1184         calculate D2E/DX2 analytically  !
 ! D36   D(11,12,14,15)       -179.9973         calculate D2E/DX2 analytically  !
 ! D37   D(13,12,14,3)         179.8891         calculate D2E/DX2 analytically  !
 ! D38   D(13,12,14,15)          0.0103         calculate D2E/DX2 analytically  !
 ! D39   D(11,16,18,19)         63.9105         calculate D2E/DX2 analytically  !
 ! D40   D(11,16,18,20)       -176.6761         calculate D2E/DX2 analytically  !
 ! D41   D(11,16,18,21)        -56.4223         calculate D2E/DX2 analytically  !
 ! D42   D(17,16,18,19)       -178.5016         calculate D2E/DX2 analytically  !
 ! D43   D(17,16,18,20)        -59.0882         calculate D2E/DX2 analytically  !
 ! D44   D(17,16,18,21)         61.1655         calculate D2E/DX2 analytically  !
 ! D45   D(22,16,18,19)        -60.1355         calculate D2E/DX2 analytically  !
 ! D46   D(22,16,18,20)         59.2779         calculate D2E/DX2 analytically  !
 ! D47   D(22,16,18,21)        179.5317         calculate D2E/DX2 analytically  !
 ! D48   D(11,16,22,23)         56.8748         calculate D2E/DX2 analytically  !
 ! D49   D(11,16,22,24)        177.1472         calculate D2E/DX2 analytically  !
 ! D50   D(11,16,22,25)        -63.3827         calculate D2E/DX2 analytically  !
 ! D51   D(17,16,22,23)        -60.5473         calculate D2E/DX2 analytically  !
 ! D52   D(17,16,22,24)         59.7251         calculate D2E/DX2 analytically  !
 ! D53   D(17,16,22,25)        179.1952         calculate D2E/DX2 analytically  !
 ! D54   D(18,16,22,23)       -178.9342         calculate D2E/DX2 analytically  !
 ! D55   D(18,16,22,24)        -58.6618         calculate D2E/DX2 analytically  !
 ! D56   D(18,16,22,25)         60.8083         calculate D2E/DX2 analytically  !
 --------------------------------------------------------------------------------
 Trust Radius=3.00D-01 FncErr=5.00D-06 GrdErr=5.00D-06 EigMax=2.50D+02 EigMin=1.00D-04
 Number of steps in this run=    132 maximum allowed number of steps=    150.
 GradGradGradGradGradGradGradGradGradGradGradGradGradGradGradGradGradGrad

                          Input orientation:                          
 ---------------------------------------------------------------------
 Center     Atomic      Atomic             Coordinates (Angstroms)
 Number     Number       Type             X           Y           Z
 ---------------------------------------------------------------------
      1          8           0        8.762693    7.259929    5.337714
      2          1           0        9.564979    6.971929    5.788026
      3          6           0        6.265531    6.970522    5.162584
      4          5           0        7.653771    6.601927    5.788333
      5          8           0        7.831189    5.660533    6.766567
      6          1           0        7.019340    5.237356    7.061477
      7          6           0        5.082274    6.305033    5.500040
      8          1           0        5.087875    5.486372    6.215224
      9          6           0        3.863058    6.663035    4.931300
     10          1           0        2.959949    6.129902    5.211721
     11          6           0        3.783040    7.701244    4.002464
     12          6           0        4.962782    8.370066    3.656085
     13          1           0        4.929224    9.180368    2.934362
     14          6           0        6.177208    8.009729    4.224510
     15          1           0        7.078790    8.542482    3.940788
     16          6           0        2.456230    8.089434    3.381947
     17          1           0        1.690345    7.446663    3.826827
     18          6           0        2.099582    9.546390    3.694156
     19          1           0        2.825958   10.229700    3.244987
     20          1           0        1.114000    9.791128    3.289395
     21          1           0        2.083204    9.728660    4.771480
     22          6           0        2.463487    7.848000    1.868644
     23          1           0        2.698439    6.806760    1.634662
     24          1           0        1.485329    8.083986    1.441123
     25          1           0        3.207414    8.482612    1.378378
 ---------------------------------------------------------------------
                    Distance matrix (angstroms):
                    1          2          3          4          5
     1  O    0.000000
     2  H    0.964048   0.000000
     3  C    2.519969   3.358204   0.000000
     4  B    1.365918   1.946694   1.566727   0.000000
     5  O    2.338245   2.383974   2.596174   1.369176   0.000000
     6  H    3.178276   3.333271   2.679158   1.971155   0.961847
     7  C    3.805740   4.541182   1.398874   2.604584   3.094512
     8  H    4.173705   4.736437   2.167401   2.830286   2.803584
     9  C    4.952563   5.774192   2.433088   3.886868   4.485452
    10  H    5.913093   6.683379   3.411148   4.752605   5.134864
    11  C    5.174417   6.095158   2.835947   4.402316   5.309640
    12  C    4.301117   5.261195   2.434218   3.861893   5.024383
    13  H    4.915249   5.874592   3.410881   4.713456   5.957888
    14  C    2.913101   3.872803   1.402760   2.570542   3.836200
    15  H    2.536114   3.472760   2.150636   2.740398   4.105699
    16  C    6.654666   7.587644   4.351253   5.917584   6.800397
    17  H    7.234346   8.129055   4.789915   6.334314   7.038629
    18  C    7.233688   8.169718   5.113366   6.626044   7.575679
    19  H    6.960163   7.905348   5.111759   6.552643   7.637483
    20  H    8.312947   9.252572   6.164651   7.693133   8.618188
    21  H    7.143586   8.038028   5.025151   6.468513   7.319109
    22  C    7.215280   8.158446   5.106422   6.622364   7.588602
    23  H    7.119911   8.026648   5.019681   6.469177   7.348157
    24  H    8.295934   9.241914   6.159497   7.690540   8.631536
    25  H    6.930543   7.883260   5.094969   6.538713   7.640419
                    6          7          8          9         10
     6  H    0.000000
     7  C    2.707442   0.000000
     8  H    2.123372   1.087072   0.000000
     9  C    4.065997   1.392163   2.129125   0.000000
    10  H    4.549384   2.148968   2.439102   1.085575   0.000000
    11  C    5.089395   2.424902   3.391837   1.395356   2.146834
    12  C    5.063595   2.771067   3.857529   2.397816   3.383737
    13  H    6.078569   3.856641   4.943160   3.385474   4.285995
    14  C    4.055073   2.394127   3.393659   2.769192   3.854749
    15  H    4.545997   3.379870   4.298443   3.854136   4.939703
    16  C    6.518839   3.816610   4.661432   2.532642   2.727924
    17  H    6.613788   3.950714   4.592428   2.560198   2.294272
    18  C    7.355994   4.760679   5.636437   3.599182   3.836095
    19  H    7.554704   5.057592   6.036368   4.079256   4.549103
    20  H    8.356942   5.725994   6.548518   4.476398   4.528514
    21  H    7.055589   4.609386   5.395318   3.548447   3.730088
    22  C    7.384902   4.735592   5.599773   3.569706   3.791372
    23  H    7.112210   4.568977   5.332389   3.499259   3.649914
    24  H    8.385521   5.707670   6.520581   4.455786   4.495593
    25  H    7.573644   5.024445   5.992384   4.045242   4.504553
                   11         12         13         14         15
    11  C    0.000000
    12  C    1.399676   0.000000
    13  H    2.154620   1.085633   0.000000
    14  C    2.424151   1.388445   2.142975   0.000000
    15  H    3.401978   2.142025   2.457728   1.084977   0.000000
    16  C    1.515308   2.537067   2.739739   3.816011   4.678207
    17  H    2.115427   3.404507   3.780551   4.539508   5.499922
    18  C    2.516674   3.095659   2.952648   4.389719   5.085388
    19  H    2.807644   2.862387   2.370931   4.137465   4.627896
    20  H    3.464081   4.119102   3.880079   5.448293   6.128797
    21  H    2.755221   3.373700   3.431539   4.473787   5.201245
    22  C    2.513154   3.116725   2.998469   4.400907   5.106575
    23  H    2.753715   3.414283   3.507084   4.500698   5.245800
    24  H    3.462143   4.132866   3.910528   5.455867   6.143724
    25  H    2.797804   2.877835   2.423341   4.140503   4.642960
                   16         17         18         19         20
    16  C    0.000000
    17  H    1.094373   0.000000
    18  C    1.532120   2.143346   0.000000
    19  H    2.176280   3.061609   1.093749   0.000000
    20  H    2.169311   2.473363   1.093206   1.767800   0.000000
    21  H    2.181058   2.500843   1.092757   1.770002   1.771958
    22  C    1.532458   2.143199   2.519811   2.774563   2.759601
    23  H    2.181037   2.496261   3.479327   3.784960   3.762319
    24  H    2.170133   2.477861   2.755375   3.107298   2.543291
    25  H    2.175582   3.060979   2.778802   2.584967   3.121952
                   21         22         23         24         25
    21  H    0.000000
    22  C    3.479649   0.000000
    23  H    4.330778   1.092763   0.000000
    24  H    3.762138   1.093278   1.772117   0.000000
    25  H    3.785449   1.093856   1.770090   1.768733   0.000000
 Symmetry turned off by external request.
 Stoichiometry    C9H13BO2
 Framework group  C1[X(C9H13BO2)]
 Deg. of freedom    69
 Full point group                 C1      NOp   1
 Rotational constants (GHZ):           2.5047365           0.4248630           0.3940146
 Standard basis: 6-311+G(d,p) (5D, 7F)
   342 basis functions,   536 primitive gaussians,   354 cartesian basis functions
    44 alpha electrons       44 beta electrons
       nuclear repulsion energy       652.1316671697 Hartrees.
 NAtoms=   25 NActive=   25 NUniq=   25 SFac= 1.00D+00 NAtFMM=   60 NAOKFM=F Big=F
 Integral buffers will be    131072 words long.
 Raffenetti 2 integral format.
 Two-electron integral symmetry is turned off.
 Force inversion solution in PCM.
 ------------------------------------------------------------------------------
 Polarizable Continuum Model (PCM)
 =================================
 Model                : PCM.
 Atomic radii         : SMD-Coulomb.
 Polarization charges : Total charges.
 Charge compensation  : None.
 Solution method      : Matrix inversion.
 Cavity type          : VdW (van der Waals Surface) (Alpha=1.000).
 Cavity algorithm     : GePol (No added spheres)
                        Default sphere list used, NSphG=   25.
                        Lebedev-Laikov grids with approx.  5.0 points / Ang**2.
                        Smoothing algorithm: York/Karplus (Gamma=1.0000).
                        Polarization charges: spherical gaussians, with
                                              point-specific exponents (IZeta= 3).
                        Self-potential: point-specific (ISelfS= 7).
                        Self-field    : sphere-specific E.n sum rule (ISelfD= 2).
 1st derivatives      : Analytical E(r).r(x)/FMM algorithm (CHGder, D1EAlg=3).
                        Cavity 1st derivative terms included.
 2nd derivatives      : Analytical E(r).r(xy)/FMM algorithm (CHGder, D2EAlg=3).
                        Cavity 2nd derivative terms included.
 Solvent              : TetraHydroFuran, Eps=   7.425700 Eps(inf)=   1.974025
 ------------------------------------------------------------------------------
 ------------------------------------------------------------------------------
 Atomic radii for non-electrostatic terms: SMD-CDS.
 ------------------------------------------------------------------------------
 Nuclear repulsion after PCM non-electrostatic terms =      652.1269809914 Hartrees.
 One-electron integrals computed using PRISM.
 NBasis=   342 RedAO= T EigKep=  1.32D-06  NBF=   342
 NBsUse=   342 1.00D-06 EigRej= -1.00D+00 NBFU=   342
 ExpMin= 3.15D-02 ExpMax= 8.59D+03 ExpMxC= 1.30D+03 IAcc=3 IRadAn=         5 AccDes= 0.00D+00
 Harris functional with IExCor= 1009 and IRadAn=       5 diagonalized for initial guess.
 HarFok:  IExCor= 1009 AccDes= 0.00D+00 IRadAn=         5 IDoV= 1 UseB2=F ITyADJ=14
 ICtDFT=  3500011 ScaDFX=  1.000000  1.000000  1.000000  1.000000
 FoFCou: FMM=F IPFlag=           0 FMFlag=      100000 FMFlg1=           0
         NFxFlg=           0 DoJE=T BraDBF=F KetDBF=T FulRan=T
         wScrn=  0.000000 ICntrl=       500 IOpCl=  0 I1Cent=   200000004 NGrid=           0
         NMat0=    1 NMatS0=      1 NMatT0=    0 NMatD0=    1 NMtDS0=    0 NMtDT0=    0
 Symmetry not used in FoFCou.
 Requested convergence on RMS density matrix=1.00D-08 within 128 cycles.
 Requested convergence on MAX density matrix=1.00D-06.
 Requested convergence on             energy=1.00D-06.
 Level shift goal  0.100 maximum shift  0.100.
 No special actions if energy rises.
 Dynamic level shift is on during FON iterations.
 Inv3:  Mode=1 IEnd=    11654523.
 Iteration    1 A*A^-1 deviation from unit magnitude is 5.22D-15 for   1950.
 Iteration    1 A*A^-1 deviation from orthogonality  is 2.32D-15 for   1962   1871.
 Iteration    1 A^-1*A deviation from unit magnitude is 5.11D-15 for   1950.
 Iteration    1 A^-1*A deviation from orthogonality  is 2.16D-15 for   1968   1829.
 Error on total polarization charges =  0.03757
 SCF Done:  E(RM062X) =  -526.154908500     A.U. after   13 cycles
            NFock= 13  Conv=0.93D-08     -V/T= 2.0040
 SMD-CDS (non-electrostatic) energy       (kcal/mol) =      -2.94
 (included in total energy above)
 DoSCS=F DFT=T ScalE2(SS,OS)=  1.000000  1.000000
 Range of M.O.s used for correlation:     1   342
 NBasis=   342 NAE=    44 NBE=    44 NFC=     0 NFV=     0
 NROrb=    342 NOA=    44 NOB=    44 NVA=   298 NVB=   298

 **** Warning!!: The largest alpha MO coefficient is  0.20243843D+03

 Symmetrizing basis deriv contribution to polar:
 IMax=3 JMax=2 DiffMx= 0.00D+00
 G2DrvN: will do    26 centers at a time, making    1 passes.
 Calling FoFCou, ICntrl=  3107 FMM=F I1Cent=   0 AccDes= 0.00D+00.
 NEqPCM:  Using equilibrium solvation (IEInf=0, Eps=   7.4257, EpsInf=   1.9740)
 G2PCM: DoFxE=T DoFxN=T DoGrad=T DoDP/DQ/DG/TGxP=FFFF NFrqRd=   0 IEInf=0 SqF1=F DoCFld=F IF1Alg=4.
 End of G2Drv F.D. properties file   721 does not exist.
 End of G2Drv F.D. properties file   722 does not exist.
 End of G2Drv F.D. properties file   788 does not exist.
          IDoAtm=1111111111111111111111111
 NEqPCM:  Using equilibrium solvation (IEInf=0, Eps=   7.4257, EpsInf=   1.9740)
          Differentiating once with respect to nuclear coordinates.
 Keep R1 ints in memory in canonical form, NReq=1757083893.
          There are    78 degrees of freedom in the 1st order CPHF.  IDoFFX=6 NUNeed=     0.
     72 vectors produced by pass  0 Test12= 1.68D-14 1.28D-09 XBig12= 1.58D-01 1.03D-01.
 AX will form    72 AO Fock derivatives at one time.
     72 vectors produced by pass  1 Test12= 1.68D-14 1.28D-09 XBig12= 7.73D-03 3.28D-02.
     72 vectors produced by pass  2 Test12= 1.68D-14 1.28D-09 XBig12= 2.68D-04 2.34D-03.
     72 vectors produced by pass  3 Test12= 1.68D-14 1.28D-09 XBig12= 1.74D-06 1.66D-04.
     72 vectors produced by pass  4 Test12= 1.68D-14 1.28D-09 XBig12= 1.14D-08 1.11D-05.
     72 vectors produced by pass  5 Test12= 1.68D-14 1.28D-09 XBig12= 5.35D-11 7.69D-07.
     55 vectors produced by pass  6 Test12= 1.68D-14 1.28D-09 XBig12= 2.11D-13 3.84D-08.
      9 vectors produced by pass  7 Test12= 1.68D-14 1.28D-09 XBig12= 6.91D-16 2.61D-09.
 InvSVY:  IOpt=1 It=  1 EMax= 4.44D-16
 Solved reduced A of dimension   496 with    78 vectors.
 End of Minotr F.D. properties file   721 does not exist.
 End of Minotr F.D. properties file   722 does not exist.
 End of Minotr F.D. properties file   788 does not exist.

 **********************************************************************

            Population analysis using the SCF Density.

 **********************************************************************

 Alpha  occ. eigenvalues --  -19.63408 -19.62845 -10.55006 -10.54650 -10.54187
 Alpha  occ. eigenvalues --  -10.54056 -10.53898 -10.53774 -10.52603 -10.51846
 Alpha  occ. eigenvalues --  -10.51834  -7.08102  -1.16417  -1.12719  -0.96518
 Alpha  occ. eigenvalues --   -0.89983  -0.84186  -0.82373  -0.76954  -0.70747
 Alpha  occ. eigenvalues --   -0.68643  -0.65362  -0.63776  -0.62469  -0.57007
 Alpha  occ. eigenvalues --   -0.54327  -0.51893  -0.50305  -0.49109  -0.48188
 Alpha  occ. eigenvalues --   -0.48061  -0.47359  -0.47299  -0.45264  -0.44521
 Alpha  occ. eigenvalues --   -0.42616  -0.40619  -0.40394  -0.40239  -0.39465
 Alpha  occ. eigenvalues --   -0.37809  -0.36899  -0.30893  -0.29928
 Alpha virt. eigenvalues --   -0.00054   0.00162   0.01799   0.01908   0.02165
 Alpha virt. eigenvalues --    0.03057   0.03350   0.03918   0.04554   0.04966
 Alpha virt. eigenvalues --    0.06277   0.06775   0.07491   0.07728   0.08071
 Alpha virt. eigenvalues --    0.09501   0.09967   0.10542   0.10754   0.11337
 Alpha virt. eigenvalues --    0.11792   0.12859   0.13341   0.13522   0.14612
 Alpha virt. eigenvalues --    0.15350   0.15763   0.16117   0.16325   0.16654
 Alpha virt. eigenvalues --    0.17452   0.17850   0.18539   0.19217   0.19923
 Alpha virt. eigenvalues --    0.20438   0.20941   0.21289   0.21731   0.21971
 Alpha virt. eigenvalues --    0.22434   0.23297   0.23445   0.23869   0.24550
 Alpha virt. eigenvalues --    0.25132   0.25344   0.25795   0.26703   0.26924
 Alpha virt. eigenvalues --    0.27193   0.27479   0.28238   0.28779   0.28993
 Alpha virt. eigenvalues --    0.29080   0.29886   0.31015   0.31511   0.31793
 Alpha virt. eigenvalues --    0.32310   0.32903   0.33095   0.33534   0.35681
 Alpha virt. eigenvalues --    0.36099   0.37680   0.39582   0.40453   0.42168
 Alpha virt. eigenvalues --    0.43571   0.44445   0.45323   0.46673   0.47568
 Alpha virt. eigenvalues --    0.48960   0.50069   0.51293   0.51875   0.52676
 Alpha virt. eigenvalues --    0.53724   0.54658   0.55335   0.56589   0.57556
 Alpha virt. eigenvalues --    0.58964   0.59550   0.60168   0.61954   0.62526
 Alpha virt. eigenvalues --    0.63932   0.64509   0.66091   0.67181   0.67464
 Alpha virt. eigenvalues --    0.69478   0.70045   0.70285   0.71007   0.71417
 Alpha virt. eigenvalues --    0.72299   0.72505   0.72858   0.74035   0.74446
 Alpha virt. eigenvalues --    0.75135   0.77109   0.77317   0.78366   0.78506
 Alpha virt. eigenvalues --    0.80890   0.81911   0.82074   0.84833   0.86217
 Alpha virt. eigenvalues --    0.87529   0.89887   0.91710   0.92147   0.93714
 Alpha virt. eigenvalues --    0.94866   0.95803   0.96548   0.98000   0.99154
 Alpha virt. eigenvalues --    1.01818   1.02771   1.03601   1.06446   1.07953
 Alpha virt. eigenvalues --    1.09854   1.10806   1.12037   1.12584   1.13426
 Alpha virt. eigenvalues --    1.14075   1.14649   1.15822   1.16238   1.21081
 Alpha virt. eigenvalues --    1.22871   1.25179   1.28967   1.30433   1.32415
 Alpha virt. eigenvalues --    1.34775   1.35851   1.39245   1.39915   1.45288
 Alpha virt. eigenvalues --    1.46330   1.50214   1.50651   1.50934   1.51671
 Alpha virt. eigenvalues --    1.52301   1.54052   1.55238   1.57237   1.57762
 Alpha virt. eigenvalues --    1.59914   1.60941   1.61478   1.62089   1.62298
 Alpha virt. eigenvalues --    1.64218   1.66013   1.67853   1.68674   1.69101
 Alpha virt. eigenvalues --    1.70345   1.71526   1.72593   1.74403   1.76408
 Alpha virt. eigenvalues --    1.78703   1.79130   1.80054   1.81800   1.82417
 Alpha virt. eigenvalues --    1.83897   1.84073   1.87165   1.88073   1.91496
 Alpha virt. eigenvalues --    1.92766   1.95843   1.95995   1.97589   1.97793
 Alpha virt. eigenvalues --    1.99888   2.02907   2.03652   2.05461   2.09496
 Alpha virt. eigenvalues --    2.10135   2.11140   2.12641   2.14542   2.15452
 Alpha virt. eigenvalues --    2.17299   2.18129   2.20127   2.22073   2.24973
 Alpha virt. eigenvalues --    2.28472   2.33006   2.35330   2.40711   2.43484
 Alpha virt. eigenvalues --    2.44266   2.44649   2.47555   2.49061   2.54272
 Alpha virt. eigenvalues --    2.55283   2.55600   2.57651   2.57933   2.58914
 Alpha virt. eigenvalues --    2.60425   2.60944   2.63221   2.65249   2.66079
 Alpha virt. eigenvalues --    2.67126   2.69881   2.70401   2.71359   2.72472
 Alpha virt. eigenvalues --    2.75172   2.75843   2.78034   2.79240   2.80381
 Alpha virt. eigenvalues --    2.81388   2.81983   2.86208   2.90401   2.90861
 Alpha virt. eigenvalues --    2.95007   2.95156   2.96459   3.00150   3.00935
 Alpha virt. eigenvalues --    3.02727   3.04220   3.07713   3.11380   3.14484
 Alpha virt. eigenvalues --    3.19845   3.23042   3.24367   3.26823   3.31616
 Alpha virt. eigenvalues --    3.32539   3.40312   3.45761   3.47537   3.51999
 Alpha virt. eigenvalues --    3.56430   3.56719   3.62190   3.65609   3.67206
 Alpha virt. eigenvalues --    3.73729   3.83016   3.84421   3.88657   3.90667
 Alpha virt. eigenvalues --    3.92701   3.95364   4.05756   4.11588   4.15904
 Alpha virt. eigenvalues --    4.21133   4.22230   4.34132   4.43137   4.87592
 Alpha virt. eigenvalues --    5.09044   5.09750   5.40155   5.50505   5.68900
 Alpha virt. eigenvalues --    5.76808  14.79971  23.70011  23.94544  24.03410
 Alpha virt. eigenvalues --   24.05504  24.05649  24.07510  24.14824  24.19060
 Alpha virt. eigenvalues --   24.26629  50.01289  50.05967
          Condensed to atoms (all electrons):
               1          2          3          4          5          6
     1  O    7.769567   0.288133   0.058807   0.432640  -0.128727   0.018088
     2  H    0.288133   0.421421   0.045515  -0.005827  -0.031413   0.002845
     3  C    0.058807   0.045515   9.412155   0.276424  -0.175292   0.024273
     4  B    0.432640  -0.005827   0.276424   3.332139   0.370253   0.012764
     5  O   -0.128727  -0.031413  -0.175292   0.370253   7.970483   0.269399
     6  H    0.018088   0.002845   0.024273   0.012764   0.269399   0.393554
     7  C    0.021022  -0.009269  -1.562407   0.140700   0.044814  -0.077610
     8  H    0.002262  -0.000002   0.013853   0.010068  -0.007165   0.009302
     9  C    0.089082   0.008362   0.725190   0.054557  -0.043948   0.072727
    10  H   -0.000058  -0.000001  -0.038921  -0.000347   0.000310  -0.000047
    11  C   -0.012154  -0.001870  -1.664526   0.015450   0.022840  -0.006927
    12  C   -0.026345  -0.021575  -1.122891  -0.031673   0.068718  -0.016839
    13  H    0.000513   0.000002  -0.020651   0.000652  -0.000044   0.000003
    14  C   -0.135628  -0.017750   0.607125  -0.092103   0.016206   0.016634
    15  H    0.001841  -0.000256   0.057696  -0.008095   0.002152  -0.000069
    16  C   -0.000734  -0.000079  -0.207406  -0.013067   0.000828  -0.000089
    17  H    0.000004   0.000000   0.003529   0.000389  -0.000002   0.000000
    18  C    0.000282   0.000009   0.015302  -0.000251  -0.000262   0.000022
    19  H    0.000001   0.000000  -0.000144   0.000177   0.000000   0.000000
    20  H    0.000000   0.000000   0.001706  -0.000006   0.000000   0.000000
    21  H   -0.000001   0.000000  -0.003157  -0.000141   0.000000   0.000000
    22  C    0.000150  -0.000001   0.004451   0.000062  -0.000143   0.000035
    23  H   -0.000001   0.000000  -0.002625  -0.000127   0.000000   0.000000
    24  H    0.000000   0.000000   0.001422  -0.000004   0.000000   0.000000
    25  H    0.000001   0.000000   0.001198   0.000191   0.000000   0.000000
               7          8          9         10         11         12
     1  O    0.021022   0.002262   0.089082  -0.000058  -0.012154  -0.026345
     2  H   -0.009269  -0.000002   0.008362  -0.000001  -0.001870  -0.021575
     3  C   -1.562407   0.013853   0.725190  -0.038921  -1.664526  -1.122891
     4  B    0.140700   0.010068   0.054557  -0.000347   0.015450  -0.031673
     5  O    0.044814  -0.007165  -0.043948   0.000310   0.022840   0.068718
     6  H   -0.077610   0.009302   0.072727  -0.000047  -0.006927  -0.016839
     7  C   13.485486   0.321518  -5.493139   0.097944   1.244662   1.474901
     8  H    0.321518   0.493199   0.004437  -0.006126  -0.000230  -0.013262
     9  C   -5.493139   0.004437  17.044698   0.070797  -2.766196  -4.908139
    10  H    0.097944  -0.006126   0.070797   0.473343   0.186253   0.066271
    11  C    1.244662  -0.000230  -2.766196   0.186253  10.846178   0.890359
    12  C    1.474901  -0.013262  -4.908139   0.066271   0.890359  12.986515
    13  H   -0.025370   0.000077   0.092373  -0.000181   0.127409   0.122213
    14  C   -3.301783  -0.004632   0.973917  -0.014483   0.032313  -3.474381
    15  H    0.019476  -0.000105  -0.028643   0.000054  -0.024518   0.002746
    16  C   -0.038907   0.008344   0.116009  -0.015455  -2.860933   0.081024
    17  H   -0.012023   0.000035   0.202463   0.001593  -0.287118  -0.117370
    18  C   -0.069832   0.000119   0.119122  -0.001009   0.069463  -0.027228
    19  H   -0.010406   0.000002   0.003986   0.000004  -0.092979  -0.012074
    20  H    0.000282  -0.000001  -0.006128   0.000006   0.080755   0.023189
    21  H    0.017301   0.000003   0.007052   0.000264  -0.017724  -0.019107
    22  C    0.012932  -0.000163   0.123036  -0.000681   0.029516  -0.036562
    23  H    0.016905   0.000004   0.001982   0.000256  -0.029056  -0.010270
    24  H    0.001081  -0.000001  -0.007453   0.000010   0.087355   0.018635
    25  H   -0.011431   0.000002   0.009001   0.000006  -0.093298  -0.009256
              13         14         15         16         17         18
     1  O    0.000513  -0.135628   0.001841  -0.000734   0.000004   0.000282
     2  H    0.000002  -0.017750  -0.000256  -0.000079   0.000000   0.000009
     3  C   -0.020651   0.607125   0.057696  -0.207406   0.003529   0.015302
     4  B    0.000652  -0.092103  -0.008095  -0.013067   0.000389  -0.000251
     5  O   -0.000044   0.016206   0.002152   0.000828  -0.000002  -0.000262
     6  H    0.000003   0.016634  -0.000069  -0.000089   0.000000   0.000022
     7  C   -0.025370  -3.301783   0.019476  -0.038907  -0.012023  -0.069832
     8  H    0.000077  -0.004632  -0.000105   0.008344   0.000035   0.000119
     9  C    0.092373   0.973917  -0.028643   0.116009   0.202463   0.119122
    10  H   -0.000181  -0.014483   0.000054  -0.015455   0.001593  -0.001009
    11  C    0.127409   0.032313  -0.024518  -2.860933  -0.287118   0.069463
    12  C    0.122213  -3.474381   0.002746   0.081024  -0.117370  -0.027228
    13  H    0.465648   0.032062  -0.006054   0.037928   0.000081  -0.004802
    14  C    0.032062  11.736984   0.319564  -0.491952   0.011117   0.084337
    15  H   -0.006054   0.319564   0.466538   0.005356   0.000012  -0.000455
    16  C    0.037928  -0.491952   0.005356   8.802421   0.584956  -0.065313
    17  H    0.000081   0.011117   0.000012   0.584956   0.498703  -0.027390
    18  C   -0.004802   0.084337  -0.000455  -0.065313  -0.027390   5.591773
    19  H   -0.001901   0.009391   0.000044   0.093680   0.005396   0.399480
    20  H   -0.000064   0.002703  -0.000001  -0.163234  -0.005907   0.435325
    21  H    0.000093  -0.006945   0.000004   0.014416  -0.005448   0.375670
    22  C   -0.004237   0.041573  -0.000534  -0.010428  -0.023787  -0.251396
    23  H    0.000106  -0.004564   0.000003   0.021286  -0.005450   0.014466
    24  H   -0.000065   0.001774  -0.000001  -0.165079  -0.005791   0.003809
    25  H   -0.002074   0.007032   0.000047   0.090362   0.005278  -0.015856
              19         20         21         22         23         24
     1  O    0.000001   0.000000  -0.000001   0.000150  -0.000001   0.000000
     2  H    0.000000   0.000000   0.000000  -0.000001   0.000000   0.000000
     3  C   -0.000144   0.001706  -0.003157   0.004451  -0.002625   0.001422
     4  B    0.000177  -0.000006  -0.000141   0.000062  -0.000127  -0.000004
     5  O    0.000000   0.000000   0.000000  -0.000143   0.000000   0.000000
     6  H    0.000000   0.000000   0.000000   0.000035   0.000000   0.000000
     7  C   -0.010406   0.000282   0.017301   0.012932   0.016905   0.001081
     8  H    0.000002  -0.000001   0.000003  -0.000163   0.000004  -0.000001
     9  C    0.003986  -0.006128   0.007052   0.123036   0.001982  -0.007453
    10  H    0.000004   0.000006   0.000264  -0.000681   0.000256   0.000010
    11  C   -0.092979   0.080755  -0.017724   0.029516  -0.029056   0.087355
    12  C   -0.012074   0.023189  -0.019107  -0.036562  -0.010270   0.018635
    13  H   -0.001901  -0.000064   0.000093  -0.004237   0.000106  -0.000065
    14  C    0.009391   0.002703  -0.006945   0.041573  -0.004564   0.001774
    15  H    0.000044  -0.000001   0.000004  -0.000534   0.000003  -0.000001
    16  C    0.093680  -0.163234   0.014416  -0.010428   0.021286  -0.165079
    17  H    0.005396  -0.005907  -0.005448  -0.023787  -0.005450  -0.005791
    18  C    0.399480   0.435325   0.375670  -0.251396   0.014466   0.003809
    19  H    0.492974  -0.028341  -0.027474  -0.013195  -0.000185  -0.000721
    20  H   -0.028341   0.500989  -0.021748   0.001630   0.000152   0.003034
    21  H   -0.027474  -0.021748   0.493063   0.014482  -0.000334   0.000137
    22  C   -0.013195   0.001630   0.014482   5.553000   0.373186   0.434575
    23  H   -0.000185   0.000152  -0.000334   0.373186   0.494365  -0.021933
    24  H   -0.000721   0.003034   0.000137   0.434575  -0.021933   0.501490
    25  H    0.000944  -0.000740  -0.000191   0.401052  -0.027123  -0.028240
              25
     1  O    0.000001
     2  H    0.000000
     3  C    0.001198
     4  B    0.000191
     5  O    0.000000
     6  H    0.000000
     7  C   -0.011431
     8  H    0.000002
     9  C    0.009001
    10  H    0.000006
    11  C   -0.093298
    12  C   -0.009256
    13  H   -0.002074
    14  C    0.007032
    15  H    0.000047
    16  C    0.090362
    17  H    0.005278
    18  C   -0.015856
    19  H    0.000944
    20  H   -0.000740
    21  H   -0.000191
    22  C    0.401052
    23  H   -0.027123
    24  H   -0.028240
    25  H    0.489894
 Mulliken charges:
               1
     1  O   -0.378748
     2  H    0.321755
     3  C   -0.450626
     4  B    0.505175
     5  O   -0.379007
     6  H    0.281934
     7  C   -0.286847
     8  H    0.168460
     9  C   -0.465145
    10  H    0.180199
    11  C    0.224974
    12  C    0.112399
    13  H    0.186283
    14  C   -0.348511
    15  H    0.193200
    16  C    0.176066
    17  H    0.176727
    18  C   -0.645382
    19  H    0.181340
    20  H    0.176398
    21  H    0.179784
    22  C   -0.648552
    23  H    0.178958
    24  H    0.175964
    25  H    0.183201
 Sum of Mulliken charges =   0.00000
 Mulliken charges with hydrogens summed into heavy atoms:
               1
     1  O   -0.056993
     3  C   -0.450626
     4  B    0.505175
     5  O   -0.097073
     7  C   -0.118387
     9  C   -0.284946
    11  C    0.224974
    12  C    0.298682
    14  C   -0.155312
    16  C    0.352793
    18  C   -0.107859
    22  C   -0.110429
 APT charges:
               1
     1  O   -0.771686
     2  H    2.068254
     3  C   -1.305214
     4  B   -0.360994
     5  O    1.174333
     6  H   -0.896278
     7  C   -0.451273
     8  H    0.081030
     9  C    0.018887
    10  H   -0.554456
    11  C   -2.023870
    12  C    0.516504
    13  H    0.974576
    14  C   -0.510132
    15  H    1.635716
    16  C    0.891942
    17  H   -0.419539
    18  C   -2.982461
    19  H    1.183410
    20  H    0.196751
    21  H    1.103114
    22  C   -0.013181
    23  H   -0.728380
    24  H    0.125212
    25  H    1.047733
 Sum of APT charges =   0.00000
 APT charges with hydrogens summed into heavy atoms:
               1
     1  O    1.296568
     3  C   -1.305214
     4  B   -0.360994
     5  O    0.278055
     7  C   -0.370244
     9  C   -0.535569
    11  C   -2.023870
    12  C    1.491080
    14  C    1.125585
    16  C    0.472403
    18  C   -0.499185
    22  C    0.431384
 Electronic spatial extent (au):  <R**2>=          34693.0813
 Charge=              0.0000 electrons
 Dipole moment (field-independent basis, Debye):
    X=             -2.0469    Y=             -0.7301    Z=              0.4198  Tot=              2.2134
 Quadrupole moment (field-independent basis, Debye-Ang):
   XX=            -88.6326   YY=            -80.8720   ZZ=            -66.9283
   XY=            -18.4795   XZ=             -5.2962   YZ=             -6.2935
 Traceless Quadrupole moment (field-independent basis, Debye-Ang):
   XX=             -9.8216   YY=             -2.0611   ZZ=             11.8827
   XY=            -18.4795   XZ=             -5.2962   YZ=             -6.2935
 Octapole moment (field-independent basis, Debye-Ang**2):
  XXX=          -1159.6881  YYY=          -1697.9817  ZZZ=           -912.9587  XYY=           -514.4812
  XXY=           -674.8683  XXZ=           -364.7584  XZZ=           -362.0710  YZZ=           -574.4422
  YYZ=           -423.4826  XYZ=            -80.6711
 Hexadecapole moment (field-independent basis, Debye-Ang**3):
 XXXX=         -12901.9231 YYYY=         -25492.9319 ZZZZ=          -9038.2195 XXXY=          -8404.7788
 XXXZ=          -5364.5324 YYYX=          -8997.5097 YYYZ=          -8093.0339 ZZZX=          -5183.1095
 ZZZY=          -7107.1879 XXYY=          -7421.7948 XXZZ=          -3810.9374 YYZZ=          -6408.1946
 XXYZ=          -2807.3792 YYXZ=          -2629.6230 ZZXY=          -2916.3448
 N-N= 6.521269809914D+02 E-N=-2.530918927417D+03  KE= 5.240440872650D+02
  Exact polarizability:       0.000       0.000       0.000       0.000       0.000       0.000
 Approx polarizability:     171.358       2.300     139.935      11.049     -28.341     135.638
 D2PCM: PCM CHGder 2nd derivatives, FixD1E=F FixD2E=F DoIter=F DoCFld=F I1PDM=0
 Calling FoFJK, ICntrl=    100127 FMM=F ISym2X=0 I1Cent= 0 IOpClX= 0 NMat=1 NMatS=1 NMatT=0.
 -------------------------------------------------------------------
 Center     Atomic                   Forces (Hartrees/Bohr)
 Number     Number              X              Y              Z
 -------------------------------------------------------------------
      1        8          -0.000002624    0.000006722    0.000013904
      2        1          -0.000004243    0.000007250    0.000014957
      3        6          -0.000000937    0.000000479    0.000003231
      4        5          -0.000002887    0.000001981    0.000005809
      5        8          -0.000004224   -0.000003458    0.000003056
      6        1          -0.000002715   -0.000006240   -0.000002858
      7        6          -0.000001598   -0.000004793   -0.000004805
      8        1          -0.000000907   -0.000008217   -0.000008383
      9        6           0.000000131   -0.000005371   -0.000007039
     10        1           0.000001037   -0.000009441   -0.000013244
     11        6           0.000000405   -0.000001473   -0.000002509
     12        6          -0.000000555    0.000004157    0.000005005
     13        1           0.000000115    0.000007386    0.000008939
     14        6          -0.000000526    0.000004620    0.000008154
     15        1          -0.000001845    0.000008715    0.000013747
     16        6           0.000001973   -0.000002245   -0.000005452
     17        1           0.000001956   -0.000006493   -0.000011321
     18        6          -0.000003366   -0.000004784    0.000000829
     19        1          -0.000004145   -0.000000303    0.000006318
     20        1          -0.000003304   -0.000005446   -0.000002212
     21        1          -0.000008276   -0.000009976    0.000001057
     22        6           0.000007724    0.000005474   -0.000006561
     23        1           0.000011941    0.000006997   -0.000010802
     24        1           0.000008819    0.000004486   -0.000009020
     25        1           0.000008052    0.000009972   -0.000000801
 -------------------------------------------------------------------
 Cartesian Forces:  Max     0.000014957 RMS     0.000006397
 FormGI is forming the generalized inverse of G from B-inverse, IUseBI=4.

 GradGradGradGradGradGradGradGradGradGradGradGradGradGradGradGradGradGrad
 Berny optimization.
 Internal  Forces:  Max     0.000000814 RMS     0.000000139
 Search for a local minimum.
 Step number   1 out of a maximum of  132
 All quantities printed in internal units (Hartrees-Bohrs-Radians)
 Mixed Optimization -- En-DIIS/RFO-DIIS
 Second derivative matrix not updated -- analytic derivatives used.
 ITU=  0
     Eigenvalues ---    0.00073   0.00188   0.00292   0.00349   0.00969
     Eigenvalues ---    0.01230   0.01435   0.01690   0.01741   0.02124
     Eigenvalues ---    0.02228   0.02454   0.02587   0.02796   0.02823
     Eigenvalues ---    0.03896   0.04166   0.04374   0.04491   0.04527
     Eigenvalues ---    0.04602   0.04748   0.04891   0.10558   0.11234
     Eigenvalues ---    0.11362   0.11696   0.11924   0.12042   0.12252
     Eigenvalues ---    0.12724   0.12863   0.12997   0.14357   0.14848
     Eigenvalues ---    0.15655   0.16927   0.17827   0.18547   0.18757
     Eigenvalues ---    0.18852   0.19242   0.19580   0.20654   0.27766
     Eigenvalues ---    0.28901   0.29261   0.29554   0.32260   0.33791
     Eigenvalues ---    0.33900   0.33961   0.34083   0.34125   0.34721
     Eigenvalues ---    0.34825   0.35574   0.35953   0.36167   0.36310
     Eigenvalues ---    0.38217   0.41785   0.42266   0.47001   0.47289
     Eigenvalues ---    0.48492   0.51367   0.53676   0.54446
 RFO step:  Lambda= 0.00000000D+00 EMin= 7.26679939D-04
 Linear search not attempted -- first point.
 Iteration  1 RMS(Cart)=  0.00003409 RMS(Int)=  0.00000000
 Iteration  2 RMS(Cart)=  0.00000000 RMS(Int)=  0.00000000
 Variable       Old X    -DE/DX   Delta X   Delta X   Delta X     New X
                                 (Linear)    (Quad)   (Total)
    R1        1.82179   0.00000   0.00000   0.00000   0.00000   1.82178
    R2        2.58121   0.00000   0.00000   0.00000   0.00000   2.58121
    R3        2.96069   0.00000   0.00000   0.00000   0.00000   2.96068
    R4        2.64349   0.00000   0.00000   0.00000   0.00000   2.64349
    R5        2.65083   0.00000   0.00000   0.00000   0.00000   2.65083
    R6        2.58737   0.00000   0.00000   0.00000   0.00000   2.58737
    R7        1.81763   0.00000   0.00000   0.00000   0.00000   1.81763
    R8        2.05427   0.00000   0.00000   0.00000   0.00000   2.05427
    R9        2.63081   0.00000   0.00000   0.00000   0.00000   2.63081
   R10        2.05144   0.00000   0.00000   0.00000   0.00000   2.05144
   R11        2.63684   0.00000   0.00000   0.00000   0.00000   2.63684
   R12        2.64500   0.00000   0.00000   0.00000   0.00000   2.64500
   R13        2.86352   0.00000   0.00000   0.00000   0.00000   2.86352
   R14        2.05155   0.00000   0.00000   0.00000   0.00000   2.05155
   R15        2.62378   0.00000   0.00000   0.00000   0.00000   2.62378
   R16        2.05031   0.00000   0.00000   0.00000   0.00000   2.05031
   R17        2.06807   0.00000   0.00000   0.00000   0.00000   2.06807
   R18        2.89529   0.00000   0.00000   0.00000   0.00000   2.89529
   R19        2.89593   0.00000   0.00000   0.00000   0.00000   2.89593
   R20        2.06689   0.00000   0.00000   0.00000   0.00000   2.06689
   R21        2.06586   0.00000   0.00000   0.00000   0.00000   2.06586
   R22        2.06501   0.00000   0.00000   0.00000   0.00000   2.06501
   R23        2.06502   0.00000   0.00000   0.00000   0.00000   2.06502
   R24        2.06600   0.00000   0.00000   0.00000   0.00000   2.06600
   R25        2.06709   0.00000   0.00000   0.00000   0.00000   2.06709
    A1        1.95802   0.00000   0.00000   0.00000   0.00000   1.95802
    A2        2.14269   0.00000   0.00000   0.00000   0.00000   2.14269
    A3        2.09113   0.00000   0.00000   0.00000   0.00000   2.09114
    A4        2.04935   0.00000   0.00000   0.00000   0.00000   2.04935
    A5        2.06493   0.00000   0.00000   0.00000   0.00000   2.06493
    A6        2.05073   0.00000   0.00000   0.00000   0.00000   2.05073
    A7        2.16752   0.00000   0.00000   0.00000   0.00000   2.16752
    A8        1.99565   0.00000   0.00000   0.00000   0.00000   1.99565
    A9        2.10903   0.00000   0.00000   0.00000   0.00000   2.10902
   A10        2.11752   0.00000   0.00000   0.00000   0.00000   2.11752
   A11        2.05663   0.00000   0.00000   0.00000   0.00000   2.05663
   A12        2.09065   0.00000   0.00000   0.00000   0.00000   2.09065
   A13        2.11006   0.00000   0.00000   0.00000   0.00000   2.11006
   A14        2.08248   0.00000   0.00000   0.00000   0.00000   2.08248
   A15        2.06228   0.00000   0.00000   0.00000   0.00000   2.06228
   A16        2.10995   0.00000   0.00000   0.00000   0.00000   2.10995
   A17        2.11095   0.00000   0.00000   0.00000   0.00000   2.11095
   A18        2.08877   0.00000   0.00000   0.00000   0.00000   2.08877
   A19        2.10819   0.00000   0.00000   0.00000   0.00000   2.10819
   A20        2.08622   0.00000   0.00000   0.00000   0.00000   2.08622
   A21        2.11895   0.00000   0.00000   0.00000   0.00000   2.11895
   A22        2.07867   0.00000   0.00000   0.00000   0.00000   2.07867
   A23        2.08556   0.00000   0.00000   0.00000   0.00000   2.08556
   A24        1.87114   0.00000   0.00000   0.00000   0.00000   1.87114
   A25        1.94334   0.00000   0.00000   0.00000   0.00000   1.94334
   A26        1.93893   0.00000   0.00000   0.00000   0.00000   1.93893
   A27        1.88892   0.00000   0.00000   0.00000   0.00000   1.88891
   A28        1.88832   0.00000   0.00000   0.00000   0.00000   1.88832
   A29        1.93066   0.00000   0.00000   0.00000   0.00000   1.93066
   A30        1.93458   0.00000   0.00000   0.00000   0.00000   1.93458
   A31        1.92549   0.00000   0.00000   0.00000   0.00000   1.92549
   A32        1.94228   0.00000   0.00000   0.00000   0.00000   1.94228
   A33        1.88265   0.00000   0.00000   0.00000   0.00000   1.88265
   A34        1.88664   0.00000   0.00000   0.00000   0.00000   1.88664
   A35        1.89038   0.00000   0.00000   0.00000   0.00000   1.89038
   A36        1.94183   0.00000   0.00000   0.00000   0.00000   1.94183
   A37        1.92614   0.00000   0.00000   0.00000   0.00000   1.92614
   A38        1.93309   0.00000   0.00000   0.00000   0.00000   1.93309
   A39        1.89053   0.00000   0.00000   0.00000   0.00000   1.89053
   A40        1.88663   0.00000   0.00000   0.00000   0.00000   1.88663
   A41        1.88387   0.00000   0.00000   0.00000   0.00000   1.88387
    D1        3.13070   0.00000   0.00000  -0.00001  -0.00001   3.13069
    D2       -0.00753   0.00000   0.00000  -0.00001  -0.00001  -0.00753
    D3        3.07782   0.00000   0.00000  -0.00007  -0.00007   3.07775
    D4       -0.06739   0.00000   0.00000  -0.00007  -0.00007  -0.06746
    D5       -0.06659   0.00000   0.00000  -0.00007  -0.00007  -0.06665
    D6        3.07140   0.00000   0.00000  -0.00007  -0.00007   3.07133
    D7       -0.01085   0.00000   0.00000   0.00000   0.00000  -0.01085
    D8        3.13458   0.00000   0.00000   0.00000   0.00000   3.13458
    D9        3.13349   0.00000   0.00000   0.00000   0.00000   3.13349
   D10       -0.00426   0.00000   0.00000   0.00000   0.00000  -0.00427
   D11       -3.13380   0.00000   0.00000   0.00000   0.00000  -3.13380
   D12        0.00569   0.00000   0.00000   0.00000   0.00000   0.00569
   D13        0.00513   0.00000   0.00000   0.00000   0.00000   0.00513
   D14       -3.13857   0.00000   0.00000   0.00000   0.00000  -3.13857
   D15        3.12262   0.00000   0.00000  -0.00002  -0.00002   3.12259
   D16       -0.01539   0.00000   0.00000  -0.00002  -0.00002  -0.01541
   D17       -3.14102   0.00000   0.00000   0.00000   0.00000  -3.14102
   D18        0.00032   0.00000   0.00000   0.00000   0.00000   0.00033
   D19        0.00430   0.00000   0.00000   0.00000   0.00000   0.00430
   D20       -3.13754   0.00000   0.00000   0.00000   0.00000  -3.13754
   D21        0.00285   0.00000   0.00000   0.00000   0.00000   0.00285
   D22        3.13998   0.00000   0.00000   0.00000   0.00000   3.13998
   D23       -3.13899   0.00000   0.00000   0.00000   0.00000  -3.13899
   D24       -0.00186   0.00000   0.00000   0.00000   0.00000  -0.00185
   D25        3.13947   0.00000   0.00000   0.00000   0.00000   3.13947
   D26       -0.00199   0.00000   0.00000   0.00000   0.00000  -0.00199
   D27        0.00234   0.00000   0.00000   0.00000   0.00000   0.00234
   D28       -3.13912   0.00000   0.00000   0.00000   0.00000  -3.13912
   D29        0.02954   0.00000   0.00000  -0.00001  -0.00001   0.02954
   D30        2.09257   0.00000   0.00000  -0.00001  -0.00001   2.09256
   D31       -2.03029   0.00000   0.00000  -0.00001  -0.00001  -2.03030
   D32       -3.11663   0.00000   0.00000  -0.00001  -0.00001  -3.11664
   D33       -1.05361   0.00000   0.00000  -0.00001  -0.00001  -1.05362
   D34        1.10671   0.00000   0.00000  -0.00001  -0.00001   1.10671
   D35       -0.00207   0.00000   0.00000   0.00000   0.00000  -0.00207
   D36       -3.14155   0.00000   0.00000   0.00000   0.00000  -3.14155
   D37        3.13966   0.00000   0.00000   0.00000   0.00000   3.13966
   D38        0.00018   0.00000   0.00000   0.00000   0.00000   0.00018
   D39        1.11545   0.00000   0.00000   0.00000   0.00000   1.11545
   D40       -3.08358   0.00000   0.00000   0.00000   0.00000  -3.08358
   D41       -0.98476   0.00000   0.00000   0.00000   0.00000  -0.98476
   D42       -3.11544   0.00000   0.00000   0.00000   0.00000  -3.11544
   D43       -1.03128   0.00000   0.00000   0.00000   0.00000  -1.03129
   D44        1.06754   0.00000   0.00000   0.00000   0.00000   1.06754
   D45       -1.04956   0.00000   0.00000   0.00000   0.00000  -1.04956
   D46        1.03459   0.00000   0.00000   0.00000   0.00000   1.03459
   D47        3.13342   0.00000   0.00000   0.00000   0.00000   3.13342
   D48        0.99265   0.00000   0.00000   0.00000   0.00000   0.99265
   D49        3.09180   0.00000   0.00000   0.00000   0.00000   3.09180
   D50       -1.10624   0.00000   0.00000   0.00000   0.00000  -1.10624
   D51       -1.05675   0.00000   0.00000   0.00000   0.00000  -1.05675
   D52        1.04240   0.00000   0.00000   0.00000   0.00000   1.04240
   D53        3.12755   0.00000   0.00000   0.00000   0.00000   3.12754
   D54       -3.12299   0.00000   0.00000   0.00000   0.00000  -3.12299
   D55       -1.02384   0.00000   0.00000   0.00000   0.00000  -1.02384
   D56        1.06130   0.00000   0.00000   0.00000   0.00000   1.06130
         Item               Value     Threshold  Converged?
 Maximum Force            0.000001     0.000015     YES
 RMS     Force            0.000000     0.000010     YES
 Maximum Displacement     0.000186     0.000060     NO 
 RMS     Displacement     0.000034     0.000040     YES
 Predicted change in Energy=-1.122030D-11
 GradGradGradGradGradGradGradGradGradGradGradGradGradGradGradGradGradGrad

                          Input orientation:                          
 ---------------------------------------------------------------------
 Center     Atomic      Atomic             Coordinates (Angstroms)
 Number     Number       Type             X           Y           Z
 ---------------------------------------------------------------------
      1          8           0        8.762705    7.259872    5.337661
      2          1           0        9.564988    6.971881    5.787984
      3          6           0        6.265533    6.970519    5.162579
      4          5           0        7.653772    6.601924    5.788329
      5          8           0        7.831176    5.660578    6.766613
      6          1           0        7.019317    5.237454    7.061569
      7          6           0        5.082277    6.305024    5.500029
      8          1           0        5.087882    5.486357    6.215206
      9          6           0        3.863061    6.663026    4.931289
     10          1           0        2.959954    6.129887    5.211704
     11          6           0        3.783042    7.701240    4.002459
     12          6           0        4.962782    8.370067    3.656086
     13          1           0        4.929223    9.180373    2.934367
     14          6           0        6.177209    8.009729    4.224509
     15          1           0        7.078790    8.542486    3.940790
     16          6           0        2.456231    8.089430    3.381943
     17          1           0        1.690349    7.446650    3.826814
     18          6           0        2.099575    9.546380    3.694169
     19          1           0        2.825949   10.229699    3.245011
     20          1           0        1.113993    9.791119    3.289407
     21          1           0        2.083192    9.728637    4.771495
     22          6           0        2.463492    7.848014    1.868637
     23          1           0        2.698452    6.806778    1.634643
     24          1           0        1.485333    8.083998    1.441118
     25          1           0        3.207416    8.482637    1.378380
 ---------------------------------------------------------------------
                    Distance matrix (angstroms):
                    1          2          3          4          5
     1  O    0.000000
     2  H    0.964047   0.000000
     3  C    2.519970   3.358204   0.000000
     4  B    1.365918   1.946694   1.566727   0.000000
     5  O    2.338245   2.383974   2.596172   1.369176   0.000000
     6  H    3.178276   3.333271   2.679154   1.971154   0.961846
     7  C    3.805739   4.541180   1.398875   2.604583   3.094510
     8  H    4.173700   4.736431   2.167400   2.830283   2.803581
     9  C    4.952563   5.774191   2.433088   3.886867   4.485449
    10  H    5.913092   6.683377   3.411148   4.752603   5.134861
    11  C    5.174420   6.095159   2.835947   4.402315   5.309637
    12  C    4.301122   5.261199   2.434218   3.861893   5.024381
    13  H    4.915256   5.874597   3.410881   4.713456   5.957886
    14  C    2.913106   3.872806   1.402759   2.570542   3.836198
    15  H    2.536123   3.472766   2.150636   2.740399   4.105698
    16  C    6.654669   7.587646   4.351253   5.917584   6.800393
    17  H    7.234347   8.129055   4.789915   6.334313   7.038624
    18  C    7.233705   8.169730   5.113364   6.626042   7.575660
    19  H    6.960182   7.905361   5.111757   6.552640   7.637463
    20  H    8.312963   9.252584   6.164651   7.693132   8.618171
    21  H    7.143616   8.038049   5.025151   6.468512   7.319079
    22  C    7.215271   8.158440   5.106424   6.622366   7.588615
    23  H    7.119888   8.026632   5.019682   6.469178   7.348180
    24  H    8.295926   9.241909   6.159499   7.690542   8.631547
    25  H    6.930534   7.883256   5.094973   6.538717   7.640435
                    6          7          8          9         10
     6  H    0.000000
     7  C    2.707441   0.000000
     8  H    2.123376   1.087072   0.000000
     9  C    4.065993   1.392163   2.129126   0.000000
    10  H    4.549381   2.148967   2.439103   1.085574   0.000000
    11  C    5.089388   2.424901   3.391838   1.395355   2.146834
    12  C    5.063588   2.771066   3.857529   2.397816   3.383737
    13  H    6.078561   3.856641   4.943160   3.385474   4.285994
    14  C    4.055066   2.394127   3.393658   2.769193   3.854749
    15  H    4.545991   3.379870   4.298442   3.854137   4.939703
    16  C    6.518831   3.816609   4.661432   2.532641   2.727924
    17  H    6.613780   3.950713   4.592428   2.560197   2.294271
    18  C    7.355956   4.760675   5.636434   3.599178   3.836090
    19  H    7.554665   5.057588   6.036364   4.079252   4.549098
    20  H    8.356909   5.725992   6.548516   4.476396   4.528511
    21  H    7.055529   4.609381   5.395312   3.548442   3.730080
    22  C    7.384924   4.735595   5.599777   3.569710   3.791376
    23  H    7.112256   4.568981   5.332396   3.499265   3.649922
    24  H    8.385539   5.707672   6.520584   4.455789   4.495596
    25  H    7.573668   5.024450   5.992390   4.045247   4.504558
                   11         12         13         14         15
    11  C    0.000000
    12  C    1.399676   0.000000
    13  H    2.154620   1.085633   0.000000
    14  C    2.424152   1.388446   2.142976   0.000000
    15  H    3.401978   2.142026   2.457728   1.084976   0.000000
    16  C    1.515307   2.537067   2.739739   3.816012   4.678206
    17  H    2.115427   3.404507   3.780551   4.539508   5.499922
    18  C    2.516673   3.095661   2.952654   4.389722   5.085391
    19  H    2.807643   2.862388   2.370937   4.137466   4.627899
    20  H    3.464081   4.119104   3.880082   5.448295   6.128800
    21  H    2.755222   3.373706   3.431548   4.473792   5.201252
    22  C    2.513155   3.116723   2.998464   4.400907   5.106572
    23  H    2.753715   3.414278   3.507075   4.500694   5.245794
    24  H    3.462144   4.132865   3.910525   5.455867   6.143723
    25  H    2.797806   2.877834   2.423335   4.140503   4.642959
                   16         17         18         19         20
    16  C    0.000000
    17  H    1.094373   0.000000
    18  C    1.532121   2.143345   0.000000
    19  H    2.176280   3.061609   1.093749   0.000000
    20  H    2.169312   2.473364   1.093207   1.767800   0.000000
    21  H    2.181058   2.500842   1.092757   1.770002   1.771958
    22  C    1.532458   2.143199   2.519812   2.774564   2.759600
    23  H    2.181037   2.496261   3.479327   3.784961   3.762319
    24  H    2.170133   2.477861   2.755376   3.107301   2.543291
    25  H    2.175582   3.060979   2.778802   2.584967   3.121950
                   21         22         23         24         25
    21  H    0.000000
    22  C    3.479649   0.000000
    23  H    4.330779   1.092763   0.000000
    24  H    3.762139   1.093278   1.772117   0.000000
    25  H    3.785450   1.093856   1.770090   1.768734   0.000000
 Symmetry turned off by external request.
 Stoichiometry    C9H13BO2
 Framework group  C1[X(C9H13BO2)]
 Deg. of freedom    69
 Full point group                 C1      NOp   1
 Rotational constants (GHZ):           2.5047364           0.4248629           0.3940148
 Standard basis: 6-311+G(d,p) (5D, 7F)
   342 basis functions,   536 primitive gaussians,   354 cartesian basis functions
    44 alpha electrons       44 beta electrons
       nuclear repulsion energy       652.1316596290 Hartrees.
 NAtoms=   25 NActive=   25 NUniq=   25 SFac= 1.00D+00 NAtFMM=   60 NAOKFM=F Big=F
 Integral buffers will be    131072 words long.
 Raffenetti 2 integral format.
 Two-electron integral symmetry is turned off.
 ------------------------------------------------------------------------------
 Polarizable Continuum Model (PCM)
 =================================
 Model                : PCM.
 Atomic radii         : SMD-Coulomb.
 Polarization charges : Total charges.
 Charge compensation  : None.
 Solution method      : Matrix inversion.
 Cavity type          : VdW (van der Waals Surface) (Alpha=1.000).
 Cavity algorithm     : GePol (No added spheres)
                        Default sphere list used, NSphG=   25.
                        Lebedev-Laikov grids with approx.  5.0 points / Ang**2.
                        Smoothing algorithm: York/Karplus (Gamma=1.0000).
                        Polarization charges: spherical gaussians, with
                                              point-specific exponents (IZeta= 3).
                        Self-potential: point-specific (ISelfS= 7).
                        Self-field    : sphere-specific E.n sum rule (ISelfD= 2).
 1st derivatives      : Analytical E(r).r(x)/FMM algorithm (CHGder, D1EAlg=3).
                        Cavity 1st derivative terms included.
 Solvent              : TetraHydroFuran, Eps=   7.425700 Eps(inf)=   1.974025
 ------------------------------------------------------------------------------
 ------------------------------------------------------------------------------
 Atomic radii for non-electrostatic terms: SMD-CDS.
 ------------------------------------------------------------------------------
 Nuclear repulsion after PCM non-electrostatic terms =      652.1269734463 Hartrees.
 One-electron integrals computed using PRISM.
 NBasis=   342 RedAO= T EigKep=  1.32D-06  NBF=   342
 NBsUse=   342 1.00D-06 EigRej= -1.00D+00 NBFU=   342
 Initial guess from the checkpoint file:  "4-isopropyl-phboh2-opt-freq-thf-2.chk"
 B after Tr=    -0.000061   -0.000016    0.000084
         Rot=    1.000000    0.000002   -0.000001    0.000002 Ang=   0.00 deg.
 Requested convergence on RMS density matrix=1.00D-08 within 128 cycles.
 Requested convergence on MAX density matrix=1.00D-06.
 Requested convergence on             energy=1.00D-06.
 Level shift goal  0.100 maximum shift  0.100.
 No special actions if energy rises.
 Dynamic level shift is on during FON iterations.
 Inv3:  Mode=1 IEnd=    11654523.
 Iteration    1 A*A^-1 deviation from unit magnitude is 6.88D-15 for   1962.
 Iteration    1 A*A^-1 deviation from orthogonality  is 2.04D-15 for   1953   1818.
 Iteration    1 A^-1*A deviation from unit magnitude is 6.88D-15 for   1962.
 Iteration    1 A^-1*A deviation from orthogonality  is 2.04D-15 for   1965   1848.
 Error on total polarization charges =  0.03757
 SCF Done:  E(RM062X) =  -526.154908500     A.U. after    5 cycles
            NFock=  5  Conv=0.53D-08     -V/T= 2.0040
 SMD-CDS (non-electrostatic) energy       (kcal/mol) =      -2.94
 (included in total energy above)
 D1PCM: PCM CHGder 1st derivatives, ID1Alg=3 FixD1E=F DoIter=F DoCFld=F I1PDM=0.
 Calling FoFJK, ICntrl=      2127 FMM=F ISym2X=0 I1Cent= 0 IOpClX= 0 NMat=1 NMatS=1 NMatT=0.
 -------------------------------------------------------------------
 Center     Atomic                   Forces (Hartrees/Bohr)
 Number     Number              X              Y              Z
 -------------------------------------------------------------------
      1        8          -0.000003036    0.000006920    0.000013676
      2        1          -0.000003839    0.000007097    0.000015190
      3        6          -0.000001606    0.000000377    0.000003120
      4        5          -0.000002743    0.000001501    0.000006347
      5        8          -0.000003553   -0.000002786    0.000002455
      6        1          -0.000003403   -0.000006629   -0.000002610
      7        6          -0.000000657   -0.000004675   -0.000004480
      8        1          -0.000001028   -0.000008169   -0.000008473
      9        6           0.000000161   -0.000005441   -0.000007302
     10        1           0.000000755   -0.000009538   -0.000013138
     11        6           0.000000571   -0.000001287   -0.000002384
     12        6          -0.000000082    0.000003970    0.000005134
     13        1           0.000000133    0.000007376    0.000008965
     14        6          -0.000001203    0.000004781    0.000007794
     15        1          -0.000001683    0.000008792    0.000013736
     16        6           0.000001689   -0.000002111   -0.000005434
     17        1           0.000001964   -0.000006511   -0.000011375
     18        6          -0.000003729   -0.000004674    0.000000374
     19        1          -0.000004096   -0.000000330    0.000006374
     20        1          -0.000002974   -0.000005587   -0.000002047
     21        1          -0.000008221   -0.000009968    0.000001211
     22        6           0.000007962    0.000005322   -0.000006568
     23        1           0.000011887    0.000007149   -0.000010797
     24        1           0.000008837    0.000004522   -0.000009017
     25        1           0.000007894    0.000009898   -0.000000754
 -------------------------------------------------------------------
 Cartesian Forces:  Max     0.000015190 RMS     0.000006389

 GradGradGradGradGradGradGradGradGradGradGradGradGradGradGradGradGradGrad
 Berny optimization.
 Using GEDIIS/GDIIS optimizer.
 FormGI is forming the generalized inverse of G from B-inverse, IUseBI=4.
 Internal  Forces:  Max     0.000000098 RMS     0.000000015
 Search for a local minimum.
 Step number   2 out of a maximum of  132
 All quantities printed in internal units (Hartrees-Bohrs-Radians)
 Mixed Optimization -- En-DIIS/RFO-DIIS
 Swapping is turned off.
 Update second derivatives using D2CorX and points    2
 DE= -2.69D-11 DEPred=-1.12D-11 R= 2.40D+00
 Trust test= 2.40D+00 RLast= 1.42D-04 DXMaxT set to 3.00D-01
 ITU=  0  0
     Eigenvalues ---    0.00073   0.00188   0.00292   0.00349   0.00969
     Eigenvalues ---    0.01230   0.01435   0.01690   0.01741   0.02124
     Eigenvalues ---    0.02228   0.02454   0.02587   0.02796   0.02823
     Eigenvalues ---    0.03896   0.04166   0.04374   0.04491   0.04527
     Eigenvalues ---    0.04602   0.04748   0.04891   0.10558   0.11234
     Eigenvalues ---    0.11362   0.11696   0.11924   0.12042   0.12252
     Eigenvalues ---    0.12724   0.12863   0.12997   0.14357   0.14848
     Eigenvalues ---    0.15655   0.16927   0.17827   0.18547   0.18757
     Eigenvalues ---    0.18852   0.19242   0.19580   0.20654   0.27766
     Eigenvalues ---    0.28901   0.29261   0.29554   0.32260   0.33791
     Eigenvalues ---    0.33900   0.33961   0.34083   0.34125   0.34721
     Eigenvalues ---    0.34825   0.35574   0.35953   0.36167   0.36310
     Eigenvalues ---    0.38217   0.41785   0.42266   0.47001   0.47289
     Eigenvalues ---    0.48492   0.51367   0.53676   0.54446
 En-DIIS/RFO-DIIS/Sim-DIIS IScMMF=       -3 using points:     2    1
 RFO step:  Lambda=-1.03960084D-13.
 DIIS inversion failure, remove point   2.
 Use linear search instead of GDIIS.
 RFO step:  Lambda= 0.00000000D+00 EMin= 7.26679939D-04
 Skip linear search -- no minimum in search direction.
 Iteration  1 RMS(Cart)=  0.00000573 RMS(Int)=  0.00000000
 Iteration  2 RMS(Cart)=  0.00000000 RMS(Int)=  0.00000000
 Variable       Old X    -DE/DX   Delta X   Delta X   Delta X     New X
                                 (Linear)    (Quad)   (Total)
    R1        1.82178   0.00000   0.00000   0.00000   0.00000   1.82178
    R2        2.58121   0.00000   0.00000   0.00000   0.00000   2.58121
    R3        2.96068   0.00000   0.00000   0.00000   0.00000   2.96068
    R4        2.64349   0.00000   0.00000   0.00000   0.00000   2.64349
    R5        2.65083   0.00000   0.00000   0.00000   0.00000   2.65083
    R6        2.58737   0.00000   0.00000   0.00000   0.00000   2.58737
    R7        1.81763   0.00000   0.00000   0.00000   0.00000   1.81763
    R8        2.05427   0.00000   0.00000   0.00000   0.00000   2.05427
    R9        2.63081   0.00000   0.00000   0.00000   0.00000   2.63081
   R10        2.05144   0.00000   0.00000   0.00000   0.00000   2.05144
   R11        2.63684   0.00000   0.00000   0.00000   0.00000   2.63684
   R12        2.64500   0.00000   0.00000   0.00000   0.00000   2.64500
   R13        2.86352   0.00000   0.00000   0.00000   0.00000   2.86352
   R14        2.05155   0.00000   0.00000   0.00000   0.00000   2.05155
   R15        2.62378   0.00000   0.00000   0.00000   0.00000   2.62378
   R16        2.05031   0.00000   0.00000   0.00000   0.00000   2.05031
   R17        2.06807   0.00000   0.00000   0.00000   0.00000   2.06807
   R18        2.89529   0.00000   0.00000   0.00000   0.00000   2.89529
   R19        2.89593   0.00000   0.00000   0.00000   0.00000   2.89593
   R20        2.06689   0.00000   0.00000   0.00000   0.00000   2.06689
   R21        2.06586   0.00000   0.00000   0.00000   0.00000   2.06586
   R22        2.06501   0.00000   0.00000   0.00000   0.00000   2.06501
   R23        2.06502   0.00000   0.00000   0.00000   0.00000   2.06502
   R24        2.06600   0.00000   0.00000   0.00000   0.00000   2.06600
   R25        2.06709   0.00000   0.00000   0.00000   0.00000   2.06709
    A1        1.95802   0.00000   0.00000   0.00000   0.00000   1.95802
    A2        2.14269   0.00000   0.00000   0.00000   0.00000   2.14269
    A3        2.09114   0.00000   0.00000   0.00000   0.00000   2.09114
    A4        2.04935   0.00000   0.00000   0.00000   0.00000   2.04935
    A5        2.06493   0.00000   0.00000   0.00000   0.00000   2.06493
    A6        2.05073   0.00000   0.00000   0.00000   0.00000   2.05073
    A7        2.16752   0.00000   0.00000   0.00000   0.00000   2.16752
    A8        1.99565   0.00000   0.00000   0.00000   0.00000   1.99565
    A9        2.10902   0.00000   0.00000   0.00000   0.00000   2.10902
   A10        2.11752   0.00000   0.00000   0.00000   0.00000   2.11752
   A11        2.05663   0.00000   0.00000   0.00000   0.00000   2.05663
   A12        2.09065   0.00000   0.00000   0.00000   0.00000   2.09065
   A13        2.11006   0.00000   0.00000   0.00000   0.00000   2.11006
   A14        2.08248   0.00000   0.00000   0.00000   0.00000   2.08248
   A15        2.06228   0.00000   0.00000   0.00000   0.00000   2.06228
   A16        2.10995   0.00000   0.00000   0.00000   0.00000   2.10995
   A17        2.11095   0.00000   0.00000   0.00000   0.00000   2.11095
   A18        2.08877   0.00000   0.00000   0.00000   0.00000   2.08877
   A19        2.10819   0.00000   0.00000   0.00000   0.00000   2.10819
[...]
 15210868,-0.00003304,0.00000138,-0.00000743,0.00000230,0.00000365,-0.0
 0000333,-0.00006512,0.00005839,0.00005432,0.00003986,-0.00000391,0.000
 01698,-0.00001139,0.00000898,-0.00001747,-0.00000171,-0.00000046,0.000
 00123,-0.00003044,-0.00023504,0.00004400,0.00004418,-0.00001819,-0.000
 00284,-0.00173593,-0.00054869,0.00007697,0.00007699,0.00022203,0.00015
 868,-0.01121213,-0.00748253,0.00392038,-0.00196241,0.00154197,-0.00056
 191,0.00002970,-0.00015001,-0.00000828,-0.00047557,-0.00031099,0.00030
 237,-0.00013724,-0.00003638,-0.00015146,0.07560548,0.06289688,-0.08956
 905,-0.07711858,-0.06794903,0.10239838,-0.00047379,-0.00008929,0.00001
 186,0.00004140,-0.00000904,0.00001401,-0.00072918,0.00100498,-0.000967
 95,0.00111589,-0.00022485,0.00041408,-0.00022128,0.00029717,-0.0002685
 3,0.00000274,-0.00009460,0.00007012,-0.00037888,-0.00049222,-0.0013238
 1,-0.00023747,0.00011235,-0.00017893,-0.00231828,-0.00059957,0.0002382
 0,0.00011972,0.00039346,0.00016866,-0.00962685,0.03201665,0.00502801,-
 0.00177968,0.00085079,-0.00082029,-0.00049602,0.00019485,0.00007248,0.
 00139383,-0.00075978,0.00027371,-0.00003793,0.00002140,0.00009989,-0.0
 8310680,0.02329890,0.00715332,0.00598676,-0.02119433,-0.00528513,0.571
 05435,-0.00027365,-0.00005648,0.00000738,0.00002445,-0.00000409,0.0000
 0861,-0.00079129,0.00026123,-0.00035673,0.00065541,-0.00018391,0.00024
 605,-0.00010299,0.00016029,-0.00016515,-0.00000841,-0.00003718,0.00003
 524,0.00050390,0.00020444,0.00036924,-0.00005635,0.00007095,-0.0000091
 8,-0.00045223,0.00082702,-0.00152608,0.00005079,-0.00006115,-0.0002081
 4,0.01254065,-0.01182376,0.00342425,-0.00231027,0.00022609,-0.00054997
 ,0.00012899,-0.00027926,0.00015362,0.00008238,-0.00034741,0.00065644,-
 0.00007589,-0.00007486,-0.00014349,0.01972168,-0.18356196,-0.02448556,
 0.00577876,-0.02177460,-0.00487891,0.02234175,0.48045083,-0.00034227,-
 0.00006394,-0.00002725,0.00002890,-0.00000592,0.00000807,-0.00068661,0
 .00028725,-0.00040585,0.00070001,-0.00011390,0.00037563,-0.00014549,0.
 00018647,-0.00022020,0.00000741,-0.00005428,0.00007037,0.00020332,-0.0
 0032442,-0.00093300,-0.00018276,0.00015742,-0.00008146,-0.00230963,0.0
 0019967,-0.00133251,-0.00013772,0.00023811,0.00037651,-0.00177048,0.01
 315108,0.00209280,-0.00061018,0.00024861,0.00043336,0.00002818,0.00022
 829,-0.00007991,0.00032465,-0.00019880,-0.00005592,-0.00007390,0.00003
 078,0.00004830,0.00512361,-0.01861347,-0.07765574,-0.00382576,0.012321
 97,0.00276898,0.00728565,-0.01730967,0.57979565,0.00004194,0.00000413,
 -0.00000805,-0.00000441,0.00000077,-0.00000065,0.00004252,-0.00015486,
 0.00002970,-0.00009796,0.00002034,-0.00003430,0.00001524,-0.00001718,0
 .00001926,-0.00000113,0.00000530,-0.00000375,0.00007772,0.00002713,0.0
 0005415,0.00001812,-0.00000469,0.00001723,-0.00001411,-0.00002222,-0.0
 0016916,-0.00000877,-0.00001674,0.00000975,0.00052550,-0.00036393,-0.0
 0072831,-0.00055917,0.00043064,0.00032890,-0.00129560,0.00096591,0.000
 11654,-0.00002269,0.00022020,-0.00010044,0.00001090,0.00003674,0.00005
 028,0.00516801,0.00525881,-0.00320243,0.00061309,0.00185406,0.00021060
 ,-0.16700276,-0.11099156,0.07457271,0.17993871,0.00001790,0.00000954,0
 .00000263,0.00000057,0.00000117,0.00000179,0.00022227,0.00029583,-0.00
 029720,0.00000844,-0.00000317,-0.00005543,-0.00001447,0.00002222,-0.00
 000488,-0.00000320,-0.00000768,0.00000174,-0.00051524,0.00006025,-0.00
 009531,0.00001251,-0.00002600,-0.00001123,0.00042968,-0.00030543,0.000
 59365,0.00007925,0.00005739,-0.00008987,-0.00155253,0.00136435,-0.0005
 6675,-0.00022122,-0.00012399,0.00034322,0.00080141,-0.00009621,-0.0004
 2137,0.00045726,0.00002728,0.00026766,0.00002135,-0.00000725,0.0000224
 3,-0.02160139,-0.02157276,0.01305310,0.00226846,-0.00554526,-0.0016863
 9,-0.10953787,-0.14602055,0.06794945,0.11944955,0.16197776,0.00001298,
 -0.00001302,-0.00000164,-0.00000285,0.00000153,0.00000184,-0.00002483,
 -0.00000634,0.00006565,-0.00002033,0.00002792,0.00000052,0.00001045,-0
 .00002426,0.00001373,0.00000107,0.00000820,-0.00000415,0.00007949,-0.0
 0003070,0.00001854,0.00000123,-0.00000962,-0.00000420,-0.00007454,0.00
 012342,-0.00004545,-0.00001687,-0.00000720,-0.00000638,0.00048964,0.00
 028857,0.00004356,0.00004184,-0.00013123,-0.00016422,0.00016347,-0.000
 13305,0.00006307,-0.00007097,-0.00005927,-0.00008308,0.00000296,-0.000
 00616,-0.00000206,-0.00511074,-0.00401753,0.00169608,0.00013136,-0.001
 56150,0.00052962,0.07428446,0.06858663,-0.09333259,-0.08236932,-0.0736
 0966,0.09647656,-0.00016013,-0.00001766,-0.00000524,0.00001739,-0.0000
 0264,0.00000237,-0.00014882,0.00022906,-0.00025247,0.00033072,-0.00008
 200,0.00011227,-0.00007817,0.00009728,-0.00009402,0.00000587,-0.000033
 35,0.00002989,-0.00019857,0.00002831,-0.00019809,-0.00005369,0.0000080
 1,-0.00006348,-0.00039099,-0.00006518,0.00031929,0.00001567,0.00003849
 ,0.00000935,0.00100227,0.00167784,0.00021858,-0.00001217,0.00027225,-0
 .00006722,0.00013025,-0.00004431,-0.00017902,0.00020002,-0.00000477,0.
 00023231,-0.00003413,0.00000033,-0.00000401,-0.00597750,-0.00008889,-0
 .00265473,0.00061902,0.00023593,0.00008236,-0.26637524,0.05188355,-0.0
 8979278,-0.01787891,0.00492724,-0.00813303,0.28642318,0.00028387,0.000
 05447,0.00001184,-0.00002490,0.00000483,-0.00000795,0.00059344,-0.0002
 7161,0.00026860,-0.00060849,0.00011485,-0.00030090,0.00011633,-0.00015
 243,0.00017393,-0.00000362,0.00004558,-0.00004734,-0.00023195,0.000155
 20,0.00042365,0.00012187,-0.00007750,0.00007803,0.00123398,-0.00006889
 ,0.00045089,-0.00001668,-0.00015493,-0.00010390,-0.00061232,-0.0055912
 1,-0.00251386,0.00031482,-0.00008239,0.00043226,0.00005824,0.00006140,
 -0.00026572,-0.00017687,0.00036593,0.00004817,0.00007442,-0.00000678,0
 .00000976,0.02974465,-0.00787348,0.01125425,-0.00051139,0.00135002,0.0
 0052648,0.05015081,-0.05753814,0.02078861,-0.01739961,0.00448878,-0.00
 877032,-0.05761388,0.06355310,-0.00001203,0.00000492,0.,0.00000310,-0.
 00000371,-0.00000063,-0.00004839,-0.00007319,0.00008564,0.00001749,-0.
 00000982,0.00002758,-0.00000104,0.00000566,-0.00000814,-0.00000058,-0.
 00000240,-0.00000026,0.00009564,-0.00005692,0.00008449,0.00001467,0.00
 000391,0.00001699,0.00019036,0.00002472,0.00018488,-0.00001243,-0.0000
 1452,-0.00002680,0.00022608,-0.00108967,0.00048337,0.00023851,0.000040
 57,0.00014323,-0.00008552,0.00001347,0.00007176,-0.00010428,-0.0000001
 0,-0.00014710,0.00000346,-0.00001280,-0.00001843,0.00639557,-0.0010160
 1,0.00098171,-0.00023207,0.00033151,0.00005270,-0.09094101,0.02132987,
 -0.08507125,0.01270799,-0.00400246,0.00508091,0.09934621,-0.02211424,0
 .08719740,0.00004103,-0.00000483,-0.00000666,-0.00000651,0.00000385,0.
 00000095,0.00001055,-0.00004937,0.00005381,-0.00008635,0.00004419,-0.0
 0001767,0.00001756,-0.00003440,0.00001656,-0.00000090,0.00001325,-0.00
 000452,0.00001031,-0.00000479,0.00000019,0.00000855,-0.00000235,0.0000
 0940,0.00012007,0.00000076,-0.00013003,-0.00000838,0.00000849,0.000019
 68,0.00037644,-0.00003584,0.00106926,0.00003662,-0.00028547,0.00004480
 ,0.00004465,0.00007620,0.00007672,-0.00007597,0.00002587,-0.00016895,-
 0.00000434,0.00000893,0.00001004,-0.00214804,0.00081571,0.00734429,0.0
 0011351,-0.00012307,-0.00042885,-0.04776115,0.00022795,0.00282965,0.00
 002366,0.00453315,0.02137073,0.00200259,-0.00502152,-0.02857584,0.0463
 3480,-0.00003641,-0.00000619,0.00000308,0.00000339,-0.00000228,-0.0000
 0079,-0.00009389,-0.00002031,0.00000175,0.00006704,-0.00000472,0.00002
 883,-0.00001514,0.00001447,-0.00000679,0.00000413,-0.00000735,-0.00000
 109,0.00008891,-0.00010641,0.00001410,0.00000959,-0.00000303,-0.000000
 59,-0.00013939,0.00014635,0.00019083,-0.00003456,-0.00004366,0.0000116
 4,-0.00107604,0.00107857,-0.00102789,0.00009888,0.00006578,0.00022600,
 -0.00001186,0.00003581,0.00004252,0.00004201,0.00002935,-0.00014548,0.
 00001317,-0.00000662,0.00000919,0.00098525,-0.00404212,-0.03096649,-0.
 00061102,0.00129912,0.00044871,0.00034856,-0.05302646,-0.03923851,0.00
 132671,0.00323313,0.01954713,-0.00096880,0.00014489,0.00681894,-0.0020
 4445,0.05783692,0.00002589,0.00000903,0.00000827,-0.00000082,-0.000001
 72,-0.00000305,0.00009648,0.00001246,0.00004360,-0.00005682,0.00001110
 ,-0.00002768,0.00001235,-0.00001102,0.00002723,-0.00000035,-0.00000028
 ,-0.00001138,-0.00008168,-0.00010094,-0.00002502,0.00002185,-0.0000114
 8,0.00001573,0.00043239,-0.00025636,0.00025610,0.00002952,0.00001604,-
 0.00000771,-0.00082823,0.00046273,0.00057317,0.00043207,0.00012432,0.0
 0000791,-0.00003324,-0.00006290,0.00004170,0.00001877,-0.00005829,-0.0
 0006253,0.00001683,-0.00000670,-0.00000491,-0.00015680,0.00038958,-0.0
 0451857,-0.00013940,-0.00036327,0.00037256,0.00376151,-0.04121192,-0.3
 1074756,-0.00063996,-0.00195045,-0.01159933,0.00070677,-0.00121770,-0.
 00980979,-0.00392933,0.04612063,0.33455965,-0.00059760,-0.00011344,0.0
 0000451,0.00005200,-0.00001638,0.00001267,-0.00104569,0.00101559,-0.00
 124098,0.00140840,-0.00030096,0.00054114,-0.00026411,0.00033332,-0.000
 39375,-0.00000376,-0.00009099,0.00010560,-0.00066305,0.00115020,0.0006
 4220,-0.00025619,0.00013620,-0.00020082,-0.00260821,-0.00026921,-0.000
 18496,0.00021405,-0.00012760,-0.00041491,0.00039825,-0.00427588,-0.032
 20317,-0.00214762,0.00049109,-0.00123177,-0.00026646,-0.00016440,-0.00
 020377,0.00127340,-0.00016948,0.00121141,-0.00005244,-0.00008377,-0.00
 003553,-0.07754857,-0.00224159,0.00162967,0.00038977,0.00448917,0.0231
 1254,-0.00015325,0.00124670,0.00812060,0.00047387,-0.00040292,-0.00091
 682,0.00014999,0.00019662,0.00072654,0.00012942,0.00188236,0.00034018,
 0.57738052,0.00023930,0.00001840,-0.00000022,-0.00002023,0.00000300,-0
 .00000547,0.00053555,-0.00003970,0.00014468,-0.00048500,0.00019202,-0.
 00014155,0.00010211,-0.00014343,0.00013476,-0.00001047,0.00004578,-0.0
 0003850,-0.00010400,-0.00067204,-0.00041068,0.00009734,-0.00002834,0.0
 0015069,0.00191348,-0.00092136,0.00051556,0.00002321,0.00033245,0.0002
 4062,-0.00080423,0.00037565,0.00774063,-0.00014208,0.00043004,0.000107
 11,-0.00008598,-0.00006769,0.00011146,0.00001980,-0.00018597,-0.000045
 10,0.00004072,0.00004340,0.00004724,-0.00155207,-0.07633744,-0.0134065
 3,0.00077627,0.00347736,0.01901672,0.00180644,-0.01014963,-0.03775487,
 -0.00025937,0.00168171,-0.00042004,-0.00063190,0.00143999,-0.00008370,
 0.00172193,-0.00641461,-0.00207002,-0.00380462,0.57963338,0.00021443,0
 .00004619,0.00000266,-0.00002034,0.00000484,-0.00000493,0.00071771,-0.
 00006605,0.00022659,-0.00048083,0.00010344,-0.00024323,0.00007597,-0.0
 0012543,0.00012469,0.00000541,0.00003128,-0.00002262,-0.00078826,0.000
 41857,0.00021570,0.00000672,0.00000975,0.00005926,0.00034545,-0.001670
 60,0.00086394,0.00006923,-0.00018560,-0.00016269,-0.01098291,0.0013241
 2,-0.02035977,0.00205494,0.00011727,0.00048855,-0.00016313,0.00005413,
 -0.00027562,0.00002037,0.00062099,-0.00006589,0.00012001,-0.00012693,-
 0.00007295,0.00686291,-0.01885237,-0.18931894,-0.00006422,-0.00283015,
 -0.01693075,0.00211852,-0.00674559,-0.01240157,-0.00057363,0.00140311,
 0.00104830,-0.00015457,0.00132154,0.00056887,-0.00001334,-0.00024166,0
 .00100416,0.00138429,-0.01327682,0.47261587,0.00003316,0.00001128,0.00
 001318,-0.00000465,-0.00000196,-0.00000544,0.00001191,-0.00006667,0.00
 005209,-0.00007232,0.00000627,-0.00006046,0.00001406,-0.00001950,0.000
 03523,0.00000081,0.00000611,-0.00001196,0.00000835,0.00000325,0.000055
 43,0.00001606,-0.00000984,0.00000629,0.00014996,0.00007601,0.00004747,
 -0.00000031,-0.00001867,-0.00000650,0.00021116,-0.00090350,-0.00027900
 ,0.00013181,-0.00010941,0.00024979,0.00005341,-0.00005329,-0.00008624,
 -0.00010882,0.00018558,-0.00002700,0.00000525,-0.00000938,-0.00000711,
 -0.00181856,-0.00037543,-0.00040239,-0.00006110,0.00024708,-0.00006381
 ,0.00058151,-0.00002759,0.00017404,0.00002670,0.00032448,-0.00004797,0
 .00027747,-0.00032309,0.00003212,0.00050033,0.00013346,0.00004701,-0.0
 6021014,0.05561338,0.01162428,0.05961089,-0.00002446,0.00000564,0.0000
 0849,0.00000075,-0.00000390,-0.00000327,-0.00008716,0.00003617,-0.0000
 2053,0.00004783,-0.00001535,0.00000824,-0.00001308,0.00001989,-0.00000
 549,0.00000320,-0.00000879,-0.00000090,0.00005991,0.00000772,-0.000072
 63,-0.00001883,0.00001073,-0.00001315,-0.00036607,0.00019811,-0.000297
 37,-0.00004204,-0.00002767,-0.00000002,0.00059712,0.00054091,0.0005227
 7,-0.00043894,-0.00011245,0.00005448,0.00004038,0.00005129,-0.00005689
 ,0.00002120,-0.00004466,-0.00004346,-0.00001157,-0.00000999,-0.0000116
 9,0.00035734,-0.00306013,0.00040130,0.00010633,0.00048151,-0.00038203,
 -0.00003552,0.00108855,-0.00169132,0.00003798,0.00029389,0.00013464,-0
 .00001215,0.00004951,0.00016937,0.00015604,-0.00032553,-0.00010058,0.0
 5514478,-0.29402167,-0.05213816,-0.06083114,0.31595017,0.00003853,0.00
 000917,0.00000180,-0.00000379,-0.00000049,-0.00000248,0.00010966,0.000
 04580,-0.00001603,-0.00007584,0.00001872,-0.00002700,0.00001391,-0.000
 00863,0.00002162,-0.00000136,-0.00000061,-0.00000830,-0.00010832,0.000
 01863,-0.00013149,-0.00001036,0.,-0.00000391,0.00005718,0.00018582,0.0
 0018685,0.00004018,0.00002070,-0.00004333,0.00121612,-0.00102574,0.001
 14686,-0.00022545,0.00017987,0.00009297,0.00001857,0.00003093,0.000032
 37,-0.00000168,-0.00015166,0.00002239,-0.00001430,0.00000573,-0.000009
 55,0.00587382,-0.03122046,-0.00589428,0.00022954,0.00052458,0.00142382
 ,-0.00042504,0.00006343,-0.00695920,-0.00015483,0.00004834,0.00004438,
 0.00011388,0.00020858,0.00011546,0.00050216,-0.00207558,-0.00046091,0.
 01107184,-0.05000824,-0.05740138,-0.01249126,0.05776422,0.06342222,-0.
 00009713,-0.00001403,-0.00001181,0.00001145,0.00000047,0.00000348,-0.0
 0003581,0.00018216,-0.00014494,0.00019043,-0.00002100,0.00009718,-0.00
 004743,0.00005063,-0.00006939,0.00000325,-0.00001792,0.00002318,-0.000
 22995,0.00004875,-0.00008078,-0.00003436,0.00003369,0.00000469,0.00000
 408,-0.00046174,0.00002244,0.00000524,0.00001777,0.00000041,0.00085028
 ,0.00039396,-0.00016355,0.00020922,0.00003612,-0.00020552,0.00003898,0
 .00020651,0.00008039,0.00018848,-0.00016490,-0.00003947,-0.00001774,0.
 00000169,0.00000049,0.00096742,0.00022734,0.00206115,0.00054977,-0.000
 05576,-0.00048356,0.00025636,-0.00019145,0.00040135,-0.00000595,0.0000
 2666,-0.00007876,0.00016091,-0.00030615,-0.00003325,0.00025370,-0.0001
 2623,0.00001306,-0.26436645,0.05198610,-0.09247857,-0.00480242,0.00063
 346,-0.00140070,0.28396793,0.00000084,0.00000013,0.00000561,-0.0000009
 1,-0.00000035,-0.00000350,0.00008284,0.00016961,-0.00010060,-0.0000026
 5,0.00002878,-0.00000015,-0.00000381,-0.00000587,-0.00000345,0.0000021
 8,-0.00000098,0.00000107,-0.00021006,0.00006899,-0.00009463,-0.0000215
 6,0.00001893,0.00000993,-0.00013586,0.00001064,0.00002901,0.00001978,-
 0.00002094,-0.00001195,0.00000117,0.00074788,-0.00090093,-0.00025226,0
 .00008690,-0.00004476,0.00006050,0.00014342,0.00006866,0.00021090,-0.0
 0020362,0.00002869,0.00000409,-0.00001844,-0.00001531,-0.00455867,-0.0
 0040099,-0.00128885,0.00025731,0.00001609,0.00021391,-0.00061935,0.000
 36925,-0.00020284,-0.00006924,-0.00003330,0.00005792,0.00009402,0.0000
 3782,-0.00033257,-0.00006820,0.00005331,0.00015964,0.05278754,-0.06020
 310,0.02217045,0.02733051,-0.00486305,0.01210920,-0.05792900,0.0595938
 7,-0.00032000,-0.00004835,-0.00000177,0.00002844,-0.00000641,0.0000069
 6,-0.00062169,0.00022734,-0.00042709,0.00070098,-0.00019632,0.00025514
 ,-0.00013641,0.00018149,-0.00019007,0.00000379,-0.00005171,0.00005315,
 0.00004794,0.00043790,0.00024637,-0.00012260,0.00006608,-0.00009985,-0
 .00125854,0.00013895,-0.00029584,0.00007612,-0.00007160,-0.00016303,0.
 00241439,-0.00172503,-0.00561009,-0.00044772,0.00036026,-0.00019585,0.
 00001080,-0.00022636,0.00001683,0.00013844,0.00001658,0.00040945,-0.00
 007867,-0.00000687,-0.00002598,-0.03015218,0.00634591,-0.01346644,0.00
 026867,0.00048901,0.00139497,-0.00066793,0.00117486,0.00153348,0.00007
 054,-0.00014064,-0.00005482,0.00041965,-0.00050606,0.00001680,0.000300
 48,0.00024959,0.00014998,-0.09067957,0.02173953,-0.08403027,0.00666881
 ,-0.00061215,0.00197800,0.10060558,-0.02343597,0.09311147,0.00004667,0
 .00001184,0.00000371,-0.00000524,0.00000051,-0.00000115,0.00008380,0.0
 0002115,0.00010288,-0.00010260,0.00002891,-0.00004215,0.00001690,-0.00
 002329,0.00002173,-0.00000037,0.00000474,-0.00000588,-0.00001368,-0.00
 002304,-0.00004687,0.00001794,-0.00000850,0.00001769,0.00004235,0.0000
 3753,0.00007128,-0.00000074,0.00001043,0.00000937,0.00022479,0.0008795
 2,0.00002534,-0.00033590,-0.00035258,-0.00058674,-0.00030087,-0.000157
 72,-0.00046173,0.00006914,0.00007002,-0.00014346,0.00003381,-0.0000420
 4,-0.00003215,-0.00040532,0.00012061,-0.00013546,0.00109614,0.00025758
 ,-0.00015914,0.00014599,0.00009472,0.00007751,-0.00008451,0.00026867,0
 .00027736,-0.00002701,-0.00003860,0.00004870,0.00006786,0.00015433,-0.
 00008805,-0.17168613,-0.10697571,0.08009958,0.00544547,0.00467463,-0.0
 0437246,-0.01802025,-0.01698013,0.01273065,0.18369175,0.00000624,-0.00
 000209,-0.00001647,0.00000082,0.00000302,0.00000283,0.00005296,0.00008
 714,0.00001871,-0.00001598,0.00001115,0.00002358,-0.00000122,0.0000048
 7,-0.00001934,-0.00000211,-0.00000224,0.00000593,-0.00010447,-0.000000
 07,-0.00006322,0.00000511,-0.00000415,-0.00000346,0.00008878,-0.000070
 38,0.00016440,0.00001710,0.00000349,-0.00000701,-0.00053957,0.00010026
 ,0.00011046,0.00000700,-0.00012734,-0.00026787,-0.00019961,0.00006510,
 -0.00014596,0.00012764,-0.00007772,-0.00004890,0.00000761,-0.00000882,
 -0.00001241,0.00423132,0.00205246,-0.00199196,0.00031876,0.00078540,-0
 .00125653,0.00081832,0.00128077,-0.00021576,-0.00033885,0.00022829,0.0
 0002393,0.00007324,-0.00004901,0.00006913,0.00003794,0.00007160,0.0001
 1811,-0.10681234,-0.13848822,0.06863371,-0.02118795,-0.01624093,0.0132
 5769,0.00544285,0.00440504,-0.00440003,0.11796643,0.14597238,-0.000005
 92,-0.00000005,0.00000402,-0.00000246,0.00000196,0.00000070,-0.0002044
 6,-0.00040539,0.00026246,-0.00002479,-0.00004840,-0.00002006,0.0000140
 1,-0.00000842,0.00002995,0.00000384,0.00000378,-0.00000790,0.00055446,
 -0.00000444,0.00015939,0.00000134,-0.00001233,-0.00002605,-0.00051034,
 0.00057284,-0.00031491,-0.00006113,-0.00009923,0.00003738,0.00140904,-
 0.00023266,0.00173031,0.00005158,0.00022392,-0.00016764,-0.00039981,-0
 .00044807,-0.00022916,-0.00052266,0.00021675,-0.00012930,-0.00001653,0
 .00000874,-0.00001824,0.02314594,0.01942221,-0.01666357,-0.00049819,-0
 .00151450,-0.00626345,-0.00011586,0.00153475,0.00180087,-0.00020282,-0
 .00075551,0.00021515,0.00000573,-0.00014859,-0.00002936,-0.00037354,-0
 .00000807,0.00021839,0.07880285,0.06771273,-0.09592799,-0.00551658,-0.
 00361388,0.00246912,-0.00812313,-0.00841860,0.00538848,-0.08741058,-0.
 07397955,0.10748141\\0.00000303,-0.00000693,-0.00001366,0.00000383,-0.
 00000710,-0.00001519,0.00000159,-0.00000038,-0.00000313,0.00000275,-0.
 00000146,-0.00000638,0.00000356,0.00000277,-0.00000244,0.00000340,0.00
 000662,0.00000261,0.00000071,0.00000469,0.00000448,0.00000103,0.000008
 17,0.00000848,-0.00000017,0.00000545,0.00000729,-0.00000076,0.00000954
 ,0.00001314,-0.00000055,0.00000127,0.00000241,0.00000008,-0.00000396,-
 0.00000514,-0.00000013,-0.00000737,-0.00000897,0.00000119,-0.00000480,
 -0.00000778,0.00000168,-0.00000879,-0.00001374,-0.00000170,0.00000209,
 0.00000540,-0.00000197,0.00000651,0.00001138,0.00000373,0.00000467,-0.
 00000037,0.00000410,0.00000033,-0.00000638,0.00000297,0.00000559,0.000
 00204,0.00000822,0.00000997,-0.00000120,-0.00000796,-0.00000532,0.0000
 0657,-0.00001189,-0.00000714,0.00001080,-0.00000883,-0.00000452,0.0000
 0902,-0.00000790,-0.00000990,0.00000076\\\@
 The archive entry for this job was punched.


 WE HAVE LEFT UNDONE THOSE THINGS WHICH WE OUGHT TO HAVE DONE,
 AND WE HAVE DONE THOSE THINGS WHICH WE OUGHT NOT TO HAVE DONE.
                   BOOK OF COMMON PRAYER                      
 Job cpu time:       0 days  1 hours 52 minutes  4.5 seconds.
 Elapsed time:       0 days  0 hours  3 minutes 39.1 seconds.
 File lengths (MBytes):  RWF=    333 Int=      0 D2E=      0 Chk=     22 Scr=      1
 Normal termination of Gaussian 16 at Sat Apr 26 20:06:26 2025.
