/home/tahminaafroz
cn015.cluster.local
tahminaafroz
Tue May  6 17:43:42 CDT 2025
 Entering Gaussian System, Link 0=g16
 Initial command:
 /home/apps/g16/l1.exe "/tmp/4-isopropyl-ph-opt-freq-thf-2/Gau-119790.inp" -scrdir="/tmp/4-isopropyl-ph-opt-freq-thf-2/"
 Entering Link 1 = /home/apps/g16/l1.exe PID=    119791.
  
 Copyright (c) 1988-2019, Gaussian, Inc.  All Rights Reserved.
  
 This is part of the Gaussian(R) 16 program.  It is based on
 the Gaussian(R) 09 system (copyright 2009, Gaussian, Inc.),
 the Gaussian(R) 03 system (copyright 2003, Gaussian, Inc.),
 the Gaussian(R) 98 system (copyright 1998, Gaussian, Inc.),
 the Gaussian(R) 94 system (copyright 1995, Gaussian, Inc.),
 the Gaussian 92(TM) system (copyright 1992, Gaussian, Inc.),
 the Gaussian 90(TM) system (copyright 1990, Gaussian, Inc.),
 the Gaussian 88(TM) system (copyright 1988, Gaussian, Inc.),
 the Gaussian 86(TM) system (copyright 1986, Carnegie Mellon
 University), and the Gaussian 82(TM) system (copyright 1983,
 Carnegie Mellon University). Gaussian is a federally registered
 trademark of Gaussian, Inc.
  
 This software contains proprietary and confidential information,
 including trade secrets, belonging to Gaussian, Inc.
  
 This software is provided under written license and may be
 used, copied, transmitted, or stored only in accord with that
 written license.
  
 The following legend is applicable only to US Government
 contracts under FAR:
  
                    RESTRICTED RIGHTS LEGEND
  
 Use, reproduction and disclosure by the US Government is
 subject to restrictions as set forth in subparagraphs (a)
 and (c) of the Commercial Computer Software - Restricted
 Rights clause in FAR 52.227-19.
  
 Gaussian, Inc.
 340 Quinnipiac St., Bldg. 40, Wallingford CT 06492
  
  
 ---------------------------------------------------------------
 Warning -- This program may not be used in any manner that
 competes with the business of Gaussian, Inc. or will provide
 assistance to any competitor of Gaussian, Inc.  The licensee
 of this program is prohibited from giving any competitor of
 Gaussian, Inc. access to this program.  By using this program,
 the user acknowledges that Gaussian, Inc. is engaged in the
 business of creating and licensing software in the field of
 computational chemistry and represents and warrants to the
 licensee that it is not a competitor of Gaussian, Inc. and that
 it will not use this program in any manner prohibited above.
 ---------------------------------------------------------------
  

 Cite this work as:
 Gaussian 16, Revision C.01,
 M. J. Frisch, G. W. Trucks, H. B. Schlegel, G. E. Scuseria, 
 M. A. Robb, J. R. Cheeseman, G. Scalmani, V. Barone, 
 G. A. Petersson, H. Nakatsuji, X. Li, M. Caricato, A. V. Marenich, 
 J. Bloino, B. G. Janesko, R. Gomperts, B. Mennucci, H. P. Hratchian, 
 J. V. Ortiz, A. F. Izmaylov, J. L. Sonnenberg, D. Williams-Young, 
 F. Ding, F. Lipparini, F. Egidi, J. Goings, B. Peng, A. Petrone, 
 T. Henderson, D. Ranasinghe, V. G. Zakrzewski, J. Gao, N. Rega, 
 G. Zheng, W. Liang, M. Hada, M. Ehara, K. Toyota, R. Fukuda, 
 J. Hasegawa, M. Ishida, T. Nakajima, Y. Honda, O. Kitao, H. Nakai, 
 T. Vreven, K. Throssell, J. A. Montgomery, Jr., J. E. Peralta, 
 F. Ogliaro, M. J. Bearpark, J. J. Heyd, E. N. Brothers, K. N. Kudin, 
 V. N. Staroverov, T. A. Keith, R. Kobayashi, J. Normand, 
 K. Raghavachari, A. P. Rendell, J. C. Burant, S. S. Iyengar, 
 J. Tomasi, M. Cossi, J. M. Millam, M. Klene, C. Adamo, R. Cammi, 
 J. W. Ochterski, R. L. Martin, K. Morokuma, O. Farkas, 
 J. B. Foresman, and D. J. Fox, Gaussian, Inc., Wallingford CT, 2019.
 
 ******************************************
 Gaussian 16:  AS64L-G16RevC.01  3-Jul-2019
                 6-May-2025 
 ******************************************
 %mem=20GB
 %nprocshared=32
 Will use up to   32 processors via shared memory.
 %chk=4-isopropyl-ph-opt-freq-thf-2.chk
 ----------------------------------------------------------------------
 # opt=(calcfc,tight) freq 6-311+g(d,p) scrf=(smd,solvent=thf) nosymm s
 cf=(qc,fermi,xqc) geom=connectivity int=ultrafine m062x
 ----------------------------------------------------------------------
 1/7=10,10=4,18=20,19=15,26=6,38=1,57=2/1,3;
 2/9=110,12=2,15=1,17=6,18=5,40=1/2;
 3/5=4,6=6,7=111,11=2,25=1,30=1,70=32201,71=2,72=20,74=-55,75=-5,140=1/1,2,3;
 4//1;
 5/5=2,22=13,38=5,53=20/2;
 8/6=4,10=90,11=11/1;
 11/6=1,8=1,9=11,15=111,16=1,31=1/1,2,10;
 10/6=1,13=1,31=1/2;
 6/7=2,8=2,9=2,10=2,28=1/1;
 7/10=1,25=1,30=1/1,2,3,16;
 1/7=10,10=4,18=20,19=15,26=6/3(2);
 2/9=110,15=1/2;
 99//99;
 2/9=110,15=1/2;
 3/5=4,6=6,7=111,11=2,25=1,30=1,70=32205,71=1,72=20,74=-55,75=-5/1,2,3;
 4/5=5,16=3,69=1/1;
 5/5=2,22=13,38=5,53=20/2;
 7/30=1/1,2,3,16;
 1/7=10,18=20,19=15,26=6/3(-5);
 2/9=110,15=1/2;
 6/7=2,8=2,9=2,10=2,19=2,28=1/1;
 99/9=1/99;
 -----------------------------
 4-isopropyl-ph-opt-freq-thf-2
 -----------------------------
 Symbolic Z-matrix:
 Charge =  0 Multiplicity = 2
 C                     6.26553   6.97052   5.16258 
 C                     5.08228   6.30502   5.50003 
 H                     5.08788   5.48636   6.21521 
 C                     3.86306   6.66303   4.93129 
 H                     2.95995   6.12989   5.2117 
 C                     3.78304   7.70124   4.00246 
 C                     4.96278   8.37007   3.65609 
 H                     4.92922   9.18037   2.93437 
 C                     6.17721   8.00973   4.22451 
 H                     7.07879   8.54249   3.94079 
 C                     2.45623   8.08943   3.38194 
 H                     1.69035   7.44665   3.82681 
 C                     2.09958   9.54638   3.69417 
 H                     2.82595   10.2297   3.24501 
 H                     1.11399   9.79112   3.28941 
 H                     2.08319   9.72864   4.7715 
 C                     2.46349   7.84801   1.86864 
 H                     2.69845   6.80678   1.63464 
 H                     1.48533   8.084     1.44112 
 H                     3.20742   8.48264   1.37838 
 

 GradGradGradGradGradGradGradGradGradGradGradGradGradGradGradGradGradGrad
 Berny optimization.
 Initialization pass.
                           ----------------------------
                           !    Initial Parameters    !
                           ! (Angstroms and Degrees)  !
 --------------------------                            --------------------------
 ! Name  Definition              Value          Derivative Info.                !
 --------------------------------------------------------------------------------
 ! R1    R(1,2)                  1.3989         calculate D2E/DX2 analytically  !
 ! R2    R(1,9)                  1.4028         calculate D2E/DX2 analytically  !
 ! R3    R(2,3)                  1.0871         calculate D2E/DX2 analytically  !
 ! R4    R(2,4)                  1.3922         calculate D2E/DX2 analytically  !
 ! R5    R(4,5)                  1.0856         calculate D2E/DX2 analytically  !
 ! R6    R(4,6)                  1.3954         calculate D2E/DX2 analytically  !
 ! R7    R(6,7)                  1.3997         calculate D2E/DX2 analytically  !
 ! R8    R(6,11)                 1.5153         calculate D2E/DX2 analytically  !
 ! R9    R(7,8)                  1.0856         calculate D2E/DX2 analytically  !
 ! R10   R(7,9)                  1.3884         calculate D2E/DX2 analytically  !
 ! R11   R(9,10)                 1.085          calculate D2E/DX2 analytically  !
 ! R12   R(11,12)                1.0944         calculate D2E/DX2 analytically  !
 ! R13   R(11,13)                1.5321         calculate D2E/DX2 analytically  !
 ! R14   R(11,17)                1.5325         calculate D2E/DX2 analytically  !
 ! R15   R(13,14)                1.0937         calculate D2E/DX2 analytically  !
 ! R16   R(13,15)                1.0932         calculate D2E/DX2 analytically  !
 ! R17   R(13,16)                1.0928         calculate D2E/DX2 analytically  !
 ! R18   R(17,18)                1.0928         calculate D2E/DX2 analytically  !
 ! R19   R(17,19)                1.0933         calculate D2E/DX2 analytically  !
 ! R20   R(17,20)                1.0939         calculate D2E/DX2 analytically  !
 ! A1    A(2,1,9)              117.4193         calculate D2E/DX2 analytically  !
 ! A2    A(1,2,3)              120.8382         calculate D2E/DX2 analytically  !
 ! A3    A(1,2,4)              121.3252         calculate D2E/DX2 analytically  !
 ! A4    A(3,2,4)              117.8363         calculate D2E/DX2 analytically  !
 ! A5    A(2,4,5)              119.7851         calculate D2E/DX2 analytically  !
 ! A6    A(2,4,6)              120.8973         calculate D2E/DX2 analytically  !
 ! A7    A(5,4,6)              119.3176         calculate D2E/DX2 analytically  !
 ! A8    A(4,6,7)              118.1598         calculate D2E/DX2 analytically  !
 ! A9    A(4,6,11)             120.8912         calculate D2E/DX2 analytically  !
 ! A10   A(7,6,11)             120.9485         calculate D2E/DX2 analytically  !
 ! A11   A(6,7,8)              119.6775         calculate D2E/DX2 analytically  !
 ! A12   A(6,7,9)              120.7907         calculate D2E/DX2 analytically  !
 ! A13   A(8,7,9)              119.5319         calculate D2E/DX2 analytically  !
 ! A14   A(1,9,7)              121.407          calculate D2E/DX2 analytically  !
 ! A15   A(1,9,10)             119.0991         calculate D2E/DX2 analytically  !
 ! A16   A(7,9,10)             119.4938         calculate D2E/DX2 analytically  !
 ! A17   A(6,11,12)            107.2085         calculate D2E/DX2 analytically  !
 ! A18   A(6,11,13)            111.3453         calculate D2E/DX2 analytically  !
 ! A19   A(6,11,17)            111.0925         calculate D2E/DX2 analytically  !
 ! A20   A(12,11,13)           108.2269         calculate D2E/DX2 analytically  !
 ! A21   A(12,11,17)           108.1928         calculate D2E/DX2 analytically  !
 ! A22   A(13,11,17)           110.6188         calculate D2E/DX2 analytically  !
 ! A23   A(11,13,14)           110.8433         calculate D2E/DX2 analytically  !
 ! A24   A(11,13,15)           110.3225         calculate D2E/DX2 analytically  !
 ! A25   A(11,13,16)           111.2847         calculate D2E/DX2 analytically  !
 ! A26   A(14,13,15)           107.8678         calculate D2E/DX2 analytically  !
 ! A27   A(14,13,16)           108.0964         calculate D2E/DX2 analytically  !
 ! A28   A(15,13,16)           108.3106         calculate D2E/DX2 analytically  !
 ! A29   A(11,17,18)           111.2587         calculate D2E/DX2 analytically  !
 ! A30   A(11,17,19)           110.3597         calculate D2E/DX2 analytically  !
 ! A31   A(11,17,20)           110.7576         calculate D2E/DX2 analytically  !
 ! A32   A(18,17,19)           108.3193         calculate D2E/DX2 analytically  !
 ! A33   A(18,17,20)           108.0961         calculate D2E/DX2 analytically  !
 ! A34   A(19,17,20)           107.9381         calculate D2E/DX2 analytically  !
 ! D1    D(9,1,2,3)            179.5355         calculate D2E/DX2 analytically  !
 ! D2    D(9,1,2,4)             -0.2445         calculate D2E/DX2 analytically  !
 ! D3    D(2,1,9,7)              0.2942         calculate D2E/DX2 analytically  !
 ! D4    D(2,1,9,10)          -179.8266         calculate D2E/DX2 analytically  !
 ! D5    D(1,2,4,5)           -179.9672         calculate D2E/DX2 analytically  !
 ! D6    D(1,2,4,6)              0.0186         calculate D2E/DX2 analytically  !
 ! D7    D(3,2,4,5)              0.2464         calculate D2E/DX2 analytically  !
 ! D8    D(3,2,4,6)           -179.7678         calculate D2E/DX2 analytically  !
 ! D9    D(2,4,6,7)              0.1633         calculate D2E/DX2 analytically  !
 ! D10   D(2,4,6,11)           179.9078         calculate D2E/DX2 analytically  !
 ! D11   D(5,4,6,7)           -179.8508         calculate D2E/DX2 analytically  !
 ! D12   D(5,4,6,11)            -0.1063         calculate D2E/DX2 analytically  !
 ! D13   D(4,6,7,8)            179.8783         calculate D2E/DX2 analytically  !
 ! D14   D(4,6,7,9)             -0.114          calculate D2E/DX2 analytically  !
 ! D15   D(11,6,7,8)             0.134          calculate D2E/DX2 analytically  !
 ! D16   D(11,6,7,9)          -179.8583         calculate D2E/DX2 analytically  !
 ! D17   D(4,6,11,12)            1.6923         calculate D2E/DX2 analytically  !
 ! D18   D(4,6,11,13)          119.8948         calculate D2E/DX2 analytically  !
 ! D19   D(4,6,11,17)         -116.3276         calculate D2E/DX2 analytically  !
 ! D20   D(7,6,11,12)         -178.5703         calculate D2E/DX2 analytically  !
 ! D21   D(7,6,11,13)          -60.3679         calculate D2E/DX2 analytically  !
 ! D22   D(7,6,11,17)           63.4097         calculate D2E/DX2 analytically  !
 ! D23   D(6,7,9,1)             -0.1187         calculate D2E/DX2 analytically  !
 ! D24   D(6,7,9,10)          -179.9974         calculate D2E/DX2 analytically  !
 ! D25   D(8,7,9,1)            179.889          calculate D2E/DX2 analytically  !
 ! D26   D(8,7,9,10)             0.0103         calculate D2E/DX2 analytically  !
 ! D27   D(6,11,13,14)          63.9105         calculate D2E/DX2 analytically  !
 ! D28   D(6,11,13,15)        -176.6762         calculate D2E/DX2 analytically  !
 ! D29   D(6,11,13,16)         -56.4224         calculate D2E/DX2 analytically  !
 ! D30   D(12,11,13,14)       -178.5017         calculate D2E/DX2 analytically  !
 ! D31   D(12,11,13,15)        -59.0884         calculate D2E/DX2 analytically  !
 ! D32   D(12,11,13,16)         61.1654         calculate D2E/DX2 analytically  !
 ! D33   D(17,11,13,14)        -60.1356         calculate D2E/DX2 analytically  !
 ! D34   D(17,11,13,15)         59.2778         calculate D2E/DX2 analytically  !
 ! D35   D(17,11,13,16)        179.5316         calculate D2E/DX2 analytically  !
 ! D36   D(6,11,17,18)          56.8747         calculate D2E/DX2 analytically  !
 ! D37   D(6,11,17,19)         177.1471         calculate D2E/DX2 analytically  !
 ! D38   D(6,11,17,20)         -63.3828         calculate D2E/DX2 analytically  !
 ! D39   D(12,11,17,18)        -60.5474         calculate D2E/DX2 analytically  !
 ! D40   D(12,11,17,19)         59.725          calculate D2E/DX2 analytically  !
 ! D41   D(12,11,17,20)        179.1951         calculate D2E/DX2 analytically  !
 ! D42   D(13,11,17,18)       -178.9344         calculate D2E/DX2 analytically  !
 ! D43   D(13,11,17,19)        -58.6619         calculate D2E/DX2 analytically  !
 ! D44   D(13,11,17,20)         60.8082         calculate D2E/DX2 analytically  !
 --------------------------------------------------------------------------------
 Trust Radius=3.00D-01 FncErr=5.00D-06 GrdErr=5.00D-06 EigMax=2.50D+02 EigMin=1.00D-04
 Number of steps in this run=    108 maximum allowed number of steps=    120.
 GradGradGradGradGradGradGradGradGradGradGradGradGradGradGradGradGradGrad

                          Input orientation:                          
 ---------------------------------------------------------------------
 Center     Atomic      Atomic             Coordinates (Angstroms)
 Number     Number       Type             X           Y           Z
 ---------------------------------------------------------------------
      1          6           0        6.265533    6.970519    5.162579
      2          6           0        5.082277    6.305024    5.500029
      3          1           0        5.087882    5.486357    6.215206
      4          6           0        3.863061    6.663026    4.931289
      5          1           0        2.959954    6.129887    5.211704
      6          6           0        3.783042    7.701240    4.002459
      7          6           0        4.962782    8.370067    3.656086
      8          1           0        4.929223    9.180373    2.934367
      9          6           0        6.177209    8.009729    4.224509
     10          1           0        7.078790    8.542486    3.940790
     11          6           0        2.456231    8.089430    3.381943
     12          1           0        1.690349    7.446650    3.826814
     13          6           0        2.099575    9.546380    3.694169
     14          1           0        2.825949   10.229699    3.245011
     15          1           0        1.113993    9.791119    3.289407
     16          1           0        2.083192    9.728637    4.771495
     17          6           0        2.463492    7.848014    1.868637
     18          1           0        2.698452    6.806778    1.634643
     19          1           0        1.485333    8.083998    1.441118
     20          1           0        3.207416    8.482637    1.378380
 ---------------------------------------------------------------------
                    Distance matrix (angstroms):
                    1          2          3          4          5
     1  C    0.000000
     2  C    1.398875   0.000000
     3  H    2.167400   1.087072   0.000000
     4  C    2.433088   1.392163   2.129126   0.000000
     5  H    3.411148   2.148967   2.439103   1.085575   0.000000
     6  C    2.835947   2.424901   3.391838   1.395355   2.146834
     7  C    2.434218   2.771066   3.857529   2.397815   3.383737
     8  H    3.410881   3.856641   4.943160   3.385474   4.285995
     9  C    1.402759   2.394128   3.393658   2.769193   3.854749
    10  H    2.150636   3.379871   4.298442   3.854137   4.939703
    11  C    4.351254   3.816610   4.661433   2.532641   2.727924
    12  H    4.789914   3.950713   4.592428   2.560197   2.294272
    13  C    5.113364   4.760675   5.636434   3.599178   3.836090
    14  H    5.111757   5.057588   6.036364   4.079251   4.549098
    15  H    6.164651   5.725992   6.548517   4.476396   4.528512
    16  H    5.025151   4.609382   5.395313   3.548442   3.730080
    17  C    5.106424   4.735595   5.599778   3.569710   3.791376
    18  H    5.019682   4.568981   5.332396   3.499265   3.649922
    19  H    6.159498   5.707671   6.520584   4.455788   4.495595
    20  H    5.094972   5.024449   5.992390   4.045246   4.504558
                    6          7          8          9         10
     6  C    0.000000
     7  C    1.399675   0.000000
     8  H    2.154620   1.085634   0.000000
     9  C    2.424151   1.388446   2.142975   0.000000
    10  H    3.401978   2.142026   2.457728   1.084977   0.000000
    11  C    1.515308   2.537067   2.739739   3.816012   4.678207
    12  H    2.115427   3.404507   3.780550   4.539508   5.499922
    13  C    2.516673   3.095661   2.952654   4.389722   5.085392
    14  H    2.807643   2.862389   2.370938   4.137466   4.627899
    15  H    3.464081   4.119104   3.880083   5.448295   6.128800
    16  H    2.755221   3.373705   3.431549   4.473792   5.201252
    17  C    2.513156   3.116723   2.998465   4.400907   5.106573
    18  H    2.753716   3.414278   3.507075   4.500694   5.245794
    19  H    3.462144   4.132865   3.910525   5.455867   6.143723
    20  H    2.797806   2.877834   2.423335   4.140503   4.642958
                   11         12         13         14         15
    11  C    0.000000
    12  H    1.094373   0.000000
    13  C    1.532120   2.143345   0.000000
    14  H    2.176280   3.061608   1.093749   0.000000
    15  H    2.169311   2.473364   1.093207   1.767800   0.000000
    16  H    2.181058   2.500842   1.092757   1.770001   1.771958
    17  C    1.532459   2.143199   2.519811   2.774564   2.759600
    18  H    2.181037   2.496262   3.479328   3.784961   3.762319
    19  H    2.170132   2.477860   2.755375   3.107300   2.543291
    20  H    2.175582   3.060979   2.778802   2.584967   3.121950
                   16         17         18         19         20
    16  H    0.000000
    17  C    3.479649   0.000000
    18  H    4.330779   1.092763   0.000000
    19  H    3.762138   1.093278   1.772118   0.000000
    20  H    3.785449   1.093856   1.770090   1.768734   0.000000
 Symmetry turned off by external request.
 Stoichiometry    C9H11(2)
 Framework group  C1[X(C9H11)]
 Deg. of freedom    54
 Full point group                 C1      NOp   1
 Rotational constants (GHZ):           3.3752245           1.1177597           1.0237407
 Standard basis: 6-311+G(d,p) (5D, 7F)
   264 basis functions,   412 primitive gaussians,   273 cartesian basis functions
    33 alpha electrons       32 beta electrons
       nuclear repulsion energy       411.6894517114 Hartrees.
 NAtoms=   20 NActive=   20 NUniq=   20 SFac= 1.00D+00 NAtFMM=   60 NAOKFM=F Big=F
 Integral buffers will be    131072 words long.
 Raffenetti 2 integral format.
 Two-electron integral symmetry is turned off.
 Force inversion solution in PCM.
 ------------------------------------------------------------------------------
 Polarizable Continuum Model (PCM)
 =================================
 Model                : PCM.
 Atomic radii         : SMD-Coulomb.
 Polarization charges : Total charges.
 Charge compensation  : None.
 Solution method      : Matrix inversion.
 Cavity type          : VdW (van der Waals Surface) (Alpha=1.000).
 Cavity algorithm     : GePol (No added spheres)
                        Default sphere list used, NSphG=   20.
                        Lebedev-Laikov grids with approx.  5.0 points / Ang**2.
                        Smoothing algorithm: York/Karplus (Gamma=1.0000).
                        Polarization charges: spherical gaussians, with
                                              point-specific exponents (IZeta= 3).
                        Self-potential: point-specific (ISelfS= 7).
                        Self-field    : sphere-specific E.n sum rule (ISelfD= 2).
 1st derivatives      : Analytical E(r).r(x)/FMM algorithm (CHGder, D1EAlg=3).
                        Cavity 1st derivative terms included.
 2nd derivatives      : Analytical E(r).r(xy)/FMM algorithm (CHGder, D2EAlg=3).
                        Cavity 2nd derivative terms included.
 Solvent              : TetraHydroFuran, Eps=   7.425700 Eps(inf)=   1.974025
 ------------------------------------------------------------------------------
 Spheres list:
 ISph  on   Nord     Re0    Alpha      Xe            Ye            Ze
    1   C      1    1.8500  1.000      6.265533      6.970519      5.162579
    2   C      2    1.8500  1.000      5.082277      6.305024      5.500029
    3   H      3    1.2000  1.000      5.087882      5.486357      6.215206
    4   C      4    1.8500  1.000      3.863061      6.663026      4.931289
    5   H      5    1.2000  1.000      2.959954      6.129887      5.211704
    6   C      6    1.8500  1.000      3.783042      7.701240      4.002459
    7   C      7    1.8500  1.000      4.962782      8.370067      3.656086
    8   H      8    1.2000  1.000      4.929223      9.180373      2.934367
    9   C      9    1.8500  1.000      6.177209      8.009729      4.224509
   10   H     10    1.2000  1.000      7.078790      8.542486      3.940790
   11   C     11    1.8500  1.000      2.456231      8.089430      3.381943
   12   H     12    1.2000  1.000      1.690349      7.446650      3.826814
   13   C     13    1.8500  1.000      2.099575      9.546380      3.694169
   14   H     14    1.2000  1.000      2.825949     10.229699      3.245011
   15   H     15    1.2000  1.000      1.113993      9.791119      3.289407
   16   H     16    1.2000  1.000      2.083192      9.728637      4.771495
   17   C     17    1.8500  1.000      2.463492      7.848014      1.868637
   18   H     18    1.2000  1.000      2.698452      6.806778      1.634643
   19   H     19    1.2000  1.000      1.485333      8.083998      1.441118
   20   H     20    1.2000  1.000      3.207416      8.482637      1.378380
 ------------------------------------------------------------------------------
 ------------------------------------------------------------------------------
 Atomic radii for non-electrostatic terms: SMD-CDS.
 ------------------------------------------------------------------------------
 Nuclear repulsion after PCM non-electrostatic terms =      411.6860231813 Hartrees.
 One-electron integrals computed using PRISM.
 NBasis=   264 RedAO= T EigKep=  2.79D-06  NBF=   264
 NBsUse=   264 1.00D-06 EigRej= -1.00D+00 NBFU=   264
 ExpMin= 4.38D-02 ExpMax= 4.56D+03 ExpMxC= 6.82D+02 IAcc=3 IRadAn=         5 AccDes= 0.00D+00
 Harris functional with IExCor= 1009 and IRadAn=       5 diagonalized for initial guess.
 HarFok:  IExCor= 1009 AccDes= 0.00D+00 IRadAn=         5 IDoV= 1 UseB2=F ITyADJ=14
 ICtDFT=  3500011 ScaDFX=  1.000000  1.000000  1.000000  1.000000
 FoFCou: FMM=F IPFlag=           0 FMFlag=      100000 FMFlg1=           0
         NFxFlg=           0 DoJE=T BraDBF=F KetDBF=T FulRan=T
         wScrn=  0.000000 ICntrl=       500 IOpCl=  0 I1Cent=   200000004 NGrid=           0
         NMat0=    1 NMatS0=      1 NMatT0=    0 NMatD0=    1 NMtDS0=    0 NMtDT0=    0
 Symmetry not used in FoFCou.
 Initial guess <Sx>= 0.0000 <Sy>= 0.0000 <Sz>= 0.5000 <S**2>= 0.7500 S= 0.5000
 Requested convergence on RMS density matrix=1.00D-08 within 128 cycles.
 Requested convergence on MAX density matrix=1.00D-06.
 Requested convergence on             energy=1.00D-06.
 Level shift goal  0.100 maximum shift  0.100.
 No special actions if energy rises.
 Dynamic level shift is on during FON iterations.
 Inv3:  Mode=1 IEnd=     7068675.
 Iteration    1 A*A^-1 deviation from unit magnitude is 4.22D-15 for   1514.
 Iteration    1 A*A^-1 deviation from orthogonality  is 3.02D-15 for   1527   1364.
 Iteration    1 A^-1*A deviation from unit magnitude is 4.22D-15 for   1513.
 Iteration    1 A^-1*A deviation from orthogonality  is 2.16D-15 for   1533   1411.
 Error on total polarization charges =  0.04805
 SCF Done:  E(UM062X) =  -349.432219833     A.U. after   17 cycles
            NFock= 17  Conv=0.42D-08     -V/T= 2.0046
 <Sx>= 0.0000 <Sy>= 0.0000 <Sz>= 0.5000 <S**2>= 0.7635 S= 0.5067
 <L.S>=  0.00000000000    
 SMD-CDS (non-electrostatic) energy       (kcal/mol) =      -2.15
 (included in total energy above)
 Annihilation of the first spin contaminant:
 S**2 before annihilation     0.7635,   after     0.7501
 DoSCS=F DFT=T ScalE2(SS,OS)=  1.000000  1.000000
 Range of M.O.s used for correlation:     1   264
 NBasis=   264 NAE=    33 NBE=    32 NFC=     0 NFV=     0
 NROrb=    264 NOA=    33 NOB=    32 NVA=   231 NVB=   232

 **** Warning!!: The largest alpha MO coefficient is  0.16458933D+03


 **** Warning!!: The largest beta MO coefficient is  0.18596940D+03

 Symmetrizing basis deriv contribution to polar:
 IMax=3 JMax=2 DiffMx= 0.00D+00
 G2DrvN: will do    21 centers at a time, making    1 passes.
 Calling FoFCou, ICntrl=  3107 FMM=F I1Cent=   0 AccDes= 0.00D+00.
 NEqPCM:  Using equilibrium solvation (IEInf=0, Eps=   7.4257, EpsInf=   1.9740)
 G2PCM: DoFxE=T DoFxN=T DoGrad=T DoDP/DQ/DG/TGxP=FFFF NFrqRd=   0 IEInf=0 SqF1=F DoCFld=F IF1Alg=4.
 End of G2Drv F.D. properties file   721 does not exist.
 End of G2Drv F.D. properties file   722 does not exist.
 End of G2Drv F.D. properties file   788 does not exist.
          IDoAtm=11111111111111111111
 NEqPCM:  Using equilibrium solvation (IEInf=0, Eps=   7.4257, EpsInf=   1.9740)
          Differentiating once with respect to nuclear coordinates.
 Keep R1 and R2 ints in memory in canonical form, NReq=1258935315.
          There are    63 degrees of freedom in the 1st order CPHF.  IDoFFX=6 NUNeed=     0.
     57 vectors produced by pass  0 Test12= 2.39D-14 1.59D-09 XBig12= 2.11D-01 8.50D-02.
 AX will form    57 AO Fock derivatives at one time.
     57 vectors produced by pass  1 Test12= 2.39D-14 1.59D-09 XBig12= 2.70D-02 4.02D-02.
     57 vectors produced by pass  2 Test12= 2.39D-14 1.59D-09 XBig12= 6.05D-04 5.91D-03.
     57 vectors produced by pass  3 Test12= 2.39D-14 1.59D-09 XBig12= 1.23D-05 1.18D-03.
     57 vectors produced by pass  4 Test12= 2.39D-14 1.59D-09 XBig12= 1.56D-07 9.32D-05.
     57 vectors produced by pass  5 Test12= 2.39D-14 1.59D-09 XBig12= 1.54D-09 4.00D-06.
     47 vectors produced by pass  6 Test12= 2.39D-14 1.59D-09 XBig12= 1.03D-11 3.60D-07.
     22 vectors produced by pass  7 Test12= 2.39D-14 1.59D-09 XBig12= 6.78D-14 2.17D-08.
      1 vectors produced by pass  8 Test12= 2.39D-14 1.59D-09 XBig12= 4.22D-16 1.60D-09.
 InvSVY:  IOpt=1 It=  1 EMax= 3.89D-16
 Solved reduced A of dimension   412 with    63 vectors.
 End of Minotr F.D. properties file   721 does not exist.
 End of Minotr F.D. properties file   722 does not exist.
 End of Minotr F.D. properties file   788 does not exist.

 **********************************************************************

            Population analysis using the SCF Density.

 **********************************************************************

 Alpha  occ. eigenvalues --  -10.57624 -10.55068 -10.55029 -10.54881 -10.54518
 Alpha  occ. eigenvalues --  -10.54474 -10.54103 -10.51856 -10.51845  -0.97110
 Alpha  occ. eigenvalues --   -0.90210  -0.84789  -0.82371  -0.76969  -0.70220
 Alpha  occ. eigenvalues --   -0.68841  -0.64234  -0.57211  -0.53677  -0.52000
 Alpha  occ. eigenvalues --   -0.49567  -0.49039  -0.48435  -0.47893  -0.44680
 Alpha  occ. eigenvalues --   -0.43351  -0.41132  -0.39604  -0.39392  -0.38014
 Alpha  occ. eigenvalues --   -0.32316  -0.31287  -0.30585
 Alpha virt. eigenvalues --    0.01366   0.01679   0.01746   0.03095   0.03241
 Alpha virt. eigenvalues --    0.04110   0.05186   0.05547   0.05901   0.06816
 Alpha virt. eigenvalues --    0.07673   0.07802   0.08138   0.08504   0.10386
 Alpha virt. eigenvalues --    0.11064   0.11436   0.11817   0.11952   0.12591
 Alpha virt. eigenvalues --    0.14752   0.14767   0.15843   0.16434   0.16788
 Alpha virt. eigenvalues --    0.17334   0.17673   0.18768   0.19207   0.19778
 Alpha virt. eigenvalues --    0.20463   0.20773   0.22158   0.22364   0.22613
 Alpha virt. eigenvalues --    0.23181   0.24110   0.24670   0.24858   0.25318
 Alpha virt. eigenvalues --    0.25922   0.26279   0.27119   0.27607   0.28405
 Alpha virt. eigenvalues --    0.28750   0.29749   0.30878   0.31226   0.32125
 Alpha virt. eigenvalues --    0.32424   0.33022   0.36462   0.37148   0.39270
 Alpha virt. eigenvalues --    0.40168   0.44182   0.44573   0.45254   0.49883
 Alpha virt. eigenvalues --    0.52150   0.52187   0.53907   0.54575   0.55090
 Alpha virt. eigenvalues --    0.57397   0.58365   0.58705   0.60539   0.61190
 Alpha virt. eigenvalues --    0.62383   0.63026   0.63684   0.66331   0.66596
 Alpha virt. eigenvalues --    0.67873   0.69208   0.70762   0.70858   0.71022
 Alpha virt. eigenvalues --    0.71589   0.72685   0.73197   0.74604   0.75053
 Alpha virt. eigenvalues --    0.76602   0.76785   0.78312   0.80009   0.80172
 Alpha virt. eigenvalues --    0.81773   0.82675   0.86099   0.87328   0.88998
 Alpha virt. eigenvalues --    0.90568   0.91857   0.92551   0.95573   0.97000
 Alpha virt. eigenvalues --    0.98341   1.01250   1.01822   1.05574   1.09469
 Alpha virt. eigenvalues --    1.09973   1.11361   1.14279   1.14666   1.21294
 Alpha virt. eigenvalues --    1.23282   1.24919   1.25134   1.30475   1.33236
 Alpha virt. eigenvalues --    1.43405   1.46235   1.50843   1.51438   1.53403
 Alpha virt. eigenvalues --    1.53727   1.53906   1.56975   1.57177   1.57572
 Alpha virt. eigenvalues --    1.60474   1.60687   1.61858   1.63442   1.67218
 Alpha virt. eigenvalues --    1.67271   1.68255   1.68626   1.70014   1.72422
 Alpha virt. eigenvalues --    1.72534   1.76382   1.78793   1.79227   1.80257
 Alpha virt. eigenvalues --    1.81632   1.82973   1.83865   1.87434   1.90504
 Alpha virt. eigenvalues --    1.92957   1.93478   1.94903   1.97008   1.97346
 Alpha virt. eigenvalues --    1.98067   1.99790   2.02270   2.07026   2.08041
 Alpha virt. eigenvalues --    2.09332   2.11686   2.15331   2.16931   2.18269
 Alpha virt. eigenvalues --    2.21008   2.25816   2.32154   2.33222   2.35401
 Alpha virt. eigenvalues --    2.40171   2.41518   2.43799   2.46319   2.48089
 Alpha virt. eigenvalues --    2.51582   2.54454   2.55408   2.55665   2.57591
 Alpha virt. eigenvalues --    2.60271   2.60356   2.62932   2.65951   2.68152
 Alpha virt. eigenvalues --    2.69933   2.70199   2.72029   2.72814   2.74253
 Alpha virt. eigenvalues --    2.74965   2.75767   2.78141   2.79247   2.85536
 Alpha virt. eigenvalues --    2.87928   2.88254   2.92495   2.93425   2.95255
 Alpha virt. eigenvalues --    2.98907   2.99452   3.00955   3.02487   3.03621
 Alpha virt. eigenvalues --    3.13522   3.18989   3.23667   3.26366   3.42489
 Alpha virt. eigenvalues --    3.46331   3.51419   3.54746   3.62405   3.71117
 Alpha virt. eigenvalues --    3.81614   3.82936   3.84392   3.88527   3.90633
 Alpha virt. eigenvalues --    4.02771   4.14855   4.16439   4.19630   4.34098
 Alpha virt. eigenvalues --    4.41631   4.83659  23.62871  23.94304  23.98914
 Alpha virt. eigenvalues --   24.02332  24.05607  24.06830  24.12816  24.17707
 Alpha virt. eigenvalues --   24.24023
  Beta  occ. eigenvalues --  -10.56574 -10.55060 -10.55023 -10.54913 -10.54445
  Beta  occ. eigenvalues --  -10.54400 -10.54097 -10.51859 -10.51848  -0.96548
  Beta  occ. eigenvalues --   -0.89727  -0.84412  -0.81231  -0.76982  -0.69477
  Beta  occ. eigenvalues --   -0.67997  -0.63949  -0.56249  -0.52801  -0.51401
  Beta  occ. eigenvalues --   -0.49233  -0.48338  -0.47907  -0.47810  -0.44598
  Beta  occ. eigenvalues --   -0.42834  -0.40660  -0.39490  -0.38686  -0.37868
  Beta  occ. eigenvalues --   -0.31329  -0.29248
  Beta virt. eigenvalues --   -0.06331   0.01521   0.01721   0.02624   0.03119
  Beta virt. eigenvalues --    0.03336   0.04105   0.05181   0.05615   0.06527
  Beta virt. eigenvalues --    0.06670   0.07707   0.07817   0.08488   0.08788
  Beta virt. eigenvalues --    0.10398   0.11151   0.11491   0.11917   0.12043
  Beta virt. eigenvalues --    0.12618   0.14417   0.14706   0.15849   0.16395
  Beta virt. eigenvalues --    0.16831   0.17138   0.17892   0.18997   0.19063
  Beta virt. eigenvalues --    0.19845   0.20612   0.20752   0.22367   0.22591
  Beta virt. eigenvalues --    0.22950   0.23113   0.24272   0.24587   0.24829
  Beta virt. eigenvalues --    0.25422   0.25900   0.26316   0.27225   0.27602
  Beta virt. eigenvalues --    0.28472   0.28764   0.29861   0.30892   0.31219
  Beta virt. eigenvalues --    0.32219   0.32257   0.33021   0.37014   0.37962
  Beta virt. eigenvalues --    0.39542   0.40633   0.44007   0.44503   0.45234
  Beta virt. eigenvalues --    0.48701   0.50520   0.52152   0.53955   0.54543
  Beta virt. eigenvalues --    0.55116   0.57650   0.58559   0.58739   0.59888
  Beta virt. eigenvalues --    0.60932   0.61218   0.62956   0.63803   0.66354
  Beta virt. eigenvalues --    0.66667   0.67887   0.69869   0.70773   0.71023
  Beta virt. eigenvalues --    0.71378   0.71993   0.72632   0.73163   0.74495
  Beta virt. eigenvalues --    0.74708   0.76562   0.76845   0.78384   0.79782
  Beta virt. eigenvalues --    0.80408   0.81769   0.82712   0.85482   0.87319
  Beta virt. eigenvalues --    0.88678   0.90185   0.91961   0.93349   0.95527
  Beta virt. eigenvalues --    0.97049   0.98251   1.01659   1.01911   1.05506
  Beta virt. eigenvalues --    1.09874   1.10010   1.12089   1.14294   1.14681
  Beta virt. eigenvalues --    1.21689   1.24386   1.24808   1.25413   1.30487
  Beta virt. eigenvalues --    1.33267   1.43567   1.46676   1.50850   1.51532
  Beta virt. eigenvalues --    1.53705   1.53843   1.55129   1.57328   1.57421
  Beta virt. eigenvalues --    1.57689   1.60730   1.61150   1.61910   1.63571
  Beta virt. eigenvalues --    1.67404   1.67497   1.68663   1.68966   1.70190
  Beta virt. eigenvalues --    1.72375   1.72651   1.76691   1.78839   1.79288
  Beta virt. eigenvalues --    1.80569   1.81645   1.83113   1.83880   1.87916
  Beta virt. eigenvalues --    1.90563   1.93254   1.93747   1.95453   1.97373
  Beta virt. eigenvalues --    1.97421   1.98339   2.00181   2.02604   2.07287
  Beta virt. eigenvalues --    2.08087   2.09455   2.11661   2.15329   2.17038
  Beta virt. eigenvalues --    2.18359   2.21055   2.26002   2.32305   2.33774
  Beta virt. eigenvalues --    2.35602   2.40268   2.41942   2.43801   2.46479
  Beta virt. eigenvalues --    2.48210   2.51809   2.54437   2.55390   2.55619
  Beta virt. eigenvalues --    2.57588   2.60254   2.60352   2.63013   2.66208
  Beta virt. eigenvalues --    2.68243   2.69968   2.70472   2.72075   2.72958
  Beta virt. eigenvalues --    2.74392   2.75409   2.75995   2.78199   2.79275
  Beta virt. eigenvalues --    2.85442   2.88006   2.88469   2.92772   2.93489
  Beta virt. eigenvalues --    2.95283   2.98944   2.99437   3.00975   3.03505
  Beta virt. eigenvalues --    3.04455   3.13490   3.18959   3.24044   3.26900
  Beta virt. eigenvalues --    3.42789   3.46521   3.51724   3.54893   3.63064
  Beta virt. eigenvalues --    3.71239   3.82140   3.82932   3.84386   3.88524
  Beta virt. eigenvalues --    3.90628   4.02866   4.14974   4.16483   4.19876
  Beta virt. eigenvalues --    4.34106   4.41507   4.83924  23.63117  23.94296
  Beta virt. eigenvalues --   23.99526  24.02337  24.05605  24.06839  24.13013
  Beta virt. eigenvalues --   24.17688  24.24078
          Condensed to atoms (all electrons):
               1          2          3          4          5          6
     1  C    5.437635   0.125610   0.024399   0.459217  -0.009317  -0.639380
     2  C    0.125610   6.190423   0.347154  -0.998608   0.021467   0.857884
     3  H    0.024399   0.347154   0.466187  -0.044575  -0.005825   0.013028
     4  C    0.459217  -0.998608  -0.044575  11.002505   0.242248  -2.175564
     5  H   -0.009317   0.021467  -0.005825   0.242248   0.460689   0.090149
     6  C   -0.639380   0.857884   0.013028  -2.175564   0.090149   9.545477
     7  C    0.162378  -0.242064   0.013956  -2.338934   0.015687   0.299171
     8  H   -0.019694   0.004914   0.000051   0.023663  -0.000164   0.060996
     9  C    0.148508   0.486222  -0.020739  -0.450571   0.000319   0.566780
    10  H    0.014509  -0.013015  -0.000076   0.000806   0.000046  -0.002428
    11  C   -0.008968  -0.204383   0.008102   0.110288  -0.007277  -2.582270
    12  H   -0.002935   0.000721  -0.000003   0.130920   0.002655  -0.251339
    13  C    0.010907  -0.009500  -0.000012   0.113241   0.000730   0.100752
    14  H   -0.001696  -0.004755   0.000001  -0.003612   0.000004  -0.095426
    15  H    0.000609   0.000870  -0.000001   0.000736   0.000012   0.078115
    16  H    0.000316   0.009603   0.000003   0.009969   0.000193  -0.017561
    17  C    0.014053  -0.011017   0.000015   0.173622   0.000432   0.054123
    18  H    0.000968   0.009356   0.000004   0.006804   0.000185  -0.026904
    19  H    0.000438   0.001158  -0.000001  -0.001561   0.000016   0.082473
    20  H   -0.001191  -0.005598   0.000001  -0.000865   0.000006  -0.099363
               7          8          9         10         11         12
     1  C    0.162378  -0.019694   0.148508   0.014509  -0.008968  -0.002935
     2  C   -0.242064   0.004914   0.486222  -0.013015  -0.204383   0.000721
     3  H    0.013956   0.000051  -0.020739  -0.000076   0.008102  -0.000003
     4  C   -2.338934   0.023663  -0.450571   0.000806   0.110288   0.130920
     5  H    0.015687  -0.000164   0.000319   0.000046  -0.007277   0.002655
     6  C    0.299171   0.060996   0.566780  -0.002428  -2.582270  -0.251339
     7  C    8.275188   0.260271  -0.276918  -0.022700  -0.058599  -0.074284
     8  H    0.260271   0.454317  -0.012496  -0.005875   0.060241   0.000022
     9  C   -0.276918  -0.012496   5.905404   0.358825  -0.241997  -0.002197
    10  H   -0.022700  -0.005875   0.358825   0.465069   0.005711   0.000013
    11  C   -0.058599   0.060241  -0.241997   0.005711   8.457046   0.586898
    12  H   -0.074284   0.000022  -0.002197   0.000013   0.586898   0.498235
    13  C   -0.022881  -0.008869   0.022484  -0.000068  -0.080859  -0.030094
    14  H   -0.003880  -0.001303   0.003903   0.000028   0.100813   0.005533
    15  H    0.009091  -0.000056   0.002564  -0.000001  -0.157604  -0.005823
    16  H   -0.011401   0.000076  -0.006454   0.000004   0.006878  -0.005653
    17  C   -0.047814  -0.006924   0.016632  -0.000089  -0.055156  -0.023088
    18  H   -0.002751   0.000073  -0.006492   0.000004   0.012826  -0.005738
    19  H    0.006991  -0.000059   0.002502  -0.000001  -0.159201  -0.005739
    20  H   -0.001423  -0.001541   0.004765   0.000028   0.100054   0.005396
              13         14         15         16         17         18
     1  C    0.010907  -0.001696   0.000609   0.000316   0.014053   0.000968
     2  C   -0.009500  -0.004755   0.000870   0.009603  -0.011017   0.009356
     3  H   -0.000012   0.000001  -0.000001   0.000003   0.000015   0.000004
     4  C    0.113241  -0.003612   0.000736   0.009969   0.173622   0.006804
     5  H    0.000730   0.000004   0.000012   0.000193   0.000432   0.000185
     6  C    0.100752  -0.095426   0.078115  -0.017561   0.054123  -0.026904
     7  C   -0.022881  -0.003880   0.009091  -0.011401  -0.047814  -0.002751
     8  H   -0.008869  -0.001303  -0.000056   0.000076  -0.006924   0.000073
     9  C    0.022484   0.003903   0.002564  -0.006454   0.016632  -0.006492
    10  H   -0.000068   0.000028  -0.000001   0.000004  -0.000089   0.000004
    11  C   -0.080859   0.100813  -0.157604   0.006878  -0.055156   0.012826
    12  H   -0.030094   0.005533  -0.005823  -0.005653  -0.023088  -0.005738
    13  C    5.506310   0.397577   0.440108   0.377317  -0.174057   0.013860
    14  H    0.397577   0.495848  -0.028781  -0.028131  -0.015235  -0.000196
    15  H    0.440108  -0.028781   0.501672  -0.021541   0.001576   0.000176
    16  H    0.377317  -0.028131  -0.021541   0.493216   0.013616  -0.000327
    17  C   -0.174057  -0.015235   0.001576   0.013616   5.493337   0.374061
    18  H    0.013860  -0.000196   0.000176  -0.000327   0.374061   0.494674
    19  H    0.003129  -0.000674   0.003097   0.000164   0.439776  -0.021680
    20  H   -0.018536   0.000951  -0.000668  -0.000186   0.400978  -0.027793
              19         20
     1  C    0.000438  -0.001191
     2  C    0.001158  -0.005598
     3  H   -0.000001   0.000001
     4  C   -0.001561  -0.000865
     5  H    0.000016   0.000006
     6  C    0.082473  -0.099363
     7  C    0.006991  -0.001423
     8  H   -0.000059  -0.001541
     9  C    0.002502   0.004765
    10  H   -0.000001   0.000028
    11  C   -0.159201   0.100054
    12  H   -0.005739   0.005396
    13  C    0.003129  -0.018536
    14  H   -0.000674   0.000951
    15  H    0.003097  -0.000668
    16  H    0.000164  -0.000186
    17  C    0.439776   0.400978
    18  H   -0.021680  -0.027793
    19  H    0.502355  -0.028668
    20  H   -0.028668   0.492635
          Atomic-Atomic Spin Densities.
               1          2          3          4          5          6
     1  C    1.111556  -0.211766   0.008457   0.360144   0.003715  -0.182082
     2  C   -0.211766   0.318307  -0.009462  -0.565173  -0.008080   0.282781
     3  H    0.008457  -0.009462   0.021927   0.027826   0.001128  -0.025045
     4  C    0.360144  -0.565173   0.027826   1.196178   0.020273  -0.466016
     5  H    0.003715  -0.008080   0.001128   0.020273   0.003757  -0.010983
     6  C   -0.182082   0.282781  -0.025045  -0.466016  -0.010983   0.241508
     7  C    0.009310  -0.042436   0.000513  -0.047506  -0.002687  -0.052631
     8  H    0.002971  -0.003219   0.000018   0.009967   0.000036   0.008822
     9  C   -0.203653   0.262484  -0.009415  -0.374382  -0.002234   0.144719
    10  H    0.005105  -0.013455   0.000114   0.014019   0.000014  -0.007425
    11  C   -0.078272   0.096776  -0.002131  -0.233881  -0.002943   0.040029
    12  H    0.000047  -0.000313   0.000006   0.001264   0.000185   0.000998
    13  C    0.008523  -0.010895   0.000226   0.040300   0.000635   0.000210
    14  H   -0.000535   0.000550  -0.000001  -0.001825  -0.000002  -0.000021
    15  H    0.000022  -0.000054   0.000000  -0.000390  -0.000005  -0.001318
    16  H   -0.000212   0.000439  -0.000001  -0.001013   0.000007   0.000393
    17  C    0.009038  -0.011829   0.000249   0.041597   0.000682   0.000705
    18  H   -0.000194   0.000430  -0.000002  -0.000757   0.000008   0.000265
    19  H    0.000020  -0.000049   0.000000  -0.000405  -0.000005  -0.001298
    20  H   -0.000599   0.000629  -0.000001  -0.002119  -0.000002  -0.000098
               7          8          9         10         11         12
     1  C    0.009310   0.002971  -0.203653   0.005105  -0.078272   0.000047
     2  C   -0.042436  -0.003219   0.262484  -0.013455   0.096776  -0.000313
     3  H    0.000513   0.000018  -0.009415   0.000114  -0.002131   0.000006
     4  C   -0.047506   0.009967  -0.374382   0.014019  -0.233881   0.001264
     5  H   -0.002687   0.000036  -0.002234   0.000014  -0.002943   0.000185
     6  C   -0.052631   0.008822   0.144719  -0.007425   0.040029   0.000998
     7  C    0.246832  -0.005738  -0.094105   0.000100  -0.004715  -0.001333
     8  H   -0.005738   0.004391  -0.012304   0.001204  -0.003955   0.000025
     9  C   -0.094105  -0.012304   0.276929  -0.004846   0.104166  -0.000027
    10  H    0.000100   0.001204  -0.004846   0.021102  -0.003150   0.000001
    11  C   -0.004715  -0.003955   0.104166  -0.003150   0.126136  -0.000933
    12  H   -0.001333   0.000025  -0.000027   0.000001  -0.000933  -0.000348
    13  C   -0.011090   0.000845  -0.012350   0.000337  -0.023191   0.000235
    14  H   -0.000502  -0.000084   0.000912  -0.000012   0.002374  -0.000015
    15  H    0.001013  -0.000022  -0.000032   0.000000   0.000735  -0.000020
    16  H   -0.000016   0.000001   0.000545  -0.000001  -0.000548   0.000005
    17  C   -0.010772   0.000918  -0.013274   0.000352  -0.023680   0.000272
    18  H   -0.000114   0.000001   0.000484  -0.000001  -0.000566   0.000011
    19  H    0.001021  -0.000021  -0.000022   0.000000   0.000591  -0.000025
    20  H   -0.000441  -0.000084   0.001057  -0.000012   0.002563  -0.000014
              13         14         15         16         17         18
     1  C    0.008523  -0.000535   0.000022  -0.000212   0.009038  -0.000194
     2  C   -0.010895   0.000550  -0.000054   0.000439  -0.011829   0.000430
     3  H    0.000226  -0.000001   0.000000  -0.000001   0.000249  -0.000002
     4  C    0.040300  -0.001825  -0.000390  -0.001013   0.041597  -0.000757
     5  H    0.000635  -0.000002  -0.000005   0.000007   0.000682   0.000008
     6  C    0.000210  -0.000021  -0.001318   0.000393   0.000705   0.000265
     7  C   -0.011090  -0.000502   0.001013  -0.000016  -0.010772  -0.000114
     8  H    0.000845  -0.000084  -0.000022   0.000001   0.000918   0.000001
     9  C   -0.012350   0.000912  -0.000032   0.000545  -0.013274   0.000484
    10  H    0.000337  -0.000012   0.000000  -0.000001   0.000352  -0.000001
    11  C   -0.023191   0.002374   0.000735  -0.000548  -0.023680  -0.000566
    12  H    0.000235  -0.000015  -0.000020   0.000005   0.000272   0.000011
    13  C   -0.002365  -0.000521   0.000572   0.000309   0.009975   0.000009
    14  H   -0.000521   0.000032   0.000021  -0.000020  -0.000490   0.000000
    15  H    0.000572   0.000021  -0.000523   0.000043  -0.000513   0.000004
    16  H    0.000309  -0.000020   0.000043   0.000216   0.000008   0.000000
    17  C    0.009975  -0.000490  -0.000513   0.000008  -0.002573   0.000342
    18  H    0.000009   0.000000   0.000004   0.000000   0.000342   0.000231
    19  H   -0.000474   0.000000   0.000098   0.000005   0.000639   0.000046
    20  H   -0.000495   0.000049   0.000000   0.000000  -0.000598  -0.000022
              19         20
     1  C    0.000020  -0.000599
     2  C   -0.000049   0.000629
     3  H    0.000000  -0.000001
     4  C   -0.000405  -0.002119
     5  H   -0.000005  -0.000002
     6  C   -0.001298  -0.000098
     7  C    0.001021  -0.000441
     8  H   -0.000021  -0.000084
     9  C   -0.000022   0.001057
    10  H    0.000000  -0.000012
    11  C    0.000591   0.002563
    12  H   -0.000025  -0.000014
    13  C   -0.000474  -0.000495
    14  H    0.000000   0.000049
    15  H    0.000098   0.000000
    16  H    0.000005   0.000000
    17  C    0.000639  -0.000598
    18  H    0.000046  -0.000022
    19  H   -0.000534   0.000023
    20  H    0.000023   0.000072
 Mulliken charges and spin densities:
               1          2
     1  C    0.283633   0.841593
     2  C   -0.566444   0.085667
     3  H    0.198328   0.014407
     4  C   -0.259729   0.018098
     5  H    0.187745   0.003497
     6  C    0.141286  -0.026489
     7  C    0.060917  -0.015298
     8  H    0.192355   0.003769
     9  C   -0.501044   0.064654
    10  H    0.199209   0.013445
    11  C    0.107454  -0.004594
    12  H    0.176501   0.000020
    13  C   -0.641539   0.000793
    14  H    0.179031  -0.000090
    15  H    0.175850  -0.000369
    16  H    0.179898   0.000156
    17  C   -0.648845   0.001051
    18  H    0.178891   0.000172
    19  H    0.175485  -0.000391
    20  H    0.181017  -0.000092
 Sum of Mulliken charges =   0.00000   1.00000
 Mulliken charges and spin densities with hydrogens summed into heavy atoms:
               1          2
     1  C    0.283633   0.841593
     2  C   -0.368116   0.100074
     4  C   -0.071984   0.021595
     6  C    0.141286  -0.026489
     7  C    0.253272  -0.011529
     9  C   -0.301835   0.078099
    11  C    0.283955  -0.004574
    13  C   -0.106760   0.000490
    17  C   -0.113451   0.000740
 APT charges:
               1
     1  C    1.228824
     2  C   -1.272615
     3  H    0.131157
     4  C   -0.012720
     5  H   -0.563833
     6  C   -1.946964
     7  C    0.999127
     8  H    0.973814
     9  C   -1.348850
    10  H    1.653761
    11  C    0.633989
    12  H   -0.422433
    13  C   -2.948606
    14  H    1.179780
    15  H    0.195074
    16  H    1.104021
    17  C   -0.022524
    18  H   -0.726964
    19  H    0.127054
    20  H    1.038908
 Sum of APT charges =   0.00000
 APT charges with hydrogens summed into heavy atoms:
               1
     1  C    1.228824
     2  C   -1.141459
     4  C   -0.576553
     6  C   -1.946964
     7  C    1.972941
     9  C    0.304912
    11  C    0.211557
    13  C   -0.469730
    17  C    0.416473
 Electronic spatial extent (au):  <R**2>=          22666.0603
 Charge=              0.0000 electrons
 Dipole moment (field-independent basis, Debye):
    X=             -1.6308    Y=              0.4711    Z=             -0.7703  Tot=              1.8641
 Quadrupole moment (field-independent basis, Debye-Ang):
   XX=            -67.5382   YY=            -47.1835   ZZ=            -62.7047
   XY=             -7.9083   XZ=            -11.0282   YZ=             -8.2087
 Traceless Quadrupole moment (field-independent basis, Debye-Ang):
   XX=             -8.3961   YY=             11.9586   ZZ=             -3.5626
   XY=             -7.9083   XZ=            -11.0282   YZ=             -8.2087
 Octapole moment (field-independent basis, Debye-Ang**2):
  XXX=           -740.0305  YYY=          -1190.2390  ZZZ=           -710.5689  XYY=           -244.2430
  XXY=           -488.0491  XXZ=           -297.5652  XZZ=           -292.6624  YZZ=           -517.2233
  YYZ=           -293.5657  XYZ=            -84.7981
 Hexadecapole moment (field-independent basis, Debye-Ang**3):
 XXXX=          -6650.3175 YYYY=         -19443.6376 ZZZZ=          -6062.1667 XXXY=          -5365.8290
 XXXZ=          -3306.5886 YYYX=          -4917.9194 YYYZ=          -5648.8386 ZZZX=          -3251.9375
 ZZZY=          -5649.7504 XXYY=          -4616.0756 XXZZ=          -2479.4467 YYZZ=          -5217.2364
 XXYZ=          -2215.2954 YYXZ=          -1569.3403 ZZXY=          -2324.4638
 N-N= 4.116860231813D+02 E-N=-1.632918589789D+03  KE= 3.478271252444D+02
  Exact polarizability:       0.000       0.000       0.000       0.000       0.000       0.000
 Approx polarizability:     142.485       3.054     120.121       7.936     -24.264     114.980
                          Isotropic Fermi Contact Couplings
        Atom                 a.u.       MegaHertz       Gauss      10(-4) cm-1
     1  C(13)              0.54200     609.30799     217.41624     203.24327
     2  C(13)              0.02159      24.26899       8.65978       8.09526
     3  H(1)               0.00932      41.67522      14.87075      13.90136
     4  C(13)              0.03904      43.88299      15.65854      14.63779
     5  H(1)               0.00192       8.58189       3.06223       2.86261
     6  C(13)             -0.00961     -10.80242      -3.85457      -3.60330
     7  C(13)              0.03883      43.64705      15.57435      14.55909
     8  H(1)               0.00188       8.41553       3.00287       2.80712
     9  C(13)              0.02255      25.34794       9.04478       8.45516
    10  H(1)               0.00910      40.69207      14.51994      13.57341
    11  C(13)              0.00420       4.71950       1.68403       1.57426
    12  H(1)              -0.00005      -0.20548      -0.07332      -0.06854
    13  C(13)             -0.00225      -2.53457      -0.90440      -0.84544
    14  H(1)               0.00005       0.24156       0.08620       0.08058
    15  H(1)              -0.00014      -0.60689      -0.21655      -0.20244
    16  H(1)               0.00003       0.14560       0.05195       0.04857
    17  C(13)             -0.00244      -2.74431      -0.97924      -0.91540
    18  H(1)               0.00003       0.14378       0.05131       0.04796
    19  H(1)              -0.00015      -0.65123      -0.23237      -0.21723
    20  H(1)               0.00005       0.22654       0.08083       0.07556
 --------------------------------------------------------
       Center         ----  Spin Dipole Couplings  ----
                      3XX-RR        3YY-RR        3ZZ-RR
 --------------------------------------------------------
     1   Atom        0.566607     -0.365823     -0.200785
     2   Atom        0.105356     -0.040961     -0.064395
     3   Atom        0.004287      0.001930     -0.006217
     4   Atom        0.034982     -0.023549     -0.011433
     5   Atom        0.007727     -0.003059     -0.004669
     6   Atom        0.029469     -0.010486     -0.018983
     7   Atom        0.021768     -0.017353     -0.004416
     8   Atom       -0.003483      0.002040      0.001443
     9   Atom       -0.002326      0.006981     -0.004655
    10   Atom       -0.009175      0.008039      0.001137
    11   Atom        0.002469     -0.001465     -0.001004
    12   Atom        0.001700     -0.000942     -0.000758
    13   Atom        0.001599     -0.001720      0.000121
    14   Atom        0.000818     -0.000176     -0.000643
    15   Atom        0.000539     -0.000190     -0.000349
    16   Atom        0.001170     -0.000163     -0.001007
    17   Atom        0.001757      0.000199     -0.001956
    18   Atom        0.000678     -0.000984      0.000307
    19   Atom        0.000367     -0.000393      0.000026
    20   Atom        0.000380     -0.000778      0.000397
 --------------------------------------------------------
                        XY            XZ            YZ
 --------------------------------------------------------
     1   Atom       -0.339014      0.489937     -0.062616
     2   Atom        0.047564      0.003087     -0.047268
     3   Atom        0.014653     -0.009222     -0.009885
     4   Atom       -0.019972      0.026781      0.007599
     5   Atom        0.004626     -0.001385     -0.000864
     6   Atom        0.005114      0.013221     -0.039249
     7   Atom       -0.026201      0.029514      0.002334
     8   Atom       -0.002458      0.002506     -0.006751
     9   Atom       -0.020198      0.038897     -0.101538
    10   Atom        0.006690     -0.005099     -0.017451
    11   Atom       -0.001590      0.002675     -0.002117
    12   Atom       -0.000450      0.001004     -0.000485
    13   Atom        0.000413      0.000402     -0.000415
    14   Atom       -0.001447      0.000659     -0.000490
    15   Atom       -0.000528      0.000309     -0.000238
    16   Atom       -0.001080      0.000198     -0.000367
    17   Atom       -0.000034      0.000352     -0.000335
    18   Atom        0.000154      0.001324     -0.000225
    19   Atom       -0.000134      0.000665     -0.000181
    20   Atom       -0.000423      0.001607     -0.000330
 --------------------------------------------------------


 ---------------------------------------------------------------------------------
              Anisotropic Spin Dipole Couplings in Principal Axis System
 ---------------------------------------------------------------------------------

       Atom             a.u.   MegaHertz   Gauss  10(-4) cm-1        Axes

              Baa    -0.5360   -71.925   -25.665   -23.992  0.4561  0.7123 -0.5335
     1 C(13)  Bbb    -0.3573   -47.948   -17.109   -15.994 -0.1533  0.6535  0.7413
              Bcc     0.8933   119.873    42.774    39.985  0.8766 -0.2563  0.4072
 
              Baa    -0.1064   -14.282    -5.096    -4.764 -0.1569  0.6505  0.7431
     2 C(13)  Bbb    -0.0137    -1.834    -0.654    -0.612 -0.2617  0.6981 -0.6664
              Bcc     0.1201    16.116     5.750     5.376  0.9523  0.2991 -0.0607
 
              Baa    -0.0129    -6.887    -2.458    -2.297 -0.1483  0.6455  0.7492
     3 H(1)   Bbb    -0.0109    -5.842    -2.084    -1.949  0.7342 -0.4357  0.5207
              Bcc     0.0239    12.729     4.542     4.246  0.6625  0.6273 -0.4093
 
              Baa    -0.0402    -5.388    -1.923    -1.797  0.3934  0.7293 -0.5598
     4 C(13)  Bbb    -0.0102    -1.374    -0.490    -0.458 -0.1519  0.6521  0.7428
              Bcc     0.0504     6.762     2.413     2.256  0.9067 -0.2072  0.3673
 
              Baa    -0.0051    -2.742    -0.978    -0.915 -0.1543  0.6517  0.7426
     5 H(1)   Bbb    -0.0045    -2.390    -0.853    -0.797 -0.3305  0.6743 -0.6604
              Bcc     0.0096     5.132     1.831     1.712  0.9311  0.3473 -0.1113
 
              Baa    -0.0563    -7.551    -2.694    -2.519 -0.1533  0.6530  0.7417
     6 C(13)  Bbb     0.0221     2.969     1.059     0.990  0.4606  0.7113 -0.5310
              Bcc     0.0341     4.582     1.635     1.528  0.8743 -0.2602  0.4098
 
              Baa    -0.0394    -5.286    -1.886    -1.763  0.5329  0.6860 -0.4954
     7 C(13)  Bbb    -0.0085    -1.144    -0.408    -0.381 -0.1547  0.6546  0.7399
              Bcc     0.0479     6.430     2.294     2.145  0.8319 -0.3177  0.4550
 
              Baa    -0.0050    -2.687    -0.959    -0.896 -0.1700  0.6487  0.7418
     8 H(1)   Bbb    -0.0044    -2.356    -0.841    -0.786  0.9500  0.3079 -0.0516
              Bcc     0.0095     5.043     1.799     1.682 -0.2618  0.6960 -0.6686
 
              Baa    -0.1028   -13.794    -4.922    -4.601 -0.1545  0.6554  0.7393
     9 C(13)  Bbb    -0.0145    -1.947    -0.695    -0.649  0.9315  0.3460 -0.1121
              Bcc     0.1173    15.741     5.617     5.251 -0.3292  0.6714 -0.6640
 
              Baa    -0.0132    -7.068    -2.522    -2.358 -0.1456  0.6542  0.7421
    10 H(1)   Bbb    -0.0112    -5.992    -2.138    -1.999  0.9592 -0.0904  0.2679
              Bcc     0.0245    13.059     4.660     4.356  0.2424  0.7509 -0.6144
 
              Baa    -0.0035    -0.464    -0.166    -0.155 -0.1560  0.6578  0.7369
    11 C(13)  Bbb    -0.0014    -0.188    -0.067    -0.063  0.5913  0.6598 -0.4638
              Bcc     0.0049     0.652     0.233     0.218  0.7912 -0.3634  0.4919
 
              Baa    -0.0014    -0.740    -0.264    -0.247 -0.1442  0.6587  0.7385
    12 H(1)   Bbb    -0.0008    -0.417    -0.149    -0.139  0.3661  0.7288 -0.5786
              Bcc     0.0022     1.158     0.413     0.386  0.9193 -0.1870  0.3463
 
              Baa    -0.0019    -0.252    -0.090    -0.084 -0.1408  0.9634  0.2282
    13 C(13)  Bbb     0.0002     0.020     0.007     0.007 -0.1913 -0.2526  0.9485
              Bcc     0.0017     0.232     0.083     0.077  0.9714  0.0899  0.2198
 
              Baa    -0.0012    -0.645    -0.230    -0.215  0.5701  0.8203  0.0467
    14 H(1)   Bbb    -0.0009    -0.474    -0.169    -0.158 -0.2615  0.1273  0.9568
              Bcc     0.0021     1.119     0.399     0.373  0.7788 -0.5576  0.2871
 
              Baa    -0.0005    -0.283    -0.101    -0.094  0.1630  0.7226  0.6718
    15 H(1)   Bbb    -0.0004    -0.214    -0.076    -0.071 -0.5152 -0.5183  0.6826
              Bcc     0.0009     0.497     0.177     0.166  0.8414 -0.4573  0.2878
 
              Baa    -0.0012    -0.625    -0.223    -0.209  0.1426  0.4692  0.8715
    16 H(1)   Bbb    -0.0006    -0.344    -0.123    -0.115  0.4879  0.7328 -0.4743
              Bcc     0.0018     0.969     0.346     0.323  0.8612 -0.4929  0.1244
 
              Baa    -0.0020    -0.273    -0.098    -0.091 -0.0901  0.1460  0.9852
    17 C(13)  Bbb     0.0002     0.033     0.012     0.011  0.0549  0.9884 -0.1415
              Bcc     0.0018     0.241     0.086     0.080  0.9944 -0.0413  0.0970
 
              Baa    -0.0012    -0.637    -0.227    -0.212 -0.3955  0.7907  0.4673
    18 H(1)   Bbb    -0.0006    -0.339    -0.121    -0.113  0.5249  0.6121 -0.5915
              Bcc     0.0018     0.976     0.348     0.326  0.7537 -0.0113  0.6571
 
              Baa    -0.0005    -0.281    -0.100    -0.094 -0.4593  0.5180  0.7216
    19 H(1)   Bbb    -0.0004    -0.209    -0.075    -0.070  0.4341  0.8397 -0.3264
              Bcc     0.0009     0.490     0.175     0.163  0.7750 -0.1633  0.6105
 
              Baa    -0.0012    -0.656    -0.234    -0.219  0.7180  0.1810 -0.6721
    20 H(1)   Bbb    -0.0009    -0.461    -0.164    -0.154 -0.0031  0.9664  0.2569
              Bcc     0.0021     1.117     0.399     0.373  0.6960 -0.1824  0.6945
 

 ---------------------------------------------------------------------------------

 D2PCM: PCM CHGder 2nd derivatives, FixD1E=F FixD2E=F DoIter=F DoCFld=F I1PDM=0
 Calling FoFJK, ICntrl=    100127 FMM=F ISym2X=0 I1Cent= 0 IOpClX= 1 NMat=1 NMatS=1 NMatT=0.
 -------------------------------------------------------------------
 Center     Atomic                   Forces (Hartrees/Bohr)
 Number     Number              X              Y              Z
 -------------------------------------------------------------------
      1        6          -0.046474839    0.012508048   -0.021212078
      2        6           0.022478923   -0.009785298    0.013008347
      3        1           0.001415949    0.000477277    0.000152423
      4        6           0.000303581    0.006670357   -0.005679367
      5        1           0.001057626   -0.000762608    0.000910396
      6        6           0.000217053   -0.000090626    0.000156342
      7        6          -0.006281822   -0.003626213    0.001925803
      8        1           0.001561425   -0.000027837    0.000332274
      9        6           0.026005207   -0.007199729    0.012181890
     10        1           0.000020173    0.001582233   -0.001375456
     11        6           0.000033892    0.000292918   -0.000338827
     12        1           0.000019992    0.000008709   -0.000017459
     13        6          -0.000227820   -0.000177034   -0.000006440
     14        1           0.000038587    0.000028239   -0.000025482
     15        1          -0.000000466    0.000072623   -0.000001048
     16        1           0.000006205   -0.000024399   -0.000012285
     17        6          -0.000255959   -0.000017220    0.000107442
     18        1           0.000018714    0.000019652    0.000005739
     19        1           0.000024537    0.000006430   -0.000090706
     20        1           0.000039044    0.000044477   -0.000021508
 -------------------------------------------------------------------
 Cartesian Forces:  Max     0.046474839 RMS     0.008716313
 FormGI is forming the generalized inverse of G from B-inverse, IUseBI=4.

 GradGradGradGradGradGradGradGradGradGradGradGradGradGradGradGradGradGrad
 Berny optimization.
 Internal  Forces:  Max     0.028500121 RMS     0.004774478
 Search for a local minimum.
 Step number   1 out of a maximum of  108
 All quantities printed in internal units (Hartrees-Bohrs-Radians)
 Mixed Optimization -- RFO/linear search
 Second derivative matrix not updated -- analytic derivatives used.
 ITU=  0
     Eigenvalues ---    0.00197   0.00292   0.00352   0.01692   0.01895
     Eigenvalues ---    0.01976   0.02178   0.02491   0.02673   0.03109
     Eigenvalues ---    0.03267   0.04171   0.04380   0.04489   0.04529
     Eigenvalues ---    0.04605   0.04758   0.04901   0.10905   0.11181
     Eigenvalues ---    0.11640   0.11935   0.12249   0.12412   0.12881
     Eigenvalues ---    0.13015   0.14366   0.14848   0.16682   0.17011
     Eigenvalues ---    0.18783   0.18992   0.20228   0.20559   0.25971
     Eigenvalues ---    0.29258   0.29421   0.32214   0.33780   0.33897
     Eigenvalues ---    0.33963   0.34064   0.34122   0.34720   0.34823
     Eigenvalues ---    0.35525   0.35823   0.36018   0.36291   0.40023
     Eigenvalues ---    0.41497   0.45496   0.47269   0.50963
 RFO step:  Lambda=-9.10857778D-03 EMin= 1.96688198D-03
 Linear search not attempted -- first point.
 Iteration  1 RMS(Cart)=  0.01930053 RMS(Int)=  0.00084612
 Iteration  2 RMS(Cart)=  0.00124029 RMS(Int)=  0.00029513
 Iteration  3 RMS(Cart)=  0.00000049 RMS(Int)=  0.00029513
 Variable       Old X    -DE/DX   Delta X   Delta X   Delta X     New X
                                 (Linear)    (Quad)   (Total)
    R1        2.64349  -0.01954   0.00000  -0.05308  -0.05248   2.59101
    R2        2.65083  -0.01883   0.00000  -0.05465  -0.05406   2.59677
    R3        2.05427  -0.00025   0.00000  -0.00489  -0.00489   2.04938
    R4        2.63081   0.00262   0.00000   0.01343   0.01343   2.64424
    R5        2.05144  -0.00027   0.00000   0.00053   0.00053   2.05197
    R6        2.63684   0.00218   0.00000   0.00146   0.00088   2.63772
    R7        2.64500   0.00176   0.00000   0.00046  -0.00012   2.64488
    R8        2.86352   0.00049   0.00000   0.00401   0.00401   2.86753
    R9        2.05155  -0.00029   0.00000   0.00035   0.00035   2.05190
   R10        2.62378   0.00212   0.00000   0.01398   0.01397   2.63775
   R11        2.05031   0.00115   0.00000  -0.00098  -0.00098   2.04933
   R12        2.06806  -0.00003   0.00000  -0.00012  -0.00012   2.06794
   R13        2.89529  -0.00005   0.00000  -0.00048  -0.00048   2.89480
   R14        2.89593  -0.00002   0.00000  -0.00047  -0.00047   2.89546
   R15        2.06689   0.00006   0.00000   0.00025   0.00025   2.06714
   R16        2.06586   0.00002   0.00000   0.00008   0.00008   2.06595
   R17        2.06501  -0.00002   0.00000   0.00001   0.00001   2.06502
   R18        2.06502  -0.00001   0.00000   0.00003   0.00003   2.06506
   R19        2.06600   0.00002   0.00000   0.00009   0.00009   2.06608
   R20        2.06709   0.00006   0.00000   0.00026   0.00026   2.06734
    A1        2.04935   0.02850   0.00000   0.12523   0.12681   2.17617
    A2        2.10902   0.00592   0.00000   0.02588   0.02561   2.13464
    A3        2.11752  -0.01484   0.00000  -0.07475  -0.07423   2.04329
    A4        2.05663   0.00893   0.00000   0.04888   0.04862   2.10525
    A5        2.09064  -0.00166   0.00000  -0.00806  -0.00773   2.08292
    A6        2.11006   0.00011   0.00000   0.00581   0.00515   2.11521
    A7        2.08249   0.00155   0.00000   0.00224   0.00257   2.08506
    A8        2.06228   0.00077   0.00000   0.01214   0.01087   2.07315
    A9        2.10995  -0.00018   0.00000  -0.00530  -0.00466   2.10529
   A10        2.11095  -0.00059   0.00000  -0.00684  -0.00620   2.10474
   A11        2.08877   0.00168   0.00000   0.00263   0.00297   2.09173
   A12        2.10819  -0.00013   0.00000   0.00566   0.00499   2.11318
   A13        2.08622  -0.00155   0.00000  -0.00829  -0.00795   2.07827
   A14        2.11895  -0.01441   0.00000  -0.07408  -0.07358   2.04537
   A15        2.07867   0.00900   0.00000   0.05071   0.05046   2.12913
   A16        2.08556   0.00541   0.00000   0.02337   0.02312   2.10868
   A17        1.87114  -0.00006   0.00000  -0.00124  -0.00124   1.86990
   A18        1.94334   0.00007   0.00000   0.00173   0.00173   1.94507
   A19        1.93893   0.00009   0.00000   0.00147   0.00147   1.94040
   A20        1.88891  -0.00001   0.00000  -0.00106  -0.00106   1.88785
   A21        1.88832   0.00000   0.00000  -0.00094  -0.00094   1.88738
   A22        1.93066  -0.00010   0.00000  -0.00015  -0.00015   1.93051
   A23        1.93458  -0.00004   0.00000   0.00001   0.00001   1.93459
   A24        1.92549   0.00012   0.00000   0.00109   0.00109   1.92658
   A25        1.94228  -0.00004   0.00000  -0.00023  -0.00023   1.94205
   A26        1.88265  -0.00004   0.00000  -0.00060  -0.00060   1.88205
   A27        1.88664   0.00002   0.00000  -0.00026  -0.00026   1.88638
   A28        1.89038  -0.00002   0.00000  -0.00004  -0.00004   1.89033
   A29        1.94183  -0.00003   0.00000  -0.00024  -0.00024   1.94159
   A30        1.92614   0.00013   0.00000   0.00127   0.00127   1.92742
   A31        1.93308  -0.00003   0.00000  -0.00006  -0.00007   1.93302
   A32        1.89053  -0.00003   0.00000  -0.00011  -0.00011   1.89041
   A33        1.88663   0.00001   0.00000  -0.00035  -0.00035   1.88629
   A34        1.88388  -0.00005   0.00000  -0.00055  -0.00055   1.88333
    D1        3.13349   0.00015   0.00000   0.00584   0.00593   3.13942
    D2       -0.00427   0.00005   0.00000   0.00289   0.00296  -0.00130
    D3        0.00514  -0.00010   0.00000  -0.00425  -0.00430   0.00084
    D4       -3.13857   0.00000   0.00000  -0.00185  -0.00194  -3.14051
    D5       -3.14102  -0.00001   0.00000   0.00015   0.00021  -3.14081
    D6        0.00033  -0.00001   0.00000   0.00017   0.00028   0.00061
    D7        0.00430  -0.00010   0.00000  -0.00268  -0.00266   0.00164
    D8       -3.13754  -0.00010   0.00000  -0.00266  -0.00259  -3.14013
    D9        0.00285  -0.00009   0.00000  -0.00240  -0.00238   0.00047
   D10        3.13998  -0.00007   0.00000  -0.00228  -0.00231   3.13767
   D11       -3.13899  -0.00009   0.00000  -0.00238  -0.00232  -3.14130
   D12       -0.00186  -0.00007   0.00000  -0.00227  -0.00225  -0.00410
   D13        3.13947   0.00005   0.00000   0.00101   0.00091   3.14038
   D14       -0.00199   0.00005   0.00000   0.00110   0.00103  -0.00096
   D15        0.00234   0.00003   0.00000   0.00089   0.00084   0.00317
   D16       -3.13912   0.00003   0.00000   0.00099   0.00096  -3.13816
   D17        0.02954  -0.00002   0.00000   0.00004   0.00007   0.02960
   D18        2.09256  -0.00002   0.00000  -0.00103  -0.00101   2.09155
   D19       -2.03030  -0.00003   0.00000   0.00110   0.00113  -2.02917
   D20       -3.11664   0.00000   0.00000   0.00021   0.00018  -3.11646
   D21       -1.05362   0.00000   0.00000  -0.00087  -0.00089  -1.05451
   D22        1.10671   0.00000   0.00000   0.00127   0.00125   1.10795
   D23       -0.00207   0.00011   0.00000   0.00256   0.00241   0.00034
   D24       -3.14155   0.00001   0.00000   0.00011   0.00005  -3.14149
   D25        3.13966   0.00011   0.00000   0.00265   0.00253  -3.14100
   D26        0.00018   0.00001   0.00000   0.00021   0.00017   0.00035
   D27        1.11545   0.00003   0.00000   0.00110   0.00110   1.11655
   D28       -3.08358   0.00003   0.00000   0.00106   0.00106  -3.08252
   D29       -0.98476   0.00006   0.00000   0.00158   0.00158  -0.98317
   D30       -3.11544   0.00000   0.00000  -0.00006  -0.00006  -3.11551
   D31       -1.03129   0.00000   0.00000  -0.00010  -0.00010  -1.03139
   D32        1.06754   0.00003   0.00000   0.00042   0.00042   1.06795
   D33       -1.04956  -0.00007   0.00000  -0.00193  -0.00193  -1.05149
   D34        1.03459  -0.00007   0.00000  -0.00197  -0.00197   1.03262
   D35        3.13342  -0.00004   0.00000  -0.00145  -0.00145   3.13197
   D36        0.99265  -0.00006   0.00000  -0.00173  -0.00173   0.99092
   D37        3.09180  -0.00003   0.00000  -0.00119  -0.00119   3.09061
   D38       -1.10624  -0.00003   0.00000  -0.00109  -0.00109  -1.10733
   D39       -1.05675  -0.00003   0.00000  -0.00050  -0.00050  -1.05725
   D40        1.04240   0.00000   0.00000   0.00005   0.00005   1.04245
   D41        3.12754   0.00000   0.00000   0.00015   0.00015   3.12769
   D42       -3.12299   0.00003   0.00000   0.00145   0.00145  -3.12155
   D43       -1.02384   0.00006   0.00000   0.00199   0.00199  -1.02185
   D44        1.06130   0.00006   0.00000   0.00209   0.00209   1.06339
         Item               Value     Threshold  Converged?
 Maximum Force            0.028500     0.000015     NO 
 RMS     Force            0.004774     0.000010     NO 
 Maximum Displacement     0.141375     0.000060     NO 
 RMS     Displacement     0.019194     0.000040     NO 
 Predicted change in Energy=-4.735210D-03
 GradGradGradGradGradGradGradGradGradGradGradGradGradGradGradGradGradGrad

                          Input orientation:                          
 ---------------------------------------------------------------------
 Center     Atomic      Atomic             Coordinates (Angstroms)
 Number     Number       Type             X           Y           Z
 ---------------------------------------------------------------------
      1          6           0        6.190721    6.987458    5.126718
      2          6           0        5.076839    6.287016    5.512169
      3          1           0        5.121858    5.476818    6.231653
      4          6           0        3.858417    6.659811    4.933873
      5          1           0        2.952645    6.130111    5.213305
      6          6           0        3.787021    7.699570    4.005367
      7          6           0        4.963321    8.372373    3.655273
      8          1           0        4.927886    9.183131    2.933874
      9          6           0        6.190432    8.019105    4.218975
     10          1           0        7.099299    8.543324    3.944746
     11          6           0        2.459528    8.089802    3.382406
     12          1           0        1.693412    7.447204    3.826980
     13          6           0        2.101124    9.546141    3.694228
     14          1           0        2.827305   10.230297    3.245711
     15          1           0        1.115756    9.790984    3.288888
     16          1           0        2.084054    9.728265    4.771569
     17          6           0        2.465750    7.847965    1.869412
     18          1           0        2.700570    6.806587    1.635829
     19          1           0        1.487893    8.084017    1.441125
     20          1           0        3.209904    8.482070    1.378532
 ---------------------------------------------------------------------
                    Distance matrix (angstroms):
                    1          2          3          4          5
     1  C    0.000000
     2  C    1.371103   0.000000
     3  H    2.155315   1.084483   0.000000
     4  C    2.363087   1.399270   2.163328   0.000000
     5  H    3.350772   2.150846   2.483809   1.085857   0.000000
     6  C    2.746325   2.435034   3.417421   1.395822   2.149069
     7  C    2.364244   2.794577   3.879059   2.405930   3.390872
     8  H    3.350268   3.880371   4.964849   3.392773   4.291656
     9  C    1.374152   2.431578   3.414081   2.792321   3.878177
    10  H    2.154829   3.411463   4.306236   3.876765   4.962617
    11  C    4.263752   3.825735   4.694027   2.531564   2.726856
    12  H    4.703878   3.953919   4.628079   2.555865   2.289606
    13  C    5.032264   4.773016   5.667693   3.599403   3.834311
    14  H    5.036543   5.074121   6.064354   4.081845   4.549578
    15  H    6.082158   5.736807   6.581850   4.475758   4.525432
    16  H    4.950037   4.620330   5.425394   3.548255   3.727773
    17  C    5.022541   4.745948   5.630843   3.569615   3.790740
    18  H    4.939653   4.576311   5.362137   3.498464   3.649589
    19  H    6.074753   5.716918   6.553804   4.455002   4.493617
    20  H    5.016774   5.038915   6.019957   4.047425   4.505927
                    6          7          8          9         10
     6  C    0.000000
     7  C    1.399610   0.000000
     8  H    2.156530   1.085819   0.000000
     9  C    2.433950   1.395837   2.144869   0.000000
    10  H    3.418593   2.162272   2.479163   1.084456   0.000000
    11  C    1.517432   2.534419   2.736666   3.824198   4.695677
    12  H    2.116297   3.402605   3.777950   4.550156   5.517151
    13  C    2.519699   3.093771   2.949660   4.396548   5.103935
    14  H    2.811177   2.860453   2.367751   4.140923   4.645908
    15  H    3.467422   4.117092   3.876578   5.454993   6.147324
    16  H    2.757312   3.372645   3.429530   4.482067   5.219234
    17  C    2.515965   3.114829   2.996308   4.407152   5.124481
    18  H    2.755450   3.413192   3.506255   4.507991   5.262715
    19  H    3.465419   4.130884   3.907673   5.462100   6.161733
    20  H    2.801005   2.875770   2.421164   4.143187   4.660106
                   11         12         13         14         15
    11  C    0.000000
    12  H    1.094309   0.000000
    13  C    1.531864   2.142286   0.000000
    14  H    2.176158   3.060915   1.093881   0.000000
    15  H    2.169905   2.473163   1.093252   1.767557   0.000000
    16  H    2.180668   2.499618   1.092760   1.769943   1.771969
    17  C    1.532212   2.142239   2.519267   2.774964   2.759116
    18  H    2.180659   2.495176   3.478721   3.785443   3.761764
    19  H    2.170871   2.477918   2.755056   3.107583   2.542922
    20  H    2.175419   3.060326   2.779224   2.586317   3.122207
                   16         17         18         19         20
    16  H    0.000000
    17  C    3.479042   0.000000
    18  H    4.330030   1.092781   0.000000
    19  H    3.761757   1.093323   1.772096   0.000000
    20  H    3.785926   1.093992   1.769991   1.768527   0.000000
 Symmetry turned off by external request.
 Stoichiometry    C9H11(2)
 Framework group  C1[X(C9H11)]
 Deg. of freedom    54
 Full point group                 C1      NOp   1
 Rotational constants (GHZ):           3.3478181           1.1294975           1.0309271
 Standard basis: 6-311+G(d,p) (5D, 7F)
   264 basis functions,   412 primitive gaussians,   273 cartesian basis functions
    33 alpha electrons       32 beta electrons
       nuclear repulsion energy       412.5800768390 Hartrees.
 NAtoms=   20 NActive=   20 NUniq=   20 SFac= 1.00D+00 NAtFMM=   60 NAOKFM=F Big=F
 Integral buffers will be    131072 words long.
 Raffenetti 2 integral format.
 Two-electron integral symmetry is turned off.
 ------------------------------------------------------------------------------
 Polarizable Continuum Model (PCM)
 =================================
 Model                : PCM.
 Atomic radii         : SMD-Coulomb.
 Polarization charges : Total charges.
 Charge compensation  : None.
 Solution method      : Matrix inversion.
 Cavity type          : VdW (van der Waals Surface) (Alpha=1.000).
 Cavity algorithm     : GePol (No added spheres)
                        Default sphere list used, NSphG=   20.
                        Lebedev-Laikov grids with approx.  5.0 points / Ang**2.
                        Smoothing algorithm: York/Karplus (Gamma=1.0000).
                        Polarization charges: spherical gaussians, with
                                              point-specific exponents (IZeta= 3).
                        Self-potential: point-specific (ISelfS= 7).
                        Self-field    : sphere-specific E.n sum rule (ISelfD= 2).
 1st derivatives      : Analytical E(r).r(x)/FMM algorithm (CHGder, D1EAlg=3).
                        Cavity 1st derivative terms included.
 Solvent              : TetraHydroFuran, Eps=   7.425700 Eps(inf)=   1.974025
 ------------------------------------------------------------------------------
 Spheres list:
 ISph  on   Nord     Re0    Alpha      Xe            Ye            Ze
[...]
 12,0.00012886,0.00007298,-0.00387649,-0.00277233,0.00030391,0.00016121
 ,-0.00105940,0.00095644,0.00641246,-0.01860109,0.01692372,-0.05688198,
 0.00415415,-0.00717263,0.05750320,0.00103123,0.00356883,0.00347436,-0.
 00021571,-0.00008386,-0.00089509,0.00011941,-0.00038772,-0.00033139,-0
 .00329502,0.00234198,0.00304095,0.00018773,-0.00039286,0.00043491,0.00
 163566,-0.00653129,0.00979488,0.00444547,-0.20602773,0.14904439,-0.004
 75515,0.21216081,-0.00315797,0.00364478,0.00340665,0.00025590,-0.00097
 739,-0.00012706,0.00008151,-0.00032887,-0.00048581,0.00077169,0.003165
 05,0.00394060,-0.00014514,0.00017901,-0.00013558,-0.00094104,0.0056594
 7,-0.00096310,-0.00764808,0.14891934,-0.17157231,0.00989069,-0.1652198
 4,0.17401500,-0.10140805,-0.02435835,0.01177755,0.04201690,-0.02065709
 ,0.02587973,-0.00374783,-0.00219948,-0.00004031,-0.01913784,0.02557403
 ,-0.02592925,0.00081932,0.00042229,0.00000362,-0.05663487,-0.02949458,
 0.01327102,-0.28012944,0.07080745,-0.10736866,0.00074648,-0.00181752,0
 .00081393,0.67173980,0.00325280,-0.22386056,0.15111332,-0.05184312,-0.
 02346390,0.01423713,-0.00370714,0.00219223,0.00251599,0.02555235,-0.02
 817829,0.02758280,0.00072291,-0.00080045,-0.00005038,0.01394622,0.0421
 3941,-0.02928781,0.00701137,-0.10717024,0.04260395,0.02051446,-0.00128
 313,0.00948467,0.10515352,0.45328086,-0.01269080,0.14549653,-0.1848466
 6,0.05349927,0.02064969,-0.00257067,0.00128634,0.00281197,0.00368302,-
 0.02594385,0.02762817,-0.03251924,-0.00026239,-0.00011441,-0.00098320,
 -0.02515204,-0.03807469,0.03446788,-0.05092266,0.05555144,-0.12020833,
 -0.01895121,0.00487640,-0.00354627,0.01849835,-0.26594710,0.36649007,0
 .00477081,-0.00046894,0.00152408,0.00143913,0.00106000,-0.00181198,0.0
 0021240,0.00016142,-0.00005855,-0.00019128,0.00051270,-0.00045578,-0.0
 0009609,0.00000079,0.00012929,-0.00244730,0.00169905,-0.00355042,-0.01
 712473,-0.01458238,0.00815782,0.00130094,0.00054161,0.00068531,-0.2548
 6593,-0.11582080,0.05745576,0.26789477,-0.01722606,-0.00953759,0.00436
 475,-0.00044572,-0.00029616,0.00519917,-0.00069327,-0.00033670,-0.0000
 1246,0.00086886,-0.00038743,0.00036279,-0.00001074,-0.00027604,-0.0004
 0846,0.00128000,0.00344307,0.00379701,0.00815009,0.00856609,-0.0007234
 3,-0.00000743,-0.00151974,-0.00249447,-0.11991219,-0.11329350,0.043248
 78,0.12762271,0.11358833,0.01632632,0.00778066,-0.00413699,-0.00046403
 ,0.00552700,0.00073520,0.00069492,0.00016087,-0.00019269,-0.00076742,0
 .00028939,-0.00059102,0.00014178,-0.00040602,-0.00034945,-0.00314044,0
 .00388110,0.00336868,-0.01190894,-0.00538634,0.00815246,0.00116972,-0.
 00237941,-0.00200530,0.06101642,0.04408739,-0.06287106,-0.06263449,-0.
 05297641,0.05790547,0.00023556,-0.00039922,0.00059012,0.00233263,-0.00
 228079,0.00101630,0.00046964,-0.00023191,0.00035325,-0.00196469,0.0047
 7772,-0.00577456,0.00044700,-0.00119826,0.00195874,-0.17915833,0.02353
 516,-0.04355311,-0.02777616,0.00484466,-0.01059903,0.00090006,0.001151
 08,-0.00016195,-0.00059541,-0.00334002,0.00170151,-0.00042891,0.000326
 35,-0.00035537,0.54601156,0.00023148,-0.00135371,0.00046532,-0.0011130
 0,0.00098349,0.00552938,0.00080949,-0.00032602,0.00014625,0.02130057,-
 0.00371464,0.01276905,0.00157108,-0.00126963,-0.00214446,0.01694978,-0
 .08729090,0.01845649,-0.01014631,0.00904449,-0.00773729,0.00030136,-0.
 00169410,-0.00135715,-0.00459734,0.00059628,0.00312385,-0.00087683,0.0
 0019594,-0.00048418,0.05432328,0.51737137,-0.00011641,0.00029870,-0.00
 117348,0.00008805,0.00516873,0.00283870,-0.00053777,-0.00006115,-0.000
 38854,-0.02040069,0.00929374,-0.00696593,-0.00047037,-0.00267208,-0.00
 176660,-0.03747683,0.01964338,-0.09561107,0.00277246,-0.00460364,0.007
 49032,0.00048614,-0.00112958,-0.00210079,0.00293807,0.00349542,0.00279
 766,0.00073072,-0.00024725,0.00020464,-0.03253352,-0.04368384,0.489906
 79,0.00020082,0.00031720,-0.00025107,-0.00014580,0.00010626,-0.0001080
 2,-0.00000944,0.00000932,-0.00000113,0.00051026,-0.00179585,0.00160141
 ,0.00048794,0.00116026,-0.00073175,-0.02430280,-0.01675847,0.01075064,
 -0.00369619,0.00279142,-0.00341198,0.00019734,-0.00007909,0.00015885,-
 0.00086214,-0.00120383,0.00080203,-0.00039915,0.00013161,-0.00017396,-
 0.17559446,-0.10593632,0.07217709,0.19428377,0.00009087,0.00004615,0.0
 0005235,0.00005142,0.00013070,-0.00028731,-0.00003466,-0.00000712,-0.0
 0001936,0.00222856,0.00015254,0.00032439,0.00021786,0.00007765,0.00013
 784,0.00664218,0.00361521,-0.00277135,0.00115332,0.00012229,0.00112372
 ,0.00007215,-0.00001785,-0.00012525,0.00028017,0.00029866,-0.00002264,
 0.00008565,-0.00007611,-0.00002154,-0.10935935,-0.13696519,0.06217204,
 0.11286872,0.15266571,-0.00004780,0.00007194,0.00000189,-0.00001428,-0
 .00023156,0.00006204,0.00003550,-0.00001426,-0.00000640,-0.00177621,-0
 .00046610,0.00003844,-0.00000818,0.00028415,0.00006025,-0.01110763,-0.
 00744221,0.00389746,-0.00200827,0.00147060,-0.00063241,0.00002987,-0.0
 0015467,-0.00001342,-0.00049626,-0.00033703,0.00035484,-0.00013469,-0.
 00001463,-0.00014284,0.07529346,0.06276920,-0.08912357,-0.07674262,-0.
 06794633,0.10217924,-0.00014211,0.00088664,-0.00083553,-0.00083294,-0.
 00043966,-0.00132016,-0.00019462,0.00003436,-0.00017382,-0.00208870,-0
 .00068965,0.00075885,0.00011243,0.00040679,0.00016267,-0.01012630,0.03
 193428,0.00464607,-0.00133964,0.00104648,-0.00063744,-0.00052265,0.000
 21732,0.00005559,0.00103837,-0.00050162,0.00009283,-0.00002252,-0.0000
 2005,0.00006238,-0.08300633,0.02316865,0.00705988,0.00600732,-0.021196
 89,-0.00533284,0.57086653,-0.00038537,0.00010073,-0.00013338,0.0002148
 3,0.00018996,0.00026822,-0.00004450,0.00005393,-0.00000040,-0.00031144
 ,0.00069202,-0.00128967,0.00003585,-0.00006546,-0.00020830,0.01203136,
 -0.01145233,0.00322267,-0.00205357,0.00014807,-0.00049190,0.00011731,-
 0.00026841,0.00013464,-0.00010702,-0.00014312,0.00041823,-0.00007281,-
 0.00007440,-0.00013597,0.02039673,-0.18413525,-0.02458655,0.00580513,-
 0.02190607,-0.00494960,0.02219271,0.48119670,-0.00030273,0.00017346,-0
 .00029470,-0.00016230,-0.00022826,-0.00094052,-0.00014188,0.00011318,-
 0.00005338,-0.00209537,0.00013554,-0.00098644,-0.00014545,0.00024827,0
 .00036184,-0.00204635,0.01322324,0.00206871,-0.00029743,0.00027904,0.0
 0043755,0.00002354,0.00021730,-0.00008642,0.00009099,-0.00004995,-0.00
 014050,-0.00006432,0.00003393,0.00006252,0.00528249,-0.01924091,-0.078
 24540,-0.00380032,0.01225607,0.00277912,0.00760030,-0.01716283,0.57998
 279,-0.00000587,-0.00013247,0.00000113,0.00011115,0.00004118,0.0000677
 8,0.00001652,-0.00000612,0.00001168,-0.00001196,-0.00000869,-0.0001853
 5,-0.00000068,-0.00001917,0.00000536,0.00057545,-0.00038910,-0.0007015
 8,-0.00061787,0.00045809,0.00031379,-0.00133046,0.00098634,0.00015456,
 -0.00000556,0.00014938,-0.00008089,0.00001265,0.00003927,0.00005252,0.
 00513842,0.00534837,-0.00319463,0.00062679,0.00186518,0.00021266,-0.16
 688612,-0.11115409,0.07387999,0.17992792,0.00024416,0.00037079,-0.0003
 4457,-0.00044919,0.00002736,-0.00007782,0.00000828,-0.00003569,-0.0000
 2037,0.00039256,-0.00028868,0.00058773,0.00008226,0.00005694,-0.000080
 59,-0.00146652,0.00143531,-0.00062364,-0.00023487,-0.00013611,0.000352
 84,0.00082566,-0.00011230,-0.00043634,0.00041871,-0.00002142,0.0002758
 9,0.00002715,-0.00001984,0.00001379,-0.02164534,-0.02162387,0.01298369
 ,0.00227555,-0.00555043,-0.00170434,-0.10974407,-0.14650822,0.06755554
 ,0.11964729,0.16257218,-0.00003331,-0.00001954,0.00007505,0.00006952,-
 0.00002776,0.00002085,-0.00000044,-0.00000394,-0.00000345,-0.00008016,
 0.00012000,-0.00006079,-0.00001788,-0.00000691,-0.00000643,0.00044370,
 0.00027528,0.00004217,0.00006336,-0.00013409,-0.00014200,0.00017636,-0
 .00013967,0.00003723,-0.00005775,-0.00003124,-0.00009006,0.00000026,-0
 .00000370,-0.00000231,-0.00509668,-0.00408397,0.00170797,0.00013135,-0
 .00156472,0.00053010,0.07362078,0.06815781,-0.09252485,-0.08169012,-0.
 07315932,0.09562582,-0.00000010,0.00021359,-0.00021606,-0.00028010,0.0
 0002781,-0.00021859,-0.00003807,-0.00001071,-0.00005168,-0.00034508,-0
 .00010359,0.00039489,0.00001363,0.00004172,0.00001277,0.00095934,0.001
 72900,0.00021232,0.00007785,0.00027473,-0.00007208,0.00012555,-0.00004
 567,-0.00017836,0.00011106,0.00002144,0.00017998,-0.00002807,-0.000004
 72,-0.00000305,-0.00600034,-0.00012775,-0.00268719,0.00062069,0.000237
 16,0.00008240,-0.26590123,0.05193476,-0.08999513,-0.01790710,0.0049266
 6,-0.00815679,0.28596350,0.00027546,-0.00015887,0.00013012,0.00005361,
 0.00011668,0.00045026,0.00009441,-0.00005258,0.00005438,0.00107457,0.0
 0002761,0.00021779,-0.00000930,-0.00015983,-0.00009656,-0.00030134,-0.
 00560478,-0.00237296,0.00004646,-0.00012100,0.00038524,0.00006620,0.00
 005839,-0.00025310,0.00001176,0.00019348,0.00016720,0.00006698,-0.0000
 0460,0.00000300,0.02946769,-0.00751840,0.01137090,-0.00051145,0.001350
 56,0.00053243,0.05016579,-0.05779019,0.02082060,-0.01744903,0.00450220
 ,-0.00880842,-0.05765677,0.06361562,-0.00005077,-0.00010307,0.00009472
 ,0.00008964,-0.00005418,0.00008966,0.00001401,0.00001149,0.00002128,0.
 00020074,0.00000010,0.00017354,-0.00001224,-0.00001618,-0.00003007,0.0
 0021728,-0.00105184,0.00056188,0.00025942,0.00003584,0.00014427,-0.000
 08545,0.00001369,0.00006965,-0.00010428,0.00001801,-0.00015462,0.00000
 222,-0.00000781,-0.00001199,0.00641823,-0.00098640,0.00097879,-0.00023
 222,0.00033452,0.00005474,-0.09114792,0.02140109,-0.08540675,0.0126138
 6,-0.00397497,0.00505132,0.09961561,-0.02224977,0.08754479,-0.00003119
 ,-0.00002607,0.00004986,0.00003388,-0.00001087,0.00000459,0.00000612,0
 .00000185,0.00000707,0.00010669,0.00001933,-0.00014739,-0.00000679,0.0
 0000894,0.00001950,0.00037966,-0.00007604,0.00103997,0.00002040,-0.000
 28940,0.00004294,0.00004527,0.00007580,0.00007867,-0.00006716,0.000018
 37,-0.00015151,-0.00000387,0.00001024,0.00001177,-0.00215208,0.0008091
 9,0.00739643,0.00011671,-0.00012382,-0.00043274,-0.04776071,0.00031427
 ,0.00341958,-0.00005412,0.00446267,0.02139334,0.00206359,-0.00493785,-
 0.02855814,0.04635110,-0.00006947,-0.00004246,0.00000612,0.00006890,-0
 .00009748,0.00001500,0.00001106,-0.00000095,0.00000105,-0.00012526,0.0
 0014492,0.00020500,-0.00003393,-0.00004303,0.00000952,-0.00108781,0.00
 110838,-0.00093555,0.00013017,0.00007528,0.00022450,-0.00001036,0.0000
 3235,0.00004271,0.00002297,0.00003850,-0.00014652,0.00001275,-0.000001
 77,0.00001418,0.00102008,-0.00400144,-0.03107468,-0.00060779,0.0013047
 5,0.00044580,0.00045107,-0.05278042,-0.03855763,0.00126065,0.00317313,
 0.01962165,-0.00098400,0.00012006,0.00681941,-0.00210706,0.05757650,0.
 00005684,0.00000585,0.00002200,-0.00004220,-0.00009463,-0.00001002,0.0
 0001779,-0.00000648,0.00001319,0.00040235,-0.00024314,0.00024263,0.000
 03287,0.00001375,-0.00000828,-0.00078293,0.00048166,0.00064001,0.00040
 640,0.00012408,0.00000536,-0.00003184,-0.00006034,0.00004133,0.0000406
 1,-0.00006084,-0.00004214,0.00001397,-0.00000325,-0.00000385,-0.000230
 18,0.00043938,-0.00472407,-0.00014493,-0.00035800,0.00037737,0.0043989
 2,-0.04058787,-0.31091839,-0.00059270,-0.00190332,-0.01151217,0.000720
 49,-0.00120364,-0.00982903,-0.00459100,0.04538954,0.33478061,-0.000305
 60,0.00095323,-0.00088650,-0.00119730,0.00109378,0.00044363,-0.0002271
 2,0.00013035,-0.00010122,-0.00224154,-0.00084418,-0.00004572,0.0002044
 5,-0.00012339,-0.00042916,-0.00024853,-0.00388539,-0.03236979,-0.00150
 601,0.00043276,-0.00131939,-0.00031658,-0.00015155,-0.00023267,0.00086
 040,0.00001130,0.00078689,-0.00004936,-0.00005734,0.00001010,-0.077518
 09,-0.00199701,0.00232287,0.00035878,0.00446227,0.02314416,-0.00017166
 ,0.00119901,0.00809330,0.00047586,-0.00039336,-0.00092124,0.00013869,0
 .00019852,0.00069605,0.00013001,0.00188279,0.00034875,0.57741525,0.000
 29038,-0.00001191,0.00000726,0.00013301,-0.00064611,-0.00026641,0.0000
 7062,-0.00000939,0.00011542,0.00171214,-0.00070810,0.00046852,0.000036
 48,0.00032693,0.00024370,-0.00064752,0.00038863,0.00784623,-0.00031529
 ,0.00036842,0.00005694,-0.00008890,-0.00008267,0.00009454,0.00014511,-
 0.00019107,0.00008178,0.00002803,0.00006032,0.00005853,-0.00147835,-0.
 07674097,-0.01360222,0.00073484,0.00345866,0.01909399,0.00189537,-0.01
 001189,-0.03771411,-0.00026264,0.00166476,-0.00041150,-0.00062367,0.00
 139756,-0.00008517,0.00172886,-0.00640427,-0.00210306,-0.00417769,0.57
 968608,0.00039511,0.00009210,0.00002600,-0.00054985,0.00036119,0.00023
 242,-0.00000182,0.00002089,0.00005343,0.00022064,-0.00154428,0.0007292
 3,0.00007924,-0.00018220,-0.00016038,-0.01056747,0.00127941,-0.0199085
 2,0.00187686,0.00010882,0.00033382,-0.00015793,0.00004311,-0.00027757,
 0.00017984,0.00043478,0.00010078,0.00011296,-0.00011375,-0.00006375,0.
 00653501,-0.01859503,-0.19019460,-0.00002832,-0.00279000,-0.01695644,0
 .00219669,-0.00683238,-0.01241993,-0.00057328,0.00139783,0.00104397,-0
 .00017848,0.00129854,0.00054916,-0.00001270,-0.00024135,0.00103288,0.0
 0145703,-0.01286638,0.47341786,-0.00002876,-0.00006624,0.00002711,0.00
 003649,-0.00000322,0.00005560,0.00001378,-0.00000748,0.00000075,0.0001
 3624,0.00008898,0.00003148,0.00000091,-0.00001739,-0.00000510,0.000221
 46,-0.00090049,-0.00025866,0.00011636,-0.00010917,0.00024856,0.0000535
 9,-0.00005570,-0.00008451,-0.00009510,0.00016833,-0.00001768,0.0000061
 2,-0.00001181,-0.00001048,-0.00183297,-0.00032340,-0.00042108,-0.00006
 254,0.00024820,-0.00006330,0.00058521,-0.00003625,0.00018231,0.0000275
 2,0.00032471,-0.00004516,0.00027746,-0.00032031,0.00003405,0.00049899,
 0.00013730,0.00005208,-0.06030938,0.05586477,0.01176121,0.05975311,-0.
 00005240,0.00002121,-0.00002023,0.00003031,0.00001217,-0.00007143,-0.0
 0001597,0.00000911,-0.00000800,-0.00034373,0.00018810,-0.00028894,-0.0
 0004251,-0.00002717,-0.00000130,0.00053235,0.00059783,0.00053806,-0.00
 040948,-0.00011259,0.00006366,0.00003800,0.00005090,-0.00005656,-0.000
 00919,-0.00002649,-0.00005347,-0.00000951,-0.00000942,-0.00000796,0.00
 044134,-0.00312770,0.00046646,0.00010862,0.00048480,-0.00038191,-0.000
 03507,0.00112293,-0.00169889,0.00003463,0.00029362,0.00013709,-0.00000
 989,0.00004710,0.00016956,0.00015501,-0.00033003,-0.00010850,0.0553656
 8,-0.29367142,-0.05250210,-0.06110419,0.31559590,0.00008376,0.00004309
 ,-0.00004620,-0.00008293,0.00002007,-0.00011305,-0.00001235,0.00000017
 ,-0.00000276,0.00003895,0.00020481,0.00017264,0.00003933,0.00001784,-0
 .00004116,0.00120026,-0.00092950,0.00120072,-0.00025180,0.00016903,0.0
 0009919,0.00001818,0.00002939,0.00002835,0.00000682,-0.00014686,0.0000
 2990,-0.00001563,0.00000916,-0.00000478,0.00597616,-0.03132762,-0.0059
 6472,0.00022427,0.00052136,0.00142482,-0.00041317,0.00009569,-0.006958
 95,-0.00015865,0.00004770,0.00004593,0.00011728,0.00020577,0.00011896,
 0.00050397,-0.00207607,-0.00047350,0.01116409,-0.05031735,-0.05751021,
 -0.01265969,0.05808396,0.06353869,0.00004297,0.00018817,-0.00012538,-0
 .00025753,0.00005741,-0.00007519,-0.00002570,0.00002807,0.00001784,0.0
 0001939,-0.00048508,0.00004750,0.00000592,0.00001434,-0.00000205,0.000
 88242,0.00036722,-0.00019668,0.00023847,0.00005178,-0.00018830,0.00003
 709,0.00020979,0.00007850,0.00013708,-0.00014847,-0.00004638,-0.000014
 60,0.00000176,0.00000480,0.00095573,0.00021780,0.00203763,0.00055366,-
 0.00005394,-0.00048551,0.00023803,-0.00016702,0.00039545,-0.00000700,0
 .00002767,-0.00007707,0.00017693,-0.00029635,-0.00001838,0.00025527,-0
 .00012949,0.00000990,-0.26419229,0.05188477,-0.09250481,-0.00483648,0.
 00064155,-0.00141490,0.28383907,0.00009479,0.00018707,-0.00012392,-0.0
 0019299,0.00006881,-0.00009044,-0.00002184,0.00002179,0.00001945,-0.00
 014504,0.00000739,0.00000465,0.00002086,-0.00002361,-0.00001201,-0.000
 00569,0.00082351,-0.00083816,-0.00026506,0.00008270,-0.00004827,0.0000
 6080,0.00014581,0.00006545,0.00019653,-0.00020770,0.00004297,0.0000030
 4,-0.00001221,-0.00000857,-0.00448886,-0.00045521,-0.00123144,0.000256
 86,0.00001696,0.00021077,-0.00059044,0.00035391,-0.00020024,-0.0000691
 5,-0.00003297,0.00005773,0.00008819,0.00002912,-0.00034525,-0.00007026
 ,0.00005399,0.00015876,0.05267935,-0.06021845,0.02210592,0.02730100,-0
 .00483015,0.01211514,-0.05782834,0.05958889,-0.00027158,0.00014530,-0.
 00024395,-0.00023580,0.00042339,0.00014466,-0.00009642,0.00004774,-0.0
 0006391,-0.00107191,-0.00008341,-0.00017672,0.00006807,-0.00006981,-0.
 00016995,0.00208582,-0.00160916,-0.00570973,-0.00014739,0.00037975,-0.
 00017350,0.00000081,-0.00021704,0.00001906,-0.00005237,0.00011328,0.00
 019417,-0.00006929,-0.00001163,-0.00002039,-0.03001463,0.00642364,-0.0
 1304299,0.00026612,0.00049114,0.00139633,-0.00066904,0.00115355,0.0014
 8825,0.00006992,-0.00013778,-0.00005419,0.00041698,-0.00050471,0.00000
 833,0.00029950,0.00024514,0.00014751,-0.09064908,0.02165096,-0.0843259
 1,0.00670094,-0.00061317,0.00199068,0.10066225,-0.02344998,0.09322209,
 0.00003483,0.00005232,0.00006409,0.00003373,-0.00003439,-0.00004472,0.
 00001387,-0.00000352,0.00001874,0.00002919,0.00006151,0.00005797,0.000
 00503,0.00001393,0.00001335,0.00026765,0.00087315,0.00006014,-0.000373
 89,-0.00034835,-0.00060665,-0.00031873,-0.00018604,-0.00047547,0.00007
 991,0.00004256,-0.00008356,0.00003498,-0.00004157,-0.00003254,-0.00046
 284,0.00008692,-0.00017084,0.00110842,0.00026496,-0.00014773,0.0001476
 3,0.00009012,0.00008335,-0.00008553,0.00027002,0.00027793,-0.00002821,
 -0.00003904,0.00004828,0.00006821,0.00015742,-0.00008521,-0.17129998,-
 0.10693031,0.07976006,0.00543798,0.00468446,-0.00436398,-0.01804843,-0
 .01702375,0.01270709,0.18335618,0.00005120,0.00010830,-0.00000059,-0.0
 0008549,0.00000225,-0.00005322,0.00000422,-0.00000293,0.00000223,0.000
 09170,-0.00007981,0.00015762,0.00002004,0.00000421,-0.00000468,-0.0004
 8348,0.00011339,0.00010370,-0.00003221,-0.00011255,-0.00028643,-0.0002
 1846,0.00004256,-0.00014070,0.00012022,-0.00009955,-0.00001409,0.00000
 939,-0.00000826,-0.00000953,0.00413802,0.00202543,-0.00200064,0.000327
 01,0.00079813,-0.00123623,0.00081801,0.00127751,-0.00020337,-0.0003399
 1,0.00023322,0.00002522,0.00007170,-0.00004815,0.00007093,0.00003685,0
 .00007399,0.00012002,-0.10677915,-0.13865510,0.06852489,-0.02117763,-0
 .01628871,0.01323422,0.00541835,0.00440034,-0.00437721,0.11800962,0.14
 621572,-0.00024481,-0.00045817,0.00031275,0.00050329,0.00000190,0.0001
 1350,0.00000728,-0.00001744,-0.00003407,-0.00047502,0.00057938,-0.0003
 0242,-0.00006616,-0.00009245,0.00003779,0.00132788,-0.00031698,0.00178
 818,0.00006520,0.00023123,-0.00016607,-0.00040051,-0.00044234,-0.00024
 424,-0.00046808,0.00022447,-0.00014558,-0.00001726,0.00000168,-0.00003
 254,0.02319376,0.01951828,-0.01662313,-0.00048542,-0.00150695,-0.00628
 155,-0.00012506,0.00152696,0.00179545,-0.00020606,-0.00075194,0.000215
 84,0.00000468,-0.00014709,-0.00002862,-0.00037369,-0.00000783,0.000218
 56,0.07848791,0.06764832,-0.09570225,-0.00552844,-0.00364634,0.0024654
 7,-0.00811923,-0.00843256,0.00537016,-0.08708029,-0.07391216,0.1072427
 9\\-0.00000093,-0.00000314,-0.00000024,-0.00000167,0.00000216,0.000003
 16,-0.00000313,0.00000413,0.00000605,-0.00000184,0.00000328,0.00000409
 ,-0.00000292,0.00000691,0.00000718,-0.00000041,0.00000052,0.00000060,0
 .00000108,-0.00000397,-0.00000351,0.00000221,-0.00000635,-0.00000610,0
 .00000094,-0.00000539,-0.00000444,0.00000200,-0.00000913,-0.00000731,-
 0.00000017,0.00000216,0.00000140,-0.00000133,0.00000583,0.00000474,0.0
 0000444,0.00000424,-0.00000291,0.00000570,0.00000069,-0.00000633,0.000
 00451,0.00000568,-0.00000220,0.00000662,0.00000790,-0.00000348,-0.0000
 0321,-0.00000291,0.00000219,-0.00000653,-0.00000437,0.00000530,-0.0000
 0320,-0.00000157,0.00000291,-0.00000216,-0.00000667,-0.00000109\\\@
 The archive entry for this job was punched.


 ONE OF THE BENEFITS OF A COLLEGE EDUCATION
 IS TO SHOW THE BOY ITS LITTLE AVAIL 
                                    EMERSON IN 'CULTURE'
 Job cpu time:       0 days  1 hours 40 minutes  6.9 seconds.
 Elapsed time:       0 days  0 hours  3 minutes 14.9 seconds.
 File lengths (MBytes):  RWF=    287 Int=      0 D2E=      0 Chk=     18 Scr=      1
 Normal termination of Gaussian 16 at Tue May  6 17:51:55 2025.
