/home/tahminaafroz
cn008.cluster.local
tahminaafroz
Thu Apr 24 10:58:23 CDT 2025
 Entering Gaussian System, Link 0=g16
 Initial command:
 /home/apps/g16/l1.exe "/tmp/4-no2-phboh2-opt-freq/Gau-2820880.inp" -scrdir="/tmp/4-no2-phboh2-opt-freq/"
 Entering Link 1 = /home/apps/g16/l1.exe PID=   2820881.
  
 Copyright (c) 1988-2019, Gaussian, Inc.  All Rights Reserved.
  
 This is part of the Gaussian(R) 16 program.  It is based on
 the Gaussian(R) 09 system (copyright 2009, Gaussian, Inc.),
 the Gaussian(R) 03 system (copyright 2003, Gaussian, Inc.),
 the Gaussian(R) 98 system (copyright 1998, Gaussian, Inc.),
 the Gaussian(R) 94 system (copyright 1995, Gaussian, Inc.),
 the Gaussian 92(TM) system (copyright 1992, Gaussian, Inc.),
 the Gaussian 90(TM) system (copyright 1990, Gaussian, Inc.),
 the Gaussian 88(TM) system (copyright 1988, Gaussian, Inc.),
 the Gaussian 86(TM) system (copyright 1986, Carnegie Mellon
 University), and the Gaussian 82(TM) system (copyright 1983,
 Carnegie Mellon University). Gaussian is a federally registered
 trademark of Gaussian, Inc.
  
 This software contains proprietary and confidential information,
 including trade secrets, belonging to Gaussian, Inc.
  
 This software is provided under written license and may be
 used, copied, transmitted, or stored only in accord with that
 written license.
  
 The following legend is applicable only to US Government
 contracts under FAR:
  
                    RESTRICTED RIGHTS LEGEND
  
 Use, reproduction and disclosure by the US Government is
 subject to restrictions as set forth in subparagraphs (a)
 and (c) of the Commercial Computer Software - Restricted
 Rights clause in FAR 52.227-19.
  
 Gaussian, Inc.
 340 Quinnipiac St., Bldg. 40, Wallingford CT 06492
  
  
 ---------------------------------------------------------------
 Warning -- This program may not be used in any manner that
 competes with the business of Gaussian, Inc. or will provide
 assistance to any competitor of Gaussian, Inc.  The licensee
 of this program is prohibited from giving any competitor of
 Gaussian, Inc. access to this program.  By using this program,
 the user acknowledges that Gaussian, Inc. is engaged in the
 business of creating and licensing software in the field of
 computational chemistry and represents and warrants to the
 licensee that it is not a competitor of Gaussian, Inc. and that
 it will not use this program in any manner prohibited above.
 ---------------------------------------------------------------
  

 Cite this work as:
 Gaussian 16, Revision C.01,
 M. J. Frisch, G. W. Trucks, H. B. Schlegel, G. E. Scuseria, 
 M. A. Robb, J. R. Cheeseman, G. Scalmani, V. Barone, 
 G. A. Petersson, H. Nakatsuji, X. Li, M. Caricato, A. V. Marenich, 
 J. Bloino, B. G. Janesko, R. Gomperts, B. Mennucci, H. P. Hratchian, 
 J. V. Ortiz, A. F. Izmaylov, J. L. Sonnenberg, D. Williams-Young, 
 F. Ding, F. Lipparini, F. Egidi, J. Goings, B. Peng, A. Petrone, 
 T. Henderson, D. Ranasinghe, V. G. Zakrzewski, J. Gao, N. Rega, 
 G. Zheng, W. Liang, M. Hada, M. Ehara, K. Toyota, R. Fukuda, 
 J. Hasegawa, M. Ishida, T. Nakajima, Y. Honda, O. Kitao, H. Nakai, 
 T. Vreven, K. Throssell, J. A. Montgomery, Jr., J. E. Peralta, 
 F. Ogliaro, M. J. Bearpark, J. J. Heyd, E. N. Brothers, K. N. Kudin, 
 V. N. Staroverov, T. A. Keith, R. Kobayashi, J. Normand, 
 K. Raghavachari, A. P. Rendell, J. C. Burant, S. S. Iyengar, 
 J. Tomasi, M. Cossi, J. M. Millam, M. Klene, C. Adamo, R. Cammi, 
 J. W. Ochterski, R. L. Martin, K. Morokuma, O. Farkas, 
 J. B. Foresman, and D. J. Fox, Gaussian, Inc., Wallingford CT, 2019.
 
 ******************************************
 Gaussian 16:  AS64L-G16RevC.01  3-Jul-2019
                24-Apr-2025 
 ******************************************
 %mem=20GB
 %nprocshared=32
 Will use up to   32 processors via shared memory.
 %chk=4-no2-phboh2-opt-freq.chk
 ----------------------------------------------------------------------
 # opt=(calcfc,tight) freq 6-311+g(d,p) nosymm scf=(qc,fermi,xqc) geom=
 connectivity int=ultrafine m062x
 ----------------------------------------------------------------------
 1/7=10,10=4,18=20,19=15,26=4,38=1,57=2/1,3;
 2/9=110,12=2,15=1,17=6,18=5,40=1/2;
 3/5=4,6=6,7=111,11=2,25=1,30=1,71=2,74=-55,75=-5,140=1/1,2,3;
 4//1;
 5/5=2,22=13,38=5/2;
 8/6=4,10=90,11=11/1;
 11/6=1,8=1,9=11,15=111,16=1,31=1/1,2,10;
 10/6=1,13=1,31=1/2;
 6/7=2,8=2,9=2,10=2,28=1/1;
 7/10=1,25=1,30=1/1,2,3,16;
 1/7=10,10=4,18=20,19=15,26=4/3(2);
 2/9=110,15=1/2;
 99//99;
 2/9=110,15=1/2;
 3/5=4,6=6,7=111,11=2,25=1,30=1,71=1,74=-55,75=-5/1,2,3;
 4/5=5,16=3,69=1/1;
 5/5=2,22=13,38=5/2;
 7/30=1/1,2,3,16;
 1/7=10,18=20,19=15,26=4/3(-5);
 2/9=110,15=1/2;
 6/7=2,8=2,9=2,10=2,19=2,28=1/1;
 99/9=1/99;
 ---------------------
 4-no2-phboh2-opt-freq
 ---------------------
 Symbolic Z-matrix:
 Charge =  0 Multiplicity = 1
 O                     8.68599   7.45661   5.54092 
 H                     9.49809   7.14844   5.95307 
 C                     6.24361   6.99432   5.17375 
 B                     7.63948   6.61526   5.77239 
 O                     7.87945   5.49263   6.51747 
 H                     7.11048   4.9435    6.67648 
 C                     5.11887   6.17056   5.2892 
 H                     5.1814    5.21613   5.80447 
 C                     3.88986   6.53206   4.75088 
 H                     3.01386   5.90164   4.83387 
 C                     3.80073   7.74279   4.0868 
 C                     4.88289   8.59363   3.94217 
 H                     4.75886   9.52932   3.41189 
 C                     6.09975   8.20786   4.48858 
 H                     6.9623    8.85636   4.38674 
 N                     2.50651   8.13842   3.51289 
 O                     1.57705   8.2179    4.50253 
 O                     2.11501   7.21287   2.59655 
 

 GradGradGradGradGradGradGradGradGradGradGradGradGradGradGradGradGradGrad
 Berny optimization.
 Initialization pass.
                           ----------------------------
                           !    Initial Parameters    !
                           ! (Angstroms and Degrees)  !
 --------------------------                            --------------------------
 ! Name  Definition              Value          Derivative Info.                !
 --------------------------------------------------------------------------------
 ! R1    R(1,2)                  0.9614         calculate D2E/DX2 analytically  !
 ! R2    R(1,4)                  1.3626         calculate D2E/DX2 analytically  !
 ! R3    R(3,4)                  1.5654         calculate D2E/DX2 analytically  !
 ! R4    R(3,7)                  1.3989         calculate D2E/DX2 analytically  !
 ! R5    R(3,14)                 1.401          calculate D2E/DX2 analytically  !
 ! R6    R(4,5)                  1.3686         calculate D2E/DX2 analytically  !
 ! R7    R(5,6)                  0.9582         calculate D2E/DX2 analytically  !
 ! R8    R(7,8)                  1.0864         calculate D2E/DX2 analytically  !
 ! R9    R(7,9)                  1.3896         calculate D2E/DX2 analytically  !
 ! R10   R(9,10)                 1.0824         calculate D2E/DX2 analytically  !
 ! R11   R(9,11)                 1.3838         calculate D2E/DX2 analytically  !
 ! R12   R(11,12)                1.3842         calculate D2E/DX2 analytically  !
 ! R13   R(11,16)                1.47           calculate D2E/DX2 analytically  !
 ! R14   R(12,13)                1.0826         calculate D2E/DX2 analytically  !
 ! R15   R(12,14)                1.3886         calculate D2E/DX2 analytically  !
 ! R16   R(14,15)                1.0839         calculate D2E/DX2 analytically  !
 ! R17   R(16,17)                1.36           calculate D2E/DX2 analytically  !
 ! R18   R(16,18)                1.36           calculate D2E/DX2 analytically  !
 ! A1    A(2,1,4)              112.2103         calculate D2E/DX2 analytically  !
 ! A2    A(4,3,7)              122.8737         calculate D2E/DX2 analytically  !
 ! A3    A(4,3,14)             119.2307         calculate D2E/DX2 analytically  !
 ! A4    A(7,3,14)             117.8955         calculate D2E/DX2 analytically  !
 ! A5    A(1,4,3)              118.0587         calculate D2E/DX2 analytically  !
 ! A6    A(1,4,5)              117.6658         calculate D2E/DX2 analytically  !
 ! A7    A(3,4,5)              124.2754         calculate D2E/DX2 analytically  !
 ! A8    A(4,5,6)              114.8172         calculate D2E/DX2 analytically  !
 ! A9    A(3,7,8)              120.6756         calculate D2E/DX2 analytically  !
 ! A10   A(3,7,9)              121.7318         calculate D2E/DX2 analytically  !
 ! A11   A(8,7,9)              117.592          calculate D2E/DX2 analytically  !
 ! A12   A(7,9,10)             122.3133         calculate D2E/DX2 analytically  !
 ! A13   A(7,9,11)             118.0672         calculate D2E/DX2 analytically  !
 ! A14   A(10,9,11)            119.6194         calculate D2E/DX2 analytically  !
 ! A15   A(9,11,12)            122.5211         calculate D2E/DX2 analytically  !
 ! A16   A(9,11,16)            118.6566         calculate D2E/DX2 analytically  !
 ! A17   A(12,11,16)           118.8223         calculate D2E/DX2 analytically  !
 ! A18   A(11,12,13)           119.5294         calculate D2E/DX2 analytically  !
 ! A19   A(11,12,14)           118.2453         calculate D2E/DX2 analytically  !
 ! A20   A(13,12,14)           122.2253         calculate D2E/DX2 analytically  !
 ! A21   A(3,14,12)            121.5386         calculate D2E/DX2 analytically  !
 ! A22   A(3,14,15)            118.8464         calculate D2E/DX2 analytically  !
 ! A23   A(12,14,15)           119.615          calculate D2E/DX2 analytically  !
 ! A24   A(11,16,17)           109.4712         calculate D2E/DX2 analytically  !
 ! A25   A(11,16,18)           109.4712         calculate D2E/DX2 analytically  !
 ! A26   A(17,16,18)           109.4713         calculate D2E/DX2 analytically  !
 ! D1    D(2,1,4,3)            179.4141         calculate D2E/DX2 analytically  !
 ! D2    D(2,1,4,5)             -0.467          calculate D2E/DX2 analytically  !
 ! D3    D(7,3,4,1)            176.551          calculate D2E/DX2 analytically  !
 ! D4    D(7,3,4,5)             -3.5764         calculate D2E/DX2 analytically  !
 ! D5    D(14,3,4,1)            -3.3813         calculate D2E/DX2 analytically  !
 ! D6    D(14,3,4,5)           176.4914         calculate D2E/DX2 analytically  !
 ! D7    D(4,3,7,8)             -0.4124         calculate D2E/DX2 analytically  !
 ! D8    D(4,3,7,9)            179.8567         calculate D2E/DX2 analytically  !
 ! D9    D(14,3,7,8)           179.5207         calculate D2E/DX2 analytically  !
 ! D10   D(14,3,7,9)            -0.2102         calculate D2E/DX2 analytically  !
 ! D11   D(4,3,14,12)         -179.7998         calculate D2E/DX2 analytically  !
 ! D12   D(4,3,14,15)            0.1631         calculate D2E/DX2 analytically  !
 ! D13   D(7,3,14,12)            0.2646         calculate D2E/DX2 analytically  !
 ! D14   D(7,3,14,15)         -179.7725         calculate D2E/DX2 analytically  !
 ! D15   D(1,4,5,6)            178.3057         calculate D2E/DX2 analytically  !
 ! D16   D(3,4,5,6)             -1.5674         calculate D2E/DX2 analytically  !
 ! D17   D(3,7,9,10)           179.9437         calculate D2E/DX2 analytically  !
 ! D18   D(3,7,9,11)             0.0471         calculate D2E/DX2 analytically  !
 ! D19   D(8,7,9,10)             0.2048         calculate D2E/DX2 analytically  !
 ! D20   D(8,7,9,11)          -179.6917         calculate D2E/DX2 analytically  !
 ! D21   D(7,9,11,12)            0.0719         calculate D2E/DX2 analytically  !
 ! D22   D(7,9,11,16)         -179.9669         calculate D2E/DX2 analytically  !
 ! D23   D(10,9,11,12)        -179.8275         calculate D2E/DX2 analytically  !
 ! D24   D(10,9,11,16)           0.1337         calculate D2E/DX2 analytically  !
 ! D25   D(9,11,12,13)         179.9193         calculate D2E/DX2 analytically  !
 ! D26   D(9,11,12,14)          -0.0195         calculate D2E/DX2 analytically  !
 ! D27   D(16,11,12,13)         -0.0418         calculate D2E/DX2 analytically  !
 ! D28   D(16,11,12,14)       -179.9806         calculate D2E/DX2 analytically  !
 ! D29   D(9,11,16,17)          59.9801         calculate D2E/DX2 analytically  !
 ! D30   D(9,11,16,18)         -60.0199         calculate D2E/DX2 analytically  !
 ! D31   D(12,11,16,17)       -120.0572         calculate D2E/DX2 analytically  !
 ! D32   D(12,11,16,18)        119.9428         calculate D2E/DX2 analytically  !
 ! D33   D(11,12,14,3)          -0.1538         calculate D2E/DX2 analytically  !
 ! D34   D(11,12,14,15)        179.8836         calculate D2E/DX2 analytically  !
 ! D35   D(13,12,14,3)         179.9091         calculate D2E/DX2 analytically  !
 ! D36   D(13,12,14,15)         -0.0534         calculate D2E/DX2 analytically  !
 --------------------------------------------------------------------------------
 Trust Radius=3.00D-01 FncErr=1.00D-07 GrdErr=1.00D-06 EigMax=2.50D+02 EigMin=1.00D-04
 Number of steps in this run=     90 maximum allowed number of steps=    108.
 GradGradGradGradGradGradGradGradGradGradGradGradGradGradGradGradGradGrad

                          Input orientation:                          
 ---------------------------------------------------------------------
 Center     Atomic      Atomic             Coordinates (Angstroms)
 Number     Number       Type             X           Y           Z
 ---------------------------------------------------------------------
      1          8           0        8.685989    7.456609    5.540917
      2          1           0        9.498093    7.148444    5.953071
      3          6           0        6.243614    6.994317    5.173753
      4          5           0        7.639479    6.615265    5.772389
      5          8           0        7.879450    5.492628    6.517465
      6          1           0        7.110482    4.943503    6.676481
      7          6           0        5.118873    6.170561    5.289201
      8          1           0        5.181397    5.216127    5.804473
      9          6           0        3.889861    6.532061    4.750875
     10          1           0        3.013860    5.901642    4.833865
     11          6           0        3.800725    7.742786    4.086801
     12          6           0        4.882894    8.593630    3.942172
     13          1           0        4.758859    9.529324    3.411891
     14          6           0        6.099751    8.207863    4.488579
     15          1           0        6.962295    8.856361    4.386741
     16          7           0        2.506507    8.138420    3.512891
     17          8           0        1.577051    8.217905    4.502534
     18          8           0        2.115008    7.212865    2.596552
 ---------------------------------------------------------------------
                    Distance matrix (angstroms):
                    1          2          3          4          5
     1  O    0.000000
     2  H    0.961431   0.000000
     3  C    2.512711   3.350034   0.000000
     4  B    1.362579   1.942002   1.565402   0.000000
     5  O    2.336958   2.383332   2.595494   1.368590   0.000000
     6  H    3.176071   3.329530   2.686166   1.972817   0.958194
     7  C    3.800210   4.535917   1.398908   2.604743   3.096613
     8  H    4.167900   4.731786   2.165196   2.828566   2.804336
     9  C    4.947909   5.768663   2.435705   3.887165   4.485318
    10  H    5.923757   6.697195   3.426481   4.773514   5.164859
    11  C    5.105111   6.024633   2.776577   4.341491   5.254268
    12  C    4.279291   5.237589   2.434369   3.855176   5.022718
    13  H    4.924556   5.881031   3.425626   4.728812   5.973072
    14  C    2.891440   3.849134   1.401019   2.560332   3.828343
    15  H    2.502509   3.435206   2.145483   2.720498   4.086057
    16  N    6.539400   7.471065   4.246576   5.811432   6.700463
    17  O    7.224598   8.123467   4.870782   6.397970   7.155929
    18  O    7.204616   8.110506   4.871870   6.400222   7.180638
                    6          7          8          9         10
     6  H    0.000000
     7  C    2.719692   0.000000
     8  H    2.134500   1.086443   0.000000
     9  C    4.074785   1.389585   2.123633   0.000000
    10  H    4.592992   2.170421   2.471887   1.082448   0.000000
    11  C    5.049447   2.378060   3.352709   1.383761   2.137071
    12  C    5.075630   2.782344   3.868436   2.426970   3.396352
    13  H    6.100609   3.864608   4.950420   3.395824   4.269322
    14  C    4.057652   2.398691   3.394913   2.785808   3.867894
    15  H    4.536003   3.380260   4.293351   3.869731   4.951810
    16  N    6.435246   3.721855   4.576700   2.454926   2.646801
    17  O    6.787239   4.165929   4.867959   2.872775   2.745774
    18  O    6.837440   4.166528   4.866257   2.873100   2.744596
                   11         12         13         14         15
    11  C    0.000000
    12  C    1.384176   0.000000
    13  H    2.136643   1.082638   0.000000
    14  C    2.379757   1.388567   2.168757   0.000000
    15  H    3.365344   2.142563   2.501668   1.083929   0.000000
    16  N    1.470000   2.457379   2.649133   3.724002   4.597075
    17  O    2.311558   3.373985   3.610156   4.522733   5.424195
    18  O    2.311558   3.373188   3.608422   4.521942   5.422365
                   16         17         18
    16  N    0.000000
    17  O    1.360000   0.000000
    18  O    1.360000   2.220871   0.000000
 Symmetry turned off by external request.
 Stoichiometry    C6H6BNO4
 Framework group  C1[X(C6H6BNO4)]
 Deg. of freedom    48
 Full point group                 C1      NOp   1
 Rotational constants (GHZ):           2.7841334           0.4425631           0.4061307
 Standard basis: 6-311+G(d,p) (5D, 7F)
   300 basis functions,   480 primitive gaussians,   312 cartesian basis functions
    43 alpha electrons       43 beta electrons
       nuclear repulsion energy       635.3449402278 Hartrees.
 NAtoms=   18 NActive=   18 NUniq=   18 SFac= 1.00D+00 NAtFMM=   60 NAOKFM=F Big=F
 Integral buffers will be    131072 words long.
 Raffenetti 2 integral format.
 Two-electron integral symmetry is turned off.
 One-electron integrals computed using PRISM.
 NBasis=   300 RedAO= T EigKep=  1.81D-06  NBF=   300
 NBsUse=   300 1.00D-06 EigRej= -1.00D+00 NBFU=   300
 ExpMin= 3.15D-02 ExpMax= 8.59D+03 ExpMxC= 1.30D+03 IAcc=3 IRadAn=         5 AccDes= 0.00D+00
 Harris functional with IExCor= 1009 and IRadAn=       5 diagonalized for initial guess.
 HarFok:  IExCor= 1009 AccDes= 0.00D+00 IRadAn=         5 IDoV= 1 UseB2=F ITyADJ=14
 ICtDFT=  3500011 ScaDFX=  1.000000  1.000000  1.000000  1.000000
 FoFCou: FMM=F IPFlag=           0 FMFlag=      100000 FMFlg1=           0
         NFxFlg=           0 DoJE=T BraDBF=F KetDBF=T FulRan=T
         wScrn=  0.000000 ICntrl=       500 IOpCl=  0 I1Cent=   200000004 NGrid=           0
         NMat0=    1 NMatS0=      1 NMatT0=    0 NMatD0=    1 NMtDS0=    0 NMtDT0=    0
 Symmetry not used in FoFCou.
 Requested convergence on RMS density matrix=1.00D-08 within 128 cycles.
 Requested convergence on MAX density matrix=1.00D-06.
 Requested convergence on             energy=1.00D-06.
 Level shift goal  0.100 maximum shift  0.100.
 No special actions if energy rises.
 Dynamic level shift is on during FON iterations.
 SCF Done:  E(RM062X) =  -612.603940535     A.U. after   18 cycles
            NFock= 18  Conv=0.78D-08     -V/T= 2.0041
 DoSCS=F DFT=T ScalE2(SS,OS)=  1.000000  1.000000
 Range of M.O.s used for correlation:     1   300
 NBasis=   300 NAE=    43 NBE=    43 NFC=     0 NFV=     0
 NROrb=    300 NOA=    43 NOB=    43 NVA=   257 NVB=   257

 **** Warning!!: The largest alpha MO coefficient is  0.15362773D+03

 Symmetrizing basis deriv contribution to polar:
 IMax=3 JMax=2 DiffMx= 0.00D+00
 G2DrvN: will do    19 centers at a time, making    1 passes.
 Calling FoFCou, ICntrl=  3107 FMM=F I1Cent=   0 AccDes= 0.00D+00.
 End of G2Drv F.D. properties file   721 does not exist.
 End of G2Drv F.D. properties file   722 does not exist.
 End of G2Drv F.D. properties file   788 does not exist.
          IDoAtm=111111111111111111
          Differentiating once with respect to nuclear coordinates.
 Keep R1 ints in memory in canonical form, NReq=1055899764.
          There are    57 degrees of freedom in the 1st order CPHF.  IDoFFX=6 NUNeed=     0.
     51 vectors produced by pass  0 Test12= 1.94D-14 1.75D-09 XBig12= 3.29D-01 1.10D-01.
 AX will form    51 AO Fock derivatives at one time.
     51 vectors produced by pass  1 Test12= 1.94D-14 1.75D-09 XBig12= 2.20D-02 3.34D-02.
     51 vectors produced by pass  2 Test12= 1.94D-14 1.75D-09 XBig12= 9.29D-04 8.09D-03.
     51 vectors produced by pass  3 Test12= 1.94D-14 1.75D-09 XBig12= 8.40D-06 4.33D-04.
     51 vectors produced by pass  4 Test12= 1.94D-14 1.75D-09 XBig12= 6.66D-08 2.90D-05.
     51 vectors produced by pass  5 Test12= 1.94D-14 1.75D-09 XBig12= 3.45D-10 2.06D-06.
     51 vectors produced by pass  6 Test12= 1.94D-14 1.75D-09 XBig12= 1.48D-12 1.72D-07.
     22 vectors produced by pass  7 Test12= 1.94D-14 1.75D-09 XBig12= 5.42D-15 8.83D-09.
 InvSVY:  IOpt=1 It=  1 EMax= 6.66D-16
 Solved reduced A of dimension   379 with    57 vectors.
 End of Minotr F.D. properties file   721 does not exist.
 End of Minotr F.D. properties file   722 does not exist.
 End of Minotr F.D. properties file   788 does not exist.

 **********************************************************************

            Population analysis using the SCF Density.

 **********************************************************************

 Alpha  occ. eigenvalues --  -19.69371 -19.69367 -19.65715 -19.64857 -15.00022
 Alpha  occ. eigenvalues --  -10.64057 -10.58786 -10.58548 -10.58367 -10.57672
 Alpha  occ. eigenvalues --  -10.56147  -7.10547  -1.29417  -1.18712  -1.14992
 Alpha  occ. eigenvalues --   -1.11478  -1.01275  -0.92337  -0.88570  -0.82093
 Alpha  occ. eigenvalues --   -0.73932  -0.70665  -0.67390  -0.65604  -0.63839
 Alpha  occ. eigenvalues --   -0.59944  -0.59165  -0.57792  -0.54709  -0.53522
 Alpha  occ. eigenvalues --   -0.52595  -0.50159  -0.49936  -0.47505  -0.47426
 Alpha  occ. eigenvalues --   -0.44130  -0.42330  -0.42272  -0.40336  -0.39603
 Alpha  occ. eigenvalues --   -0.37096  -0.34637  -0.33534
 Alpha virt. eigenvalues --   -0.14015  -0.03650  -0.01445  -0.01321   0.00606
 Alpha virt. eigenvalues --    0.01356   0.02317   0.03231   0.03712   0.04406
 Alpha virt. eigenvalues --    0.06614   0.07141   0.08149   0.08270   0.09282
 Alpha virt. eigenvalues --    0.09361   0.10658   0.11305   0.12326   0.12871
 Alpha virt. eigenvalues --    0.12963   0.13123   0.13950   0.14806   0.15326
 Alpha virt. eigenvalues --    0.15530   0.16541   0.17062   0.17153   0.18051
 Alpha virt. eigenvalues --    0.18455   0.18734   0.19631   0.20504   0.20776
 Alpha virt. eigenvalues --    0.21449   0.21873   0.22070   0.22945   0.23289
 Alpha virt. eigenvalues --    0.23841   0.23956   0.25253   0.25573   0.25662
 Alpha virt. eigenvalues --    0.25805   0.26287   0.27040   0.27756   0.28298
 Alpha virt. eigenvalues --    0.29376   0.30219   0.30981   0.31366   0.31905
 Alpha virt. eigenvalues --    0.32779   0.33864   0.36021   0.36419   0.37832
 Alpha virt. eigenvalues --    0.37977   0.39736   0.40215   0.43140   0.43863
 Alpha virt. eigenvalues --    0.45407   0.45742   0.46483   0.47941   0.49659
 Alpha virt. eigenvalues --    0.50456   0.51401   0.52895   0.55755   0.56165
 Alpha virt. eigenvalues --    0.57005   0.57954   0.59862   0.61023   0.62123
 Alpha virt. eigenvalues --    0.62566   0.64931   0.65317   0.66922   0.67860
 Alpha virt. eigenvalues --    0.68652   0.69542   0.71421   0.72615   0.74347
 Alpha virt. eigenvalues --    0.76210   0.79426   0.81396   0.82530   0.83882
 Alpha virt. eigenvalues --    0.84786   0.87066   0.87242   0.88544   0.89753
 Alpha virt. eigenvalues --    0.90524   0.93139   0.93439   0.94153   0.97556
 Alpha virt. eigenvalues --    0.98626   1.01392   1.03073   1.04533   1.06654
 Alpha virt. eigenvalues --    1.07066   1.07489   1.08837   1.10240   1.11599
 Alpha virt. eigenvalues --    1.11975   1.12966   1.13411   1.15178   1.18280
 Alpha virt. eigenvalues --    1.19781   1.23325   1.23421   1.24183   1.26576
 Alpha virt. eigenvalues --    1.30837   1.32077   1.32783   1.34184   1.37141
 Alpha virt. eigenvalues --    1.40909   1.44035   1.47427   1.47864   1.49067
 Alpha virt. eigenvalues --    1.52112   1.53375   1.57792   1.58299   1.60302
 Alpha virt. eigenvalues --    1.60868   1.63925   1.65225   1.67798   1.68404
 Alpha virt. eigenvalues --    1.70369   1.71597   1.73291   1.77322   1.78833
 Alpha virt. eigenvalues --    1.79220   1.82907   1.84594   1.85092   1.90706
 Alpha virt. eigenvalues --    1.92814   1.93457   1.94321   1.96434   1.96497
 Alpha virt. eigenvalues --    1.98642   2.01273   2.04586   2.08035   2.08736
 Alpha virt. eigenvalues --    2.11891   2.12263   2.14399   2.15294   2.19621
 Alpha virt. eigenvalues --    2.25024   2.31362   2.37436   2.39727   2.41087
 Alpha virt. eigenvalues --    2.44110   2.48245   2.54447   2.55984   2.59352
 Alpha virt. eigenvalues --    2.59944   2.63137   2.63922   2.67239   2.69934
 Alpha virt. eigenvalues --    2.71256   2.75112   2.76761   2.77960   2.79176
 Alpha virt. eigenvalues --    2.82201   2.82342   2.82690   2.87591   2.88273
 Alpha virt. eigenvalues --    2.91190   2.93370   2.94257   2.95923   2.97141
 Alpha virt. eigenvalues --    2.98335   3.05474   3.09558   3.11898   3.16546
 Alpha virt. eigenvalues --    3.22399   3.23741   3.25018   3.27300   3.29748
 Alpha virt. eigenvalues --    3.34407   3.36356   3.39470   3.39815   3.42556
 Alpha virt. eigenvalues --    3.46169   3.50827   3.52892   3.54801   3.59283
 Alpha virt. eigenvalues --    3.63070   3.65011   3.79100   3.90719   3.93496
 Alpha virt. eigenvalues --    4.01015   4.07913   4.10222   4.16294   4.19916
 Alpha virt. eigenvalues --    4.37757   4.64710   4.83032   5.06552   5.07630
 Alpha virt. eigenvalues --    5.09346   5.12724   5.15703   5.25433   5.37885
 Alpha virt. eigenvalues --    5.48277   5.58724   5.67437   5.75082   5.87138
 Alpha virt. eigenvalues --   14.77881  23.64387  23.99657  24.00954  24.11213
 Alpha virt. eigenvalues --   24.15545  24.23687  35.36598  49.94088  49.94095
 Alpha virt. eigenvalues --   49.98808  50.03910
          Condensed to atoms (all electrons):
               1          2          3          4          5          6
     1  O    7.761550   0.269972   0.019372   0.450731  -0.124820   0.020251
     2  H    0.269972   0.446041   0.057741  -0.004919  -0.033102   0.003095
     3  C    0.019372   0.057741  11.363759   0.258039  -0.202052   0.017340
     4  B    0.450731  -0.004919   0.258039   3.357582   0.374481   0.017358
     5  O   -0.124820  -0.033102  -0.202052   0.374481   7.970804   0.256842
     6  H    0.020251   0.003095   0.017340   0.017358   0.256842   0.432948
     7  C    0.040463  -0.001604  -0.721118   0.105126   0.110169  -0.070781
     8  H    0.002548  -0.000046   0.079367   0.014122  -0.007504   0.011490
     9  C    0.053076   0.005161  -1.480096   0.066224  -0.015608   0.065810
    10  H   -0.000057  -0.000001  -0.008777   0.000387   0.000345  -0.000074
    11  C   -0.018487  -0.003497  -3.887552  -0.050123   0.000419  -0.006646
    12  C   -0.003432  -0.017047   0.775333   0.068196   0.050863  -0.010388
    13  H    0.000341  -0.000001  -0.028320   0.000083  -0.000035   0.000003
    14  C   -0.109674  -0.033710   0.085726  -0.127391  -0.043658   0.011170
    15  H    0.003675  -0.000664   0.048168  -0.007521   0.002362  -0.000087
    16  N    0.000454   0.000011   0.030535   0.003293  -0.000104   0.000093
    17  O   -0.000023   0.000000  -0.015287  -0.001323  -0.000014   0.000000
    18  O   -0.000011   0.000000  -0.014439  -0.001478  -0.000008  -0.000007
               7          8          9         10         11         12
     1  O    0.040463   0.002548   0.053076  -0.000057  -0.018487  -0.003432
     2  H   -0.001604  -0.000046   0.005161  -0.000001  -0.003497  -0.017047
     3  C   -0.721118   0.079367  -1.480096  -0.008777  -3.887552   0.775333
     4  B    0.105126   0.014122   0.066224   0.000387  -0.050123   0.068196
     5  O    0.110169  -0.007504  -0.015608   0.000345   0.000419   0.050863
     6  H   -0.070781   0.011490   0.065810  -0.000074  -0.006646  -0.010388
     7  C   12.787611   0.214463  -3.156151   0.080234  -0.866787   0.954109
     8  H    0.214463   0.530712   0.124193  -0.006621  -0.072815  -0.024901
     9  C   -3.156151   0.124193  24.059822   0.338820   0.796586 -14.968984
    10  H    0.080234  -0.006621   0.338820   0.459977  -0.008311  -0.034456
    11  C   -0.866787  -0.072815   0.796586  -0.008311  19.912711  -7.588554
    12  C    0.954109  -0.024901 -14.968984  -0.034456  -7.588554  29.570639
    13  H   -0.009546   0.000079   0.035835  -0.000079   0.177621   0.179744
    14  C   -3.249996  -0.003218  -1.157969   0.002289  -1.688341  -1.580549
    15  H   -0.002617  -0.000108   0.007966   0.000050   0.023357  -0.064819
    16  N   -0.028251   0.001326   0.327068  -0.013969  -0.662901  -0.737623
    17  O    0.041367  -0.000183  -0.063450   0.003673   0.435250  -0.107579
    18  O   -0.014380  -0.000128  -0.077599   0.003258   0.450149  -0.064807
              13         14         15         16         17         18
     1  O    0.000341  -0.109674   0.003675   0.000454  -0.000023  -0.000011
     2  H   -0.000001  -0.033710  -0.000664   0.000011   0.000000   0.000000
     3  C   -0.028320   0.085726   0.048168   0.030535  -0.015287  -0.014439
     4  B    0.000083  -0.127391  -0.007521   0.003293  -0.001323  -0.001478
     5  O   -0.000035  -0.043658   0.002362  -0.000104  -0.000014  -0.000008
     6  H    0.000003   0.011170  -0.000087   0.000093   0.000000  -0.000007
     7  C   -0.009546  -3.249996  -0.002617  -0.028251   0.041367  -0.014380
     8  H    0.000079  -0.003218  -0.000108   0.001326  -0.000183  -0.000128
     9  C    0.035835  -1.157969   0.007966   0.327068  -0.063450  -0.077599
    10  H   -0.000079   0.002289   0.000050  -0.013969   0.003673   0.003258
    11  C    0.177621  -1.688341   0.023357  -0.662901   0.435250   0.450149
    12  C    0.179744  -1.580549  -0.064819  -0.737623  -0.107579  -0.064807
    13  H    0.478763   0.004116  -0.005170  -0.008317   0.000734   0.000761
    14  C    0.004116  13.566884   0.339080   0.316654  -0.093302  -0.081963
    15  H   -0.005170   0.339080   0.463003  -0.001271   0.000046   0.000036
    16  N   -0.008317   0.316654  -0.001271   8.220864  -0.241218  -0.236023
    17  O    0.000734  -0.093302   0.000046  -0.241218   8.173239  -0.127358
    18  O    0.000761  -0.081963   0.000036  -0.236023  -0.127358   8.168506
 Mulliken charges:
               1
     1  O   -0.365928
     2  H    0.312572
     3  C   -0.377736
     4  B    0.477133
     5  O   -0.339379
     6  H    0.251582
     7  C   -0.212312
     8  H    0.137224
     9  C    1.039297
    10  H    0.183313
    11  C   -0.942080
    12  C   -0.395743
    13  H    0.173388
    14  C   -0.156147
    15  H    0.194514
    16  N    0.029379
    17  O   -0.004570
    18  O   -0.004508
 Sum of Mulliken charges =   0.00000
 Mulliken charges with hydrogens summed into heavy atoms:
               1
     1  O   -0.053356
     3  C   -0.377736
     4  B    0.477133
     5  O   -0.087797
     7  C   -0.075088
     9  C    1.222610
    11  C   -0.942080
    12  C   -0.222355
    14  C    0.038367
    16  N    0.029379
    17  O   -0.004570
    18  O   -0.004508
 APT charges:
               1
     1  O   -0.373920
     2  H    2.047755
     3  C   -0.910774
     4  B   -0.447116
     5  O    1.305865
     6  H   -1.180747
     7  C   -0.018803
     8  H   -0.173453
     9  C    0.462196
    10  H   -0.875311
    11  C   -3.270048
    12  C    0.825278
    13  H    1.209941
    14  C   -1.179809
    15  H    1.913008
    16  N    2.856916
    17  O   -1.083749
    18  O   -1.107229
 Sum of APT charges =   0.00000
 APT charges with hydrogens summed into heavy atoms:
               1
     1  O    1.673834
     3  C   -0.910774
     4  B   -0.447116
     5  O    0.125118
     7  C   -0.192256
     9  C   -0.413114
    11  C   -3.270048
    12  C    2.035219
    14  C    0.733199
    16  N    2.856916
    17  O   -1.083749
    18  O   -1.107229
 Electronic spatial extent (au):  <R**2>=          33314.0856
 Charge=              0.0000 electrons
 Dipole moment (field-independent basis, Debye):
    X=              3.5969    Y=             -1.0341    Z=              1.7153  Tot=              4.1169
 Quadrupole moment (field-independent basis, Debye-Ang):
   XX=            -44.5698   YY=            -76.4455   ZZ=            -55.9788
   XY=             23.4008   XZ=             22.8451   YZ=              0.8650
 Traceless Quadrupole moment (field-independent basis, Debye-Ang):
   XX=             14.4282   YY=            -17.4474   ZZ=              3.0192
   XY=             23.4008   XZ=             22.8451   YZ=              0.8650
 Octapole moment (field-independent basis, Debye-Ang**2):
  XXX=           -860.5234  YYY=          -1507.4937  ZZZ=           -890.0807  XYY=           -166.5419
  XXY=           -333.2203  XXZ=           -168.7073  XZZ=           -217.0252  YZZ=           -491.2913
  YYZ=           -367.4658  XYZ=            126.3764
 Hexadecapole moment (field-independent basis, Debye-Ang**3):
 XXXX=         -10875.3970 YYYY=         -21600.5278 ZZZZ=          -9150.2033 XXXY=          -6089.3548
 XXXZ=          -4034.1529 YYYX=          -5800.3734 YYYZ=          -7415.6705 ZZZX=          -4549.4153
 ZZZY=          -6871.6525 XXYY=          -4589.4702 XXZZ=          -2804.6249 YYZZ=          -5691.1668
 XXYZ=          -1316.3519 YYXZ=           -987.5671 ZZXY=          -1822.1254
 N-N= 6.353449402278D+02 E-N=-2.704994153210D+03  KE= 6.101060008127D+02
  Exact polarizability:       0.000       0.000       0.000       0.000       0.000       0.000
 Approx polarizability:     149.596       2.874     133.503       5.912      -5.520     127.514
 Calling FoFJK, ICntrl=    100127 FMM=F ISym2X=0 I1Cent= 0 IOpClX= 0 NMat=1 NMatS=1 NMatT=0.
 -------------------------------------------------------------------
 Center     Atomic                   Forces (Hartrees/Bohr)
 Number     Number              X              Y              Z
 -------------------------------------------------------------------
      1        8          -0.002592292   -0.000642303   -0.000286720
      2        1           0.000304103    0.000007669    0.000050120
      3        6          -0.003430668    0.003960166   -0.003096806
      4        5           0.005827356   -0.001277621    0.002325502
      5        8          -0.001582021    0.001778942   -0.001457855
      6        1           0.000193393   -0.000630658    0.000437030
      7        6          -0.002350949    0.001337267   -0.001391345
      8        1          -0.000907941    0.000286276   -0.000418708
      9        6          -0.003072199   -0.004211201    0.001323930
     10        1          -0.000362564   -0.000160667   -0.000007665
     11        6           0.029496843    0.032056491   -0.008552432
     12        6          -0.002721633   -0.002080628    0.000310336
     13        1           0.001542886    0.000308025    0.000277122
     14        6           0.003871947   -0.000353504    0.001302978
     15        1          -0.000003855   -0.000141009    0.000075768
     16        7          -0.144412258   -0.171098799    0.049454755
     17        8           0.075822287    0.041077159   -0.075827030
     18        8           0.044377563    0.099784397    0.035481019
 -------------------------------------------------------------------
 Cartesian Forces:  Max     0.171098799 RMS     0.038749432
 FormGI is forming the generalized inverse of G from B-inverse, IUseBI=4.

 GradGradGradGradGradGradGradGradGradGradGradGradGradGradGradGradGradGrad
 Berny optimization.
 Internal  Forces:  Max     0.104594302 RMS     0.020569087
 Search for a local minimum.
 Step number   1 out of a maximum of   90
 All quantities printed in internal units (Hartrees-Bohrs-Radians)
 Mixed Optimization -- RFO/linear search
 Second derivative matrix not updated -- analytic derivatives used.
 ITU=  0
     Eigenvalues ---   -0.00344   0.00044   0.00986   0.01247   0.01516
     Eigenvalues ---    0.01698   0.01777   0.01994   0.02129   0.02316
     Eigenvalues ---    0.02640   0.02687   0.02817   0.03928   0.08467
     Eigenvalues ---    0.08971   0.10359   0.10996   0.11207   0.11348
     Eigenvalues ---    0.11996   0.12618   0.15885   0.16661   0.17439
     Eigenvalues ---    0.18347   0.18433   0.18903   0.19625   0.19956
     Eigenvalues ---    0.24695   0.27540   0.29404   0.35693   0.36537
     Eigenvalues ---    0.36727   0.36907   0.39270   0.39888   0.41990
     Eigenvalues ---    0.42553   0.45524   0.48462   0.48560   0.49206
     Eigenvalues ---    0.52731   0.55247   0.56325
 RFO step:  Lambda=-1.32372305D-01 EMin=-3.43709883D-03
 Linear search not attempted -- first point.
 Maximum step size (   0.300) exceeded in Quadratic search.
    -- Step size scaled by   0.512
 Iteration  1 RMS(Cart)=  0.05985865 RMS(Int)=  0.01535018
 Iteration  2 RMS(Cart)=  0.02078088 RMS(Int)=  0.00250028
 Iteration  3 RMS(Cart)=  0.00090995 RMS(Int)=  0.00233285
 Iteration  4 RMS(Cart)=  0.00000763 RMS(Int)=  0.00233285
 Iteration  5 RMS(Cart)=  0.00000014 RMS(Int)=  0.00233285
 Variable       Old X    -DE/DX   Delta X   Delta X   Delta X     New X
                                 (Linear)    (Quad)   (Total)
    R1        1.81684   0.00027   0.00000   0.00023   0.00023   1.81707
    R2        2.57490  -0.00210   0.00000  -0.00199  -0.00199   2.57291
    R3        2.95818   0.00251   0.00000   0.00396   0.00396   2.96214
    R4        2.64355   0.00187   0.00000   0.00054   0.00053   2.64409
    R5        2.64754  -0.00259   0.00000  -0.00161  -0.00162   2.64592
    R6        2.58626  -0.00175   0.00000  -0.00210  -0.00210   2.58416
    R7        1.81072   0.00027   0.00000   0.00011   0.00011   1.81083
    R8        2.05308  -0.00050   0.00000  -0.00052  -0.00052   2.05256
    R9        2.62594  -0.00345   0.00000  -0.00115  -0.00115   2.62478
   R10        2.04553   0.00039   0.00000  -0.00022  -0.00022   2.04531
   R11        2.61493   0.00037   0.00000  -0.00124  -0.00124   2.61369
   R12        2.61571  -0.00020   0.00000  -0.00165  -0.00164   2.61407
   R13        2.77790   0.00962   0.00000   0.00583   0.00583   2.78372
   R14        2.04589  -0.00005   0.00000   0.00005   0.00005   2.04594
   R15        2.62401   0.00074   0.00000   0.00075   0.00075   2.62476
   R16        2.04833  -0.00010   0.00000  -0.00022  -0.00022   2.04811
   R17        2.57003  -0.10459   0.00000  -0.16511  -0.16511   2.40492
   R18        2.57003  -0.10459   0.00000  -0.18023  -0.18023   2.38979
    A1        1.95844   0.00025   0.00000   0.00121   0.00121   1.95965
    A2        2.14455  -0.00031   0.00000  -0.00090  -0.00089   2.14366
    A3        2.08097  -0.00136   0.00000  -0.00189  -0.00188   2.07909
    A4        2.05767   0.00167   0.00000   0.00278   0.00277   2.06044
    A5        2.06051  -0.00158   0.00000  -0.00299  -0.00299   2.05753
    A6        2.05365   0.00156   0.00000   0.00288   0.00288   2.05653
    A7        2.16901   0.00002   0.00000   0.00011   0.00011   2.16912
    A8        2.00394   0.00134   0.00000   0.00273   0.00273   2.00667
    A9        2.10619   0.00040   0.00000   0.00054   0.00054   2.10673
   A10        2.12462   0.00106   0.00000   0.00086   0.00086   2.12548
   A11        2.05237  -0.00146   0.00000  -0.00141  -0.00141   2.05096
   A12        2.13477   0.00145   0.00000   0.00022   0.00021   2.13498
   A13        2.06066  -0.00273   0.00000  -0.00529  -0.00527   2.05539
   A14        2.08775   0.00128   0.00000   0.00507   0.00506   2.09282
   A15        2.13840   0.00241   0.00000   0.00636   0.00632   2.14472
   A16        2.07095  -0.00842   0.00000  -0.02432  -0.02439   2.04656
   A17        2.07384   0.00600   0.00000   0.01797   0.01789   2.09173
   A18        2.08618   0.00177   0.00000   0.00444   0.00443   2.09061
   A19        2.06377  -0.00027   0.00000  -0.00206  -0.00205   2.06172
   A20        2.13323  -0.00149   0.00000  -0.00237  -0.00238   2.13085
   A21        2.12125  -0.00214   0.00000  -0.00266  -0.00266   2.11859
   A22        2.07426   0.00094   0.00000   0.00109   0.00109   2.07535
   A23        2.08768   0.00120   0.00000   0.00157   0.00157   2.08925
   A24        1.91063   0.03959   0.00000   0.06840   0.05909   1.96972
   A25        1.91063   0.03966   0.00000   0.08503   0.07579   1.98643
   A26        1.91063   0.03138   0.00000   0.12298   0.10949   2.02012
    D1        3.13137   0.00002   0.00000  -0.00092  -0.00092   3.13045
    D2       -0.00815   0.00002   0.00000  -0.00099  -0.00099  -0.00914
    D3        3.08140  -0.00002   0.00000  -0.00309  -0.00308   3.07831
    D4       -0.06242  -0.00002   0.00000  -0.00300  -0.00300  -0.06542
    D5       -0.05901  -0.00002   0.00000  -0.00346  -0.00346  -0.06247
    D6        3.08036  -0.00002   0.00000  -0.00337  -0.00338   3.07698
    D7       -0.00720  -0.00001   0.00000   0.00170   0.00169  -0.00551
    D8        3.13909  -0.00001   0.00000   0.00320   0.00323  -3.14087
    D9        3.13323  -0.00001   0.00000   0.00207   0.00206   3.13529
   D10       -0.00367  -0.00001   0.00000   0.00356   0.00359  -0.00007
   D11       -3.13810   0.00000   0.00000   0.00165   0.00168  -3.13642
   D12        0.00285   0.00000   0.00000   0.00176   0.00174   0.00459
   D13        0.00462   0.00000   0.00000   0.00130   0.00133   0.00594
   D14       -3.13762   0.00000   0.00000   0.00141   0.00139  -3.13623
   D15        3.11202  -0.00001   0.00000  -0.00191  -0.00191   3.11011
   D16       -0.02736   0.00000   0.00000  -0.00199  -0.00199  -0.02934
   D17        3.14061   0.00001   0.00000  -0.00230  -0.00238   3.13823
   D18        0.00082   0.00000   0.00000  -0.00792  -0.00794  -0.00712
   D19        0.00357   0.00000   0.00000  -0.00085  -0.00089   0.00268
   D20       -3.13621  -0.00001   0.00000  -0.00647  -0.00646   3.14052
   D21        0.00125   0.00001   0.00000   0.00771   0.00772   0.00897
   D22       -3.14102   0.00002   0.00000   0.02872   0.02851  -3.11250
   D23       -3.13858   0.00000   0.00000   0.00225   0.00230  -3.13628
   D24        0.00233   0.00000   0.00000   0.02326   0.02310   0.02543
   D25        3.14018   0.00000   0.00000  -0.00028  -0.00021   3.13998
   D26       -0.00034  -0.00001   0.00000  -0.00307  -0.00305  -0.00339
   D27       -0.00073   0.00000   0.00000  -0.02130  -0.02150  -0.02223
   D28       -3.14125  -0.00001   0.00000  -0.02410  -0.02435   3.11758
   D29        1.04685   0.04348   0.00000   0.30169   0.30624   1.35309
   D30       -1.04754  -0.04348   0.00000   0.05712   0.05266  -0.99489
   D31       -2.09539   0.04349   0.00000   0.32191   0.32637  -1.76903
   D32        2.09340  -0.04348   0.00000   0.07734   0.07279   2.16619
   D33       -0.00268   0.00001   0.00000  -0.00156  -0.00162  -0.00430
   D34        3.13956   0.00001   0.00000  -0.00168  -0.00168   3.13788
   D35        3.14001  -0.00001   0.00000  -0.00445  -0.00453   3.13547
   D36       -0.00093   0.00000   0.00000  -0.00456  -0.00460  -0.00553
         Item               Value     Threshold  Converged?
 Maximum Force            0.104594     0.000015     NO 
 RMS     Force            0.020569     0.000010     NO 
 Maximum Displacement     0.493874     0.000060     NO 
 RMS     Displacement     0.078204     0.000040     NO 
 Predicted change in Energy=-6.016610D-02
 GradGradGradGradGradGradGradGradGradGradGradGradGradGradGradGradGradGrad

                          Input orientation:                          
 ---------------------------------------------------------------------
 Center     Atomic      Atomic             Coordinates (Angstroms)
 Number     Number       Type             X           Y           Z
 ---------------------------------------------------------------------
      1          8           0        8.673602    7.482590    5.561278
      2          1           0        9.488382    7.188400    5.978618
      3          6           0        6.243186    6.984148    5.171483
      4          5           0        7.641107    6.622860    5.781681
      5          8           0        7.891274    5.501488    6.523256
      6          1           0        7.130427    4.939276    6.675821
      7          6           0        5.131370    6.140509    5.270826
      8          1           0        5.204392    5.184483    5.781162
      9          6           0        3.902437    6.482087    4.721003
     10          1           0        3.037604    5.834984    4.789968
     11          6           0        3.803218    7.698931    4.071055
     12          6           0        4.869719    8.570319    3.941444
     13          1           0        4.736082    9.510158    3.420863
     14          6           0        6.088705    8.200215    4.494899
     15          1           0        6.942270    8.862080    4.405356
     16          7           0        2.485436    8.066714    3.525015
     17          8           0        1.677977    8.479252    4.417991
     18          8           0        2.016999    7.221818    2.708931
 ---------------------------------------------------------------------
                    Distance matrix (angstroms):
                    1          2          3          4          5
     1  O    0.000000
     2  H    0.961555   0.000000
     3  C    2.511434   3.350296   0.000000
     4  B    1.361527   1.941917   1.567499   0.000000
     5  O    2.337136   2.386013   2.596491   1.367477   0.000000
     6  H    3.176797   3.332357   2.689188   1.973509   0.958251
     7  C    3.799072   4.536806   1.399190   2.606227   3.097419
     8  H    4.167141   4.733629   2.165548   2.829578   2.805446
     9  C    4.946825   5.769164   2.436002   3.888767   4.485589
    10  H    5.922330   6.697549   3.426644   4.774567   5.164651
    11  C    5.097863   6.018349   2.770433   4.337461   5.249214
    12  C    4.275107   5.233720   2.432149   3.854823   5.021282
    13  H    4.918991   5.875119   3.422975   4.727486   5.970722
    14  C    2.886839   3.844866   1.400160   2.560041   3.827089
    15  H    2.497330   3.429146   2.145296   2.719696   4.084077
    16  N    6.540716   7.472138   4.243052   5.810181   6.692751
    17  O    7.158156   8.068722   4.862532   6.392555   7.204462
    18  O    7.246672   8.155583   4.897072   6.436703   7.212193
                    6          7          8          9         10
     6  H    0.000000
     7  C    2.722720   0.000000
     8  H    2.137791   1.086169   0.000000
     9  C    4.076947   1.388976   2.121981   0.000000
    10  H    4.594555   2.169890   2.469937   1.082329   0.000000
    11  C    5.046862   2.373207   3.348164   1.383107   2.139462
    12  C    5.076622   2.782030   3.867875   2.429827   3.399809
    13  H    6.100869   3.864343   4.949929   3.399197   4.273896
    14  C    4.058981   2.400196   3.395751   2.789776   3.871770
    15  H    4.536386   3.381618   4.293924   3.873575   4.955568
    16  N    6.425293   3.709324   4.559625   2.439123   2.624046
    17  O    6.881746   4.257107   5.014911   3.004780   2.996515
    18  O    6.862461   4.175145   4.873276   2.854911   2.701048
                   11         12         13         14         15
    11  C    0.000000
    12  C    1.383308   0.000000
    13  H    2.138581   1.082664   0.000000
    14  C    2.377894   1.388963   2.167739   0.000000
    15  H    3.364271   2.143783   2.501299   1.083815   0.000000
    16  N    1.473083   2.472212   2.675777   3.733905   4.612047
    17  O    2.290396   3.228406   3.377727   4.420214   5.278209
    18  O    2.296432   3.387559   3.624467   4.552553   5.461375
                   16         17         18
    16  N    0.000000
    17  O    1.272629   0.000000
    18  O    1.264625   2.148712   0.000000
 Symmetry turned off by external request.
 Stoichiometry    C6H6BNO4
 Framework group  C1[X(C6H6BNO4)]
 Deg. of freedom    48
 Full point group                 C1      NOp   1
 Rotational constants (GHZ):           2.8580364           0.4420160           0.4049480
 Standard basis: 6-311+G(d,p) (5D, 7F)
   300 basis functions,   480 primitive gaussians,   312 cartesian basis functions
    43 alpha electrons       43 beta electrons
       nuclear repulsion energy       639.0488110281 Hartrees.
 NAtoms=   18 NActive=   18 NUniq=   18 SFac= 1.00D+00 NAtFMM=   60 NAOKFM=F Big=F
 Integral buffers will be    131072 words long.
 Raffenetti 2 integral format.
 Two-electron integral symmetry is turned off.
 One-electron integrals computed using PRISM.
 NBasis=   300 RedAO= T EigKep=  1.93D-06  NBF=   300
 NBsUse=   300 1.00D-06 EigRej= -1.00D+00 NBFU=   300
 Initial guess from the checkpoint file:  "4-no2-phboh2-opt-freq.chk"
 B after Tr=    -0.252896   -0.017852    0.342412
         Rot=    0.999918    0.010131   -0.003105    0.007166 Ang=   1.47 deg.
 ExpMin= 3.15D-02 ExpMax= 8.59D+03 ExpMxC= 1.30D+03 IAcc=3 IRadAn=         5 AccDes= 0.00D+00
 Harris functional with IExCor= 1009 and IRadAn=       5 diagonalized for initial guess.
 HarFok:  IExCor= 1009 AccDes= 0.00D+00 IRadAn=         5 IDoV= 1 UseB2=F ITyADJ=14
 ICtDFT=  3500011 ScaDFX=  1.000000  1.000000  1.000000  1.000000
 FoFCou: FMM=F IPFlag=           0 FMFlag=      100000 FMFlg1=           0
         NFxFlg=           0 DoJE=T BraDBF=F KetDBF=T FulRan=T
         wScrn=  0.000000 ICntrl=       500 IOpCl=  0 I1Cent=   200000004 NGrid=           0
         NMat0=    1 NMatS0=      1 NMatT0=    0 NMatD0=    1 NMtDS0=    0 NMtDT0=    0
 Symmetry not used in FoFCou.
 Requested convergence on RMS density matrix=1.00D-08 within 128 cycles.
 Requested convergence on MAX density matrix=1.00D-06.
 Requested convergence on             energy=1.00D-06.
 Level shift goal  0.100 maximum shift  0.100.
 No special actions if energy rises.
 Dynamic level shift is on during FON iterations.
 SCF Done:  E(RM062X) =  -612.661529961     A.U. after   19 cycles
            NFock= 19  Conv=0.93D-08     -V/T= 2.0036
 Calling FoFJK, ICntrl=      2127 FMM=F ISym2X=0 I1Cent= 0 IOpClX= 0 NMat=1 NMatS=1 NMatT=0.
 -------------------------------------------------------------------
 Center     Atomic                   Forces (Hartrees/Bohr)
 Number     Number              X              Y              Z
 -------------------------------------------------------------------
      1        8          -0.001593531   -0.000401745   -0.000217856
      2        1           0.000203138    0.000052946    0.000004167
      3        6          -0.002546401    0.002209237   -0.001901699
      4        5           0.003810421   -0.000891228    0.001609017
      5        8          -0.001162164    0.001112913   -0.000954500
      6        1           0.000182717   -0.000424364    0.000311455
      7        6          -0.001079249    0.000633078   -0.000458418
      8        1          -0.000479833    0.000146730   -0.000216383
      9        6          -0.002171453   -0.002780687   -0.000042764
     10        1          -0.000017926   -0.000375870   -0.000034276
     11        6           0.023403467    0.024692691   -0.012651171
     12        6          -0.001941840   -0.001070123    0.000748835
     13        1           0.001109147    0.000343385    0.000249039
     14        6           0.002323257    0.000079123    0.000598913
     15        1           0.000001623   -0.000110251    0.000012679
     16        7          -0.101267280   -0.102768691    0.059564960
     17        8           0.045592701    0.025394368   -0.044367049
     18        8           0.035633207    0.054158487   -0.002254950
 -------------------------------------------------------------------
 Cartesian Forces:  Max     0.102768691 RMS     0.025330674

 GradGradGradGradGradGradGradGradGradGradGradGradGradGradGradGradGradGrad
 Berny optimization.
 Using GEDIIS/GDIIS optimizer.
 FormGI is forming the generalized inverse of G from B-inverse, IUseBI=4.
 Internal  Forces:  Max     0.051825673 RMS     0.012861136
 Search for a local minimum.
 Step number   2 out of a maximum of   90
 All quantities printed in internal units (Hartrees-Bohrs-Radians)
 Mixed Optimization -- RFO/linear search
 Update second derivatives using D2CorX and points    1    2
 DE= -5.76D-02 DEPred=-6.02D-02 R= 9.57D-01
 TightC=F SS=  1.41D+00  RLast= 5.41D-01 DXNew= 5.0454D-01 1.6245D+00
 Trust test= 9.57D-01 RLast= 5.41D-01 DXMaxT set to 5.05D-01
 ITU=  1  0
 Use linear search instead of GDIIS.
     Eigenvalues ---   -0.00344   0.00044   0.00986   0.01247   0.01516
     Eigenvalues ---    0.01698   0.01777   0.01993   0.02129   0.02316
     Eigenvalues ---    0.02640   0.02687   0.02817   0.03928   0.08837
     Eigenvalues ---    0.09992   0.10361   0.11003   0.11207   0.11349
     Eigenvalues ---    0.11996   0.12617   0.15883   0.16929   0.17426
     Eigenvalues ---    0.18359   0.18442   0.18904   0.19618   0.20004
     Eigenvalues ---    0.25249   0.27539   0.29410   0.35692   0.36537
     Eigenvalues ---    0.36729   0.36906   0.39270   0.41698   0.42545
     Eigenvalues ---    0.44766   0.48415   0.48556   0.49201   0.50124
     Eigenvalues ---    0.52756   0.55247   0.56325
 RFO step:  Lambda=-3.75118337D-02 EMin=-3.44146111D-03
 Quartic linear search produced a step of  0.94297.
 Iteration  1 RMS(Cart)=  0.06277711 RMS(Int)=  0.05752167
 Iteration  2 RMS(Cart)=  0.04696499 RMS(Int)=  0.02359483
 Iteration  3 RMS(Cart)=  0.02665103 RMS(Int)=  0.01232103
 Iteration  4 RMS(Cart)=  0.00194676 RMS(Int)=  0.01218237
 Iteration  5 RMS(Cart)=  0.00008302 RMS(Int)=  0.01218219
 Iteration  6 RMS(Cart)=  0.00000546 RMS(Int)=  0.01218219
 Iteration  7 RMS(Cart)=  0.00000036 RMS(Int)=  0.01218219
 Variable       Old X    -DE/DX   Delta X   Delta X   Delta X     New X
                                 (Linear)    (Quad)   (Total)
    R1        1.81707   0.00016   0.00022   0.00007   0.00029   1.81737
    R2        2.57291  -0.00123  -0.00187  -0.00108  -0.00295   2.56996
    R3        2.96214   0.00171   0.00374   0.00364   0.00737   2.96952
    R4        2.64409   0.00090   0.00050  -0.00207  -0.00160   2.64248
    R5        2.64592  -0.00129  -0.00153   0.00189   0.00033   2.64625
    R6        2.58416  -0.00110  -0.00198  -0.00164  -0.00362   2.58053
    R7        1.81083   0.00015   0.00010  -0.00006   0.00004   1.81088
    R8        2.05256  -0.00026  -0.00049  -0.00014  -0.00063   2.05193
    R9        2.62478  -0.00177  -0.00109   0.00231   0.00122   2.62601
   R10        2.04531   0.00024  -0.00021  -0.00003  -0.00024   2.04507
   R11        2.61369   0.00061  -0.00117   0.00021  -0.00092   2.61277
   R12        2.61407  -0.00009  -0.00155   0.00299   0.00148   2.61555
   R13        2.78372   0.00733   0.00549  -0.02319  -0.01770   2.76602
   R14        2.04594   0.00004   0.00004   0.00055   0.00059   2.04653
   R15        2.62476   0.00037   0.00071  -0.00207  -0.00137   2.62339
   R16        2.04811  -0.00007  -0.00020  -0.00019  -0.00040   2.04772
   R17        2.40492  -0.05183  -0.15569  -0.06843  -0.22412   2.18080
   R18        2.38979  -0.04793  -0.16995   0.03336  -0.13659   2.25320
    A1        1.95965   0.00026   0.00114   0.00173   0.00287   1.96252
    A2        2.14366  -0.00030  -0.00084  -0.00103  -0.00185   2.14180
    A3        2.07909  -0.00088  -0.00177  -0.00164  -0.00340   2.07569
    A4        2.06044   0.00118   0.00262   0.00267   0.00525   2.06569
    A5        2.05753  -0.00111  -0.00282  -0.00270  -0.00552   2.05201
    A6        2.05653   0.00110   0.00271   0.00255   0.00526   2.06180
    A7        2.16912   0.00000   0.00010   0.00015   0.00025   2.16937
    A8        2.00667   0.00097   0.00258   0.00324   0.00582   2.01249
    A9        2.10673   0.00025   0.00051   0.00024   0.00075   2.10748
   A10        2.12548   0.00047   0.00081  -0.00177  -0.00097   2.12451
   A11        2.05096  -0.00072  -0.00133   0.00154   0.00022   2.05118
   A12        2.13498   0.00059   0.00020  -0.00413  -0.00399   2.13099
   A13        2.05539  -0.00165  -0.00497  -0.00003  -0.00497   2.05042
   A14        2.09282   0.00106   0.00477   0.00422   0.00894   2.10175
   A15        2.14472   0.00149   0.00596   0.00068   0.00649   2.15121
   A16        2.04656  -0.00530  -0.02300  -0.00455  -0.02784   2.01872
   A17        2.09173   0.00381   0.01687   0.00484   0.02141   2.11315
   A18        2.09061   0.00133   0.00418   0.00340   0.00753   2.09814
   A19        2.06172  -0.00025  -0.00193  -0.00059  -0.00246   2.05926
   A20        2.13085  -0.00108  -0.00225  -0.00279  -0.00508   2.12577
   A21        2.11859  -0.00125  -0.00251  -0.00081  -0.00332   2.11527
   A22        2.07535   0.00055   0.00103  -0.00009   0.00094   2.07629
   A23        2.08925   0.00070   0.00148   0.00090   0.00238   2.09162
   A24        1.96972   0.02225   0.05572   0.09489   0.08907   2.05879
   A25        1.98643   0.02134   0.07147   0.02292   0.03277   2.01920
   A26        2.02012   0.02420   0.10324   0.11693   0.15638   2.17650
    D1        3.13045   0.00002  -0.00087   0.00293   0.00206   3.13251
    D2       -0.00914   0.00001  -0.00094   0.00307   0.00213  -0.00701
    D3        3.07831  -0.00004  -0.00291   0.00748   0.00457   3.08288
    D4       -0.06542  -0.00003  -0.00283   0.00733   0.00450  -0.06092
    D5       -0.06247  -0.00003  -0.00326   0.00927   0.00601  -0.05647
    D6        3.07698  -0.00002  -0.00318   0.00912   0.00594   3.08292
    D7       -0.00551  -0.00002   0.00159  -0.00533  -0.00372  -0.00922
    D8       -3.14087   0.00005   0.00304  -0.00703  -0.00401   3.13831
    D9        3.13529  -0.00004   0.00194  -0.00711  -0.00515   3.13014
   D10       -0.00007   0.00003   0.00339  -0.00881  -0.00544  -0.00552
   D11       -3.13642   0.00003   0.00158  -0.00376  -0.00220  -3.13862
   D12        0.00459  -0.00001   0.00164  -0.00520  -0.00353   0.00106
   D13        0.00594   0.00005   0.00125  -0.00205  -0.00082   0.00512
   D14       -3.13623   0.00001   0.00131  -0.00349  -0.00215  -3.13839
   D15        3.11011   0.00000  -0.00180   0.00537   0.00356   3.11367
   D16       -0.02934  -0.00001  -0.00187   0.00552   0.00364  -0.02570
   D17        3.13823  -0.00011  -0.00224   0.00214   0.00000   3.13823
   D18       -0.00712  -0.00009  -0.00749   0.01892   0.01146   0.00434
   D19        0.00268  -0.00005  -0.00084   0.00049  -0.00029   0.00240
   D20        3.14052  -0.00002  -0.00609   0.01728   0.01117  -3.13150
   D21        0.00897   0.00008   0.00728  -0.01904  -0.01178  -0.00281
   D22       -3.11250   0.00005   0.02689  -0.07477  -0.04767   3.12302
   D23       -3.13628   0.00010   0.00217  -0.00269  -0.00055  -3.13684
   D24        0.02543   0.00007   0.02178  -0.05843  -0.03644  -0.01101
   D25        3.13998   0.00003  -0.00019   0.00173   0.00146   3.14144
   D26       -0.00339   0.00000  -0.00287   0.00876   0.00586   0.00247
   D27       -0.02223  -0.00004  -0.02028   0.05875   0.03867   0.01644
   D28        3.11758  -0.00008  -0.02296   0.06577   0.04308  -3.12253
   D29        1.35309   0.04148   0.28877  -0.31824  -0.02207   1.33101
   D30       -0.99489  -0.03966   0.04966  -0.61508  -0.57288  -1.56776
   D31       -1.76903   0.04148   0.30776  -0.37216  -0.05695  -1.82597
   D32        2.16619  -0.03966   0.06864  -0.66899  -0.60775   1.55844
   D33       -0.00430  -0.00006  -0.00153   0.00216   0.00068  -0.00362
   D34        3.13788  -0.00002  -0.00159   0.00361   0.00203   3.13991
   D35        3.13547  -0.00010  -0.00428   0.00936   0.00517   3.14064
   D36       -0.00553  -0.00005  -0.00434   0.01081   0.00651   0.00098
         Item               Value     Threshold  Converged?
 Maximum Force            0.051826     0.000015     NO 
 RMS     Force            0.012861     0.000010     NO 
 Maximum Displacement     0.706094     0.000060     NO 
 RMS     Displacement     0.125644     0.000040     NO 
 Predicted change in Energy=-4.980624D-02
 GradGradGradGradGradGradGradGradGradGradGradGradGradGradGradGradGradGrad

                          Input orientation:                          
 ---------------------------------------------------------------------
 Center     Atomic      Atomic             Coordinates (Angstroms)
 Number     Number       Type             X           Y           Z
 ---------------------------------------------------------------------
      1          8           0        8.668354    7.478751    5.504755
      2          1           0        9.497560    7.194206    5.900146
      3          6           0        6.230730    6.975706    5.185298
      4          5           0        7.647042    6.619357    5.765281
      5          8           0        7.915189    5.508319    6.512572
      6          1           0        7.162047    4.943515    6.691635
      7          6           0        5.122048    6.135728    5.328897
      8          1           0        5.208261    5.186707    5.849437
      9          6           0        3.877583    6.473240    4.810781
     10          1           0        3.016348    5.826387    4.915745
     11          6           0        3.771731    7.676208    4.137505
     12          6           0        4.835125    8.544990    3.963969
     13          1           0        4.696709    9.475516    3.427495
     14          6           0        6.066209    8.181633    4.492756
     15          1           0        6.919567    8.838636    4.373063
     16          7           0        2.449883    7.980691    3.587530
     17          8           0        1.628917    8.335254    4.316968
     18          8           0        2.250885    7.595467    2.476817
 ---------------------------------------------------------------------
                    Distance matrix (angstroms):
                    1          2          3          4          5
     1  O    0.000000
     2  H    0.961708   0.000000
     3  C    2.509405   3.351258   0.000000
     4  B    1.359966   1.942436   1.571402   0.000000
     5  O    2.337852   2.391899   2.598516   1.365560   0.000000
     6  H    3.178846   3.338665   2.695589   1.975297   0.958274
     7  C    3.796171   4.537819   1.398342   2.607666   3.097800
     8  H    4.164674   4.736107   2.164957   2.829703   2.805466
     9  C    4.944101   5.769805   2.435167   3.891175   4.486583
    10  H    5.917973   6.696722   3.424303   4.774290   5.162332
    11  C    5.087757   6.010353   2.763195   4.334123   5.244895
    12  C    4.266677   5.226060   2.429405   3.854823   5.020313
    13  H    4.906735   5.862299   3.419378   4.725183   5.967828
    14  C    2.879122   3.837959   1.400336   2.561066   3.826878
    15  H    2.487623   3.417920   2.145863   2.718950   4.081638
    16  N    6.526643   7.458988   4.225833   5.797093   6.673685
    17  O    7.190140   8.107034   4.876377   6.423375   7.233910
    18  O    7.096896   8.024618   4.853776   6.394161   7.261394
                    6          7          8          9         10
     6  H    0.000000
     7  C    2.727640   0.000000
     8  H    2.141430   1.085833   0.000000
     9  C    4.082325   1.389623   2.122422   0.000000
    10  H    4.595658   2.168032   2.466871   1.082203   0.000000
    11  C    5.048310   2.369779   3.345436   1.382620   2.144319
    12  C    5.081865   2.783864   3.869403   2.434364   3.406557
    13  H    6.105042   3.866579   4.951906   3.405600   4.284233
    14  C    4.064645   2.403393   3.397975   2.794607   3.876565
    15  H    4.539442   3.383845   4.294744   3.878191   4.960168
    16  N    6.408151   3.684660   4.531139   2.409788   2.593466
    17  O    6.910750   4.250163   5.007346   2.960987   2.928808
    18  O    6.994073   4.302183   5.091440   3.058256   3.108689
                   11         12         13         14         15
    11  C    0.000000
    12  C    1.384089   0.000000
    13  H    2.144110   1.082978   0.000000
    14  C    2.376191   1.388240   2.164358   0.000000
    15  H    3.363866   2.144408   2.498162   1.083605   0.000000
    16  N    1.463716   2.479822   2.703394   3.733312   4.618572
    17  O    2.249045   3.232394   3.391564   4.443429   5.314840
    18  O    2.253303   3.129139   3.228069   4.354801   5.190165
                   16         17         18
    16  N    0.000000
    17  O    1.154028   0.000000
    18  O    1.192343   2.078529   0.000000
 Symmetry turned off by external request.
 Stoichiometry    C6H6BNO4
 Framework group  C1[X(C6H6BNO4)]
 Deg. of freedom    48
 Full point group                 C1      NOp   1
 Rotational constants (GHZ):           2.9329254           0.4434588           0.4061417
 Standard basis: 6-311+G(d,p) (5D, 7F)
   300 basis functions,   480 primitive gaussians,   312 cartesian basis functions
    43 alpha electrons       43 beta electrons
       nuclear repulsion energy       644.3689822074 Hartrees.
 NAtoms=   18 NActive=   18 NUniq=   18 SFac= 1.00D+00 NAtFMM=   60 NAOKFM=F Big=F
 Integral buffers will be    131072 words long.
 Raffenetti 2 integral format.
 Two-electron integral symmetry is turned off.
 One-electron integrals computed using PRISM.
 NBasis=   300 RedAO= T EigKep=  1.99D-06  NBF=   300
 NBsUse=   300 1.00D-06 EigRej= -1.00D+00 NBFU=   300
 Initial guess from the checkpoint file:  "4-no2-phboh2-opt-freq.chk"
 B after Tr=     0.280247    0.234890   -0.629095
         Rot=    0.999823   -0.016379    0.008245   -0.004274 Ang=  -2.16 deg.
 ExpMin= 3.15D-02 ExpMax= 8.59D+03 ExpMxC= 1.30D+03 IAcc=3 IRadAn=         5 AccDes= 0.00D+00
 Harris functional with IExCor= 1009 and IRadAn=       5 diagonalized for initial guess.
 HarFok:  IExCor= 1009 AccDes= 0.00D+00 IRadAn=         5 IDoV= 1 UseB2=F ITyADJ=14
 ICtDFT=  3500011 ScaDFX=  1.000000  1.000000  1.000000  1.000000
 FoFCou: FMM=F IPFlag=           0 FMFlag=      100000 FMFlg1=           0
         NFxFlg=           0 DoJE=T BraDBF=F KetDBF=T FulRan=T
         wScrn=  0.000000 ICntrl=       500 IOpCl=  0 I1Cent=   200000004 NGrid=           0
         NMat0=    1 NMatS0=      1 NMatT0=    0 NMatD0=    1 NMtDS0=    0 NMtDT0=    0
 Symmetry not used in FoFCou.
 Requested convergence on RMS density matrix=1.00D-08 within 128 cycles.
 Requested convergence on MAX density matrix=1.00D-06.
 Requested convergence on             energy=1.00D-06.
 Level shift goal  0.100 maximum shift  0.100.
 No special actions if energy rises.
 Dynamic level shift is on during FON iterations.
 SCF Done:  E(RM062X) =  -612.694665705     A.U. after   17 cycles
            NFock= 17  Conv=0.95D-08     -V/T= 2.0027
 Calling FoFJK, ICntrl=      2127 FMM=F ISym2X=0 I1Cent= 0 IOpClX= 0 NMat=1 NMatS=1 NMatT=0.
 -------------------------------------------------------------------
 Center     Atomic                   Forces (Hartrees/Bohr)
 Number     Number              X              Y              Z
 -------------------------------------------------------------------
      1        8           0.000187938    0.000084684    0.000015565
      2        1           0.000009502    0.000054655   -0.000042227
      3        6           0.000057377    0.000435730   -0.000309220
      4        5          -0.000106206   -0.000081076   -0.000042263
      5        8          -0.000130526   -0.000075879    0.000062801
      6        1           0.000044087   -0.000011950    0.000005722
      7        6          -0.000823178   -0.001125942    0.000042043
      8        1           0.000215783   -0.000090274    0.000147731
      9        6           0.003804482    0.000473667    0.001910652
     10        1          -0.000343360   -0.000377434    0.000328022
     11        6           0.013758208    0.005319913    0.002936757
     12        6          -0.002227103   -0.000263773   -0.001162605
     13        1           0.000392524    0.000010281   -0.000306650
     14        6           0.000339052   -0.000349095    0.000937789
     15        1          -0.000030458    0.000044996    0.000004593
     16        7           0.049833799   -0.048050864   -0.024732257
     17        8          -0.066866900    0.046227366    0.068534901
     18        8           0.001884977   -0.002225003   -0.048331354
 -------------------------------------------------------------------
 Cartesian Forces:  Max     0.068534901 RMS     0.018909469

 GradGradGradGradGradGradGradGradGradGradGradGradGradGradGradGradGradGrad
 Berny optimization.
 Using GEDIIS/GDIIS optimizer.
 FormGI is forming the generalized inverse of G from B-inverse, IUseBI=4.
 Internal  Forces:  Max     0.105091754 RMS     0.013370432
 Search for a local minimum.
 Step number   3 out of a maximum of   90
 All quantities printed in internal units (Hartrees-Bohrs-Radians)
 Mixed Optimization -- RFO/linear search
 Update second derivatives using D2CorX and points    2    3
 DE= -3.31D-02 DEPred=-4.98D-02 R= 6.65D-01
 TightC=F SS=  1.41D+00  RLast= 9.02D-01 DXNew= 8.4853D-01 2.7056D+00
 Trust test= 6.65D-01 RLast= 9.02D-01 DXMaxT set to 8.49D-01
 ITU=  1  1  0
 Use linear search instead of GDIIS.
     Eigenvalues ---   -0.00348   0.00044   0.00986   0.01247   0.01516
     Eigenvalues ---    0.01698   0.01777   0.01993   0.02129   0.02316
     Eigenvalues ---    0.02640   0.02687   0.02817   0.03928   0.07421
     Eigenvalues ---    0.10358   0.10986   0.11207   0.11344   0.11993
     Eigenvalues ---    0.12064   0.12616   0.15882   0.16934   0.17419
     Eigenvalues ---    0.18357   0.18903   0.19458   0.19612   0.20168
     Eigenvalues ---    0.25322   0.27495   0.29402   0.35689   0.36537
     Eigenvalues ---    0.36722   0.36901   0.39234   0.39802   0.42524
     Eigenvalues ---    0.43466   0.48422   0.48556   0.49196   0.52680
     Eigenvalues ---    0.55247   0.56325   0.80645
 RFO step:  Lambda=-2.66814845D-02 EMin=-3.48494221D-03
 Quartic linear search produced a step of -0.11081.
 Iteration  1 RMS(Cart)=  0.06499120 RMS(Int)=  0.06552921
 Iteration  2 RMS(Cart)=  0.05670924 RMS(Int)=  0.02856481
 Iteration  3 RMS(Cart)=  0.03493299 RMS(Int)=  0.00301669
 Iteration  4 RMS(Cart)=  0.00276902 RMS(Int)=  0.00086979
 Iteration  5 RMS(Cart)=  0.00000430 RMS(Int)=  0.00086978
 Iteration  6 RMS(Cart)=  0.00000000 RMS(Int)=  0.00086978
 Variable       Old X    -DE/DX   Delta X   Delta X   Delta X     New X
                                 (Linear)    (Quad)   (Total)
    R1        1.81737  -0.00003  -0.00003   0.00010   0.00007   1.81744
    R2        2.56996   0.00025   0.00033  -0.00134  -0.00101   2.56895
    R3        2.96952   0.00001  -0.00082   0.00421   0.00340   2.97292
    R4        2.64248  -0.00004   0.00018  -0.00018  -0.00006   2.64242
    R5        2.64625  -0.00025  -0.00004  -0.00068  -0.00076   2.64549
    R6        2.58053   0.00009   0.00040  -0.00196  -0.00155   2.57898
    R7        1.81088  -0.00003   0.00000  -0.00004  -0.00005   1.81083
    R8        2.05193   0.00017   0.00007  -0.00017  -0.00010   2.05183
    R9        2.62601  -0.00046  -0.00014  -0.00045  -0.00059   2.62542
   R10        2.04507   0.00053   0.00003   0.00091   0.00094   2.04600
   R11        2.61277   0.00213   0.00010   0.00196   0.00210   2.61488
   R12        2.61555  -0.00108  -0.00016  -0.00003  -0.00014   2.61541
   R13        2.76602   0.01454   0.00196  -0.00550  -0.00354   2.76248
   R14        2.04653   0.00011  -0.00007   0.00030   0.00023   2.04677
   R15        2.62339   0.00083   0.00015   0.00067   0.00083   2.62423
   R16        2.04772   0.00000   0.00004  -0.00020  -0.00015   2.04756
   R17        2.18080   0.10509   0.02484   0.18895   0.21379   2.39459
   R18        2.25320   0.04543   0.01514  -0.09444  -0.07930   2.17390
    A1        1.96252   0.00012  -0.00032   0.00219   0.00187   1.96439
    A2        2.14180  -0.00007   0.00021  -0.00102  -0.00078   2.14103
    A3        2.07569   0.00006   0.00038  -0.00191  -0.00150   2.07419
    A4        2.06569   0.00001  -0.00058   0.00293   0.00228   2.06797
    A5        2.05201   0.00002   0.00061  -0.00304  -0.00243   2.04959
    A6        2.06180   0.00008  -0.00058   0.00309   0.00250   2.06430
    A7        2.16937  -0.00010  -0.00003  -0.00005  -0.00008   2.16930
    A8        2.01249   0.00007  -0.00064   0.00370   0.00306   2.01554
    A9        2.10748   0.00010  -0.00008   0.00074   0.00066   2.10814
   A10        2.12451  -0.00065   0.00011  -0.00249  -0.00242   2.12209
   A11        2.05118   0.00055  -0.00002   0.00180   0.00178   2.05296
   A12        2.13099  -0.00081   0.00044  -0.00294  -0.00255   2.12844
   A13        2.05042   0.00115   0.00055   0.00031   0.00092   2.05133
   A14        2.10175  -0.00035  -0.00099   0.00257   0.00153   2.10328
   A15        2.15121  -0.00119  -0.00072   0.00127   0.00029   2.15150
   A16        2.01872   0.00463   0.00308   0.00394   0.00654   2.02527
   A17        2.11315  -0.00344  -0.00237  -0.00601  -0.00882   2.10432
   A18        2.09814   0.00026  -0.00083   0.00562   0.00472   2.10287
   A19        2.05926   0.00016   0.00027  -0.00163  -0.00126   2.05801
   A20        2.12577  -0.00042   0.00056  -0.00400  -0.00349   2.12228
   A21        2.11527   0.00052   0.00037  -0.00044  -0.00007   2.11520
   A22        2.07629  -0.00021  -0.00010   0.00030   0.00020   2.07649
   A23        2.09162  -0.00031  -0.00026   0.00014  -0.00013   2.09149
   A24        2.05879  -0.00310  -0.00987  -0.00906  -0.02339   2.03540
   A25        2.01920   0.00006  -0.00363   0.05133   0.04324   2.06244
   A26        2.17650   0.00964  -0.01733   0.03063   0.00884   2.18534
    D1        3.13251   0.00000  -0.00023   0.00222   0.00199   3.13450
    D2       -0.00701   0.00002  -0.00024   0.00241   0.00217  -0.00484
    D3        3.08288   0.00001  -0.00051   0.00690   0.00639   3.08927
    D4       -0.06092   0.00000  -0.00050   0.00670   0.00620  -0.05472
    D5       -0.05647  -0.00002  -0.00067   0.00728   0.00661  -0.04985
    D6        3.08292  -0.00004  -0.00066   0.00708   0.00642   3.08934
    D7       -0.00922   0.00006   0.00041  -0.00259  -0.00220  -0.01142
    D8        3.13831  -0.00008   0.00044  -0.01126  -0.01079   3.12752
    D9        3.13014   0.00009   0.00057  -0.00297  -0.00242   3.12771
   D10       -0.00552  -0.00005   0.00060  -0.01164  -0.01101  -0.01653
   D11       -3.13862  -0.00009   0.00024  -0.00503  -0.00476   3.13980
   D12        0.00106   0.00003   0.00039  -0.00340  -0.00304  -0.00198
   D13        0.00512  -0.00012   0.00009  -0.00467  -0.00455   0.00057
   D14       -3.13839   0.00000   0.00024  -0.00304  -0.00282  -3.14121
   D15        3.11367   0.00000  -0.00039   0.00423   0.00384   3.11751
   D16       -0.02570   0.00002  -0.00040   0.00444   0.00404  -0.02166
   D17        3.13823   0.00021   0.00000   0.01340   0.01330  -3.13165
   D18        0.00434   0.00016  -0.00127   0.02364   0.02232   0.02666
   D19        0.00240   0.00007   0.00003   0.00500   0.00498   0.00738
   D20       -3.13150   0.00002  -0.00124   0.01524   0.01400  -3.11750
   D21       -0.00281  -0.00010   0.00131  -0.02051  -0.01919  -0.02200
   D22        3.12302   0.00013   0.00528  -0.07778  -0.07278   3.05024
   D23       -3.13684  -0.00015   0.00006  -0.01043  -0.01029   3.13605
   D24       -0.01101   0.00009   0.00404  -0.06769  -0.06388  -0.07489
   D25        3.14144  -0.00005  -0.00016  -0.00084  -0.00096   3.14048
   D26        0.00247  -0.00006  -0.00065   0.00506   0.00442   0.00690
   D27        0.01644  -0.00037  -0.00429   0.05933   0.05482   0.07126
   D28       -3.12253  -0.00038  -0.00477   0.06524   0.06020  -3.06232
   D29        1.33101   0.01332   0.00245  -0.31813  -0.31571   1.01530
   D30       -1.56776  -0.01549   0.06348  -0.62518  -0.56171  -2.12947
   D31       -1.82597   0.01357   0.00631  -0.37398  -0.36765  -2.19363
   D32        1.55844  -0.01524   0.06735  -0.68102  -0.61365   0.94479
   D33       -0.00362   0.00017  -0.00008   0.00793   0.00780   0.00419
   D34        3.13991   0.00005  -0.00022   0.00628   0.00606  -3.13722
   D35        3.14064   0.00016  -0.00057   0.01392   0.01323  -3.12931
   D36        0.00098   0.00004  -0.00072   0.01227   0.01149   0.01248
         Item               Value     Threshold  Converged?
 Maximum Force            0.105092     0.000015     NO 
 RMS     Force            0.013370     0.000010     NO 
 Maximum Displacement     0.919170     0.000060     NO 
 RMS     Displacement     0.143903     0.000040     NO 
 Predicted change in Energy=-1.737395D-02
 GradGradGradGradGradGradGradGradGradGradGradGradGradGradGradGradGradGrad

                          Input orientation:                          
 ---------------------------------------------------------------------
 Center     Atomic      Atomic             Coordinates (Angstroms)
 Number     Number       Type             X           Y           Z
 ---------------------------------------------------------------------
      1          8           0        8.671114    7.467395    5.469192
      2          1           0        9.505878    7.188984    5.857279
      3          6           0        6.228163    6.969578    5.190337
      4          5           0        7.651211    6.617323    5.761132
      5          8           0        7.922501    5.521156    6.527505
      6          1           0        7.171065    4.960590    6.725868
      7          6           0        5.116072    6.141476    5.371372
      8          1           0        5.202984    5.204887    5.913743
      9          6           0        3.865574    6.482741    4.871396
     10          1           0        2.998675    5.850412    5.015903
     11          6           0        3.763131    7.662391    4.155401
     12          6           0        4.831382    8.515958    3.941474
     13          1           0        4.700364    9.428330    3.372685
     14          6           0        6.065198    8.158138    4.468825
     15          1           0        6.921779    8.805570    4.323479
     16          7           0        2.462728    7.931182    3.544104
     17          8           0        1.467256    7.982328    4.326483
     18          8           0        2.419112    8.081871    2.404472
 ---------------------------------------------------------------------
                    Distance matrix (angstroms):
                    1          2          3          4          5
     1  O    0.000000
     2  H    0.961746   0.000000
     3  C    2.508703   3.352069   0.000000
     4  B    1.359431   1.943150   1.573200   0.000000
     5  O    2.338438   2.395399   2.599370   1.364737   0.000000
     6  H    3.180165   3.342386   2.698695   1.976365   0.958248
     7  C    3.795517   4.539138   1.398311   2.608692   3.097980
     8  H    4.164672   4.738642   2.165281   2.830562   2.805798
     9  C    4.941672   5.769210   2.433220   3.891117   4.486201
    10  H    5.915798   6.696520   3.422361   4.773846   5.161144
    11  C    5.084522   6.008298   2.761786   4.334478   5.245199
    12  C    4.263443   5.223225   2.429392   3.855827   5.021096
    13  H    4.899742   5.854985   3.418112   4.723764   5.966663
    14  C    2.875527   3.834755   1.399933   2.561173   3.826409
    15  H    2.482649   3.412252   2.145556   2.717967   4.080018
    16  N    6.516526   7.450342   4.220576   5.793254   6.672183
    17  O    7.312080   8.221446   4.943495   6.493285   7.250659
    18  O    6.989822   7.933560   4.848413   6.386464   7.337844
                    6          7          8          9         10
     6  H    0.000000
     7  C    2.729862   0.000000
     8  H    2.143028   1.085780   0.000000
     9  C    4.084395   1.389311   2.123220   0.000000
    10  H    4.596150   2.166667   2.466130   1.082699   0.000000
[...]
 6,-0.130067,-0.1085334,0.0691744,0.0110704,0.0458835,-0.1096844,-0.038
 9457,-0.1451434,-0.055041,0.0657534,0.0241502,-0.0307864,0.0309643,-0.
 0322941,0.1098983,-0.0332933,0.1058175,0.0470753,-0.0111913,0.09262,-0
 .0428516,-0.0848561,-0.1032922,0.0004223,0.0781919,0.0555118,-0.085775
 ,0.089905,-0.0301063,0.004024,-0.0238677,0.1073683,0.022733,-0.0000121
 ,0.0194613,0.1395454,-0.2396055,0.1271078,-0.1527419,0.0986932,0.10199
 78,-0.0111826,-0.1388455,-0.0070655,0.0173232,-0.0344007,-0.1643995,0.
 1139664,0.0680527,-0.0634291,0.0152286,-0.0266273,-0.0426523,-0.046944
 7,0.1190582,0.0038292,-0.0103234,-0.0028986,0.0931208,0.0356941,-0.006
 4642,0.0374395,0.1245965,0.030936,0.1993903,-0.0966263,0.0446702,-0.07
 88567,-0.0142885,-0.00166,0.0211043,-0.1295414,0.0523879,-0.0454555,0.
 0094443,-0.0477908,0.0669901,0.0279506,0.0069848,0.0295455,0.1110658,1
 .8009006,0.1321755,0.3030847,0.1341933,1.3600527,-0.6647949,0.3013645,
 -0.6652389,0.7460581,-1.1249824,-0.3779539,0.0204103,-0.2433484,-0.668
 2136,0.2024857,-0.0633142,0.1689252,-0.3724068,-0.6578574,0.1685869,-0
 .2089567,0.031235,-0.9253628,0.4349822,-0.1221961,0.4689424,-0.5742593
 \Polar=132.2769789,-0.2715702,95.6383739,19.1078049,-26.9880099,77.353
 7401\Quadrupole=13.8912143,-25.0396215,11.1484071,15.3924241,18.372702
 9,4.8399675\PG=C01 [X(C6H6B1N1O4)]\NImag=0\\0.68222390,0.03605295,0.24
 158369,0.11846040,-0.15853954,0.19246490,-0.40192716,0.10295318,-0.173
 48581,0.42992365,0.13140597,-0.06553967,0.07205838,-0.11073479,0.05935
 959,-0.19678014,0.06555404,-0.11276191,0.18696430,-0.06498815,0.106901
 89,-0.02901784,-0.00143820,-0.00693835,-0.00058036,-0.00197611,0.00041
 272,0.61932445,-0.01653918,0.00757993,-0.00273244,-0.00328903,0.000132
 95,0.00278840,0.06733617,0.50224406,0.00467496,0.00042849,0.00958469,0
 .00138142,0.00313798,0.00232541,0.07768386,-0.22401124,0.29798713,-0.2
 5057460,-0.10939375,0.04383466,-0.03169555,-0.02141863,0.00935195,-0.1
 7329192,0.02492524,-0.04284331,0.55429797,-0.13372800,-0.15128497,0.05
 183231,0.00603717,0.00807711,-0.00252469,0.02371195,-0.07720382,0.0137
 7188,0.07450278,0.44555722,0.06388672,0.05749209,-0.08172050,-0.012820
 20,-0.00863716,0.00748839,-0.04296994,0.01358612,-0.08496523,0.0288371
 8,-0.22089825,0.32925824,0.00656949,-0.03097718,0.02308131,0.00413387,
 0.00235656,-0.00017171,0.00159313,0.01923110,-0.01898420,-0.09549001,0
 .02280483,-0.02837419,0.45731066,-0.01991545,-0.03272180,0.03244858,0.
 00436309,-0.00178103,-0.00038804,0.00355301,-0.00132457,0.01559079,0.0
 5321516,-0.21009246,0.14431959,0.18519221,0.40373739,0.01454067,0.0302
 9025,-0.00858180,-0.00189264,-0.00093548,-0.00312984,-0.00597748,0.018
 96053,0.00056955,-0.05343835,0.13943002,-0.16702664,-0.07974604,-0.276
 62925,0.24222033,0.00235362,0.00193342,-0.00219263,0.00017793,0.000382
 93,-0.00010732,-0.00118491,0.00086695,-0.00024614,0.00428081,0.0025014
 0,-0.00086465,-0.36823900,-0.22891858,0.12931999,0.36447381,0.00065805
 ,0.00025787,0.00488687,0.00055061,-0.00043453,-0.00013067,0.00041851,0
 .00021260,-0.00247299,-0.02290784,-0.01535644,0.00660654,-0.20086206,-
 0.15707695,0.08867424,0.22278061,0.17087905,-0.00146975,0.00489991,0.0
 0205007,-0.00016728,-0.00011742,-0.00073963,-0.00020309,-0.00222437,-0
 .00066322,0.02034027,0.01002351,-0.00727838,0.10631971,0.08495468,-0.0
 6215035,-0.12416056,-0.09729252,0.06796317,-0.00206932,0.00053901,-0.0
 0121575,-0.00060962,-0.00021386,0.00028723,-0.25263903,-0.07279726,-0.
 00288714,-0.01613323,-0.00935806,0.00119000,0.00020297,-0.00192145,0.0
 0195288,0.00076929,0.00026191,0.00014933,0.64491376,0.00450421,-0.0001
 7786,0.00157550,0.00061012,0.00033250,-0.00008764,-0.12231362,-0.17340
 614,0.04189361,-0.00100882,0.01089170,-0.00588513,0.00012293,-0.004486
 71,0.00246543,0.00324481,0.00064791,0.00102252,0.04603569,0.56783898,-
 0.00348306,0.00076382,-0.00046303,-0.00047824,-0.00022842,0.00029598,0
 .02913890,0.05337364,-0.08773078,-0.00432126,-0.00752315,0.00622863,0.
 00056685,0.00147373,-0.00149400,-0.00195899,-0.00031034,-0.00076552,0.
 09767052,-0.26068832,0.32529320,0.00028626,0.00036278,-0.00026420,-0.0
 0005722,-0.00008580,-0.00001626,0.00727603,-0.01926568,0.01363374,0.00
 018486,-0.00098461,0.00141480,-0.00000989,0.00083853,-0.00015802,-0.00
 205522,-0.00004550,-0.00164067,-0.05969505,0.01344369,-0.01395362,0.06
 156611,-0.00007794,0.00058785,-0.00035773,-0.00015136,-0.00000398,0.00
 010536,0.00270687,-0.01067904,0.00843277,0.00144318,-0.00291819,0.0005
 9655,0.00089286,0.00150866,-0.00115244,-0.00142275,0.00093744,-0.00037
 311,0.01674986,-0.24735352,0.13518505,-0.01617454,0.25823604,0.0002644
 8,-0.00012226,0.00030171,0.00003744,0.00014339,0.00011931,0.00017869,0
 .00314991,-0.00037469,-0.00013173,-0.00021091,-0.00294124,-0.00052276,
 -0.00111347,0.00004943,-0.00057120,0.00032292,0.00085768,-0.01645223,0
 .13345692,-0.12601847,0.01998035,-0.15004686,0.12428958,-0.00190085,0.
 00056231,-0.00056655,-0.00010814,-0.00010222,0.00013318,-0.05322762,-0
 .03920265,0.01034795,-0.00117435,-0.00618628,0.00214174,0.00107013,0.0
 0069686,-0.00034674,-0.00035726,0.00037353,-0.00016211,-0.30331255,0.0
 7051823,-0.10482221,0.00067753,-0.00124507,-0.00013692,0.72257979,-0.0
 0041228,0.00039450,-0.00083077,-0.00035245,-0.00014480,-0.00007321,0.0
 0524519,0.04834372,-0.02570467,-0.00215630,0.00012575,0.00355408,-0.00
 010793,0.00102590,-0.00066612,-0.00071329,-0.00043077,-0.00055395,0.00
 534156,-0.12284213,0.04090424,0.02511464,-0.00321352,0.01127607,0.1017
 1459,0.55549793,-0.00037706,-0.00050230,-0.00019770,0.00023815,-0.0002
 1585,-0.00026195,-0.01822856,-0.03600675,0.02568848,-0.00039555,0.0023
 6755,0.00456356,0.00021685,-0.00053302,0.00029234,0.00075018,-0.000045
 62,-0.00007538,-0.06324951,0.05693618,-0.11254709,-0.01679946,0.004464
 49,-0.00276570,0.08216439,-0.24492419,0.30660469,-0.00039768,0.0000454
 2,-0.00008793,-0.00005197,-0.00003704,0.00002979,-0.00294033,0.0011866
 1,-0.00340757,0.00005258,-0.00082776,0.00054307,-0.00001635,0.00021816
 ,-0.00015115,-0.00009201,-0.00005266,-0.00000509,-0.01360784,-0.015479
 04,0.00531310,0.00069689,0.00058822,0.00090346,-0.24586776,-0.13909456
 ,0.03685112,0.25863178,0.00021891,-0.00005161,0.00000427,0.00003104,0.
 00000813,-0.00001759,0.00165384,0.00224984,0.00375972,0.00008549,0.000
 41130,-0.00022021,-0.00000340,-0.00010426,0.00008005,0.00003219,0.0000
 4474,-0.00000036,0.00818232,0.00967640,-0.00129150,0.00019147,-0.00073
 405,-0.00226828,-0.13727534,-0.15051498,0.03622708,0.14831546,0.151379
 11,-0.00021131,-0.00002278,-0.00013710,-0.00003807,-0.00002590,-0.0000
 0653,-0.00357959,0.00370596,0.00420928,-0.00001261,-0.00045359,0.00030
 336,-0.00003282,0.00017138,-0.00008604,-0.00004606,-0.00003973,0.00001
 718,-0.00984776,-0.00725143,0.00659451,0.00112846,-0.00210519,-0.00275
 356,0.03569163,0.03562451,-0.05309865,-0.03638030,-0.04192306,0.044481
 87,-0.00260461,-0.00043601,-0.00012115,0.00029090,-0.00002446,-0.00002
 165,-0.01570563,-0.02293389,0.01137584,0.00479252,-0.00238814,0.002728
 05,-0.00078111,0.00103662,-0.00086087,0.00012981,-0.00026729,0.0002719
 1,0.02156579,0.02841564,-0.01286041,-0.00417645,0.00082013,-0.00352923
 ,-0.11747470,0.02160414,-0.03036718,0.00634333,-0.02155533,0.01420220,
 0.57910779,-0.00067576,0.00017948,-0.00014254,0.00003793,-0.00013407,-
 0.00002521,-0.02495246,-0.05171129,0.02614720,-0.00183780,-0.00256227,
 0.00112808,0.00099298,-0.00054174,0.00034166,0.00003452,0.00048541,-0.
 00004990,0.08228671,0.00133122,0.01935677,-0.00019022,0.00336495,0.002
 61226,-0.04040537,-0.25961224,0.12314052,0.00083547,-0.00920396,0.0091
 7573,0.11878451,0.58414028,-0.00019903,-0.00020606,0.00004454,0.000074
 94,0.00002283,-0.00003714,0.01230793,0.02623760,-0.01564626,0.00220045
 ,0.00106063,-0.00001508,-0.00060508,0.00033310,-0.00066498,-0.00018345
 ,-0.00014456,0.00031881,-0.04702180,0.00608586,-0.01570573,-0.00276510
 ,0.00275425,0.00505657,0.00920898,0.13881172,-0.13684600,-0.00012950,0
 .00343676,0.00246539,0.03895811,-0.27141522,0.29548753,0.00170661,0.00
 011344,0.00014735,-0.00007704,0.00024027,-0.00002159,0.02651307,0.0727
 0445,-0.04216510,0.00060188,0.00200954,-0.00257188,-0.00032963,0.00024
 658,0.00017917,-0.00000690,-0.00024522,0.00004717,-0.07747718,-0.01249
 971,-0.01047389,-0.00132590,-0.00029649,0.00004785,0.04808325,-0.05889
 129,0.04906808,0.00131686,0.00131051,-0.00202631,-0.23292352,-0.079251
 05,0.00582570,0.65850638,0.00001601,0.00078486,-0.00074848,0.00008644,
 0.00010580,-0.00002178,0.03047492,0.00514278,0.00856743,-0.00237112,-0
 .00237099,0.00513192,0.00186121,-0.00047150,0.00022064,-0.00012553,0.0
 0024798,-0.00027644,-0.01664791,-0.00418542,-0.00296865,-0.00017702,0.
 00006241,-0.00072491,-0.01092960,-0.03294886,0.01992238,0.00105945,-0.
 00192174,0.00506960,-0.14145479,-0.19353436,0.05689121,0.04339673,0.58
 847717,0.00020213,-0.00073171,0.00019556,-0.00008561,-0.00000219,0.000
 03878,-0.01467017,0.01980601,-0.00905802,0.00030963,0.00599413,0.00248
 995,-0.00092697,-0.00058807,-0.00120228,0.00013768,-0.00008954,0.00028
 000,-0.00787943,-0.00196196,-0.00314131,0.00000897,-0.00073002,-0.0005
 1774,0.01823412,0.00800143,0.00189251,-0.00178511,0.00516459,0.0019376
 6,0.04557012,0.07224554,-0.08520648,0.10110236,-0.28131929,0.33640652,
 -0.00020629,-0.00021592,0.00009533,-0.00000174,0.00000569,-0.00001456,
 -0.00429601,0.00053316,-0.00323159,0.00080166,0.00093462,-0.00038112,-
 0.00046876,0.00019126,-0.00026783,-0.00003495,-0.00006832,0.00005457,-
 0.00140283,-0.00020339,0.00002276,0.00003527,0.00014765,0.00015508,-0.
 00414556,-0.00346209,-0.00021392,0.00048188,-0.00118896,0.00071928,0.0
 0869658,-0.01951915,0.01345839,-0.06019776,0.02657483,-0.02178008,0.05
 868912,0.00002270,0.00002262,0.00000527,0.00000306,0.00001771,0.000015
 76,-0.00014430,0.00297873,0.00293048,-0.00013926,-0.00011610,-0.000043
 93,0.00003726,-0.00004957,-0.00002754,0.00001647,0.00000803,0.00000678
 ,0.00007999,0.00026461,-0.00077155,0.00015106,-0.00030339,-0.00040252,
 -0.00367215,0.00119813,0.00201586,0.00021419,-0.00028824,0.00062475,0.
 00291949,-0.01059139,0.01052229,0.02464775,-0.25319832,0.14243562,-0.0
 2756651,0.26176449,-0.00002785,-0.00004649,0.00004764,-0.00001348,0.00
 001764,0.00003088,-0.00283010,0.00296820,0.00500835,0.00028352,0.00020
 995,-0.00021660,-0.00009717,-0.00000204,-0.00013840,-0.00000587,0.0000
 0095,0.00001739,-0.00012390,-0.00080892,-0.00045838,0.00015649,-0.0003
 8985,-0.00070832,-0.00006453,0.00209126,0.00439652,-0.00017650,0.00028
 725,0.00037805,-0.00094689,0.00496435,0.00135281,-0.02046195,0.1429309
 6,-0.13656449,0.02522771,-0.15689766,0.13368427,-0.00353767,-0.0008236
 8,-0.00007905,0.00068790,0.00019560,-0.00006639,-0.12802480,-0.0142425
 1,-0.00602827,0.00447840,0.01947008,-0.01235996,-0.00576471,0.00195664
 ,-0.00361014,-0.00031170,-0.00068286,0.00062026,0.05156038,-0.01601831
 ,0.02184273,-0.00367953,-0.00409202,-0.00014317,-0.02768971,0.03058510
 ,-0.02590270,-0.00018332,0.00088522,-0.00025737,-0.05879796,-0.0418664
 4,0.01247540,-0.30179594,0.07366472,-0.10566442,0.00297589,-0.00108810
 ,0.00007636,0.71122325,-0.00167481,-0.00229916,0.00107590,-0.00040043,
 -0.00032884,0.00004448,0.03666758,-0.24060225,0.12399975,0.00826581,0.
 00007390,0.00373056,-0.00179479,0.00123356,-0.00068718,-0.00028859,-0.
 00039037,0.00015724,-0.05851264,-0.03436751,0.01006209,-0.00377651,0.0
 0131691,0.00301076,0.02761008,-0.03220910,0.02601973,0.00105428,-0.000
 50369,-0.00015847,0.01027679,0.04791678,-0.02840636,0.00883217,-0.1277
 5861,0.04369589,0.02263149,0.00072038,0.00831667,0.09271384,0.53589238
 ,0.00058121,0.00113667,-0.00096121,0.00043537,0.00003678,-0.00020589,-
 0.03914091,0.11154035,-0.14436862,-0.00553934,0.00683749,-0.00253189,-
 0.00038408,0.00028904,0.00054937,-0.00009225,0.00005914,0.00010206,0.0
 4933325,0.02041632,0.00289316,-0.00034533,0.00284795,0.00564906,-0.024
 00050,0.02676732,-0.02539348,-0.00044525,-0.00013204,-0.00100615,-0.02
 108705,-0.04154533,0.02068731,-0.06384655,0.05993959,-0.11594213,-0.01
 495788,0.00239667,-0.00040017,0.07963428,-0.23063510,0.31007247,-0.001
 52546,0.00041541,-0.00057702,-0.00005318,-0.00002531,0.00003430,0.0068
 1222,0.00265261,-0.00064230,0.00087278,0.00120043,0.00003522,-0.000094
 85,-0.00042702,0.00022720,0.00004744,-0.00002009,0.00004752,0.00144986
 ,0.00083356,-0.00193885,0.00034695,0.00030365,-0.00011660,-0.00008945,
 0.00089240,-0.00033396,-0.00009503,0.00004704,0.00016662,-0.00246233,0
 .00152444,-0.00345812,-0.01635448,-0.01619324,0.00524561,0.00069195,0.
 00063674,0.00085020,-0.24035400,-0.13490061,0.03786423,0.25179120,0.00
 023737,0.00050151,-0.00046616,0.00022007,0.00033405,-0.00024554,-0.020
 03094,-0.01085236,0.00361644,-0.00173770,-0.00241908,-0.00047096,0.000
 28673,0.00069302,-0.00014797,-0.00012929,0.00000632,-0.00009952,0.0006
 4451,-0.00152337,0.00587564,-0.00106182,-0.00060616,0.00018946,0.00086
 125,-0.00058634,-0.00012405,0.00005020,-0.00021858,-0.00042958,0.00113
 414,0.00236246,0.00379776,0.00878945,0.00895718,-0.00065496,0.00012181
 ,-0.00088100,-0.00228664,-0.13421122,-0.14978863,0.03688893,0.14404760
 ,0.15349553,-0.00029066,-0.00041646,0.00000177,-0.00011031,-0.00028819
 ,-0.00005668,0.01368799,0.00911357,-0.00008002,0.00206920,0.00015828,-
 0.00244525,-0.00037441,-0.00007674,0.00048176,0.00008212,-0.00006727,0
 .00004300,-0.00185156,0.00587401,0.00308163,0.00076075,0.00053819,-0.0
 0003699,-0.00037479,-0.00007568,-0.00111538,0.00017300,-0.00041935,-0.
 00058574,-0.00325529,0.00379665,0.00454628,-0.01076817,-0.00677164,0.0
 0632385,0.00118330,-0.00214290,-0.00280064,0.03760966,0.03666258,-0.05
 605021,-0.03774959,-0.04541191,0.04841544,0.00345852,0.00071464,0.0001
 4141,-0.00043658,-0.00000733,-0.00001877,0.00195108,-0.00239366,0.0030
 3534,-0.00777829,0.00162629,-0.00275137,0.00217950,-0.00218960,0.00210
 532,-0.00022281,0.00078090,-0.00068473,0.00837945,-0.00217265,0.000903
 88,0.00086991,-0.00078876,0.00057555,-0.00874411,0.02195905,-0.0143205
 3,-0.00088195,-0.00286761,0.00265886,-0.12584979,-0.00083657,-0.014390
 95,-0.03785450,0.00353255,-0.00977459,0.00021751,0.00106835,0.00049702
 ,0.00056161,-0.00760736,0.00223561,-0.00024953,0.00051126,-0.00050046,
 0.73735652,-0.00134470,-0.00036030,0.00000431,0.00014007,0.00006786,-0
 .00001601,-0.00202998,-0.00405860,-0.00054319,0.00227112,-0.00090124,0
 .00045877,-0.00047917,0.00036983,-0.00037264,0.00005536,-0.00007609,0.
 00011434,-0.00133838,-0.00357731,0.00895606,0.00137341,0.00002003,0.00
 070701,0.02939729,-0.00213610,0.00395103,0.00010956,-0.00344062,-0.000
 62519,-0.00091687,-0.10043139,0.02230530,-0.00370458,0.01448651,-0.014
 94017,-0.00193035,-0.00404590,-0.00071826,-0.00890379,0.00055547,0.004
 65285,-0.00126659,0.00064950,-0.00042629,0.16720695,0.80720251,0.00174
 724,0.00040001,0.00005572,-0.00021399,-0.00001054,0.00001933,0.0027460
 9,-0.00072155,-0.00293245,-0.00306598,0.00033796,-0.00199112,0.0008009
 7,-0.00073169,0.00073898,-0.00009820,0.00028057,-0.00019489,0.00015233
 ,0.00884158,0.00555032,-0.00081774,0.00014843,0.00026625,-0.01919392,0
 .00209435,-0.01339050,0.00083323,-0.00136031,-0.00343145,-0.01420785,0
 .02231143,-0.08281096,-0.00503414,-0.01311737,-0.00020420,0.00235441,-
 0.00001083,-0.00385061,0.00307840,0.00507026,0.00875085,0.00063368,0.0
 0001728,0.00062537,0.02337207,-0.33151850,0.43159509,-0.00162625,-0.00
 015520,-0.00019696,0.00022086,0.00001500,0.00000897,-0.00174473,-0.000
 45585,-0.00028889,0.00329854,-0.00102376,0.00151480,-0.00103204,0.0011
 8691,-0.00114793,0.00010924,-0.00039687,0.00035297,-0.00047796,-0.0001
 0927,0.00019555,-0.00022668,0.00028924,-0.00024459,-0.00262630,-0.0035
 4587,0.00081017,-0.00349873,0.00151674,-0.00177795,-0.05941608,-0.0320
 0776,0.00170097,-0.00158901,0.00685070,-0.00571343,0.00129863,0.000132
 94,0.00008887,-0.00322310,-0.00011723,-0.00029403,-0.00070827,0.000346
 59,-0.00031810,-0.43015694,-0.21526659,0.04727560,0.48072221,0.0001177
 6,0.00014033,-0.00004650,0.00001218,-0.00002451,0.00000427,0.00086703,
 0.00080957,0.00008408,0.00018029,-0.00009633,0.00013006,-0.00008179,0.
 00027597,-0.00016461,-0.00007033,-0.00007736,0.00000746,-0.00090942,0.
 00142949,-0.00193220,-0.00019710,0.00005042,-0.00006483,0.00399816,-0.
 00530360,0.00630822,0.00271842,0.00177844,-0.00050683,-0.01507685,0.01
 074441,-0.00083155,-0.00027278,0.00115226,0.00160056,0.00148091,0.0007
 6391,0.00015875,0.00057734,0.00033251,-0.00106770,0.00003637,-0.000093
 58,-0.00015205,-0.21885869,-0.27093526,0.07053088,0.29388012,0.3421092
 1,-0.00048790,-0.00009818,0.00001418,0.00005418,0.00000947,-0.00000660
 ,-0.00110093,-0.00025957,0.00043334,0.00069525,-0.00020415,0.00026446,
 -0.00022154,0.00016779,-0.00009520,0.00007553,-0.00007899,0.00004564,0
 .00075957,-0.00169927,0.00009962,0.00006548,0.00005690,0.00001074,-0.0
 0388995,0.00438623,-0.00083893,-0.00255685,-0.00083800,-0.00021610,-0.
 00913323,-0.00496776,0.01645247,-0.00116220,0.00336182,0.00125312,-0.0
 0072787,-0.00014757,0.00039556,-0.00080679,-0.00126324,-0.00093001,-0.
 00011660,-0.00007576,-0.00032844,0.04962755,0.07136793,-0.10590287,-0.
 07289116,-0.12592480,0.08837334,-0.00121065,-0.00025263,-0.00003506,0.
 00016346,0.00002354,-0.00000408,-0.00081676,0.00168342,-0.00140861,0.0
 0247595,-0.00030247,0.00080173,-0.00083337,0.00067708,-0.00072806,0.00
 016280,-0.00027540,0.00028958,-0.00141689,0.00207595,-0.00136376,-0.00
 071387,0.00030729,-0.00029448,-0.00569234,-0.00372059,0.00008948,0.000
 10965,0.00042042,-0.00035691,-0.00073454,0.03704603,-0.02745786,-0.006
 79616,0.00038164,-0.00253080,-0.00313458,0.00268032,-0.00243192,0.0018
 7501,0.00102091,0.00004921,-0.00002581,-0.00008001,0.00002732,-0.14279
 959,0.03662725,-0.04036223,0.02067660,-0.06840162,0.04181745,0.1387111
 0,0.00113420,0.00040274,-0.00002723,-0.00011688,-0.00004426,0.00000622
 ,0.00025055,0.00014390,0.00037147,-0.00191787,0.00018490,-0.00057872,0
 .00052767,-0.00019373,0.00032042,-0.00018029,0.00011517,-0.00019886,0.
 00157742,-0.00049284,-0.00023690,0.00048322,-0.00027285,0.00008535,0.0
 0328639,0.00335651,0.00099876,-0.00090437,0.00143375,-0.00083017,0.020
 06216,-0.02220226,0.02874445,-0.00712977,-0.00302714,0.00207414,0.0015
 3326,0.00173531,-0.00079612,0.00188039,0.00020630,-0.00042894,0.000242
 62,-0.00003046,0.00010520,0.04032225,-0.43338888,0.23743802,-0.0511398
 4,-0.08305588,0.05620716,-0.00991112,0.53512972,-0.00103106,-0.0002795
 0,0.00006247,0.00011983,0.00002282,-0.00001379,-0.00051707,0.00072564,
 0.00001305,0.00182599,-0.00020897,0.00053532,-0.00054474,0.00031363,-0
 .00033225,0.00016181,-0.00015898,0.00017237,-0.00096603,-0.00018529,-0
 .00171275,-0.00038867,0.00002525,-0.00048363,-0.00436379,-0.00068261,0
 .00309265,0.00047849,-0.00048901,0.00093401,-0.01671543,0.03292577,-0.
 00947908,0.00211408,0.00391301,0.00101869,-0.00169599,-0.00050897,-0.0
 0017387,-0.00041883,-0.00069555,-0.00091452,-0.00017154,0.00002754,-0.
 00001975,-0.04271120,0.23664268,-0.23289286,0.03092514,0.05186678,0.00
 097569,0.03389900,-0.32325424,0.23921825\\-0.00000032,0.00000030,0.000
 00187,-0.00000045,0.00000012,0.00000200,-0.00000013,-0.00000017,0.0000
 0022,-0.00000028,-0.00000031,0.00000051,-0.00000047,-0.00000120,-0.000
 00038,-0.00000048,-0.00000174,-0.00000134,0.00000009,-0.00000074,-0.00
 000122,-0.00000006,-0.00000125,-0.00000209,0.00000018,-0.00000039,-0.0
 0000146,0.00000018,-0.00000087,-0.00000256,0.00000024,0.00000037,-0.00
 000039,0.00000007,0.00000082,0.00000120,0.00000021,0.00000151,0.000001
 97,-0.00000009,0.00000071,0.00000126,-0.00000011,0.00000108,0.00000241
 ,0.00000057,0.00000043,-0.00000071,0.00000041,0.00000009,-0.00000175,0
 .00000044,0.00000123,0.00000047\\\@
 The archive entry for this job was punched.


 YOU KNOW YOU'VE SPOKEN TOO LONG WHEN THE AUDIENCE STOPS LOOKING AT
 THEIR WATCHES AND STARTS SHAKING THEM.
 Job cpu time:       0 days  0 hours 51 minutes 58.8 seconds.
 Elapsed time:       0 days  0 hours  1 minutes 39.9 seconds.
 File lengths (MBytes):  RWF=    162 Int=      0 D2E=      0 Chk=      9 Scr=      1
 Normal termination of Gaussian 16 at Thu Apr 24 11:10:32 2025.
