/home/tahminaafroz
cn011.cluster.local
tahminaafroz
Fri May  2 03:28:22 CDT 2025
 Entering Gaussian System, Link 0=g16
 Initial command:
 /home/apps/g16/l1.exe "/tmp/4-OH-phboh2-opt-freq-thf/Gau-800534.inp" -scrdir="/tmp/4-OH-phboh2-opt-freq-thf/"
 Entering Link 1 = /home/apps/g16/l1.exe PID=    800535.
  
 Copyright (c) 1988-2019, Gaussian, Inc.  All Rights Reserved.
  
 This is part of the Gaussian(R) 16 program.  It is based on
 the Gaussian(R) 09 system (copyright 2009, Gaussian, Inc.),
 the Gaussian(R) 03 system (copyright 2003, Gaussian, Inc.),
 the Gaussian(R) 98 system (copyright 1998, Gaussian, Inc.),
 the Gaussian(R) 94 system (copyright 1995, Gaussian, Inc.),
 the Gaussian 92(TM) system (copyright 1992, Gaussian, Inc.),
 the Gaussian 90(TM) system (copyright 1990, Gaussian, Inc.),
 the Gaussian 88(TM) system (copyright 1988, Gaussian, Inc.),
 the Gaussian 86(TM) system (copyright 1986, Carnegie Mellon
 University), and the Gaussian 82(TM) system (copyright 1983,
 Carnegie Mellon University). Gaussian is a federally registered
 trademark of Gaussian, Inc.
  
 This software contains proprietary and confidential information,
 including trade secrets, belonging to Gaussian, Inc.
  
 This software is provided under written license and may be
 used, copied, transmitted, or stored only in accord with that
 written license.
  
 The following legend is applicable only to US Government
 contracts under FAR:
  
                    RESTRICTED RIGHTS LEGEND
  
 Use, reproduction and disclosure by the US Government is
 subject to restrictions as set forth in subparagraphs (a)
 and (c) of the Commercial Computer Software - Restricted
 Rights clause in FAR 52.227-19.
  
 Gaussian, Inc.
 340 Quinnipiac St., Bldg. 40, Wallingford CT 06492
  
  
 ---------------------------------------------------------------
 Warning -- This program may not be used in any manner that
 competes with the business of Gaussian, Inc. or will provide
 assistance to any competitor of Gaussian, Inc.  The licensee
 of this program is prohibited from giving any competitor of
 Gaussian, Inc. access to this program.  By using this program,
 the user acknowledges that Gaussian, Inc. is engaged in the
 business of creating and licensing software in the field of
 computational chemistry and represents and warrants to the
 licensee that it is not a competitor of Gaussian, Inc. and that
 it will not use this program in any manner prohibited above.
 ---------------------------------------------------------------
  

 Cite this work as:
 Gaussian 16, Revision C.01,
 M. J. Frisch, G. W. Trucks, H. B. Schlegel, G. E. Scuseria, 
 M. A. Robb, J. R. Cheeseman, G. Scalmani, V. Barone, 
 G. A. Petersson, H. Nakatsuji, X. Li, M. Caricato, A. V. Marenich, 
 J. Bloino, B. G. Janesko, R. Gomperts, B. Mennucci, H. P. Hratchian, 
 J. V. Ortiz, A. F. Izmaylov, J. L. Sonnenberg, D. Williams-Young, 
 F. Ding, F. Lipparini, F. Egidi, J. Goings, B. Peng, A. Petrone, 
 T. Henderson, D. Ranasinghe, V. G. Zakrzewski, J. Gao, N. Rega, 
 G. Zheng, W. Liang, M. Hada, M. Ehara, K. Toyota, R. Fukuda, 
 J. Hasegawa, M. Ishida, T. Nakajima, Y. Honda, O. Kitao, H. Nakai, 
 T. Vreven, K. Throssell, J. A. Montgomery, Jr., J. E. Peralta, 
 F. Ogliaro, M. J. Bearpark, J. J. Heyd, E. N. Brothers, K. N. Kudin, 
 V. N. Staroverov, T. A. Keith, R. Kobayashi, J. Normand, 
 K. Raghavachari, A. P. Rendell, J. C. Burant, S. S. Iyengar, 
 J. Tomasi, M. Cossi, J. M. Millam, M. Klene, C. Adamo, R. Cammi, 
 J. W. Ochterski, R. L. Martin, K. Morokuma, O. Farkas, 
 J. B. Foresman, and D. J. Fox, Gaussian, Inc., Wallingford CT, 2019.
 
 ******************************************
 Gaussian 16:  AS64L-G16RevC.01  3-Jul-2019
                 2-May-2025 
 ******************************************
 %mem=20GB
 %nprocshared=32
 Will use up to   32 processors via shared memory.
 %chk=4-OH-phboh2-opt-freq-thf.chk
 ----------------------------------------------------------------------
 # opt=(calcfc,tight) freq 6-311+g(d,p) scrf=(smd,solvent=thf) nosymm s
 cf=(qc,fermi,xqc) geom=connectivity int=ultrafine m062x
 ----------------------------------------------------------------------
 1/7=10,10=4,18=20,19=15,26=6,38=1,57=2/1,3;
 2/9=110,12=2,15=1,17=6,18=5,40=1/2;
 3/5=4,6=6,7=111,11=2,25=1,30=1,70=32201,71=2,72=20,74=-55,75=-5,140=1/1,2,3;
 4//1;
 5/5=2,22=13,38=5,53=20/2;
 8/6=4,10=90,11=11/1;
 11/6=1,8=1,9=11,15=111,16=1,31=1/1,2,10;
 10/6=1,13=1,31=1/2;
 6/7=2,8=2,9=2,10=2,28=1/1;
 7/10=1,25=1,30=1/1,2,3,16;
 1/7=10,10=4,18=20,19=15,26=6/3(2);
 2/9=110,15=1/2;
 99//99;
 2/9=110,15=1/2;
 3/5=4,6=6,7=111,11=2,25=1,30=1,70=32205,71=1,72=20,74=-55,75=-5/1,2,3;
 4/5=5,16=3,69=1/1;
 5/5=2,22=13,38=5,53=20/2;
 7/30=1/1,2,3,16;
 1/7=10,18=20,19=15,26=6/3(-5);
 2/9=110,15=1/2;
 6/7=2,8=2,9=2,10=2,19=2,28=1/1;
 99/9=1/99;
 ------------------------
 4-OH-phboh2-opt-freq-thf
 ------------------------
 Symbolic Z-matrix:
 Charge =  0 Multiplicity = 1
 O                     8.6548    7.53535   5.46573 
 H                     9.45921   7.38902   5.9713 
 C                     6.25058   6.85968   5.17472 
 B                     7.63372   6.73424   5.88717 
 O                     7.89563   5.86914   6.91713 
 H                     7.14478   5.34182   7.19355 
 C                     5.15019   6.052     5.48979 
 H                     5.22898   5.2874    6.25835 
 C                     3.93143   6.18537   4.84361 
 H                     3.08264   5.55918   5.0883 
 C                     3.79036   7.15028   3.84839 
 C                     4.86605   7.96889   3.50926 
 H                     4.75156   8.7187    2.7323 
 C                     6.07774   7.81735   4.16896 
 H                     6.91397   8.45428   3.90325 
 O                     2.5784    7.24683   3.2415 
 H                     2.60023   7.94112   2.57733 
 

 GradGradGradGradGradGradGradGradGradGradGradGradGradGradGradGradGradGrad
 Berny optimization.
 Initialization pass.
                           ----------------------------
                           !    Initial Parameters    !
                           ! (Angstroms and Degrees)  !
 --------------------------                            --------------------------
 ! Name  Definition              Value          Derivative Info.                !
 --------------------------------------------------------------------------------
 ! R1    R(1,2)                  0.9613         calculate D2E/DX2 analytically  !
 ! R2    R(1,4)                  1.3645         calculate D2E/DX2 analytically  !
 ! R3    R(3,4)                  1.5609         calculate D2E/DX2 analytically  !
 ! R4    R(3,7)                  1.4009         calculate D2E/DX2 analytically  !
 ! R5    R(3,14)                 1.3995         calculate D2E/DX2 analytically  !
 ! R6    R(4,5)                  1.3703         calculate D2E/DX2 analytically  !
 ! R7    R(5,6)                  0.9583         calculate D2E/DX2 analytically  !
 ! R8    R(7,8)                  1.087          calculate D2E/DX2 analytically  !
 ! R9    R(7,9)                  1.3859         calculate D2E/DX2 analytically  !
 ! R10   R(9,10)                 1.0828         calculate D2E/DX2 analytically  !
 ! R11   R(9,11)                 1.3933         calculate D2E/DX2 analytically  !
 ! R12   R(11,12)                1.3936         calculate D2E/DX2 analytically  !
 ! R13   R(11,16)                1.3589         calculate D2E/DX2 analytically  !
 ! R14   R(12,13)                1.0858         calculate D2E/DX2 analytically  !
 ! R15   R(12,14)                1.3879         calculate D2E/DX2 analytically  !
 ! R16   R(14,15)                1.0842         calculate D2E/DX2 analytically  !
 ! R17   R(16,17)                0.9611         calculate D2E/DX2 analytically  !
 ! A1    A(2,1,4)              111.9858         calculate D2E/DX2 analytically  !
 ! A2    A(4,3,7)              123.165          calculate D2E/DX2 analytically  !
 ! A3    A(4,3,14)             119.5018         calculate D2E/DX2 analytically  !
 ! A4    A(7,3,14)             117.3331         calculate D2E/DX2 analytically  !
 ! A5    A(1,4,3)              118.3547         calculate D2E/DX2 analytically  !
 ! A6    A(1,4,5)              117.3703         calculate D2E/DX2 analytically  !
 ! A7    A(3,4,5)              124.2749         calculate D2E/DX2 analytically  !
 ! A8    A(4,5,6)              114.4846         calculate D2E/DX2 analytically  !
 ! A9    A(3,7,8)              120.5074         calculate D2E/DX2 analytically  !
 ! A10   A(3,7,9)              122.0333         calculate D2E/DX2 analytically  !
 ! A11   A(8,7,9)              117.459          calculate D2E/DX2 analytically  !
 ! A12   A(7,9,10)             121.8926         calculate D2E/DX2 analytically  !
 ! A13   A(7,9,11)             119.2561         calculate D2E/DX2 analytically  !
 ! A14   A(10,9,11)            118.8512         calculate D2E/DX2 analytically  !
 ! A15   A(9,11,12)            120.1612         calculate D2E/DX2 analytically  !
 ! A16   A(9,11,16)            117.2911         calculate D2E/DX2 analytically  !
 ! A17   A(12,11,16)           122.5477         calculate D2E/DX2 analytically  !
 ! A18   A(11,12,13)           119.8916         calculate D2E/DX2 analytically  !
 ! A19   A(11,12,14)           119.6071         calculate D2E/DX2 analytically  !
 ! A20   A(13,12,14)           120.5013         calculate D2E/DX2 analytically  !
 ! A21   A(3,14,12)            121.6089         calculate D2E/DX2 analytically  !
 ! A22   A(3,14,15)            118.8726         calculate D2E/DX2 analytically  !
 ! A23   A(12,14,15)           119.5185         calculate D2E/DX2 analytically  !
 ! A24   A(11,16,17)           109.8601         calculate D2E/DX2 analytically  !
 ! D1    D(2,1,4,3)            179.4309         calculate D2E/DX2 analytically  !
 ! D2    D(2,1,4,5)             -0.4711         calculate D2E/DX2 analytically  !
 ! D3    D(7,3,4,1)            177.4177         calculate D2E/DX2 analytically  !
 ! D4    D(7,3,4,5)             -2.6876         calculate D2E/DX2 analytically  !
 ! D5    D(14,3,4,1)            -2.5398         calculate D2E/DX2 analytically  !
 ! D6    D(14,3,4,5)           177.3549         calculate D2E/DX2 analytically  !
 ! D7    D(4,3,7,8)             -0.3401         calculate D2E/DX2 analytically  !
 ! D8    D(4,3,7,9)            179.873          calculate D2E/DX2 analytically  !
 ! D9    D(14,3,7,8)           179.6183         calculate D2E/DX2 analytically  !
 ! D10   D(14,3,7,9)            -0.1687         calculate D2E/DX2 analytically  !
 ! D11   D(4,3,14,12)         -179.8348         calculate D2E/DX2 analytically  !
 ! D12   D(4,3,14,15)            0.1153         calculate D2E/DX2 analytically  !
 ! D13   D(7,3,14,12)            0.2053         calculate D2E/DX2 analytically  !
 ! D14   D(7,3,14,15)         -179.8447         calculate D2E/DX2 analytically  !
 ! D15   D(1,4,5,6)            178.6078         calculate D2E/DX2 analytically  !
 ! D16   D(3,4,5,6)             -1.2879         calculate D2E/DX2 analytically  !
 ! D17   D(3,7,9,10)           179.9394         calculate D2E/DX2 analytically  !
 ! D18   D(3,7,9,11)             0.0405         calculate D2E/DX2 analytically  !
 ! D19   D(8,7,9,10)             0.1463         calculate D2E/DX2 analytically  !
 ! D20   D(8,7,9,11)          -179.7527         calculate D2E/DX2 analytically  !
 ! D21   D(7,9,11,12)            0.058          calculate D2E/DX2 analytically  !
 ! D22   D(7,9,11,16)         -179.9771         calculate D2E/DX2 analytically  !
 ! D23   D(10,9,11,12)        -179.8441         calculate D2E/DX2 analytically  !
 ! D24   D(10,9,11,16)           0.1208         calculate D2E/DX2 analytically  !
 ! D25   D(9,11,12,13)         179.9359         calculate D2E/DX2 analytically  !
 ! D26   D(9,11,12,14)          -0.022          calculate D2E/DX2 analytically  !
 ! D27   D(16,11,12,13)         -0.0271         calculate D2E/DX2 analytically  !
 ! D28   D(16,11,12,14)       -179.9849         calculate D2E/DX2 analytically  !
 ! D29   D(9,11,16,17)        -179.9867         calculate D2E/DX2 analytically  !
 ! D30   D(12,11,16,17)         -0.0227         calculate D2E/DX2 analytically  !
 ! D31   D(11,12,14,3)          -0.1141         calculate D2E/DX2 analytically  !
 ! D32   D(11,12,14,15)        179.9362         calculate D2E/DX2 analytically  !
 ! D33   D(13,12,14,3)         179.9283         calculate D2E/DX2 analytically  !
 ! D34   D(13,12,14,15)         -0.0214         calculate D2E/DX2 analytically  !
 --------------------------------------------------------------------------------
 Trust Radius=3.00D-01 FncErr=5.00D-06 GrdErr=5.00D-06 EigMax=2.50D+02 EigMin=1.00D-04
 Number of steps in this run=     85 maximum allowed number of steps=    102.
 GradGradGradGradGradGradGradGradGradGradGradGradGradGradGradGradGradGrad

                          Input orientation:                          
 ---------------------------------------------------------------------
 Center     Atomic      Atomic             Coordinates (Angstroms)
 Number     Number       Type             X           Y           Z
 ---------------------------------------------------------------------
      1          8           0        8.654798    7.535349    5.465733
      2          1           0        9.459212    7.389017    5.971296
      3          6           0        6.250576    6.859679    5.174722
      4          5           0        7.633715    6.734243    5.887171
      5          8           0        7.895634    5.869139    6.917131
      6          1           0        7.144781    5.341821    7.193553
      7          6           0        5.150192    6.051996    5.489793
      8          1           0        5.228981    5.287404    6.258348
      9          6           0        3.931427    6.185374    4.843607
     10          1           0        3.082639    5.559183    5.088303
     11          6           0        3.790355    7.150280    3.848390
     12          6           0        4.866046    7.968887    3.509260
     13          1           0        4.751557    8.718699    2.732304
     14          6           0        6.077741    7.817348    4.168959
     15          1           0        6.913967    8.454280    3.903251
     16          8           0        2.578400    7.246827    3.241498
     17          1           0        2.600226    7.941116    2.577327
 ---------------------------------------------------------------------
                    Distance matrix (angstroms):
                    1          2          3          4          5
     1  O    0.000000
     2  H    0.961295   0.000000
     3  C    2.514259   3.348145   0.000000
     4  B    1.364548   1.941197   1.560894   0.000000
     5  O    2.336481   2.376849   2.592947   1.370337   0.000000
     6  H    3.174441   3.322877   2.679398   1.970921   0.958256
     7  C    3.805677   4.537304   1.400881   2.606004   3.099707
     8  H    4.173454   4.732233   2.165629   2.830876   2.807748
     9  C    4.951738   5.768609   2.437781   3.885514   4.484913
    10  H    5.924242   6.692432   3.425578   4.767730   5.158062
    11  C    5.140708   6.058025   2.810034   4.370484   5.283163
    12  C    4.286069   5.243572   2.433317   3.852116   5.020053
    13  H    4.909913   5.866953   3.415907   4.711484   5.959697
    14  C    2.898684   3.855675   1.399486   2.558598   3.827885
    15  H    2.513220   3.448169   2.144639   2.722591   4.090244
    16  O    6.477120   7.403890   4.167987   5.728747   6.609181
    17  H    6.720519   7.672648   4.608798   6.143909   7.153204
                    6          7          8          9         10
     6  H    0.000000
     7  C    2.717634   0.000000
     8  H    2.132571   1.086962   0.000000
     9  C    4.069333   1.385906   2.119313   0.000000
    10  H    4.580428   2.163061   2.459604   1.082789   0.000000
    11  C    5.070780   2.397830   3.368657   1.393342   2.137717
    12  C    5.066372   2.770870   3.857403   2.415557   3.388302
    13  H    6.085521   3.856677   4.943147   3.398227   4.280019
    14  C    4.051540   2.391948   3.389182   2.779416   3.862012
    15  H    4.535059   3.376238   4.291243   3.863644   4.946212
    16  O    6.332426   3.618918   4.468367   2.350344   2.552075
    17  H    6.979889   4.307384   5.244278   3.160815   3.494471
                   11         12         13         14         15
    11  C    0.000000
    12  C    1.393642   0.000000
    13  H    2.151626   1.085811   0.000000
    14  C    2.404138   1.387938   2.152946   0.000000
    15  H    3.385318   2.141218   2.473267   1.084231   0.000000
    16  O    1.358850   2.413792   2.673630   3.664842   4.548956
    17  H    1.912441   2.450145   2.292788   3.826450   4.542001
                   16         17
    16  O    0.000000
    17  H    0.961060   0.000000
 Symmetry turned off by external request.
 Stoichiometry    C6H7BO3
 Framework group  C1[X(C6H7BO3)]
 Deg. of freedom    45
 Full point group                 C1      NOp   1
 Rotational constants (GHZ):           3.6833071           0.7411320           0.6170901
 Standard basis: 6-311+G(d,p) (5D, 7F)
   262 basis functions,   416 primitive gaussians,   272 cartesian basis functions
    36 alpha electrons       36 beta electrons
       nuclear repulsion energy       476.5444570735 Hartrees.
 NAtoms=   17 NActive=   17 NUniq=   17 SFac= 1.00D+00 NAtFMM=   60 NAOKFM=F Big=F
 Integral buffers will be    131072 words long.
 Raffenetti 2 integral format.
 Two-electron integral symmetry is turned off.
 Force inversion solution in PCM.
 ------------------------------------------------------------------------------
 Polarizable Continuum Model (PCM)
 =================================
 Model                : PCM.
 Atomic radii         : SMD-Coulomb.
 Polarization charges : Total charges.
 Charge compensation  : None.
 Solution method      : Matrix inversion.
 Cavity type          : VdW (van der Waals Surface) (Alpha=1.000).
 Cavity algorithm     : GePol (No added spheres)
                        Default sphere list used, NSphG=   17.
                        Lebedev-Laikov grids with approx.  5.0 points / Ang**2.
                        Smoothing algorithm: York/Karplus (Gamma=1.0000).
                        Polarization charges: spherical gaussians, with
                                              point-specific exponents (IZeta= 3).
                        Self-potential: point-specific (ISelfS= 7).
                        Self-field    : sphere-specific E.n sum rule (ISelfD= 2).
 1st derivatives      : Analytical E(r).r(x)/FMM algorithm (CHGder, D1EAlg=3).
                        Cavity 1st derivative terms included.
 2nd derivatives      : Analytical E(r).r(xy)/FMM algorithm (CHGder, D2EAlg=3).
                        Cavity 2nd derivative terms included.
 Solvent              : TetraHydroFuran, Eps=   7.425700 Eps(inf)=   1.974025
 ------------------------------------------------------------------------------
 Spheres list:
 ISph  on   Nord     Re0    Alpha      Xe            Ye            Ze
    1   O      1    2.2940  1.000      8.654798      7.535349      5.465733
    2   H      2    1.2000  1.000      9.459212      7.389017      5.971296
    3   C      3    1.8500  1.000      6.250576      6.859679      5.174722
    4   B      4    1.8000  1.000      7.633715      6.734243      5.887171
    5   O      5    2.2940  1.000      7.895634      5.869139      6.917131
    6   H      6    1.2000  1.000      7.144781      5.341821      7.193553
    7   C      7    1.8500  1.000      5.150192      6.051996      5.489793
    8   H      8    1.2000  1.000      5.228981      5.287404      6.258348
    9   C      9    1.8500  1.000      3.931427      6.185374      4.843607
   10   H     10    1.2000  1.000      3.082639      5.559183      5.088303
   11   C     11    1.8500  1.000      3.790355      7.150280      3.848390
   12   C     12    1.8500  1.000      4.866046      7.968887      3.509260
   13   H     13    1.2000  1.000      4.751557      8.718699      2.732304
   14   C     14    1.8500  1.000      6.077741      7.817348      4.168959
   15   H     15    1.2000  1.000      6.913967      8.454280      3.903251
   16   O     16    2.2940  1.000      2.578400      7.246827      3.241498
   17   H     17    1.2000  1.000      2.600226      7.941116      2.577327
 ------------------------------------------------------------------------------
 ------------------------------------------------------------------------------
 Atomic radii for non-electrostatic terms: SMD-CDS.
 ------------------------------------------------------------------------------
 Nuclear repulsion after PCM non-electrostatic terms =      476.5397947997 Hartrees.
 One-electron integrals computed using PRISM.
 NBasis=   262 RedAO= T EigKep=  2.28D-06  NBF=   262
 NBsUse=   262 1.00D-06 EigRej= -1.00D+00 NBFU=   262
 ExpMin= 3.15D-02 ExpMax= 8.59D+03 ExpMxC= 1.30D+03 IAcc=3 IRadAn=         5 AccDes= 0.00D+00
 Harris functional with IExCor= 1009 and IRadAn=       5 diagonalized for initial guess.
 HarFok:  IExCor= 1009 AccDes= 0.00D+00 IRadAn=         5 IDoV= 1 UseB2=F ITyADJ=14
 ICtDFT=  3500011 ScaDFX=  1.000000  1.000000  1.000000  1.000000
 FoFCou: FMM=F IPFlag=           0 FMFlag=      100000 FMFlg1=           0
         NFxFlg=           0 DoJE=T BraDBF=F KetDBF=T FulRan=T
         wScrn=  0.000000 ICntrl=       500 IOpCl=  0 I1Cent=   200000004 NGrid=           0
         NMat0=    1 NMatS0=      1 NMatT0=    0 NMatD0=    1 NMtDS0=    0 NMtDT0=    0
 Symmetry not used in FoFCou.
 Requested convergence on RMS density matrix=1.00D-08 within 128 cycles.
 Requested convergence on MAX density matrix=1.00D-06.
 Requested convergence on             energy=1.00D-06.
 Level shift goal  0.100 maximum shift  0.100.
 No special actions if energy rises.
 Dynamic level shift is on during FON iterations.
 Inv3:  Mode=1 IEnd=     7068675.
 Iteration    1 A*A^-1 deviation from unit magnitude is 5.11D-15 for   1534.
 Iteration    1 A*A^-1 deviation from orthogonality  is 2.72D-15 for   1531    678.
 Iteration    1 A^-1*A deviation from unit magnitude is 4.88D-15 for   1534.
 Iteration    1 A^-1*A deviation from orthogonality  is 2.41D-15 for   1530   1405.
 Error on total polarization charges =  0.01820
 SCF Done:  E(RM062X) =  -483.467220812     A.U. after   13 cycles
            NFock= 13  Conv=0.93D-08     -V/T= 2.0035
 SMD-CDS (non-electrostatic) energy       (kcal/mol) =      -2.93
 (included in total energy above)
 DoSCS=F DFT=T ScalE2(SS,OS)=  1.000000  1.000000
 Range of M.O.s used for correlation:     1   262
 NBasis=   262 NAE=    36 NBE=    36 NFC=     0 NFV=     0
 NROrb=    262 NOA=    36 NOB=    36 NVA=   226 NVB=   226

 **** Warning!!: The largest alpha MO coefficient is  0.14371834D+03

 Symmetrizing basis deriv contribution to polar:
 IMax=3 JMax=2 DiffMx= 0.00D+00
 G2DrvN: will do    18 centers at a time, making    1 passes.
 Calling FoFCou, ICntrl=  3107 FMM=F I1Cent=   0 AccDes= 0.00D+00.
 NEqPCM:  Using equilibrium solvation (IEInf=0, Eps=   7.4257, EpsInf=   1.9740)
 G2PCM: DoFxE=T DoFxN=T DoGrad=T DoDP/DQ/DG/TGxP=FFFF NFrqRd=   0 IEInf=0 SqF1=F DoCFld=F IF1Alg=4.
 End of G2Drv F.D. properties file   721 does not exist.
 End of G2Drv F.D. properties file   722 does not exist.
 End of G2Drv F.D. properties file   788 does not exist.
          IDoAtm=11111111111111111
 NEqPCM:  Using equilibrium solvation (IEInf=0, Eps=   7.4257, EpsInf=   1.9740)
          Differentiating once with respect to nuclear coordinates.
 Keep R1 ints in memory in canonical form, NReq=628810612.
          There are    54 degrees of freedom in the 1st order CPHF.  IDoFFX=6 NUNeed=     0.
     48 vectors produced by pass  0 Test12= 1.51D-14 1.85D-09 XBig12= 1.25D-01 1.03D-01.
 AX will form    48 AO Fock derivatives at one time.
     48 vectors produced by pass  1 Test12= 1.51D-14 1.85D-09 XBig12= 7.53D-03 2.92D-02.
     48 vectors produced by pass  2 Test12= 1.51D-14 1.85D-09 XBig12= 2.04D-04 2.85D-03.
     48 vectors produced by pass  3 Test12= 1.51D-14 1.85D-09 XBig12= 1.37D-06 1.98D-04.
     48 vectors produced by pass  4 Test12= 1.51D-14 1.85D-09 XBig12= 8.31D-09 1.22D-05.
     48 vectors produced by pass  5 Test12= 1.51D-14 1.85D-09 XBig12= 4.27D-11 8.87D-07.
     44 vectors produced by pass  6 Test12= 1.51D-14 1.85D-09 XBig12= 1.80D-13 4.87D-08.
      7 vectors produced by pass  7 Test12= 1.51D-14 1.85D-09 XBig12= 6.62D-16 3.03D-09.
 InvSVY:  IOpt=1 It=  1 EMax= 3.05D-16
 Solved reduced A of dimension   339 with    54 vectors.
 End of Minotr F.D. properties file   721 does not exist.
 End of Minotr F.D. properties file   722 does not exist.
 End of Minotr F.D. properties file   788 does not exist.

 **********************************************************************

            Population analysis using the SCF Density.

 **********************************************************************

 Alpha  occ. eigenvalues --  -19.65873 -19.63329 -19.62813 -10.61370 -10.55215
 Alpha  occ. eigenvalues --  -10.54858 -10.54404 -10.54167 -10.52430  -7.08025
 Alpha  occ. eigenvalues --   -1.19517  -1.16477  -1.12781  -0.96162  -0.85178
 Alpha  occ. eigenvalues --   -0.83979  -0.71845  -0.69191  -0.65173  -0.62883
 Alpha  occ. eigenvalues --   -0.62518  -0.55807  -0.54904  -0.51439  -0.50179
 Alpha  occ. eigenvalues --   -0.49307  -0.47572  -0.47321  -0.46430  -0.45393
 Alpha  occ. eigenvalues --   -0.41431  -0.40249  -0.39934  -0.38959  -0.31636
 Alpha  occ. eigenvalues --   -0.28756
 Alpha virt. eigenvalues --    0.00128   0.00613   0.01319   0.01762   0.02163
 Alpha virt. eigenvalues --    0.03189   0.03703   0.04401   0.05282   0.07611
 Alpha virt. eigenvalues --    0.07723   0.08040   0.09422   0.10824   0.11648
 Alpha virt. eigenvalues --    0.11894   0.12916   0.13161   0.14145   0.14480
 Alpha virt. eigenvalues --    0.15217   0.15310   0.16583   0.17392   0.17755
 Alpha virt. eigenvalues --    0.17945   0.18239   0.19479   0.20036   0.20614
 Alpha virt. eigenvalues --    0.21530   0.22826   0.23390   0.23976   0.24264
 Alpha virt. eigenvalues --    0.24721   0.25012   0.25221   0.25538   0.26141
 Alpha virt. eigenvalues --    0.26758   0.27732   0.28707   0.29771   0.30411
 Alpha virt. eigenvalues --    0.30874   0.32432   0.33105   0.34351   0.35853
 Alpha virt. eigenvalues --    0.38283   0.38884   0.40028   0.40484   0.42030
 Alpha virt. eigenvalues --    0.43794   0.45375   0.48680   0.49734   0.50121
 Alpha virt. eigenvalues --    0.51796   0.54510   0.55188   0.56823   0.56972
 Alpha virt. eigenvalues --    0.58944   0.59955   0.61079   0.61760   0.63056
 Alpha virt. eigenvalues --    0.63802   0.64577   0.66372   0.67601   0.68972
 Alpha virt. eigenvalues --    0.70242   0.70973   0.72230   0.73173   0.73670
 Alpha virt. eigenvalues --    0.77492   0.78534   0.81132   0.84015   0.86364
 Alpha virt. eigenvalues --    0.88631   0.89687   0.90418   0.90950   0.91516
 Alpha virt. eigenvalues --    0.92195   0.95509   0.95849   1.00321   1.02965
 Alpha virt. eigenvalues --    1.04955   1.06733   1.07587   1.08737   1.08832
 Alpha virt. eigenvalues --    1.11472   1.12554   1.12802   1.13763   1.14545
 Alpha virt. eigenvalues --    1.16749   1.20363   1.20523   1.26166   1.26919
 Alpha virt. eigenvalues --    1.28131   1.32486   1.34006   1.35341   1.39340
 Alpha virt. eigenvalues --    1.45816   1.46219   1.47756   1.50476   1.51300
 Alpha virt. eigenvalues --    1.53376   1.55832   1.59101   1.61082   1.61708
 Alpha virt. eigenvalues --    1.62670   1.65551   1.68088   1.69769   1.71425
 Alpha virt. eigenvalues --    1.72587   1.75522   1.77859   1.80846   1.81132
 Alpha virt. eigenvalues --    1.85669   1.86613   1.87461   1.91956   1.95544
 Alpha virt. eigenvalues --    1.96761   1.97649   2.00332   2.00950   2.01521
 Alpha virt. eigenvalues --    2.03241   2.10512   2.11028   2.11870   2.15143
 Alpha virt. eigenvalues --    2.16396   2.18102   2.22194   2.27686   2.36166
 Alpha virt. eigenvalues --    2.37398   2.43793   2.44549   2.48096   2.57406
 Alpha virt. eigenvalues --    2.59142   2.61436   2.63827   2.64621   2.66857
 Alpha virt. eigenvalues --    2.70638   2.71008   2.73710   2.76515   2.78190
 Alpha virt. eigenvalues --    2.78812   2.79002   2.81207   2.82399   2.84510
 Alpha virt. eigenvalues --    2.94512   2.95377   2.98970   3.07771   3.11573
 Alpha virt. eigenvalues --    3.12779   3.14113   3.16203   3.24518   3.25075
 Alpha virt. eigenvalues --    3.26905   3.27202   3.31528   3.39861   3.41490
 Alpha virt. eigenvalues --    3.48157   3.51480   3.54233   3.57197   3.61584
 Alpha virt. eigenvalues --    3.63586   3.67000   3.68074   3.91909   3.94286
 Alpha virt. eigenvalues --    3.96928   4.04465   4.11133   4.17704   4.19918
 Alpha virt. eigenvalues --    4.22695   4.86134   5.08585   5.09476   5.11518
 Alpha virt. eigenvalues --    5.39914   5.50480   5.55193   5.69418   5.77074
 Alpha virt. eigenvalues --    5.85206  14.80367  23.66490  24.01456  24.03131
 Alpha virt. eigenvalues --   24.13539  24.19033  24.26535  50.00583  50.04435
 Alpha virt. eigenvalues --   50.06011
          Condensed to atoms (all electrons):
               1          2          3          4          5          6
     1  O    7.803688   0.280548   0.017275   0.434717  -0.118472   0.017015
     2  H    0.280548   0.420978   0.046628  -0.006209  -0.032169   0.002978
     3  C    0.017275   0.046628   8.349643   0.274550  -0.176635  -0.002917
     4  B    0.434717  -0.006209   0.274550   3.324749   0.371687   0.012403
     5  O   -0.118472  -0.032169  -0.176635   0.371687   7.991559   0.276177
     6  H    0.017015   0.002978  -0.002917   0.012403   0.276177   0.394841
     7  C    0.075526  -0.003626  -0.811283   0.064257  -0.027313  -0.020557
     8  H    0.001885  -0.000022   0.024249   0.009686  -0.004419   0.008864
     9  C    0.041369   0.004288  -0.299005   0.076590   0.009278   0.047081
    10  H   -0.000029  -0.000001  -0.004859  -0.000150   0.000240  -0.000035
    11  C   -0.011757  -0.001504  -0.765607   0.000648   0.007242  -0.001457
    12  C    0.002918  -0.016464  -0.710211   0.017698   0.041864  -0.008594
    13  H    0.000394   0.000002   0.021933   0.000697  -0.000008   0.000002
    14  C   -0.141447  -0.024409   0.274186  -0.073524   0.067528  -0.006583
    15  H    0.003887  -0.000416   0.009258  -0.009492   0.001849  -0.000067
    16  O    0.000060   0.000002   0.004768  -0.000968  -0.000014  -0.000003
    17  H   -0.000008   0.000000   0.003344   0.000223   0.000006   0.000000
               7          8          9         10         11         12
     1  O    0.075526   0.001885   0.041369  -0.000029  -0.011757   0.002918
     2  H   -0.003626  -0.000022   0.004288  -0.000001  -0.001504  -0.016464
     3  C   -0.811283   0.024249  -0.299005  -0.004859  -0.765607  -0.710211
     4  B    0.064257   0.009686   0.076590  -0.000150   0.000648   0.017698
     5  O   -0.027313  -0.004419   0.009278   0.000240   0.007242   0.041864
     6  H   -0.020557   0.008864   0.047081  -0.000035  -0.001457  -0.008594
     7  C    9.369857   0.362864  -1.469026   0.048911   0.306598   0.173452
     8  H    0.362864   0.484991  -0.021178  -0.005090  -0.014381  -0.004111
     9  C   -1.469026  -0.021178   8.784819   0.353624  -0.147079  -0.845269
    10  H    0.048911  -0.005090   0.353624   0.456720   0.010483  -0.039813
    11  C    0.306598  -0.014381  -0.147079   0.010483   6.720853   0.066964
    12  C    0.173452  -0.004111  -0.845269  -0.039813   0.066964   7.990254
    13  H    0.002263   0.000055  -0.054784  -0.000025  -0.072314   0.354362
    14  C   -1.629511  -0.016400  -0.593577  -0.003062  -0.114080  -1.143232
    15  H   -0.016790  -0.000089   0.003506   0.000039   0.011446   0.013332
    16  O    0.002448  -0.000593  -0.315737  -0.006405   0.328515  -0.001711
    17  H   -0.008656   0.000007   0.105058   0.000402   0.051575  -0.127027
              13         14         15         16         17
     1  O    0.000394  -0.141447   0.003887   0.000060  -0.000008
     2  H    0.000002  -0.024409  -0.000416   0.000002   0.000000
     3  C    0.021933   0.274186   0.009258   0.004768   0.003344
     4  B    0.000697  -0.073524  -0.009492  -0.000968   0.000223
     5  O   -0.000008   0.067528   0.001849  -0.000014   0.000006
     6  H    0.000002  -0.006583  -0.000067  -0.000003   0.000000
     7  C    0.002263  -1.629511  -0.016790   0.002448  -0.008656
     8  H    0.000055  -0.016400  -0.000089  -0.000593   0.000007
     9  C   -0.054784  -0.593577   0.003506  -0.315737   0.105058
    10  H   -0.000025  -0.003062   0.000039  -0.006405   0.000402
    11  C   -0.072314  -0.114080   0.011446   0.328515   0.051575
    12  C    0.354362  -1.143232   0.013332  -0.001711  -0.127027
    13  H    0.463827   0.107779  -0.005092  -0.007640   0.002978
    14  C    0.107779   9.495691   0.331576   0.022888  -0.019895
    15  H   -0.005092   0.331576   0.458994  -0.000652   0.000038
    16  O   -0.007640   0.022888  -0.000652   8.002901   0.278947
    17  H    0.002978  -0.019895   0.000038   0.278947   0.420738
 Mulliken charges:
               1
     1  O   -0.407567
     2  H    0.329398
     3  C   -0.255317
     4  B    0.502439
     5  O   -0.408397
     6  H    0.280853
     7  C   -0.419413
     8  H    0.173681
     9  C    0.320042
    10  H    0.189051
    11  C   -0.376144
    12  C    0.235590
    13  H    0.185571
    14  C   -0.533927
    15  H    0.198674
    16  O   -0.306806
    17  H    0.292272
 Sum of Mulliken charges =   0.00000
 Mulliken charges with hydrogens summed into heavy atoms:
               1
     1  O   -0.078169
     3  C   -0.255317
     4  B    0.502439
     5  O   -0.127544
     7  C   -0.245732
     9  C    0.509093
    11  C   -0.376144
    12  C    0.421161
    14  C   -0.335253
    16  O   -0.014534
 APT charges:
               1
     1  O   -0.988092
     2  H    2.297568
     3  C   -1.336614
     4  B   -0.343667
     5  O    1.371951
     6  H   -0.932332
     7  C   -0.070875
     8  H    0.260376
     9  C   -0.021495
    10  H   -0.627711
    11  C   -0.301296
    12  C   -1.347771
    13  H    0.803362
    14  C   -0.332082
    15  H    1.709988
    16  O   -1.031922
    17  H    0.890613
 Sum of APT charges =   0.00000
 APT charges with hydrogens summed into heavy atoms:
               1
     1  O    1.309476
     3  C   -1.336614
     4  B   -0.343667
     5  O    0.439619
     7  C    0.189501
     9  C   -0.649207
    11  C   -0.301296
    12  C   -0.544409
    14  C    1.377906
    16  O   -0.141309
 Electronic spatial extent (au):  <R**2>=          28549.5268
 Charge=              0.0000 electrons
 Dipole moment (field-independent basis, Debye):
    X=             -0.6666    Y=              0.1973    Z=             -0.2927  Tot=              0.7543
 Quadrupole moment (field-independent basis, Debye-Ang):
   XX=            -66.5013   YY=            -51.2340   ZZ=            -54.6231
   XY=             -5.4564   XZ=             -1.4316   YZ=             -9.9632
 Traceless Quadrupole moment (field-independent basis, Debye-Ang):
   XX=             -9.0484   YY=              6.2188   ZZ=              2.8297
   XY=             -5.4564   XZ=             -1.4316   YZ=             -9.9632
 Octapole moment (field-independent basis, Debye-Ang**2):
  XXX=          -1034.2287  YYY=          -1098.4330  ZZZ=           -787.3842  XYY=           -360.1710
  XXY=           -463.6876  XXZ=           -294.0246  XZZ=           -308.6844  YZZ=           -451.2987
  YYZ=           -387.4839  XYZ=            -46.0072
 Hexadecapole moment (field-independent basis, Debye-Ang**3):
 XXXX=         -12361.9312 YYYY=         -15685.3011 ZZZZ=          -8183.3836 XXXY=          -7080.7144
 XXXZ=          -4994.3353 YYYX=          -6943.3782 YYYZ=          -6660.4432 ZZZX=          -4796.7758
 ZZZY=          -5868.0157 XXYY=          -5347.6092 XXZZ=          -3429.5571 YYZZ=          -5014.6764
 XXYZ=          -2107.0441 YYXZ=          -2197.6084 ZZXY=          -2437.1235
 N-N= 4.765397947997D+02 E-N=-2.084932471180D+03  KE= 4.817813963401D+02
  Exact polarizability:       0.000       0.000       0.000       0.000       0.000       0.000
 Approx polarizability:     133.464       9.392      99.955      18.048     -26.426     102.694
 D2PCM: PCM CHGder 2nd derivatives, FixD1E=F FixD2E=F DoIter=F DoCFld=F I1PDM=0
 Calling FoFJK, ICntrl=    100127 FMM=F ISym2X=0 I1Cent= 0 IOpClX= 0 NMat=1 NMatS=1 NMatT=0.
 -------------------------------------------------------------------
 Center     Atomic                   Forces (Hartrees/Bohr)
 Number     Number              X              Y              Z
 -------------------------------------------------------------------
      1        8          -0.000841448    0.001133575   -0.001708632
      2        1           0.002474939   -0.000194720    0.001282271
      3        6           0.000120664    0.000123204   -0.000183491
      4        5          -0.000716405   -0.001517437    0.001386263
      5        8           0.002620385    0.002022205   -0.001113955
      6        1          -0.002730044   -0.002009373    0.000988705
      7        6           0.000114491   -0.001756165    0.001796082
      8        1          -0.000156425    0.000087903   -0.000061412
      9        6          -0.000217965    0.000474352   -0.000609728
     10        1          -0.000043340   -0.000744735    0.000724935
     11        6          -0.001755000   -0.000048365   -0.000660190
     12        6           0.000098213    0.001698506   -0.001606081
     13        1          -0.000208234    0.000040497   -0.000124763
     14        6          -0.000100044   -0.000309782    0.000268424
     15        1          -0.000433461    0.000638015   -0.000761684
     16        8           0.001643055   -0.002479093    0.003097381
     17        1           0.000130620    0.002841414   -0.002714123
 -------------------------------------------------------------------
 Cartesian Forces:  Max     0.003097381 RMS     0.001361758
 FormGI is forming the generalized inverse of G from B-inverse, IUseBI=4.

 GradGradGradGradGradGradGradGradGradGradGradGradGradGradGradGradGradGrad
 Berny optimization.
 Internal  Forces:  Max     0.003920148 RMS     0.000915818
 Search for a local minimum.
 Step number   1 out of a maximum of   85
 All quantities printed in internal units (Hartrees-Bohrs-Radians)
 Mixed Optimization -- En-DIIS/RFO-DIIS
 Second derivative matrix not updated -- analytic derivatives used.
 ITU=  0
     Eigenvalues ---    0.00117   0.00584   0.00968   0.01175   0.01415
     Eigenvalues ---    0.01565   0.01774   0.02034   0.02238   0.02330
     Eigenvalues ---    0.02773   0.02865   0.03214   0.03936   0.10407
     Eigenvalues ---    0.10816   0.11231   0.11348   0.12030   0.12684
     Eigenvalues ---    0.15832   0.16723   0.17664   0.18651   0.18724
     Eigenvalues ---    0.19303   0.19815   0.22209   0.29675   0.30164
     Eigenvalues ---    0.35562   0.35862   0.36475   0.36713   0.38321
     Eigenvalues ---    0.39166   0.42405   0.45452   0.47585   0.48347
     Eigenvalues ---    0.49600   0.53070   0.54286   0.54675   0.55723
 RFO step:  Lambda=-1.62902197D-04 EMin= 1.16779099D-03
 Linear search not attempted -- first point.
 Iteration  1 RMS(Cart)=  0.01201333 RMS(Int)=  0.00006494
 Iteration  2 RMS(Cart)=  0.00008832 RMS(Int)=  0.00000077
 Iteration  3 RMS(Cart)=  0.00000001 RMS(Int)=  0.00000077
 Variable       Old X    -DE/DX   Delta X   Delta X   Delta X     New X
                                 (Linear)    (Quad)   (Total)
    R1        1.81659   0.00277   0.00000   0.00492   0.00492   1.82151
    R2        2.57862   0.00192   0.00000   0.00427   0.00427   2.58289
    R3        2.94966   0.00115   0.00000   0.00388   0.00388   2.95354
    R4        2.64728   0.00104   0.00000   0.00247   0.00247   2.64975
    R5        2.64465   0.00203   0.00000   0.00299   0.00299   2.64763
    R6        2.58956  -0.00013   0.00000  -0.00116  -0.00116   2.58840
    R7        1.81084   0.00352   0.00000   0.00636   0.00636   1.81720
    R8        2.05406  -0.00011   0.00000  -0.00060  -0.00060   2.05346
    R9        2.61898   0.00082   0.00000   0.00220   0.00220   2.62119
   R10        2.04617   0.00063   0.00000   0.00174   0.00174   2.04792
   R11        2.63303   0.00145   0.00000   0.00210   0.00210   2.63514
   R12        2.63360   0.00052   0.00000   0.00211   0.00211   2.63571
   R13        2.56785  -0.00172   0.00000  -0.00429  -0.00429   2.56357
   R14        2.05189   0.00014   0.00000   0.00016   0.00016   2.05204
   R15        2.62282   0.00057   0.00000   0.00112   0.00112   2.62394
   R16        2.04890   0.00023   0.00000   0.00081   0.00081   2.04971
   R17        1.81614   0.00392   0.00000   0.00721   0.00721   1.82335
    A1        1.95452   0.00062   0.00000   0.00318   0.00318   1.95770
    A2        2.14964  -0.00096   0.00000  -0.00493  -0.00493   2.14470
    A3        2.08570   0.00097   0.00000   0.00552   0.00552   2.09122
    A4        2.04785  -0.00001   0.00000  -0.00059  -0.00059   2.04726
    A5        2.06568   0.00015   0.00000  -0.00063  -0.00063   2.06505
    A6        2.04850   0.00001   0.00000   0.00056   0.00056   2.04906
    A7        2.16901  -0.00016   0.00000   0.00007   0.00007   2.16908
    A8        1.99813   0.00006   0.00000   0.00010   0.00010   1.99823
    A9        2.10325   0.00048   0.00000   0.00311   0.00311   2.10636
   A10        2.12988  -0.00069   0.00000  -0.00234  -0.00234   2.12754
   A11        2.05005   0.00021   0.00000  -0.00076  -0.00076   2.04929
   A12        2.12743  -0.00106   0.00000  -0.00839  -0.00839   2.11904
   A13        2.08141   0.00041   0.00000   0.00227   0.00227   2.08368
   A14        2.07434   0.00065   0.00000   0.00612   0.00612   2.08046
   A15        2.09721   0.00046   0.00000   0.00033   0.00033   2.09753
   A16        2.04712   0.00062   0.00000   0.00302   0.00302   2.05013
   A17        2.13886  -0.00108   0.00000  -0.00334  -0.00334   2.13552
   A18        2.09250   0.00016   0.00000  -0.00026  -0.00026   2.09225
   A19        2.08754  -0.00076   0.00000  -0.00267  -0.00267   2.08487
   A20        2.10314   0.00060   0.00000   0.00293   0.00293   2.10607
   A21        2.12248   0.00059   0.00000   0.00301   0.00301   2.12548
   A22        2.07472   0.00080   0.00000   0.00658   0.00658   2.08129
   A23        2.08599  -0.00139   0.00000  -0.00958  -0.00958   2.07641
   A24        1.91742  -0.00006   0.00000  -0.00027  -0.00027   1.91716
    D1        3.13166   0.00002   0.00000   0.00337   0.00337   3.13503
    D2       -0.00822  -0.00003   0.00000   0.00217   0.00217  -0.00605
    D3        3.09652   0.00000   0.00000   0.01688   0.01688   3.11340
    D4       -0.04691   0.00005   0.00000   0.01817   0.01817  -0.02874
    D5       -0.04433  -0.00002   0.00000   0.01642   0.01642  -0.02791
    D6        3.09543   0.00004   0.00000   0.01770   0.01770   3.11313
    D7       -0.00594   0.00003   0.00000   0.00291   0.00291  -0.00303
    D8        3.13938   0.00003   0.00000   0.00160   0.00160   3.14097
    D9        3.13493   0.00004   0.00000   0.00336   0.00336   3.13829
   D10       -0.00294   0.00004   0.00000   0.00206   0.00206  -0.00089
   D11       -3.13871  -0.00002   0.00000  -0.00163  -0.00163  -3.14034
   D12        0.00201  -0.00002   0.00000  -0.00156  -0.00156   0.00046
   D13        0.00358  -0.00003   0.00000  -0.00206  -0.00207   0.00152
   D14       -3.13888  -0.00003   0.00000  -0.00199  -0.00199  -3.14088
   D15        3.11729   0.00009   0.00000   0.01210   0.01210   3.12940
   D16       -0.02248   0.00004   0.00000   0.01083   0.01083  -0.01165
   D17        3.14054  -0.00001   0.00000   0.00006   0.00006   3.14060
   D18        0.00071  -0.00002   0.00000  -0.00063  -0.00063   0.00008
   D19        0.00255  -0.00001   0.00000  -0.00121  -0.00121   0.00134
   D20       -3.13728  -0.00002   0.00000  -0.00190  -0.00190  -3.13918
   D21        0.00101  -0.00001   0.00000  -0.00086  -0.00086   0.00015
   D22       -3.14119  -0.00001   0.00000  -0.00055  -0.00055   3.14144
   D23       -3.13887  -0.00002   0.00000  -0.00152  -0.00152  -3.14039
   D24        0.00211  -0.00002   0.00000  -0.00121  -0.00121   0.00090
   D25        3.14047   0.00001   0.00000   0.00087   0.00087   3.14134
   D26       -0.00038   0.00002   0.00000   0.00084   0.00084   0.00046
   D27       -0.00047   0.00001   0.00000   0.00054   0.00054   0.00007
   D28       -3.14133   0.00002   0.00000   0.00051   0.00051  -3.14082
   D29       -3.14136   0.00001   0.00000   0.00160   0.00160  -3.13976
   D30       -0.00040   0.00001   0.00000   0.00192   0.00192   0.00152
   D31       -0.00199   0.00001   0.00000   0.00066   0.00066  -0.00133
   D32        3.14048   0.00000   0.00000   0.00059   0.00059   3.14106
   D33        3.14034   0.00001   0.00000   0.00064   0.00064   3.14098
   D34       -0.00037   0.00001   0.00000   0.00056   0.00056   0.00019
         Item               Value     Threshold  Converged?
 Maximum Force            0.003920     0.000015     NO 
 RMS     Force            0.000916     0.000010     NO 
 Maximum Displacement     0.051487     0.000060     NO 
 RMS     Displacement     0.012029     0.000040     NO 
 Predicted change in Energy=-8.162389D-05
 GradGradGradGradGradGradGradGradGradGradGradGradGradGradGradGradGradGrad

                          Input orientation:                          
 ---------------------------------------------------------------------
 Center     Atomic      Atomic             Coordinates (Angstroms)
 Number     Number       Type             X           Y           Z
 ---------------------------------------------------------------------
      1          8           0        8.655294    7.545340    5.480469
      2          1           0        9.463668    7.395939    5.983774
      3          6           0        6.251258    6.863190    5.175486
      4          5           0        7.634810    6.733998    5.890960
      5          8           0        7.897525    5.857070    6.909840
      6          1           0        7.148088    5.314575    7.172055
      7          6           0        5.149856    6.057081    5.496777
      8          1           0        5.225594    5.297085    6.269733
      9          6           0        3.930606    6.189776    4.848866
     10          1           0        3.084697    5.561827    5.102926
     11          6           0        3.788572    7.150287    3.847993
     12          6           0        4.864374    7.968460    3.503612
     13          1           0        4.748376    8.714670    2.723302
     14          6           0        6.075963    7.817663    4.164920
     15          1           0        6.907496    8.457756    3.890473
     16          8           0        2.579642    7.246349    3.240069
     17          1           0        2.604427    7.939575    2.569391
 ---------------------------------------------------------------------
                    Distance matrix (angstroms):
                    1          2          3          4          5
     1  O    0.000000
     2  H    0.963900   0.000000
     3  C    2.517485   3.355104   0.000000
     4  B    1.366809   1.947178   1.562949   0.000000
     5  O    2.338284   2.382964   2.594312   1.369722   0.000000
     6  H    3.179536   3.332567   2.681193   1.973035   0.961621
     7  C    3.808317   4.542981   1.402186   2.605493   3.096197
     8  H    4.176175   4.737957   2.168421   2.830638   2.804022
     9  C    4.955719   5.775605   2.438359   3.886292   4.482717
    10  H    5.925236   6.695606   3.424314   4.764296   5.149313
    11  C    5.148400   6.068658   2.812381   4.374992   5.284961
    12  C    4.296286   5.256661   2.437260   3.859876   5.025969
    13  H    4.922735   5.882492   3.420503   4.721083   5.967422
    14  C    2.908226   3.868155   1.401068   2.565842   3.833614
    15  H    2.532861   3.470356   2.150476   2.739027   4.106129
    16  O    6.482464   7.412159   4.168143   5.731008   6.608873
    17  H    6.726276   7.681324   4.609742   6.147438   7.154943
                    6          7          8          9         10
     6  H    0.000000
     7  C    2.711236   0.000000
     8  H    2.123788   1.086642   0.000000
     9  C    4.063911   1.387072   2.119611   0.000000
    10  H    4.566572   2.159926   2.452543   1.083711   0.000000
    11  C    5.070066   2.401392   3.371085   1.394454   2.143246
    12  C    5.071088   2.776252   3.862402   2.417715   3.393662
    13  H    6.091853   3.862141   4.948211   3.400274   4.286124
    14  C    4.056817   2.393985   3.392149   2.778552   3.862166
    15  H    4.550412   3.381235   4.298780   3.863175   4.946741
    16  O    6.329531   3.621200   4.469849   2.351527   2.561822
    17  H    6.979971   4.311912   5.248409   3.164894   3.507584
                   11         12         13         14         15
    11  C    0.000000
    12  C    1.394759   0.000000
    13  H    2.152544   1.085895   0.000000
    14  C    2.403745   1.388530   2.155313   0.000000
    15  H    3.382154   2.136217   2.467812   1.084660   0.000000
    16  O    1.356581   2.410581   2.669536   3.661422   4.541019
    17  H    1.913112   2.445601   2.284946   3.822583   4.531024
                   16         17
    16  O    0.000000
    17  H    0.964876   0.000000
 Symmetry turned off by external request.
 Stoichiometry    C6H7BO3
 Framework group  C1[X(C6H7BO3)]
 Deg. of freedom    45
 Full point group                 C1      NOp   1
 Rotational constants (GHZ):           3.6755782           0.7402909           0.6162257
 Standard basis: 6-311+G(d,p) (5D, 7F)
   262 basis functions,   416 primitive gaussians,   272 cartesian basis functions
    36 alpha electrons       36 beta electrons
       nuclear repulsion energy       476.1941988425 Hartrees.
 NAtoms=   17 NActive=   17 NUniq=   17 SFac= 1.00D+00 NAtFMM=   60 NAOKFM=F Big=F
 Integral buffers will be    131072 words long.
 Raffenetti 2 integral format.
 Two-electron integral symmetry is turned off.
 ------------------------------------------------------------------------------
 Polarizable Continuum Model (PCM)
 =================================
 Model                : PCM.
 Atomic radii         : SMD-Coulomb.
 Polarization charges : Total charges.
 Charge compensation  : None.
 Solution method      : Matrix inversion.
 Cavity type          : VdW (van der Waals Surface) (Alpha=1.000).
 Cavity algorithm     : GePol (No added spheres)
                        Default sphere list used, NSphG=   17.
                        Lebedev-Laikov grids with approx.  5.0 points / Ang**2.
                        Smoothing algorithm: York/Karplus (Gamma=1.0000).
                        Polarization charges: spherical gaussians, with
                                              point-specific exponents (IZeta= 3).
                        Self-potential: point-specific (ISelfS= 7).
                        Self-field    : sphere-specific E.n sum rule (ISelfD= 2).
 1st derivatives      : Analytical E(r).r(x)/FMM algorithm (CHGder, D1EAlg=3).
                        Cavity 1st derivative terms included.
 Solvent              : TetraHydroFuran, Eps=   7.425700 Eps(inf)=   1.974025
 ------------------------------------------------------------------------------
 Spheres list:
 ISph  on   Nord     Re0    Alpha      Xe            Ye            Ze
    1   O      1    2.2940  1.000      8.655294      7.545340      5.480469
    2   H      2    1.2000  1.000      9.463668      7.395939      5.983774
    3   C      3    1.8500  1.000      6.251258      6.863190      5.175486
    4   B      4    1.8000  1.000      7.634810      6.733998      5.890960
    5   O      5    2.2940  1.000      7.897525      5.857070      6.909840
    6   H      6    1.2000  1.000      7.148088      5.314575      7.172055
    7   C      7    1.8500  1.000      5.149856      6.057081      5.496777
    8   H      8    1.2000  1.000      5.225594      5.297085      6.269733
    9   C      9    1.8500  1.000      3.930606      6.189776      4.848866
   10   H     10    1.2000  1.000      3.084697      5.561827      5.102926
   11   C     11    1.8500  1.000      3.788572      7.150287      3.847993
   12   C     12    1.8500  1.000      4.864374      7.968460      3.503612
   13   H     13    1.2000  1.000      4.748376      8.714670      2.723302
   14   C     14    1.8500  1.000      6.075963      7.817663      4.164920
   15   H     15    1.2000  1.000      6.907496      8.457756      3.890473
   16   O     16    2.2940  1.000      2.579642      7.246349      3.240069
   17   H     17    1.2000  1.000      2.604427      7.939575      2.569391
 ------------------------------------------------------------------------------
 ------------------------------------------------------------------------------
 Atomic radii for non-electrostatic terms: SMD-CDS.
 ------------------------------------------------------------------------------
 Nuclear repulsion after PCM non-electrostatic terms =      476.1895326154 Hartrees.
 One-electron integrals computed using PRISM.
 NBasis=   262 RedAO= T EigKep=  2.29D-06  NBF=   262
 NBsUse=   262 1.00D-06 EigRej= -1.00D+00 NBFU=   262
 Initial guess from the checkpoint file:  "4-OH-phboh2-opt-freq-thf.chk"
 B after Tr=     0.013235    0.006683   -0.021376
         Rot=    1.000000   -0.000673    0.000261   -0.000320 Ang=  -0.09 deg.
 ExpMin= 3.15D-02 ExpMax= 8.59D+03 ExpMxC= 1.30D+03 IAcc=3 IRadAn=         5 AccDes= 0.00D+00
 Harris functional with IExCor= 1009 and IRadAn=       5 diagonalized for initial guess.
 HarFok:  IExCor= 1009 AccDes= 0.00D+00 IRadAn=         5 IDoV= 1 UseB2=F ITyADJ=14
 ICtDFT=  3500011 ScaDFX=  1.000000  1.000000  1.000000  1.000000
 FoFCou: FMM=F IPFlag=           0 FMFlag=      100000 FMFlg1=           0
         NFxFlg=           0 DoJE=T BraDBF=F KetDBF=T FulRan=T
         wScrn=  0.000000 ICntrl=       500 IOpCl=  0 I1Cent=   200000004 NGrid=           0
         NMat0=    1 NMatS0=      1 NMatT0=    0 NMatD0=    1 NMtDS0=    0 NMtDT0=    0
 Symmetry not used in FoFCou.
 Requested convergence on RMS density matrix=1.00D-08 within 128 cycles.
 Requested convergence on MAX density matrix=1.00D-06.
 Requested convergence on             energy=1.00D-06.
 Level shift goal  0.100 maximum shift  0.100.
 No special actions if energy rises.
 Dynamic level shift is on during FON iterations.
 Inv3:  Mode=1 IEnd=     7105563.
 Iteration    1 A*A^-1 deviation from unit magnitude is 7.77D-15 for   1528.
 Iteration    1 A*A^-1 deviation from orthogonality  is 2.02D-15 for   1538   1412.
 Iteration    1 A^-1*A deviation from unit magnitude is 7.99D-15 for   1528.
 Iteration    1 A^-1*A deviation from orthogonality  is 2.19D-15 for   1531   1298.
 Error on total polarization charges =  0.01824
 SCF Done:  E(RM062X) =  -483.467303206     A.U. after   10 cycles
            NFock= 10  Conv=0.79D-08     -V/T= 2.0036
 SMD-CDS (non-electrostatic) energy       (kcal/mol) =      -2.93
 (included in total energy above)
 D1PCM: PCM CHGder 1st derivatives, ID1Alg=3 FixD1E=F DoIter=F DoCFld=F I1PDM=0.
 Calling FoFJK, ICntrl=      2127 FMM=F ISym2X=0 I1Cent= 0 IOpClX= 0 NMat=1 NMatS=1 NMatT=0.
 -------------------------------------------------------------------
 Center     Atomic                   Forces (Hartrees/Bohr)
 Number     Number              X              Y              Z
 -------------------------------------------------------------------
      1        8          -0.000006686   -0.000000074   -0.000003216
      2        1           0.000021729   -0.000020114    0.000017069
      3        6           0.000005083   -0.000007229   -0.000000286
      4        5          -0.000007533   -0.000018109    0.000010649
      5        8           0.000014534    0.000016133   -0.000008170
      6        1          -0.000040844   -0.000037020    0.000002211
      7        6          -0.000008108   -0.000000282    0.000007581
      8        1          -0.000000515    0.000009217    0.000012822
      9        6          -0.000006679    0.000004336   -0.000004881
     10        1          -0.000008204    0.000010234   -0.000000655
     11        6           0.000007717    0.000010968   -0.000001567
     12        6           0.000008904    0.000003377   -0.000002768
     13        1           0.000010583    0.000002683   -0.000003646
     14        6           0.000004517    0.000005208   -0.000006122
     15        1           0.000006496   -0.000004661   -0.000003608
     16        8          -0.000009127   -0.000023069    0.000025294
     17        1           0.000008134    0.000048403   -0.000040707
 -------------------------------------------------------------------
 Cartesian Forces:  Max     0.000048403 RMS     0.000015282

 GradGradGradGradGradGradGradGradGradGradGradGradGradGradGradGradGradGrad
 Berny optimization.
 Using GEDIIS/GDIIS optimizer.
 FormGI is forming the generalized inverse of G from B-inverse, IUseBI=4.
 Internal  Forces:  Max     0.000050896 RMS     0.000012162
 Search for a local minimum.
 Step number   2 out of a maximum of   85
 All quantities printed in internal units (Hartrees-Bohrs-Radians)
 Mixed Optimization -- En-DIIS/RFO-DIIS
 Swapping is turned off.
 Update second derivatives using D2CorX and points    1    2
 DE= -8.24D-05 DEPred=-8.16D-05 R= 1.01D+00
 TightC=F SS=  1.41D+00  RLast= 4.60D-02 DXNew= 5.0454D-01 1.3801D-01
 Trust test= 1.01D+00 RLast= 4.60D-02 DXMaxT set to 3.00D-01
 ITU=  1  0
     Eigenvalues ---    0.00115   0.00584   0.00967   0.01175   0.01415
     Eigenvalues ---    0.01565   0.01774   0.02034   0.02237   0.02330
     Eigenvalues ---    0.02773   0.02864   0.03214   0.03936   0.10410
     Eigenvalues ---    0.10824   0.11231   0.11353   0.12029   0.12688
     Eigenvalues ---    0.15822   0.16721   0.17646   0.18656   0.18735
     Eigenvalues ---    0.19302   0.19813   0.22221   0.29681   0.30174
     Eigenvalues ---    0.35563   0.35862   0.36475   0.36713   0.38302
     Eigenvalues ---    0.39178   0.42410   0.45528   0.47589   0.48347
     Eigenvalues ---    0.49614   0.53050   0.54161   0.54658   0.55664
 En-DIIS/RFO-DIIS/Sim-DIIS IScMMF=       -3 using points:     2    1
 RFO step:  Lambda=-9.87364869D-07.
 DidBck=F Rises=F RFO-DIIS coefs:    1.52097   -0.52097
 Iteration  1 RMS(Cart)=  0.00784869 RMS(Int)=  0.00002930
 Iteration  2 RMS(Cart)=  0.00004092 RMS(Int)=  0.00000040
 Iteration  3 RMS(Cart)=  0.00000000 RMS(Int)=  0.00000040
 Variable       Old X    -DE/DX   Delta X   Delta X   Delta X     New X
                                 (Linear)    (Quad)   (Total)
    R1        1.82151   0.00002   0.00256  -0.00250   0.00007   1.82157
    R2        2.58289   0.00001   0.00223  -0.00217   0.00006   2.58295
    R3        2.95354   0.00000   0.00202  -0.00195   0.00007   2.95362
    R4        2.64975   0.00000   0.00128  -0.00126   0.00002   2.64977
    R5        2.64763   0.00001   0.00156  -0.00150   0.00005   2.64769
    R6        2.58840  -0.00001  -0.00061   0.00059  -0.00001   2.58839
    R7        1.81720   0.00004   0.00331  -0.00321   0.00010   1.81730
    R8        2.05346   0.00000  -0.00031   0.00033   0.00002   2.05347
    R9        2.62119   0.00001   0.00115  -0.00113   0.00002   2.62121
   R10        2.04792   0.00000   0.00091  -0.00089   0.00001   2.04793
   R11        2.63514   0.00001   0.00110  -0.00108   0.00001   2.63515
   R12        2.63571   0.00001   0.00110  -0.00108   0.00002   2.63573
   R13        2.56357   0.00001  -0.00223   0.00224   0.00000   2.56357
   R14        2.05204   0.00000   0.00008  -0.00008   0.00000   2.05204
   R15        2.62394   0.00001   0.00058  -0.00058   0.00001   2.62395
   R16        2.04971   0.00000   0.00042  -0.00041   0.00001   2.04972
   R17        1.82335   0.00005   0.00376  -0.00363   0.00013   1.82348
    A1        1.95770   0.00000   0.00166  -0.00163   0.00002   1.95773
    A2        2.14470  -0.00003  -0.00257   0.00253  -0.00004   2.14467
    A3        2.09122   0.00003   0.00288  -0.00279   0.00009   2.09131
    A4        2.04726   0.00000  -0.00031   0.00026  -0.00005   2.04721
    A5        2.06505   0.00002  -0.00033   0.00034   0.00001   2.06505
    A6        2.04906   0.00001   0.00029  -0.00036  -0.00007   2.04899
    A7        2.16908  -0.00003   0.00004   0.00002   0.00006   2.16914
    A8        1.99823  -0.00001   0.00005   0.00003   0.00008   1.99831
    A9        2.10636  -0.00001   0.00162  -0.00157   0.00005   2.10640
   A10        2.12754   0.00000  -0.00122   0.00126   0.00004   2.12758
   A11        2.04929   0.00001  -0.00040   0.00032  -0.00008   2.04920
   A12        2.11904   0.00000  -0.00437   0.00432  -0.00005   2.11898
   A13        2.08368   0.00000   0.00118  -0.00118   0.00000   2.08368
   A14        2.08046   0.00000   0.00319  -0.00313   0.00006   2.08052
   A15        2.09753   0.00000   0.00017  -0.00019  -0.00002   2.09751
   A16        2.05013   0.00000   0.00157  -0.00155   0.00002   2.05016
   A17        2.13552   0.00000  -0.00174   0.00174   0.00000   2.13551
   A18        2.09225   0.00000  -0.00013   0.00010  -0.00003   2.09221
   A19        2.08487   0.00000  -0.00139   0.00141   0.00002   2.08489
   A20        2.10607   0.00000   0.00152  -0.00151   0.00001   2.10608
   A21        2.12548  -0.00001   0.00157  -0.00155   0.00001   2.12550
   A22        2.08129   0.00001   0.00343  -0.00334   0.00009   2.08138
   A23        2.07641   0.00000  -0.00499   0.00489  -0.00010   2.07631
   A24        1.91716   0.00000  -0.00014   0.00013  -0.00001   1.91714
    D1        3.13503   0.00000   0.00176   0.00050   0.00226   3.13729
    D2       -0.00605   0.00000   0.00113   0.00104   0.00217  -0.00388
    D3        3.11340   0.00001   0.00879   0.00498   0.01378   3.12718
    D4       -0.02874   0.00002   0.00946   0.00440   0.01387  -0.01487
    D5       -0.02791   0.00001   0.00855   0.00475   0.01331  -0.01461
    D6        3.11313   0.00002   0.00922   0.00417   0.01339   3.12652
    D7       -0.00303   0.00001   0.00151  -0.00070   0.00081  -0.00222
    D8        3.14097   0.00000   0.00083  -0.00095  -0.00011   3.14086
    D9        3.13829   0.00001   0.00175  -0.00048   0.00127   3.13957
   D10       -0.00089   0.00000   0.00107  -0.00072   0.00035  -0.00054
   D11       -3.14034   0.00000  -0.00085   0.00060  -0.00025  -3.14059
   D12        0.00046   0.00000  -0.00081   0.00084   0.00003   0.00049
   D13        0.00152   0.00000  -0.00108   0.00038  -0.00070   0.00082
   D14       -3.14088   0.00000  -0.00104   0.00062  -0.00042  -3.14129
   D15        3.12940   0.00001   0.00631  -0.00059   0.00572   3.13512
   D16       -0.01165   0.00001   0.00564  -0.00001   0.00563  -0.00602
   D17        3.14060   0.00000   0.00003   0.00033   0.00036   3.14096
   D18        0.00008   0.00000  -0.00033   0.00038   0.00005   0.00013
   D19        0.00134   0.00000  -0.00063   0.00010  -0.00054   0.00080
   D20       -3.13918   0.00000  -0.00099   0.00015  -0.00084  -3.14002
   D21        0.00015   0.00000  -0.00045   0.00032  -0.00013   0.00002
   D22        3.14144   0.00000  -0.00029   0.00031   0.00002   3.14146
   D23       -3.14039   0.00000  -0.00079   0.00037  -0.00043  -3.14082
   D24        0.00090   0.00000  -0.00063   0.00035  -0.00028   0.00062
   D25        3.14134   0.00000   0.00045  -0.00056  -0.00011   3.14124
   D26        0.00046   0.00000   0.00044  -0.00065  -0.00021   0.00025
   D27        0.00007   0.00000   0.00028  -0.00054  -0.00026  -0.00020
   D28       -3.14082   0.00000   0.00027  -0.00064  -0.00037  -3.14119
   D29       -3.13976   0.00000   0.00083  -0.00074   0.00009  -3.13967
   D30        0.00152   0.00000   0.00100  -0.00076   0.00024   0.00177
   D31       -0.00133   0.00000   0.00035   0.00029   0.00064  -0.00069
   D32        3.14106   0.00000   0.00031   0.00005   0.00036   3.14142
   D33        3.14098   0.00000   0.00033   0.00020   0.00053   3.14151
   D34        0.00019   0.00000   0.00029  -0.00004   0.00025   0.00044
         Item               Value     Threshold  Converged?
 Maximum Force            0.000051     0.000015     NO 
 RMS     Force            0.000012     0.000010     NO 
 Maximum Displacement     0.031024     0.000060     NO 
 RMS     Displacement     0.007849     0.000040     NO 
 Predicted change in Energy=-4.937032D-07
 GradGradGradGradGradGradGradGradGradGradGradGradGradGradGradGradGradGrad

                          Input orientation:                          
 ---------------------------------------------------------------------
 Center     Atomic      Atomic             Coordinates (Angstroms)
 Number     Number       Type             X           Y           Z
 ---------------------------------------------------------------------
      1          8           0        8.651483    7.554851    5.489828
      2          1           0        9.460674    7.403418    5.991276
      3          6           0        6.250992    6.863966    5.176176
      4          5           0        7.634462    6.734949    5.891924
      5          8           0        7.900462    5.850102    6.903066
      6          1           0        7.154788    5.298158    7.156341
      7          6           0        5.148426    6.060523    5.500189
      8          1           0        5.222873    5.303376    6.276072
      9          6           0        3.929218    6.193019    4.852136
     10          1           0        3.082361    5.567320    5.108610
     11          6           0        3.788407    7.150582    3.848260
     12          6           0        4.865345    7.966124    3.501169
     13          1           0        4.750314    8.709968    2.718461
     14          6           0        6.076744    7.815853    4.162954
     15          1           0        6.908993    8.454172    3.886531
     16          8           0        2.579482    7.246600    3.240311
     17          1           0        2.605222    7.937663    2.567342
 ---------------------------------------------------------------------
                    Distance matrix (angstroms):
                    1          2          3          4          5
     1  O    0.000000
     2  H    0.963936   0.000000
     3  C    2.517549   3.355212   0.000000
     4  B    1.366840   1.947247   1.562987   0.000000
     5  O    2.338257   2.382942   2.594382   1.369715   0.000000
     6  H    3.179626   3.332657   2.681353   1.973121   0.961675
     7  C    3.808481   4.543128   1.402197   2.605509   3.096133
     8  H    4.176445   4.738169   2.168466   2.830677   2.803839
     9  C    4.955908   5.775786   2.438403   3.886345   4.482709
    10  H    5.925430   6.695761   3.424336   4.764300   5.149187
    11  C    5.148562   6.068860   2.812444   4.375095   5.285082
    12  C    4.296364   5.256835   2.437297   3.859988   5.026170
    13  H    4.922793   5.882676   3.420544   4.721215   5.967678
    14  C    2.908264   3.868313   1.401096   2.565965   3.833841
    15  H    2.532906   3.470607   2.150559   2.739276   4.106541
    16  O    6.482634   7.412368   4.168209   5.731113   6.608994
    17  H    6.726421   7.681534   4.609824   6.147570   7.155137
                    6          7          8          9         10
     6  H    0.000000
     7  C    2.711001   0.000000
     8  H    2.123016   1.086650   0.000000
     9  C    4.063796   1.387082   2.119576   0.000000
    10  H    4.566214   2.159909   2.452432   1.083718   0.000000
    11  C    5.070247   2.401407   3.371074   1.394461   2.143292
    12  C    5.071476   2.776244   3.862401   2.417715   3.393694
    13  H    6.092349   3.862132   4.948210   3.400264   4.286154
    14  C    4.057257   2.393983   3.392183   2.778566   3.862188
    15  H    4.551098   3.381278   4.298887   3.863193   4.946767
    16  O    6.329703   3.621229   4.469841   2.351552   2.561915
    17  H    6.980290   4.311976   5.248452   3.164969   3.507739
                   11         12         13         14         15
    11  C    0.000000
    12  C    1.394768   0.000000
    13  H    2.152532   1.085895   0.000000
    14  C    2.403769   1.388534   2.155323   0.000000
    15  H    3.382139   2.136162   2.467734   1.084665   0.000000
    16  O    1.356584   2.410587   2.669510   3.661442   4.540979
    17  H    1.913158   2.445608   2.284887   3.822601   4.530947
                   16         17
    16  O    0.000000
    17  H    0.964945   0.000000
 Symmetry turned off by external request.
 Stoichiometry    C6H7BO3
 Framework group  C1[X(C6H7BO3)]
 Deg. of freedom    45
 Full point group                 C1      NOp   1
 Rotational constants (GHZ):           3.6755800           0.7402748           0.6161858
 Standard basis: 6-311+G(d,p) (5D, 7F)
   262 basis functions,   416 primitive gaussians,   272 cartesian basis functions
    36 alpha electrons       36 beta electrons
       nuclear repulsion energy       476.1878078795 Hartrees.
 NAtoms=   17 NActive=   17 NUniq=   17 SFac= 1.00D+00 NAtFMM=   60 NAOKFM=F Big=F
 Integral buffers will be    131072 words long.
 Raffenetti 2 integral format.
 Two-electron integral symmetry is turned off.
 ------------------------------------------------------------------------------
 Polarizable Continuum Model (PCM)
 =================================
 Model                : PCM.
 Atomic radii         : SMD-Coulomb.
 Polarization charges : Total charges.
 Charge compensation  : None.
 Solution method      : Matrix inversion.
 Cavity type          : VdW (van der Waals Surface) (Alpha=1.000).
 Cavity algorithm     : GePol (No added spheres)
                        Default sphere list used, NSphG=   17.
                        Lebedev-Laikov grids with approx.  5.0 points / Ang**2.
                        Smoothing algorithm: York/Karplus (Gamma=1.0000).
                        Polarization charges: spherical gaussians, with
                                              point-specific exponents (IZeta= 3).
                        Self-potential: point-specific (ISelfS= 7).
                        Self-field    : sphere-specific E.n sum rule (ISelfD= 2).
 1st derivatives      : Analytical E(r).r(x)/FMM algorithm (CHGder, D1EAlg=3).
                        Cavity 1st derivative terms included.
 Solvent              : TetraHydroFuran, Eps=   7.425700 Eps(inf)=   1.974025
 ------------------------------------------------------------------------------
 Spheres list:
 ISph  on   Nord     Re0    Alpha      Xe            Ye            Ze
    1   O      1    2.2940  1.000      8.651483      7.554851      5.489828
    2   H      2    1.2000  1.000      9.460674      7.403418      5.991276
    3   C      3    1.8500  1.000      6.250992      6.863966      5.176176
    4   B      4    1.8000  1.000      7.634462      6.734949      5.891924
    5   O      5    2.2940  1.000      7.900462      5.850102      6.903066
    6   H      6    1.2000  1.000      7.154788      5.298158      7.156341
    7   C      7    1.8500  1.000      5.148426      6.060523      5.500189
    8   H      8    1.2000  1.000      5.222873      5.303376      6.276072
    9   C      9    1.8500  1.000      3.929218      6.193019      4.852136
   10   H     10    1.2000  1.000      3.082361      5.567320      5.108610
   11   C     11    1.8500  1.000      3.788407      7.150582      3.848260
   12   C     12    1.8500  1.000      4.865345      7.966124      3.501169
   13   H     13    1.2000  1.000      4.750314      8.709968      2.718461
   14   C     14    1.8500  1.000      6.076744      7.815853      4.162954
   15   H     15    1.2000  1.000      6.908993      8.454172      3.886531
   16   O     16    2.2940  1.000      2.579482      7.246600      3.240311
   17   H     17    1.2000  1.000      2.605222      7.937663      2.567342
 ------------------------------------------------------------------------------
 ------------------------------------------------------------------------------
 Atomic radii for non-electrostatic terms: SMD-CDS.
 ------------------------------------------------------------------------------
 Nuclear repulsion after PCM non-electrostatic terms =      476.1831418990 Hartrees.
 One-electron integrals computed using PRISM.
 NBasis=   262 RedAO= T EigKep=  2.29D-06  NBF=   262
 NBsUse=   262 1.00D-06 EigRej= -1.00D+00 NBFU=   262
 Initial guess from the checkpoint file:  "4-OH-phboh2-opt-freq-thf.chk"
 B after Tr=     0.010359    0.003401   -0.014875
         Rot=    1.000000   -0.000515    0.000112   -0.000333 Ang=  -0.07 deg.
 ExpMin= 3.15D-02 ExpMax= 8.59D+03 ExpMxC= 1.30D+03 IAcc=3 IRadAn=         5 AccDes= 0.00D+00
 Harris functional with IExCor= 1009 and IRadAn=       5 diagonalized for initial guess.
 HarFok:  IExCor= 1009 AccDes= 0.00D+00 IRadAn=         5 IDoV= 1 UseB2=F ITyADJ=14
 ICtDFT=  3500011 ScaDFX=  1.000000  1.000000  1.000000  1.000000
 FoFCou: FMM=F IPFlag=           0 FMFlag=      100000 FMFlg1=           0
         NFxFlg=           0 DoJE=T BraDBF=F KetDBF=T FulRan=T
         wScrn=  0.000000 ICntrl=       500 IOpCl=  0 I1Cent=   200000004 NGrid=           0
         NMat0=    1 NMatS0=      1 NMatT0=    0 NMatD0=    1 NMtDS0=    0 NMtDT0=    0
 Symmetry not used in FoFCou.
 Requested convergence on RMS density matrix=1.00D-08 within 128 cycles.
 Requested convergence on MAX density matrix=1.00D-06.
 Requested convergence on             energy=1.00D-06.
 Level shift goal  0.100 maximum shift  0.100.
 No special actions if energy rises.
 Dynamic level shift is on during FON iterations.
 Inv3:  Mode=1 IEnd=     7096332.
 Iteration    1 A*A^-1 deviation from unit magnitude is 4.00D-15 for   1533.
 Iteration    1 A*A^-1 deviation from orthogonality  is 2.59D-15 for   1364    774.
 Iteration    1 A^-1*A deviation from unit magnitude is 3.77D-15 for   1533.
 Iteration    1 A^-1*A deviation from orthogonality  is 1.79D-15 for   1535   1396.
 Error on total polarization charges =  0.01824
 SCF Done:  E(RM062X) =  -483.467304166     A.U. after    9 cycles
            NFock=  9  Conv=0.68D-08     -V/T= 2.0036
 SMD-CDS (non-electrostatic) energy       (kcal/mol) =      -2.93
 (included in total energy above)
 D1PCM: PCM CHGder 1st derivatives, ID1Alg=3 FixD1E=F DoIter=F DoCFld=F I1PDM=0.
 Calling FoFJK, ICntrl=      2127 FMM=F ISym2X=0 I1Cent= 0 IOpClX= 0 NMat=1 NMatS=1 NMatT=0.
 -------------------------------------------------------------------
 Center     Atomic                   Forces (Hartrees/Bohr)
 Number     Number              X              Y              Z
 -------------------------------------------------------------------
      1        8           0.000003872   -0.000015634    0.000019101
      2        1          -0.000011081   -0.000016882   -0.000001133
      3        6          -0.000000285   -0.000005546   -0.000003064
      4        5           0.000002752    0.000000938   -0.000004608
      5        8          -0.000039707   -0.000016880    0.000005688
      6        1           0.000000088   -0.000003162   -0.000015828
      7        6          -0.000010785    0.000006098   -0.000002429
      8        1           0.000015898    0.000011362    0.000017961
      9        6          -0.000002463    0.000007211   -0.000004575
     10        1          -0.000006834    0.000016264   -0.000005503
     11        6           0.000010546    0.000007688    0.000002662
     12        6           0.000005976   -0.000006824    0.000004329
     13        1           0.000012333    0.000001685   -0.000002763
     14        6           0.000007228    0.000000281    0.000001215
     15        1           0.000009922   -0.000010864    0.000002636
     16        8          -0.000004929    0.000025144   -0.000020493
     17        1           0.000007467   -0.000000879    0.000006804
 -------------------------------------------------------------------
 Cartesian Forces:  Max     0.000039707 RMS     0.000011237

 GradGradGradGradGradGradGradGradGradGradGradGradGradGradGradGradGradGrad
 Berny optimization.
 Using GEDIIS/GDIIS optimizer.
 FormGI is forming the generalized inverse of G from B-inverse, IUseBI=4.
 Internal  Forces:  Max     0.000051834 RMS     0.000013879
 Search for a local minimum.
 Step number   3 out of a maximum of   85
 All quantities printed in internal units (Hartrees-Bohrs-Radians)
 Mixed Optimization -- En-DIIS/RFO-DIIS
 Swapping is turned off.
 Update second derivatives using D2CorX and points    1    2    3
 DE= -9.60D-07 DEPred=-4.94D-07 R= 1.94D+00
 Trust test= 1.94D+00 RLast= 2.86D-02 DXMaxT set to 3.00D-01
 ITU=  0  1  0
     Eigenvalues ---    0.00001   0.00584   0.00962   0.01175   0.01414
     Eigenvalues ---    0.01565   0.01774   0.02035   0.02235   0.02330
     Eigenvalues ---    0.02775   0.02863   0.03214   0.03935   0.10423
     Eigenvalues ---    0.10919   0.11242   0.11466   0.12037   0.13013
     Eigenvalues ---    0.15789   0.16722   0.17631   0.18663   0.18896
     Eigenvalues ---    0.19418   0.20708   0.22276   0.30125   0.31183
     Eigenvalues ---    0.35628   0.35863   0.36491   0.36783   0.38358
     Eigenvalues ---    0.39468   0.42410   0.46376   0.47612   0.48476
     Eigenvalues ---    0.49667   0.53185   0.54560   0.55373   1.08362
 Eigenvalue     1 is   1.27D-05 Eigenvector:
                          D4        D3        D6        D5        D15
   1                    0.48452   0.48168   0.46787   0.46502   0.20001
                          D16       D1        D2        D9        D20
   1                    0.19719   0.07936   0.07671   0.04406  -0.02918
 En-DIIS/RFO-DIIS/Sim-DIIS IScMMF=       -3 using points:     3    2    1
 RFO step:  Lambda=-1.05445753D-05.
 DIIS inversion failure, remove point   3.
 Use linear search instead of GDIIS.
 RFO step:  Lambda=-1.05445694D-05 EMin= 1.00000000D-04
 Skip linear search -- no minimum in search direction.
 Iteration  1 RMS(Cart)=  0.08410869 RMS(Int)=  0.00337052
 Iteration  2 RMS(Cart)=  0.00475271 RMS(Int)=  0.00001059
 Iteration  3 RMS(Cart)=  0.00001299 RMS(Int)=  0.00000346
 Iteration  4 RMS(Cart)=  0.00000000 RMS(Int)=  0.00000346
 Variable       Old X    -DE/DX   Delta X   Delta X   Delta X     New X
                                 (Linear)    (Quad)   (Total)
    R1        1.82157  -0.00001   0.00000   0.00044   0.00044   1.82202
    R2        2.58295  -0.00001   0.00000   0.00035   0.00035   2.58330
    R3        2.95362  -0.00003   0.00000   0.00039   0.00039   2.95401
    R4        2.64977  -0.00002   0.00000   0.00006   0.00006   2.64983
    R5        2.64769  -0.00001   0.00000   0.00032   0.00032   2.64801
    R6        2.58839  -0.00001   0.00000  -0.00014  -0.00014   2.58825
    R7        1.81730  -0.00001   0.00000   0.00067   0.00067   1.81797
    R8        2.05347   0.00001   0.00000   0.00020   0.00020   2.05368
    R9        2.62121   0.00000   0.00000   0.00012   0.00012   2.62133
   R10        2.04793   0.00000   0.00000   0.00008   0.00008   2.04801
   R11        2.63515   0.00000   0.00000   0.00008   0.00008   2.63523
   R12        2.63573   0.00000   0.00000   0.00012   0.00011   2.63584
   R13        2.56357   0.00001   0.00000   0.00006   0.00006   2.56363
   R14        2.05204   0.00000   0.00000  -0.00002  -0.00002   2.05202
   R15        2.62395   0.00000   0.00000   0.00003   0.00003   2.62398
   R16        2.04972   0.00000   0.00000   0.00007   0.00007   2.04979
   R17        1.82348  -0.00002   0.00000   0.00089   0.00089   1.82437
    A1        1.95773   0.00000   0.00000   0.00022   0.00022   1.95794
    A2        2.14467  -0.00005   0.00000  -0.00089  -0.00089   2.14377
    A3        2.09131   0.00003   0.00000   0.00115   0.00115   2.09246
    A4        2.04721   0.00002   0.00000  -0.00026  -0.00027   2.04695
    A5        2.06505   0.00003   0.00000   0.00042   0.00042   2.06548
    A6        2.04899   0.00002   0.00000  -0.00042  -0.00042   2.04857
    A7        2.16914  -0.00005   0.00000   0.00000   0.00000   2.16914
[...]
   zx        -0.129257D+02     -0.191539D+01     -0.213116D+01
   zy        -0.119944D+02     -0.177738D+01     -0.197760D+01
   zz         0.149276D+03      0.221204D+02      0.246123D+02

 ----------------------------------------------------------------------
 Unable to Open any file for archive entry.
 1\1\GINC-CN011\Freq\RM062X\6-311+G(d,p)\C6H7B1O3\TAHMINAAFROZ\02-May-2
 025\0\\#N Geom=AllCheck Guess=TCheck SCRF=Check GenChk RM062X/6-311+G(
 d,p) Freq\\4-OH-phboh2-opt-freq-thf\\0,1\O,8.6296844739,7.6065573277,5
 .5466037576\H,9.4436385724,7.4407674232,6.0356508608\C,6.2493690481,6.
 8709049321,5.1807198624\B,7.6323633464,6.740021813,5.8963906797\O,7.91
 58460777,5.8064920879,6.8576573898\H,7.19074567,5.2070400068,7.0568246
 721\C,5.1410277923,6.0826376633,5.5214941351\H,5.2104005366,5.34383967
 34,6.3155231633\C,3.9219455272,6.2126780856,4.8726529969\H,3.069823139
 8,5.6001292928,5.1430230576\C,3.7877837897,7.151948718,3.8507193948\C,
 4.870347428,7.9531328525,3.4879465935\H,4.7601298778,8.6828638567,2.69
 1398374\C,6.0808255747,7.8072961532,4.1523789555\H,6.917068852,8.43539
 74767,3.8647506304\O,2.5791225008,7.2458450334,3.2417709057\H,2.610124
 7927,7.9230896039,2.5551405707\\Version=AS64L-G16RevC.01\HF=-483.46731
 09\RMSD=2.021e-09\RMSF=5.714e-06\ZeroPoint=0.129686\Thermal=0.1387538\
 ETot=-483.3285571\HTot=-483.3276129\GTot=-483.3722323\Dipole=-0.240488
 5,-0.0002452,-0.1993885\DipoleDeriv=-1.5669459,-0.4220782,-0.0254561,-
 0.5209634,-0.9119413,0.0230795,0.059805,0.0671386,-0.672663,0.4291459,
 0.0442199,-0.0217503,0.0558422,0.3621399,0.0485446,-0.0227957,0.042506
 1,0.3426339,-0.9554958,0.0256376,-0.3263311,-0.0092109,-0.3917344,0.15
 10058,-0.3017654,0.1569513,-0.5234994,2.3372976,0.1620734,0.5746764,0.
 2710264,1.436838,-0.5603933,0.4753968,-0.611433,1.4299409,-0.8501372,0
 .1585554,-0.2328641,0.1815556,-1.1114412,0.5153319,-0.2602083,0.514419
 8,-1.2005635,0.3063745,-0.0479866,0.0110722,-0.0855565,0.4157347,-0.07
 13295,0.0357366,-0.0603322,0.4446651,0.3993314,0.1110455,0.1232204,0.1
 342478,0.0045293,-0.1193728,0.1258409,-0.1205016,0.013589,0.1074796,0.
 022363,-0.0477591,0.0135267,0.0334665,0.1355251,-0.0373621,0.1418271,0
 .0043535,-0.2768762,0.0325434,-0.0613778,0.3393701,-0.1894303,0.114047
 4,-0.3818182,-0.022271,-0.356412,0.0094871,-0.0819583,0.0039136,-0.076
 4503,0.1149012,0.0553711,-0.0020553,0.0535541,0.1444843,1.63566,-0.153
 4862,0.7989806,-0.1608369,0.2346511,-0.1746567,0.8124925,-0.1696055,0.
 645578,-0.5671233,0.1034966,-0.2541185,-0.2116961,-0.1276417,-0.186822
 4,0.0584057,-0.055751,-0.1375946,0.0823234,0.0168329,-0.0692581,0.0154
 668,0.0887867,0.1229457,-0.0643827,0.1214601,0.05147,0.2175466,-0.0269
 443,0.1842761,-0.0291506,0.0406349,-0.2042281,0.1918225,-0.1961939,0.1
 341049,0.0347845,-0.089217,0.0389908,-0.0720293,0.0817323,0.0503238,0.
 0219889,0.0407049,0.1278805,-1.7031744,0.2315654,-0.7712732,0.27762,-0
 .4305207,0.1064681,-0.8233402,0.0878404,-0.87944,0.3603223,-0.0866625,
 0.0750584,-0.1227616,0.3492948,-0.0058402,0.1122389,0.0096859,0.431472
 4\Polar=141.5317713,9.0022451,100.8191959,22.2622218,-29.5981009,106.8
 859954\Quadrupole=-5.1492061,3.5291422,1.6200639,-4.7318354,-1.8354883
 ,-9.3226057\PG=C01 [X(C6H7B1O3)]\NImag=0\\0.61361660,0.08718949,0.2302
 4228,0.16771140,-0.13963006,0.22709153,-0.37269399,0.05655343,-0.20207
 560,0.39924769,0.08258666,-0.03976829,0.06020937,-0.05967933,0.0365477
 6,-0.22516812,0.04925245,-0.14981296,0.21695360,-0.04960698,0.14434791
 ,-0.02930692,-0.00755727,-0.00955642,0.00052181,-0.00212876,0.00051540
 ,0.59756657,-0.02001719,0.00490280,-0.00535000,-0.00306453,-0.00017643
 ,0.00255427,0.10468084,0.40334492,0.00186805,0.00011922,0.00917188,0.0
 0131815,0.00293188,0.00208736,0.09198028,-0.23698963,0.40674829,-0.212
 09035,-0.10966202,0.02760863,-0.03145736,-0.02340345,0.00670599,-0.168
 70724,0.00743971,-0.05314336,0.50909574,-0.13093817,-0.16032432,0.0451
 4342,-0.00007536,0.00390226,-0.00184640,0.00746769,-0.06739813,0.01031
 621,0.09820289,0.41189201,0.04642451,0.05405089,-0.07602698,-0.0139870
 3,-0.01175870,0.00633246,-0.05275399,0.01051554,-0.09319183,0.06833452
 ,-0.19870260,0.35370034,0.00560012,-0.02837717,0.02310798,0.00428429,0
 .00245562,0.00076865,0.00028959,0.01686933,-0.02188515,-0.09192747,0.0
 2049828,-0.04031407,0.40550048,-0.01943934,-0.03749912,0.03569376,0.00
 572218,-0.00004287,0.00008396,0.00383294,0.00166903,0.01443868,0.04588
 085,-0.17109084,0.13541320,0.21475766,0.42043609,0.01492011,0.03167180
 ,-0.01030674,-0.00213763,-0.00123222,-0.00236615,-0.01045637,0.0200655
 7,-0.00665347,-0.06259971,0.12370761,-0.18094964,-0.01822038,-0.250729
 46,0.24048375,0.00293966,0.00182934,-0.00316458,-0.00005372,0.00042296
 ,-0.00002177,-0.00162369,0.00088644,-0.00053230,0.00485792,0.00288474,
 0.00097754,-0.31650905,-0.25041263,0.08102113,0.31236450,0.00053649,0.
 00197642,0.00405854,0.00040701,-0.00054482,-0.00012080,0.00016784,0.00
 075400,-0.00263554,-0.01868068,-0.01881423,0.00563731,-0.22570908,-0.2
 1237321,0.07695644,0.24363432,0.22760382,-0.00184495,0.00480070,0.0010
 7598,-0.00006251,-0.00015641,-0.00073904,0.00029210,-0.00235677,-0.000
 23581,0.01988697,0.01575233,-0.00788711,0.05903720,0.06515688,-0.03947
 902,-0.07691354,-0.08333153,0.04642125,0.00025680,0.00118582,-0.001336
 44,-0.00063189,-0.00057306,-0.00016867,-0.23897112,-0.08027292,0.00839
 755,-0.02229956,-0.00882435,-0.00044109,0.00141230,-0.00296084,0.00405
 765,0.00109163,0.00043556,-0.00023707,0.62864258,0.00394707,0.00128492
 ,0.00165452,0.00009092,0.00042720,0.00007157,-0.11600032,-0.15562681,0
 .04737342,-0.00377779,0.00548433,-0.00660619,0.00066548,-0.00348216,0.
 00215509,0.00258008,0.00038736,0.00088055,0.09277428,0.44399490,-0.004
 45617,0.00033526,-0.00123031,-0.00064903,-0.00023594,0.00027378,0.0451
 3767,0.06289366,-0.10671176,-0.00586624,-0.00896641,0.00710661,0.00029
 350,0.00096847,-0.00219383,-0.00232841,0.00024299,-0.00040533,0.109894
 72,-0.27283301,0.46910291,0.00044141,0.00026983,-0.00011942,-0.0000376
 1,-0.00004865,-0.00003612,0.00752081,-0.01475192,0.01743437,-0.0003383
 5,-0.00002776,0.00114438,-0.00185147,-0.00161311,0.00041038,-0.0024713
 5,0.00064617,-0.00123482,-0.05914680,0.00649454,-0.01524005,0.06188978
 ,-0.00024030,0.00027559,-0.00018566,-0.00011197,0.00003997,0.00008901,
 0.00249886,-0.00772372,0.01120918,0.00151570,-0.00244864,-0.00000717,-
 0.00071075,0.00017107,-0.00114166,-0.00086165,0.00100471,-0.00019384,0
 .00974440,-0.17670792,0.14626833,-0.00617681,0.17978309,0.00022403,-0.
 00006262,0.00032008,0.00002622,0.00010426,0.00008386,-0.00061791,0.003
 80592,-0.00201691,-0.00041869,-0.00052619,-0.00252147,0.00008211,-0.00
 148615,0.00199454,0.00008214,0.00008222,0.00065034,-0.01858861,0.14548
 112,-0.19762980,0.02167413,-0.16205883,0.20160300,-0.00340337,-0.00052
 941,-0.00086249,0.00005980,-0.00003680,0.00024954,-0.05199079,-0.03637
 893,0.01157431,0.00318175,-0.00534191,0.00444382,0.00012475,0.00130615
 ,-0.00119498,-0.00038485,0.00007063,-0.00002683,-0.30110453,0.02813959
 ,-0.13157068,0.00136347,-0.00164848,0.00018718,0.70611738,0.00078265,0
 .00058550,-0.00060572,-0.00026118,-0.00028886,-0.00031126,-0.00060638,
 0.02945176,-0.02145281,-0.00556411,0.00133320,0.00189819,0.00047474,-0
 .00019925,0.00043445,-0.00059060,0.00003574,-0.00065018,-0.02118163,-0
 .09731105,0.03205811,0.01963002,0.00152850,0.01163557,0.14060069,0.433
 82769,-0.00187081,-0.00125286,-0.00012913,0.00049037,-0.00006196,0.000
 03053,-0.02511469,-0.03701217,0.03557209,0.00468866,0.00210847,0.00547
 307,-0.00041046,0.00083332,-0.00090517,0.00054678,-0.00049469,0.000035
 94,-0.08099631,0.05304771,-0.14587059,-0.02172343,0.00277460,-0.007022
 24,0.10217067,-0.26139453,0.43492738,-0.00072431,-0.00008882,-0.000163
 34,-0.00002631,-0.00003128,0.00003909,-0.00246530,0.00031255,-0.004612
 47,0.00050437,-0.00078699,0.00081369,-0.00017846,0.00025916,-0.0003251
 9,-0.00001582,-0.00010170,0.00008949,-0.01500273,-0.01537153,0.0085175
 4,0.00063598,0.00108559,0.00106466,-0.23184259,-0.13353286,0.05402531,
 0.24222743,0.00009102,-0.00009310,-0.00004458,0.00004045,-0.00002265,-
 0.00002703,-0.00006487,0.00447234,0.00338917,0.00011877,0.00037348,0.0
 0016324,-0.00003512,-0.00000573,-0.00000945,0.00001665,-0.00000401,0.0
 0000303,0.00463220,0.00552580,-0.00137360,0.00073427,-0.00180529,-0.00
 248562,-0.13255665,-0.14064019,0.05310412,0.14383962,0.14038392,-0.000
 31726,-0.00012788,-0.00019124,-0.00001017,-0.00005656,-0.00002362,-0.0
 0433760,0.00350199,0.00239685,-0.00011251,-0.00022308,0.00067102,-0.00
 002841,0.00010658,-0.00012041,-0.00002406,-0.00003756,0.00002673,-0.01
 197315,-0.00974151,0.00727290,0.00144942,-0.00236791,-0.00148645,0.053
 04208,0.05273514,-0.06666557,-0.05593808,-0.05873524,0.06120480,0.0027
 6493,0.00130511,-0.00010115,-0.00020465,0.00003190,-0.00013572,-0.0023
 4370,-0.02380126,0.02489329,-0.00865203,-0.00057646,-0.00299315,0.0019
 3206,-0.00194066,0.00277773,0.00028392,0.00051796,-0.00049461,0.024334
 46,0.03054704,-0.02025625,-0.00349179,-0.00140666,-0.00358934,-0.11955
 584,0.01277471,-0.03595252,0.00463264,-0.01800130,0.01851613,0.6550748
 4,-0.00138950,-0.00028534,-0.00045414,0.00008037,0.00000909,0.00013818
 ,-0.02365158,-0.04560262,0.03229916,-0.00003853,-0.00231664,0.00225554
 ,0.00042144,0.00004380,0.00012725,0.00014836,0.00017600,-0.00000930,0.
 07349550,0.01447307,0.01445615,-0.00178752,0.00518710,0.00264771,-0.04
 090261,-0.19363043,0.11465600,0.00281543,-0.00682508,0.01281055,0.1043
 2774,0.45528127,0.00261591,0.00083393,0.00041237,-0.00021098,0.0000379
 1,-0.00017453,0.02508385,0.03252970,-0.02660414,-0.00347224,0.00199740
 ,-0.00372489,0.00033054,-0.00092628,0.00094723,-0.00005111,0.00020781,
 -0.00000760,-0.06438665,-0.00392432,-0.02526423,-0.00322903,0.00287767
 ,0.00420360,0.01902770,0.13721098,-0.19925163,-0.00286584,0.00411258,-
 0.00082846,0.10314908,-0.25993592,0.47087510,-0.00150682,-0.00081898,0
 .00043254,0.00019975,0.00005180,-0.00004889,0.01635507,0.05870144,-0.0
 5672642,0.00861313,0.00022202,0.00087264,-0.00155639,0.00170602,-0.001
 95648,-0.00010933,-0.00052152,0.00045459,-0.06792257,-0.02052903,-0.00
 703617,-0.00109113,0.00009394,0.00001853,0.04349208,-0.03652515,0.0538
 5109,0.00122456,0.00014463,-0.00207105,-0.21930526,-0.06750429,0.00310
 386,0.64174884,-0.00054079,-0.00002390,-0.00057498,0.00015779,0.000144
 22,-0.00002511,0.02207436,0.01509914,0.00349338,-0.00004732,0.00021682
 ,0.00566314,0.00108313,-0.00024123,-0.00065222,-0.00017835,0.00014707,
 -0.00002444,-0.01730602,-0.00725635,-0.00155949,0.00010357,-0.00033511
 ,-0.00083629,-0.00514662,-0.02251535,0.02551176,-0.00009147,0.00059810
 ,0.00533917,-0.12420114,-0.17151290,0.05830165,0.09398633,0.44198208,0
 .00024635,-0.00065915,0.00041877,-0.00008057,-0.00004680,0.00004505,-0
 .01961704,0.01861073,-0.01821625,0.00109860,0.00585480,0.00034914,-0.0
 0132727,-0.00011940,-0.00151256,0.00004300,-0.00030117,0.00037352,-0.0
 1042496,-0.00294460,-0.00301587,-0.00005530,-0.00087223,-0.00034189,0.
 02186671,0.01230462,0.00120389,-0.00184482,0.00543342,-0.00053206,0.06
 122218,0.08233367,-0.12192926,0.12497872,-0.29040766,0.47173262,-0.000
 35906,-0.00018568,0.00002478,0.00002367,0.00000560,-0.00000157,-0.0039
 2375,-0.00113918,-0.00376888,0.00108782,0.00069277,-0.00041931,-0.0006
 1793,0.00034672,-0.00044451,-0.00001150,-0.00013226,0.00009031,-0.0014
 2153,-0.00012856,-0.00008468,0.00006343,0.00025620,0.00014434,-0.00313
 936,-0.00389554,0.00019592,0.00030955,-0.00072969,0.00094846,0.0045937
 7,-0.01624833,0.01704329,-0.05890079,0.01282316,-0.02380440,0.05758653
 ,0.00016401,0.00004421,0.00001474,-0.00001802,0.00000757,0.00000321,-0
 .00076510,0.00475549,0.00264193,-0.00044812,0.00018220,0.00004224,0.00
 012793,-0.00018884,-0.00003104,-0.00001864,0.00003378,-0.00000495,-0.0
 0055403,-0.00030777,-0.00086209,0.00023253,-0.00045769,-0.00034902,-0.
 00409443,0.00157488,0.00264080,0.00025114,-0.00052668,0.00049391,0.004
 74483,-0.00749820,0.01360977,0.01283756,-0.17509281,0.15007922,-0.0128
 6014,0.17784310,-0.00031328,-0.00013572,-0.00002264,0.00002097,0.00001
 548,0.00001239,-0.00407685,0.00248454,0.00333324,0.00070855,0.00053083
 ,0.00017461,-0.00028999,0.00007481,-0.00043630,-0.00001039,-0.00006901
 ,0.00008168,0.00033481,-0.00069878,-0.00005750,0.00016962,-0.00034479,
 -0.00046379,0.00036959,0.00269599,0.00321185,-0.00005984,0.00006692,-0
 .00024673,-0.00454740,0.00471696,-0.00298053,-0.02344490,0.15010533,-0
 .19846631,0.02766995,-0.16399708,0.20403189,-0.00093123,0.00003230,-0.
 00045024,0.00047003,0.00028325,0.00010068,-0.11875009,-0.01499711,-0.0
 0898866,-0.00121353,0.01610323,-0.01718917,-0.00475495,0.00075137,-0.0
 0307515,-0.00029148,-0.00063612,0.00039404,0.04334048,-0.00754461,0.02
 454997,-0.00320603,-0.00462223,0.00029396,-0.02435993,0.01659379,-0.02
 685607,0.00006971,0.00106621,-0.00064052,-0.05886292,-0.04198039,0.019
 09992,-0.29209691,0.03218060,-0.13223832,0.00222472,-0.00072964,0.0006
 2260,0.67902368,-0.00297267,-0.00218089,0.00054299,-0.00007307,-0.0003
 5587,0.00006390,0.02231333,-0.18320329,0.13213246,0.00982705,0.0017155
 5,0.00328089,-0.00276927,0.00241057,-0.00160746,-0.00017220,-0.0004723
 7,0.00029803,-0.04180833,-0.03026561,0.01704874,-0.00426830,0.00231910
 ,0.00325978,0.01960072,-0.01617359,0.02389321,0.00064951,-0.00065706,-
 0.00012309,0.00135082,0.03189218,-0.03478042,-0.01775176,-0.09854853,0
 .03437110,0.01965135,0.00162903,0.00936224,0.13462309,0.43979756,0.002
 43486,0.00195700,-0.00102266,0.00041358,0.00023689,-0.00031121,-0.0469
 6055,0.11640729,-0.20271898,-0.01033919,0.00581158,-0.00969575,0.00002
 324,-0.00031370,0.00226990,0.00019082,0.00019548,-0.00026571,0.0597136
 3,0.03158170,-0.00343301,-0.00004049,0.00314280,0.00395858,-0.02994841
 ,0.02264858,-0.03687096,-0.00019331,0.00004037,-0.00121124,-0.02516722
 ,-0.05305250,0.04129618,-0.08146428,0.05541028,-0.14942916,-0.02035492
 ,0.00073826,-0.00670111,0.08956067,-0.24604154,0.43405005,-0.00056036,
 0.00041317,-0.00071527,-0.00006813,0.00002752,0.00005656,0.00669297,0.
 00245780,-0.00080833,-0.00044511,0.00104135,0.00003188,0.00021167,-0.0
 0036566,0.00021215,0.00000472,0.00003230,-0.00000392,0.00179903,-0.000
 10121,-0.00221709,0.00029970,0.00019571,-0.00013073,-0.00026559,0.0007
 5066,-0.00029777,-0.00009225,0.00009455,0.00021665,-0.00146871,0.00011
 834,-0.00435782,-0.01568113,-0.01611122,0.00777931,0.00069513,0.001120
 12,0.00104754,-0.22619702,-0.13059757,0.05513902,0.23665247,-0.0001989
 8,0.00062061,-0.00054428,0.00024905,0.00011730,-0.00028018,-0.01547937
 ,-0.00773459,0.00411242,-0.00081386,-0.00252493,-0.00093694,0.00014218
 ,0.00044776,0.00011898,-0.00005221,0.00002275,-0.00008641,0.00000112,0
 .00116762,0.00617915,-0.00084040,-0.00045469,0.00022397,0.00080994,-0.
 00057148,-0.00047064,0.00007363,-0.00037507,-0.00043104,0.00000628,0.0
 0456589,0.00395592,0.00411272,0.00626282,0.00030919,0.00072636,-0.0017
 9612,-0.00240584,-0.13076182,-0.14587747,0.05174564,0.14175822,0.14613
 383,-0.00022302,-0.00034052,0.00037522,-0.00019577,-0.00036941,0.00010
 493,0.01770803,0.01172991,-0.00179402,0.00184279,-0.00005883,-0.002068
 14,-0.00020828,-0.00024339,0.00058009,0.00009806,-0.00003979,0.0000156
 0,-0.00226506,0.00616253,-0.00004885,0.00092813,0.00065782,-0.00017309
 ,-0.00034974,-0.00049185,-0.00101643,0.00023246,-0.00042877,-0.0002974
 0,-0.00419346,0.00403321,0.00252004,-0.01294003,-0.00828899,0.00784546
 ,0.00145457,-0.00225200,-0.00153357,0.05521720,0.05188399,-0.07051258,
 -0.05631568,-0.06118903,0.06594889,-0.00416930,-0.00157784,-0.00037123
 ,0.00038333,0.00004622,0.00019709,-0.01101072,0.00353875,-0.00755527,0
 .01006762,-0.00052515,0.00513176,-0.00206399,0.00226494,-0.00313816,-0
 .00008630,-0.00069387,0.00060297,0.00449554,-0.00261416,0.00243803,-0.
 00021945,0.00032173,-0.00034970,-0.01250201,0.01151611,-0.02027886,0.0
 0071537,0.00036755,0.00124919,-0.27603315,-0.01977226,-0.07766552,-0.0
 5503367,-0.00058627,-0.02667279,0.00265458,0.00138026,0.00073675,0.006
 04934,-0.00794522,0.00720282,-0.00175575,0.00029251,-0.00088619,0.3811
 8833,0.00085248,0.00040281,0.00009511,-0.00004976,-0.00001271,-0.00006
 778,0.00419473,0.00279357,-0.00269200,-0.00153749,-0.00009637,-0.00136
 874,0.00029336,-0.00023865,0.00046109,-0.00010445,0.00012057,-0.000141
 90,-0.00870606,-0.00250327,0.00431949,0.00133331,-0.00030566,0.0007365
 7,0.03684395,0.00028158,0.02277751,0.00060617,-0.00025707,-0.00269822,
 0.01082689,-0.07983572,0.04122063,-0.02471484,0.00937205,-0.01054405,0
 .00044426,0.00001077,-0.00290569,-0.00070056,-0.00096139,0.00909984,-0
 .00065974,-0.00001484,-0.00069820,0.02829155,0.33209050,-0.00272012,-0
 .00098863,-0.00016807,0.00023991,-0.00001294,0.00011563,-0.00830167,-0
 .00290842,-0.00205563,0.00618683,-0.00093715,0.00281616,-0.00121443,0.
 00131756,-0.00168942,0.00007891,-0.00043570,0.00039532,0.00857357,0.00
 690866,0.00188288,-0.00142343,0.00032830,-0.00102757,-0.04629027,0.012
 03265,-0.02472010,0.00106375,-0.00281607,0.00017626,-0.10929638,0.0283
 1358,-0.11976488,-0.00233462,-0.00029599,0.00859386,0.00203806,-0.0025
 2752,0.00004536,-0.00017898,0.00600611,0.00190161,0.00011366,-0.000298
 37,-0.00007423,0.12130243,-0.30344289,0.39228563,0.00012619,0.00001869
 ,0.00003087,-0.00001673,-0.00001021,-0.00000573,0.00014649,-0.00046382
 ,0.00055483,-0.00027733,-0.00001683,-0.00007693,0.00010447,-0.00009575
 ,0.00014940,0.00001475,0.00002695,-0.00002941,0.00112790,0.00082820,-0
 .00112665,-0.00036061,0.00006674,-0.00010234,-0.00579037,-0.00096592,-
 0.00246787,0.00002818,0.00024171,0.00003089,-0.00369859,0.03186783,-0.
 03321496,0.00157058,0.00180028,-0.00116939,-0.00086527,-0.00137026,0.0
 0106226,-0.00051387,0.00034254,-0.00021029,0.00017836,-0.00002538,0.00
 009598,-0.04267978,-0.04721378,0.03216278,0.05090564,-0.00041292,-0.00
 016019,-0.00002305,0.00003204,0.00001713,0.00002898,-0.00097693,0.0002
 2253,-0.00068711,0.00098840,-0.00008576,0.00046017,-0.00018776,0.00018
 358,-0.00029477,-0.00001215,-0.00005357,0.00006421,-0.00008166,0.00071
 575,0.00106019,0.00007022,-0.00007040,-0.00017237,-0.00073584,0.002711
 33,-0.00066066,0.00011185,-0.00014171,-0.00044525,0.00349422,-0.004121
 47,0.00267098,-0.00349089,0.00170388,-0.00340169,0.00037297,-0.0002129
 3,0.00050381,0.00033865,-0.00106793,0.00039202,-0.00017433,0.00001060,
 -0.00006666,-0.01430486,-0.26084614,0.25975682,0.01496900,0.26119530,0
 .00046850,0.00017620,0.00004491,-0.00005349,0.00000212,-0.00000639,0.0
 0107577,-0.00048215,0.00088909,-0.00110960,0.00003800,-0.00055762,0.00
 025524,-0.00026883,0.00033721,0.00000779,0.00008500,-0.00005673,-0.000
 15394,0.00143153,0.00022200,-0.00010832,-0.00017562,-0.00013079,-0.002
 68821,-0.00074792,0.00199709,0.00015690,-0.00039249,-0.00014538,-0.003
 83122,0.01466390,-0.01972439,0.00431088,-0.00115955,0.00288106,-0.0007
 3141,-0.00024036,0.00001748,-0.00022194,0.00040908,-0.00130395,0.00024
 981,-0.00000255,0.00012808,-0.00194332,0.24584925,-0.25871280,0.004316
 56,-0.25918561,0.27412114\\-0.00000349,0.00001324,0.00000265,-0.000003
 10,0.00001646,0.00000278,0.00000015,0.00000235,0.00000026,0.00000041,0
 .00000796,0.00000081,0.00000427,0.00000789,-0.00000036,0.00000723,0.00
 000428,-0.00000172,0.00000375,-0.00000333,-0.00000162,0.00000684,-0.00
 000421,-0.00000259,0.00000352,-0.00000834,-0.00000196,0.00000629,-0.00
 001275,-0.00000341,-0.00000036,-0.00000745,-0.00000073,-0.00000407,-0.
 00000184,0.00000108,-0.00000711,-0.00000115,0.00000203,-0.00000372,0.0
 0000308,0.00000145,-0.00000656,0.00000746,0.00000288,-0.00000062,-0.00
 001233,-0.00000138,-0.00000341,-0.00001133,-0.00000019\\\@
 The archive entry for this job was punched.


 EXPERIENCE IS A WONDERFUL THING.  IT ENABLES
 YOU TO RECOGNIZE A MISTAKE WHEN YOU MAKE IT AGAIN.
           - BACK OF A SUGAR PACKET
 Job cpu time:       0 days  0 hours 45 minutes 24.6 seconds.
 Elapsed time:       0 days  0 hours  1 minutes 29.9 seconds.
 File lengths (MBytes):  RWF=    159 Int=      0 D2E=      0 Chk=     14 Scr=      1
 Normal termination of Gaussian 16 at Fri May  2 03:34:27 2025.
