/home/tahminaafroz
cn020.cluster.local
tahminaafroz
Tue Apr 22 20:41:34 CDT 2025
 Entering Gaussian System, Link 0=g16
 Initial command:
 /home/apps/g16/l1.exe "/tmp/4-OMe-phboh2-opt-freq-thf/Gau-2191984.inp" -scrdir="/tmp/4-OMe-phboh2-opt-freq-thf/"
 Entering Link 1 = /home/apps/g16/l1.exe PID=   2191985.
  
 Copyright (c) 1988-2019, Gaussian, Inc.  All Rights Reserved.
  
 This is part of the Gaussian(R) 16 program.  It is based on
 the Gaussian(R) 09 system (copyright 2009, Gaussian, Inc.),
 the Gaussian(R) 03 system (copyright 2003, Gaussian, Inc.),
 the Gaussian(R) 98 system (copyright 1998, Gaussian, Inc.),
 the Gaussian(R) 94 system (copyright 1995, Gaussian, Inc.),
 the Gaussian 92(TM) system (copyright 1992, Gaussian, Inc.),
 the Gaussian 90(TM) system (copyright 1990, Gaussian, Inc.),
 the Gaussian 88(TM) system (copyright 1988, Gaussian, Inc.),
 the Gaussian 86(TM) system (copyright 1986, Carnegie Mellon
 University), and the Gaussian 82(TM) system (copyright 1983,
 Carnegie Mellon University). Gaussian is a federally registered
 trademark of Gaussian, Inc.
  
 This software contains proprietary and confidential information,
 including trade secrets, belonging to Gaussian, Inc.
  
 This software is provided under written license and may be
 used, copied, transmitted, or stored only in accord with that
 written license.
  
 The following legend is applicable only to US Government
 contracts under FAR:
  
                    RESTRICTED RIGHTS LEGEND
  
 Use, reproduction and disclosure by the US Government is
 subject to restrictions as set forth in subparagraphs (a)
 and (c) of the Commercial Computer Software - Restricted
 Rights clause in FAR 52.227-19.
  
 Gaussian, Inc.
 340 Quinnipiac St., Bldg. 40, Wallingford CT 06492
  
  
 ---------------------------------------------------------------
 Warning -- This program may not be used in any manner that
 competes with the business of Gaussian, Inc. or will provide
 assistance to any competitor of Gaussian, Inc.  The licensee
 of this program is prohibited from giving any competitor of
 Gaussian, Inc. access to this program.  By using this program,
 the user acknowledges that Gaussian, Inc. is engaged in the
 business of creating and licensing software in the field of
 computational chemistry and represents and warrants to the
 licensee that it is not a competitor of Gaussian, Inc. and that
 it will not use this program in any manner prohibited above.
 ---------------------------------------------------------------
  

 Cite this work as:
 Gaussian 16, Revision C.01,
 M. J. Frisch, G. W. Trucks, H. B. Schlegel, G. E. Scuseria, 
 M. A. Robb, J. R. Cheeseman, G. Scalmani, V. Barone, 
 G. A. Petersson, H. Nakatsuji, X. Li, M. Caricato, A. V. Marenich, 
 J. Bloino, B. G. Janesko, R. Gomperts, B. Mennucci, H. P. Hratchian, 
 J. V. Ortiz, A. F. Izmaylov, J. L. Sonnenberg, D. Williams-Young, 
 F. Ding, F. Lipparini, F. Egidi, J. Goings, B. Peng, A. Petrone, 
 T. Henderson, D. Ranasinghe, V. G. Zakrzewski, J. Gao, N. Rega, 
 G. Zheng, W. Liang, M. Hada, M. Ehara, K. Toyota, R. Fukuda, 
 J. Hasegawa, M. Ishida, T. Nakajima, Y. Honda, O. Kitao, H. Nakai, 
 T. Vreven, K. Throssell, J. A. Montgomery, Jr., J. E. Peralta, 
 F. Ogliaro, M. J. Bearpark, J. J. Heyd, E. N. Brothers, K. N. Kudin, 
 V. N. Staroverov, T. A. Keith, R. Kobayashi, J. Normand, 
 K. Raghavachari, A. P. Rendell, J. C. Burant, S. S. Iyengar, 
 J. Tomasi, M. Cossi, J. M. Millam, M. Klene, C. Adamo, R. Cammi, 
 J. W. Ochterski, R. L. Martin, K. Morokuma, O. Farkas, 
 J. B. Foresman, and D. J. Fox, Gaussian, Inc., Wallingford CT, 2019.
 
 ******************************************
 Gaussian 16:  AS64L-G16RevC.01  3-Jul-2019
                22-Apr-2025 
 ******************************************
 %mem=20GB
 %nprocshared=32
 Will use up to   32 processors via shared memory.
 %chk=4-OMe-phboh2-opt-freq-thf.chk
 ----------------------------------------------------------------------
 # opt=(calcfc,tight) freq 6-311+g(d,p) scrf=(smd,solvent=thf) nosymm s
 cf=(qc,fermi,xqc) geom=connectivity int=ultrafine m062x
 ----------------------------------------------------------------------
 1/7=10,10=4,18=20,19=15,26=6,38=1,57=2/1,3;
 2/9=110,12=2,15=1,17=6,18=5,40=1/2;
 3/5=4,6=6,7=111,11=2,25=1,30=1,70=32201,71=2,72=20,74=-55,75=-5,140=1/1,2,3;
 4//1;
 5/5=2,22=13,38=5,53=20/2;
 8/6=4,10=90,11=11/1;
 11/6=1,8=1,9=11,15=111,16=1,31=1/1,2,10;
 10/6=1,13=1,31=1/2;
 6/7=2,8=2,9=2,10=2,28=1/1;
 7/10=1,25=1,30=1/1,2,3,16;
 1/7=10,10=4,18=20,19=15,26=6/3(2);
 2/9=110,15=1/2;
 99//99;
 2/9=110,15=1/2;
 3/5=4,6=6,7=111,11=2,25=1,30=1,70=32205,71=1,72=20,74=-55,75=-5/1,2,3;
 4/5=5,16=3,69=1/1;
 5/5=2,22=13,38=5,53=20/2;
 7/30=1/1,2,3,16;
 1/7=10,18=20,19=15,26=6/3(-5);
 2/9=110,15=1/2;
 6/7=2,8=2,9=2,10=2,19=2,28=1/1;
 99/9=1/99;
 -------------------------
 4-OMe-phboh2-opt-freq-thf
 -------------------------
 Symbolic Z-matrix:
 Charge =  0 Multiplicity = 1
 O                     8.66698   7.53064   5.47881 
 H                     9.4676    7.37846   5.98861 
 C                     6.26035   6.86267   5.17548 
 B                     7.64029   6.73213   5.89222 
 O                     7.89484   5.8628    6.92112 
 H                     7.1404    5.33704   7.19071 
 C                     5.15404   6.05732   5.48701 
 H                     5.22623   5.29146   6.25509 
 C                     3.94258   6.19849   4.8367 
 H                     3.08871   5.57684   5.07592 
 C                     3.8008    7.16644   3.83729 
 C                     4.88182   7.98207   3.50209 
 H                     4.79563   8.73655   2.73196 
 C                     6.09104   7.81853   4.17197 
 H                     6.93016   8.45312   3.90899 
 O                     2.58002   7.23596   3.25347 
 C                     2.3868    8.19885   2.23745 
 H                     1.35582   8.08756   1.9101 
 H                     2.54059   9.21229   2.62014 
 H                     3.05894   8.02112   1.39257 
 

 GradGradGradGradGradGradGradGradGradGradGradGradGradGradGradGradGradGrad
 Berny optimization.
 Initialization pass.
                           ----------------------------
                           !    Initial Parameters    !
                           ! (Angstroms and Degrees)  !
 --------------------------                            --------------------------
 ! Name  Definition              Value          Derivative Info.                !
 --------------------------------------------------------------------------------
 ! R1    R(1,2)                  0.9613         calculate D2E/DX2 analytically  !
 ! R2    R(1,4)                  1.3648         calculate D2E/DX2 analytically  !
 ! R3    R(3,4)                  1.5604         calculate D2E/DX2 analytically  !
 ! R4    R(3,7)                  1.4034         calculate D2E/DX2 analytically  !
 ! R5    R(3,14)                 1.3962         calculate D2E/DX2 analytically  !
 ! R6    R(4,5)                  1.3708         calculate D2E/DX2 analytically  !
 ! R7    R(5,6)                  0.9583         calculate D2E/DX2 analytically  !
 ! R8    R(7,8)                  1.0871         calculate D2E/DX2 analytically  !
 ! R9    R(7,9)                  1.3822         calculate D2E/DX2 analytically  !
 ! R10   R(9,10)                 1.0829         calculate D2E/DX2 analytically  !
 ! R11   R(9,11)                 1.3985         calculate D2E/DX2 analytically  !
 ! R12   R(11,12)                1.3951         calculate D2E/DX2 analytically  !
 ! R13   R(11,16)                1.355          calculate D2E/DX2 analytically  !
 ! R14   R(12,13)                1.0816         calculate D2E/DX2 analytically  !
 ! R15   R(12,14)                1.392          calculate D2E/DX2 analytically  !
 ! R16   R(14,15)                1.0844         calculate D2E/DX2 analytically  !
 ! R17   R(16,17)                1.4131         calculate D2E/DX2 analytically  !
 ! R18   R(17,18)                1.0874         calculate D2E/DX2 analytically  !
 ! R19   R(17,19)                1.0941         calculate D2E/DX2 analytically  !
 ! R20   R(17,20)                1.0942         calculate D2E/DX2 analytically  !
 ! A1    A(2,1,4)              111.9177         calculate D2E/DX2 analytically  !
 ! A2    A(4,3,7)              123.1715         calculate D2E/DX2 analytically  !
 ! A3    A(4,3,14)             119.646          calculate D2E/DX2 analytically  !
 ! A4    A(7,3,14)             117.1825         calculate D2E/DX2 analytically  !
 ! A5    A(1,4,3)              118.5009         calculate D2E/DX2 analytically  !
 ! A6    A(1,4,5)              117.3037         calculate D2E/DX2 analytically  !
 ! A7    A(3,4,5)              124.1953         calculate D2E/DX2 analytically  !
 ! A8    A(4,5,6)              114.387          calculate D2E/DX2 analytically  !
 ! A9    A(3,7,8)              120.5832         calculate D2E/DX2 analytically  !
 ! A10   A(3,7,9)              121.8623         calculate D2E/DX2 analytically  !
 ! A11   A(8,7,9)              117.5542         calculate D2E/DX2 analytically  !
 ! A12   A(7,9,10)             121.9055         calculate D2E/DX2 analytically  !
 ! A13   A(7,9,11)             119.7201         calculate D2E/DX2 analytically  !
 ! A14   A(10,9,11)            118.3743         calculate D2E/DX2 analytically  !
 ! A15   A(9,11,12)            119.8549         calculate D2E/DX2 analytically  !
 ! A16   A(9,11,16)            115.7696         calculate D2E/DX2 analytically  !
 ! A17   A(12,11,16)           124.3755         calculate D2E/DX2 analytically  !
 ! A18   A(11,12,13)           121.1437         calculate D2E/DX2 analytically  !
 ! A19   A(11,12,14)           119.2625         calculate D2E/DX2 analytically  !
 ! A20   A(13,12,14)           119.5938         calculate D2E/DX2 analytically  !
 ! A21   A(3,14,12)            122.1173         calculate D2E/DX2 analytically  !
 ! A22   A(3,14,15)            118.7572         calculate D2E/DX2 analytically  !
 ! A23   A(12,14,15)           119.1254         calculate D2E/DX2 analytically  !
 ! A24   A(11,16,17)           117.9013         calculate D2E/DX2 analytically  !
 ! A25   A(16,17,18)           106.0423         calculate D2E/DX2 analytically  !
 ! A26   A(16,17,19)           111.1272         calculate D2E/DX2 analytically  !
 ! A27   A(16,17,20)           111.1323         calculate D2E/DX2 analytically  !
 ! A28   A(18,17,19)           109.4722         calculate D2E/DX2 analytically  !
 ! A29   A(18,17,20)           109.4721         calculate D2E/DX2 analytically  !
 ! A30   A(19,17,20)           109.5231         calculate D2E/DX2 analytically  !
 ! D1    D(2,1,4,3)            179.4421         calculate D2E/DX2 analytically  !
 ! D2    D(2,1,4,5)             -0.4564         calculate D2E/DX2 analytically  !
 ! D3    D(7,3,4,1)            177.5606         calculate D2E/DX2 analytically  !
 ! D4    D(7,3,4,5)             -2.5484         calculate D2E/DX2 analytically  !
 ! D5    D(14,3,4,1)            -2.4278         calculate D2E/DX2 analytically  !
 ! D6    D(14,3,4,5)           177.4631         calculate D2E/DX2 analytically  !
 ! D7    D(4,3,7,8)             -0.3585         calculate D2E/DX2 analytically  !
 ! D8    D(4,3,7,9)            179.8396         calculate D2E/DX2 analytically  !
 ! D9    D(14,3,7,8)           179.6302         calculate D2E/DX2 analytically  !
 ! D10   D(14,3,7,9)            -0.1717         calculate D2E/DX2 analytically  !
 ! D11   D(4,3,14,12)         -179.7981         calculate D2E/DX2 analytically  !
 ! D12   D(4,3,14,15)            0.1364         calculate D2E/DX2 analytically  !
 ! D13   D(7,3,14,12)            0.2128         calculate D2E/DX2 analytically  !
 ! D14   D(7,3,14,15)         -179.8527         calculate D2E/DX2 analytically  !
 ! D15   D(1,4,5,6)            178.6813         calculate D2E/DX2 analytically  !
 ! D16   D(3,4,5,6)             -1.2109         calculate D2E/DX2 analytically  !
 ! D17   D(3,7,9,10)           179.9449         calculate D2E/DX2 analytically  !
 ! D18   D(3,7,9,11)             0.0413         calculate D2E/DX2 analytically  !
 ! D19   D(8,7,9,10)             0.1372         calculate D2E/DX2 analytically  !
 ! D20   D(8,7,9,11)          -179.7663         calculate D2E/DX2 analytically  !
 ! D21   D(7,9,11,12)            0.0561         calculate D2E/DX2 analytically  !
 ! D22   D(7,9,11,16)         -179.9708         calculate D2E/DX2 analytically  !
 ! D23   D(10,9,11,12)        -179.8508         calculate D2E/DX2 analytically  !
 ! D24   D(10,9,11,16)           0.1222         calculate D2E/DX2 analytically  !
 ! D25   D(9,11,12,13)         179.9405         calculate D2E/DX2 analytically  !
 ! D26   D(9,11,12,14)          -0.0169         calculate D2E/DX2 analytically  !
 ! D27   D(16,11,12,13)         -0.0301         calculate D2E/DX2 analytically  !
 ! D28   D(16,11,12,14)       -179.9875         calculate D2E/DX2 analytically  !
 ! D29   D(9,11,16,17)         179.9927         calculate D2E/DX2 analytically  !
 ! D30   D(12,11,16,17)         -0.0356         calculate D2E/DX2 analytically  !
 ! D31   D(11,12,14,3)          -0.1224         calculate D2E/DX2 analytically  !
 ! D32   D(11,12,14,15)        179.9434         calculate D2E/DX2 analytically  !
 ! D33   D(13,12,14,3)         179.9196         calculate D2E/DX2 analytically  !
 ! D34   D(13,12,14,15)         -0.0147         calculate D2E/DX2 analytically  !
 ! D35   D(11,16,17,18)       -179.9716         calculate D2E/DX2 analytically  !
 ! D36   D(11,16,17,19)        -61.0925         calculate D2E/DX2 analytically  !
 ! D37   D(11,16,17,20)         61.1466         calculate D2E/DX2 analytically  !
 --------------------------------------------------------------------------------
 Trust Radius=3.00D-01 FncErr=5.00D-06 GrdErr=5.00D-06 EigMax=2.50D+02 EigMin=1.00D-04
 Number of steps in this run=     97 maximum allowed number of steps=    120.
 GradGradGradGradGradGradGradGradGradGradGradGradGradGradGradGradGradGrad

                          Input orientation:                          
 ---------------------------------------------------------------------
 Center     Atomic      Atomic             Coordinates (Angstroms)
 Number     Number       Type             X           Y           Z
 ---------------------------------------------------------------------
      1          8           0        8.666976    7.530645    5.478809
      2          1           0        9.467602    7.378460    5.988610
      3          6           0        6.260349    6.862668    5.175479
      4          5           0        7.640289    6.732129    5.892222
      5          8           0        7.894844    5.862804    6.921118
      6          1           0        7.140400    5.337038    7.190707
      7          6           0        5.154045    6.057321    5.487008
      8          1           0        5.226232    5.291461    6.255088
      9          6           0        3.942583    6.198486    4.836703
     10          1           0        3.088712    5.576837    5.075923
     11          6           0        3.800802    7.166441    3.837290
     12          6           0        4.881817    7.982073    3.502086
     13          1           0        4.795625    8.736553    2.731955
     14          6           0        6.091041    7.818533    4.171973
     15          1           0        6.930162    8.453124    3.908985
     16          8           0        2.580017    7.235957    3.253471
     17          6           0        2.386799    8.198851    2.237445
     18          1           0        1.355819    8.087562    1.910099
     19          1           0        2.540591    9.212286    2.620143
     20          1           0        3.058937    8.021124    1.392569
 ---------------------------------------------------------------------
                    Distance matrix (angstroms):
                    1          2          3          4          5
     1  O    0.000000
     2  H    0.961280   0.000000
     3  C    2.515960   3.348686   0.000000
     4  B    1.364780   1.940646   1.560447   0.000000
     5  O    2.336266   2.374943   2.592018   1.370821   0.000000
     6  H    3.173790   3.320890   2.676412   1.970338   0.958277
     7  C    3.809388   4.539139   1.403404   2.607868   3.099433
     8  H    4.177951   4.734532   2.168789   2.834584   2.809185
     9  C    4.950438   5.765853   2.434737   3.882258   4.480830
    10  H    5.924248   6.690970   3.423822   4.766329   5.156106
    11  C    5.148483   6.065126   2.816452   4.376418   5.288728
    12  C    4.294025   5.251340   2.440013   3.858015   5.025874
    13  H    4.897630   5.854706   3.409937   4.700757   5.950855
    14  C    2.902782   3.859404   1.396197   2.557284   3.825752
    15  H    2.516314   3.452296   2.140609   2.720172   4.088192
    16  O    6.487684   7.412160   4.168729   5.729154   6.601861
    17  C    7.098842   8.054940   5.042005   6.565655   7.598188
    18  H    8.154684   9.107036   6.018097   7.562345   8.533388
    19  H    6.966526   7.917889   5.087931   6.547106   7.641037
    20  H    6.956150   7.912496   5.089348   6.549593   7.655664
                    6          7          8          9         10
     6  H    0.000000
     7  C    2.714223   0.000000
     8  H    2.131079   1.087060   0.000000
     9  C    4.063184   1.382195   2.117136   0.000000
    10  H    4.576679   2.159967   2.457816   1.082945   0.000000
    11  C    5.073957   2.404783   3.375374   1.398522   2.137317
    12  C    5.069845   2.778254   3.864846   2.417550   3.387824
    13  H    6.077429   3.859672   4.946367   3.405793   4.288536
    14  C    4.046199   2.389382   3.387234   2.771694   3.854388
    15  H    4.530330   3.374110   4.289952   3.856123   4.938776
    16  O    6.317026   3.606035   4.448958   2.332286   2.516502
    17  C    7.437842   4.775297   5.714609   3.630161   3.927416
    18  H    8.301300   5.598453   6.455789   4.338775   4.396487
    19  H    7.554194   5.000286   5.983173   3.995211   4.421287
    20  H    7.581627   5.001043   5.982668   3.995610   4.420692
                   11         12         13         14         15
    11  C    0.000000
    12  C    1.395067   0.000000
    13  H    2.162566   1.081559   0.000000
    14  C    2.404669   1.392019   2.143482   0.000000
    15  H    3.384315   2.140835   2.453972   1.084432   0.000000
    16  O    1.354988   2.432444   2.726295   3.675640   4.564532
    17  C    2.371662   2.805606   2.517162   4.196242   4.847767
    18  H    3.246609   3.870170   3.595678   5.254596   5.933168
    19  H    2.693522   2.787936   2.307380   4.117817   4.637432
    20  H    2.693976   2.788275   2.306920   4.118226   4.637387
                   16         17         18         19         20
    16  O    0.000000
    17  C    1.413084   0.000000
    18  H    2.007122   1.087410   0.000000
    19  H    2.075701   1.094148   1.781250   0.000000
    20  H    2.075767   1.094153   1.781253   1.787313   0.000000
 Symmetry turned off by external request.
 Stoichiometry    C7H9BO3
 Framework group  C1[X(C7H9BO3)]
 Deg. of freedom    54
 Full point group                 C1      NOp   1
 Rotational constants (GHZ):           3.3043927           0.5414845           0.4666871
 Standard basis: 6-311+G(d,p) (5D, 7F)
   296 basis functions,   468 primitive gaussians,   307 cartesian basis functions
    40 alpha electrons       40 beta electrons
       nuclear repulsion energy       563.9802630283 Hartrees.
 NAtoms=   20 NActive=   20 NUniq=   20 SFac= 1.00D+00 NAtFMM=   60 NAOKFM=F Big=F
 Integral buffers will be    131072 words long.
 Raffenetti 2 integral format.
 Two-electron integral symmetry is turned off.
 Force inversion solution in PCM.
 ------------------------------------------------------------------------------
 Polarizable Continuum Model (PCM)
 =================================
 Model                : PCM.
 Atomic radii         : SMD-Coulomb.
 Polarization charges : Total charges.
 Charge compensation  : None.
 Solution method      : Matrix inversion.
 Cavity type          : VdW (van der Waals Surface) (Alpha=1.000).
 Cavity algorithm     : GePol (No added spheres)
                        Default sphere list used, NSphG=   20.
                        Lebedev-Laikov grids with approx.  5.0 points / Ang**2.
                        Smoothing algorithm: York/Karplus (Gamma=1.0000).
                        Polarization charges: spherical gaussians, with
                                              point-specific exponents (IZeta= 3).
                        Self-potential: point-specific (ISelfS= 7).
                        Self-field    : sphere-specific E.n sum rule (ISelfD= 2).
 1st derivatives      : Analytical E(r).r(x)/FMM algorithm (CHGder, D1EAlg=3).
                        Cavity 1st derivative terms included.
 2nd derivatives      : Analytical E(r).r(xy)/FMM algorithm (CHGder, D2EAlg=3).
                        Cavity 2nd derivative terms included.
 Solvent              : TetraHydroFuran, Eps=   7.425700 Eps(inf)=   1.974025
 ------------------------------------------------------------------------------
 Spheres list:
 ISph  on   Nord     Re0    Alpha      Xe            Ye            Ze
    1   O      1    2.2940  1.000      8.666976      7.530645      5.478809
    2   H      2    1.2000  1.000      9.467602      7.378460      5.988610
    3   C      3    1.8500  1.000      6.260349      6.862668      5.175479
    4   B      4    1.8000  1.000      7.640289      6.732129      5.892222
    5   O      5    2.2940  1.000      7.894844      5.862804      6.921118
    6   H      6    1.2000  1.000      7.140400      5.337038      7.190707
    7   C      7    1.8500  1.000      5.154045      6.057321      5.487008
    8   H      8    1.2000  1.000      5.226232      5.291461      6.255088
    9   C      9    1.8500  1.000      3.942583      6.198486      4.836703
   10   H     10    1.2000  1.000      3.088712      5.576837      5.075923
   11   C     11    1.8500  1.000      3.800802      7.166441      3.837290
   12   C     12    1.8500  1.000      4.881817      7.982073      3.502086
   13   H     13    1.2000  1.000      4.795625      8.736553      2.731955
   14   C     14    1.8500  1.000      6.091041      7.818533      4.171973
   15   H     15    1.2000  1.000      6.930162      8.453124      3.908985
   16   O     16    2.2940  1.000      2.580017      7.235957      3.253471
   17   C     17    1.8500  1.000      2.386799      8.198851      2.237445
   18   H     18    1.2000  1.000      1.355819      8.087562      1.910099
   19   H     19    1.2000  1.000      2.540591      9.212286      2.620143
   20   H     20    1.2000  1.000      3.058937      8.021124      1.392569
 ------------------------------------------------------------------------------
 ------------------------------------------------------------------------------
 Atomic radii for non-electrostatic terms: SMD-CDS.
 ------------------------------------------------------------------------------
 Nuclear repulsion after PCM non-electrostatic terms =      563.9768602075 Hartrees.
 One-electron integrals computed using PRISM.
 NBasis=   296 RedAO= T EigKep=  1.57D-06  NBF=   296
 NBsUse=   296 1.00D-06 EigRej= -1.00D+00 NBFU=   296
 ExpMin= 3.15D-02 ExpMax= 8.59D+03 ExpMxC= 1.30D+03 IAcc=3 IRadAn=         5 AccDes= 0.00D+00
 Harris functional with IExCor= 1009 and IRadAn=       5 diagonalized for initial guess.
 HarFok:  IExCor= 1009 AccDes= 0.00D+00 IRadAn=         5 IDoV= 1 UseB2=F ITyADJ=14
 ICtDFT=  3500011 ScaDFX=  1.000000  1.000000  1.000000  1.000000
 FoFCou: FMM=F IPFlag=           0 FMFlag=      100000 FMFlg1=           0
         NFxFlg=           0 DoJE=T BraDBF=F KetDBF=T FulRan=T
         wScrn=  0.000000 ICntrl=       500 IOpCl=  0 I1Cent=   200000004 NGrid=           0
         NMat0=    1 NMatS0=      1 NMatT0=    0 NMatD0=    1 NMtDS0=    0 NMtDT0=    0
 Symmetry not used in FoFCou.
 Requested convergence on RMS density matrix=1.00D-08 within 128 cycles.
 Requested convergence on MAX density matrix=1.00D-06.
 Requested convergence on             energy=1.00D-06.
 Level shift goal  0.100 maximum shift  0.100.
 No special actions if energy rises.
 Dynamic level shift is on during FON iterations.
 Inv3:  Mode=1 IEnd=     8548032.
 Iteration    1 A*A^-1 deviation from unit magnitude is 3.55D-15 for   1664.
 Iteration    1 A*A^-1 deviation from orthogonality  is 1.53D-15 for    767    283.
 Iteration    1 A^-1*A deviation from unit magnitude is 3.77D-15 for   1685.
 Iteration    1 A^-1*A deviation from orthogonality  is 2.14D-15 for    406    123.
 Error on total polarization charges =  0.02502
 SCF Done:  E(RM062X) =  -522.753668452     A.U. after   14 cycles
            NFock= 14  Conv=0.29D-08     -V/T= 2.0036
 SMD-CDS (non-electrostatic) energy       (kcal/mol) =      -2.14
 (included in total energy above)
 DoSCS=F DFT=T ScalE2(SS,OS)=  1.000000  1.000000
 Range of M.O.s used for correlation:     1   296
 NBasis=   296 NAE=    40 NBE=    40 NFC=     0 NFV=     0
 NROrb=    296 NOA=    40 NOB=    40 NVA=   256 NVB=   256

 **** Warning!!: The largest alpha MO coefficient is  0.19612550D+03

 Symmetrizing basis deriv contribution to polar:
 IMax=3 JMax=2 DiffMx= 0.00D+00
 G2DrvN: will do    21 centers at a time, making    1 passes.
 Calling FoFCou, ICntrl=  3107 FMM=F I1Cent=   0 AccDes= 0.00D+00.
 NEqPCM:  Using equilibrium solvation (IEInf=0, Eps=   7.4257, EpsInf=   1.9740)
 G2PCM: DoFxE=T DoFxN=T DoGrad=T DoDP/DQ/DG/TGxP=FFFF NFrqRd=   0 IEInf=0 SqF1=F DoCFld=F IF1Alg=4.
 End of G2Drv F.D. properties file   721 does not exist.
 End of G2Drv F.D. properties file   722 does not exist.
 End of G2Drv F.D. properties file   788 does not exist.
          IDoAtm=11111111111111111111
 NEqPCM:  Using equilibrium solvation (IEInf=0, Eps=   7.4257, EpsInf=   1.9740)
          Differentiating once with respect to nuclear coordinates.
 Keep R1 ints in memory in canonical form, NReq=1002449816.
          There are    63 degrees of freedom in the 1st order CPHF.  IDoFFX=6 NUNeed=     0.
     57 vectors produced by pass  0 Test12= 1.63D-14 1.59D-09 XBig12= 1.36D-01 9.15D-02.
 AX will form    57 AO Fock derivatives at one time.
     57 vectors produced by pass  1 Test12= 1.63D-14 1.59D-09 XBig12= 1.05D-02 3.24D-02.
     57 vectors produced by pass  2 Test12= 1.63D-14 1.59D-09 XBig12= 2.79D-04 2.69D-03.
     57 vectors produced by pass  3 Test12= 1.63D-14 1.59D-09 XBig12= 1.55D-06 1.61D-04.
     57 vectors produced by pass  4 Test12= 1.63D-14 1.59D-09 XBig12= 8.68D-09 1.05D-05.
     57 vectors produced by pass  5 Test12= 1.63D-14 1.59D-09 XBig12= 4.45D-11 8.12D-07.
     50 vectors produced by pass  6 Test12= 1.63D-14 1.59D-09 XBig12= 1.79D-13 4.64D-08.
      7 vectors produced by pass  7 Test12= 1.63D-14 1.59D-09 XBig12= 6.27D-16 2.99D-09.
 InvSVY:  IOpt=1 It=  1 EMax= 5.00D-16
 Solved reduced A of dimension   399 with    63 vectors.
 End of Minotr F.D. properties file   721 does not exist.
 End of Minotr F.D. properties file   722 does not exist.
 End of Minotr F.D. properties file   788 does not exist.

 **********************************************************************

            Population analysis using the SCF Density.

 **********************************************************************

 Alpha  occ. eigenvalues --  -19.65689 -19.63271 -19.62751 -10.61059 -10.58126
 Alpha  occ. eigenvalues --  -10.55019 -10.54680 -10.54145 -10.54009 -10.52269
 Alpha  occ. eigenvalues --   -7.07942  -1.19865  -1.16414  -1.12712  -0.96116
 Alpha  occ. eigenvalues --   -0.85732  -0.84698  -0.78705  -0.69782  -0.68082
 Alpha  occ. eigenvalues --   -0.64706  -0.62806  -0.60747  -0.56036  -0.54942
 Alpha  occ. eigenvalues --   -0.54507  -0.51665  -0.49275  -0.48403  -0.47720
 Alpha  occ. eigenvalues --   -0.46791  -0.45325  -0.44843  -0.42580  -0.40203
 Alpha  occ. eigenvalues --   -0.39196  -0.38897  -0.38834  -0.31464  -0.28249
 Alpha virt. eigenvalues --    0.00162   0.00668   0.01592   0.01996   0.02130
 Alpha virt. eigenvalues --    0.03171   0.03603   0.03805   0.04960   0.05534
 Alpha virt. eigenvalues --    0.06412   0.07114   0.08357   0.09358   0.10042
 Alpha virt. eigenvalues --    0.10629   0.11106   0.12727   0.12831   0.13330
 Alpha virt. eigenvalues --    0.13950   0.14288   0.15184   0.15321   0.15950
 Alpha virt. eigenvalues --    0.16470   0.17691   0.18225   0.18491   0.19107
 Alpha virt. eigenvalues --    0.19490   0.20196   0.21781   0.22365   0.22593
 Alpha virt. eigenvalues --    0.22817   0.22996   0.23875   0.24416   0.24822
 Alpha virt. eigenvalues --    0.25098   0.25270   0.25539   0.26180   0.26823
 Alpha virt. eigenvalues --    0.27725   0.28227   0.28506   0.29570   0.29744
 Alpha virt. eigenvalues --    0.31697   0.32243   0.32694   0.33374   0.35128
 Alpha virt. eigenvalues --    0.35374   0.36614   0.38469   0.39104   0.40324
 Alpha virt. eigenvalues --    0.41473   0.43435   0.45730   0.46076   0.46807
 Alpha virt. eigenvalues --    0.48958   0.50162   0.50756   0.52014   0.54453
 Alpha virt. eigenvalues --    0.54877   0.56729   0.57845   0.59110   0.59559
 Alpha virt. eigenvalues --    0.60127   0.61653   0.62694   0.64125   0.65168
 Alpha virt. eigenvalues --    0.66384   0.67493   0.68178   0.68210   0.69797
 Alpha virt. eigenvalues --    0.69998   0.71586   0.72355   0.73753   0.74467
 Alpha virt. eigenvalues --    0.76593   0.77838   0.79733   0.81516   0.83790
 Alpha virt. eigenvalues --    0.84826   0.86684   0.89464   0.90790   0.91480
 Alpha virt. eigenvalues --    0.91616   0.93083   0.95637   0.96085   0.98141
 Alpha virt. eigenvalues --    1.01601   1.02698   1.05509   1.05680   1.05807
 Alpha virt. eigenvalues --    1.08266   1.08984   1.09638   1.10325   1.11699
 Alpha virt. eigenvalues --    1.12500   1.13393   1.14020   1.15335   1.18936
 Alpha virt. eigenvalues --    1.20945   1.21596   1.29094   1.30806   1.33611
 Alpha virt. eigenvalues --    1.33939   1.34572   1.35632   1.39443   1.45072
 Alpha virt. eigenvalues --    1.46283   1.48923   1.49844   1.51210   1.52061
 Alpha virt. eigenvalues --    1.53329   1.55020   1.58541   1.60499   1.61691
 Alpha virt. eigenvalues --    1.62772   1.64070   1.65177   1.67693   1.69603
 Alpha virt. eigenvalues --    1.71597   1.73398   1.73892   1.74302   1.75599
 Alpha virt. eigenvalues --    1.79300   1.80436   1.81411   1.82715   1.85709
 Alpha virt. eigenvalues --    1.87502   1.90210   1.92516   1.95279   1.97821
 Alpha virt. eigenvalues --    1.98001   2.00650   2.01908   2.02407   2.05847
 Alpha virt. eigenvalues --    2.09673   2.10913   2.11919   2.14091   2.15559
 Alpha virt. eigenvalues --    2.15746   2.17971   2.22287   2.23513   2.27901
 Alpha virt. eigenvalues --    2.35225   2.36537   2.43989   2.45482   2.48680
 Alpha virt. eigenvalues --    2.49453   2.53365   2.55619   2.57608   2.59262
 Alpha virt. eigenvalues --    2.61681   2.63025   2.64937   2.65851   2.68762
 Alpha virt. eigenvalues --    2.72178   2.73393   2.74422   2.76861   2.78176
 Alpha virt. eigenvalues --    2.79742   2.81049   2.83763   2.84900   2.85029
 Alpha virt. eigenvalues --    2.93809   2.94999   2.95730   2.99398   3.07868
 Alpha virt. eigenvalues --    3.11634   3.12305   3.14483   3.14743   3.16222
 Alpha virt. eigenvalues --    3.24594   3.26926   3.28598   3.31550   3.31849
 Alpha virt. eigenvalues --    3.40177   3.41139   3.47853   3.49817   3.54921
 Alpha virt. eigenvalues --    3.56959   3.61817   3.64158   3.67186   3.68796
 Alpha virt. eigenvalues --    3.83511   3.88791   3.93118   3.95858   4.05445
 Alpha virt. eigenvalues --    4.11598   4.14873   4.19892   4.22243   4.29757
 Alpha virt. eigenvalues --    4.86677   5.08763   5.09632   5.14373   5.40683
 Alpha virt. eigenvalues --    5.50914   5.51830   5.69533   5.77265   5.88825
 Alpha virt. eigenvalues --   14.80646  23.70387  24.00630  24.03001  24.03329
 Alpha virt. eigenvalues --   24.13721  24.19467  24.26704  50.01176  50.06155
 Alpha virt. eigenvalues --   50.07737
          Condensed to atoms (all electrons):
               1          2          3          4          5          6
     1  O    7.776224   0.283863   0.032761   0.433066  -0.122075   0.017230
     2  H    0.283863   0.421641   0.051205  -0.004773  -0.032388   0.002993
     3  C    0.032761   0.051205   8.801238   0.270462  -0.203496   0.002191
     4  B    0.433066  -0.004773   0.270462   3.331135   0.366469   0.012783
     5  O   -0.122075  -0.032388  -0.203496   0.366469   7.986307   0.276060
     6  H    0.017230   0.002993   0.002191   0.012783   0.276060   0.394821
     7  C    0.069821  -0.003314  -0.856527   0.080095  -0.007066  -0.026788
     8  H    0.001802  -0.000023   0.014470   0.008570  -0.005311   0.008917
     9  C    0.050509   0.004729  -0.107093   0.089153  -0.003989   0.051244
    10  H   -0.000042  -0.000001  -0.016111  -0.000247   0.000268  -0.000047
    11  C   -0.019384  -0.001742  -1.200209  -0.003140   0.018089  -0.003217
    12  C    0.013126  -0.028252  -1.660235  -0.033834   0.089322  -0.015923
    13  H    0.000416   0.000002   0.005179  -0.000197  -0.000023   0.000002
    14  C   -0.152301  -0.020052   1.176961  -0.040314   0.035092   0.000620
    15  H    0.003133  -0.000387   0.035027  -0.009202   0.002177  -0.000084
    16  O    0.000000   0.000001  -0.012937  -0.000914   0.000021  -0.000005
    17  C   -0.000403  -0.000016  -0.040032  -0.002088   0.000170  -0.000019
    18  H    0.000000   0.000000   0.000607  -0.000014   0.000000   0.000000
    19  H    0.000000   0.000000  -0.001532   0.000020   0.000000   0.000000
    20  H   -0.000001   0.000000  -0.002014   0.000029   0.000000   0.000000
               7          8          9         10         11         12
     1  O    0.069821   0.001802   0.050509  -0.000042  -0.019384   0.013126
     2  H   -0.003314  -0.000023   0.004729  -0.000001  -0.001742  -0.028252
     3  C   -0.856527   0.014470  -0.107093  -0.016111  -1.200209  -1.660235
     4  B    0.080095   0.008570   0.089153  -0.000247  -0.003140  -0.033834
     5  O   -0.007066  -0.005311  -0.003989   0.000268   0.018089   0.089322
     6  H   -0.026788   0.008917   0.051244  -0.000047  -0.003217  -0.015923
     7  C   10.376781   0.370337  -2.499816   0.034668   0.413353   0.823399
     8  H    0.370337   0.486584  -0.033893  -0.005337   0.000117   0.000572
     9  C   -2.499816  -0.033893  12.317378   0.305135  -0.552614  -2.662732
    10  H    0.034668  -0.005337   0.305135   0.460122   0.062626   0.003435
    11  C    0.413353   0.000117  -0.552614   0.062626   8.212225   0.619932
    12  C    0.823399   0.000572  -2.662732   0.003435   0.619932  12.375679
    13  H    0.005450   0.000061  -0.059199  -0.000039  -0.007776   0.365109
    14  C   -2.645614  -0.019361  -0.087763  -0.028670  -1.528130  -4.841989
    15  H    0.001796  -0.000097  -0.008628   0.000047  -0.003212   0.057601
    16  O    0.019960  -0.000810  -0.585132  -0.004440   0.313102   0.114774
    17  C    0.043297   0.000250   0.003310   0.002840   0.100222  -0.003779
    18  H   -0.002688   0.000000  -0.008261  -0.000023   0.012065   0.011845
    19  H    0.001263   0.000000   0.006464   0.000035  -0.011293   0.003809
    20  H    0.001895   0.000000   0.008602   0.000037  -0.009610   0.002783
              13         14         15         16         17         18
     1  O    0.000416  -0.152301   0.003133   0.000000  -0.000403   0.000000
     2  H    0.000002  -0.020052  -0.000387   0.000001  -0.000016   0.000000
     3  C    0.005179   1.176961   0.035027  -0.012937  -0.040032   0.000607
     4  B   -0.000197  -0.040314  -0.009202  -0.000914  -0.002088  -0.000014
     5  O   -0.000023   0.035092   0.002177   0.000021   0.000170   0.000000
     6  H    0.000002   0.000620  -0.000084  -0.000005  -0.000019   0.000000
     7  C    0.005450  -2.645614   0.001796   0.019960   0.043297  -0.002688
     8  H    0.000061  -0.019361  -0.000097  -0.000810   0.000250   0.000000
     9  C   -0.059199  -0.087763  -0.008628  -0.585132   0.003310  -0.008261
    10  H   -0.000039  -0.028670   0.000047  -0.004440   0.002840  -0.000023
    11  C   -0.007776  -1.528130  -0.003212   0.313102   0.100222   0.012065
    12  C    0.365109  -4.841989   0.057601   0.114774  -0.003779   0.011845
    13  H    0.461878   0.060924  -0.005329  -0.014767  -0.003532   0.000585
    14  C    0.060924  14.921920   0.266365   0.059478  -0.361096   0.018140
    15  H   -0.005329   0.266365   0.462250  -0.000422   0.002043  -0.000003
    16  O   -0.014767   0.059478  -0.000422   8.265091   0.128592  -0.059424
    17  C   -0.003532  -0.361096   0.002043   0.128592   5.218157   0.402696
    18  H    0.000585   0.018140  -0.000003  -0.059424   0.402696   0.472254
    19  H   -0.001210  -0.010855   0.000029  -0.034572   0.418603  -0.021774
    20  H   -0.001226  -0.013662   0.000030  -0.034400   0.418299  -0.021822
              19         20
     1  O    0.000000  -0.000001
     2  H    0.000000   0.000000
     3  C   -0.001532  -0.002014
     4  B    0.000020   0.000029
     5  O    0.000000   0.000000
     6  H    0.000000   0.000000
     7  C    0.001263   0.001895
     8  H    0.000000   0.000000
     9  C    0.006464   0.008602
    10  H    0.000035   0.000037
    11  C   -0.011293  -0.009610
    12  C    0.003809   0.002783
    13  H   -0.001210  -0.001226
    14  C   -0.010855  -0.013662
    15  H    0.000029   0.000030
    16  O   -0.034572  -0.034400
    17  C    0.418603   0.418299
    18  H   -0.021774  -0.021822
    19  H    0.511329  -0.044108
    20  H   -0.044108   0.511469
 Mulliken charges:
               1
     1  O   -0.387744
     2  H    0.326513
     3  C   -0.289914
     4  B    0.502942
     5  O   -0.399626
     6  H    0.279223
     7  C   -0.200301
     8  H    0.173152
     9  C   -0.227402
    10  H    0.185743
    11  C   -0.411406
    12  C    0.765359
    13  H    0.193690
    14  C   -0.789693
    15  H    0.196866
    16  O   -0.153198
    17  C   -0.327513
    18  H    0.195817
    19  H    0.183793
    20  H    0.183700
 Sum of Mulliken charges =   0.00000
 Mulliken charges with hydrogens summed into heavy atoms:
               1
     1  O   -0.061231
     3  C   -0.289914
     4  B    0.502942
     5  O   -0.120403
     7  C   -0.027149
     9  C   -0.041659
    11  C   -0.411406
    12  C    0.959048
    14  C   -0.592827
    16  O   -0.153198
    17  C    0.235797
 APT charges:
               1
     1  O   -0.949980
     2  H    2.297795
     3  C   -1.141157
     4  B   -0.361967
     5  O    1.387910
     6  H   -0.951560
     7  C   -0.541837
     8  H    0.252533
     9  C   -0.508398
    10  H   -0.630717
    11  C   -0.337795
    12  C   -1.150553
    13  H    0.826518
    14  C    0.092096
    15  H    1.695549
    16  O   -0.003644
    17  C   -1.516227
    18  H   -0.237423
    19  H    1.592884
    20  H    0.185972
 Sum of APT charges =   0.00000
 APT charges with hydrogens summed into heavy atoms:
               1
     1  O    1.347815
     3  C   -1.141157
     4  B   -0.361967
     5  O    0.436351
     7  C   -0.289304
     9  C   -1.139114
    11  C   -0.337795
    12  C   -0.324035
    14  C    1.787645
    16  O   -0.003644
    17  C    0.025206
 Electronic spatial extent (au):  <R**2>=          30874.8067
 Charge=              0.0000 electrons
 Dipole moment (field-independent basis, Debye):
    X=             -1.3336    Y=              0.2942    Z=             -0.6743  Tot=              1.5231
 Quadrupole moment (field-independent basis, Debye-Ang):
   XX=            -76.9951   YY=            -56.3268   ZZ=            -63.5151
   XY=            -10.3570   XZ=             -4.6799   YZ=            -12.2110
 Traceless Quadrupole moment (field-independent basis, Debye-Ang):
   XX=            -11.3828   YY=              9.2856   ZZ=              2.0972
   XY=            -10.3570   XZ=             -4.6799   YZ=            -12.2110
 Octapole moment (field-independent basis, Debye-Ang**2):
  XXX=          -1105.4852  YYY=          -1244.5762  ZZZ=           -842.1901  XYY=           -412.6085
  XXY=           -548.0898  XXZ=           -326.4205  XZZ=           -339.5989  YZZ=           -519.8501
  YYZ=           -414.1193  XYZ=            -68.7835
 Hexadecapole moment (field-independent basis, Debye-Ang**3):
 XXXX=         -12783.9286 YYYY=         -18222.4072 ZZZZ=          -8451.7747 XXXY=          -7658.7509
 XXXZ=          -5211.0587 YYYX=          -7612.6811 YYYZ=          -7073.2669 ZZZX=          -4980.3757
 ZZZY=          -6294.6798 XXYY=          -6079.3887 XXZZ=          -3592.4587 YYZZ=          -5586.1876
 XXYZ=          -2358.2230 YYXZ=          -2396.7930 ZZXY=          -2669.4724
 N-N= 5.639768602075D+02 E-N=-2.350645700985D+03  KE= 5.208830867660D+02
  Exact polarizability:       0.000       0.000       0.000       0.000       0.000       0.000
 Approx polarizability:     147.867       8.742     112.680      19.236     -26.420     116.235
 D2PCM: PCM CHGder 2nd derivatives, FixD1E=F FixD2E=F DoIter=F DoCFld=F I1PDM=0
 Calling FoFJK, ICntrl=    100127 FMM=F ISym2X=0 I1Cent= 0 IOpClX= 0 NMat=1 NMatS=1 NMatT=0.
 -------------------------------------------------------------------
 Center     Atomic                   Forces (Hartrees/Bohr)
 Number     Number              X              Y              Z
 -------------------------------------------------------------------
      1        8          -0.000867799    0.001146185   -0.001717364
      2        1           0.002478599   -0.000199277    0.001287500
      3        6           0.000215773    0.000091533   -0.000109244
      4        5          -0.000672354   -0.001546194    0.001425213
      5        8           0.002549034    0.002046364   -0.001160336
      6        1          -0.002704473   -0.002013434    0.000992474
      7        6          -0.000003470   -0.001766087    0.001761730
      8        1          -0.000111889    0.000101928   -0.000063749
      9        6          -0.000022474    0.000383613   -0.000440926
     10        1          -0.000016261   -0.000694217    0.000693415
     11        6          -0.002746852   -0.000034232   -0.001078112
     12        6           0.000348591    0.001295085   -0.001177066
     13        1          -0.000121427    0.000257551   -0.000197904
     14        6          -0.000074871   -0.000091642    0.000058363
     15        1          -0.000381683    0.000633375   -0.000739691
     16        8           0.002741885   -0.002755380    0.003816609
     17        6           0.000443917    0.002852974   -0.002620613
     18        1          -0.000438553    0.000220187   -0.000399411
     19        1          -0.000286941   -0.000003718   -0.000213328
     20        1          -0.000328752    0.000075387   -0.000117563
 -------------------------------------------------------------------
 Cartesian Forces:  Max     0.003816609 RMS     0.001344113
 FormGI is forming the generalized inverse of G from B-inverse, IUseBI=4.

 GradGradGradGradGradGradGradGradGradGradGradGradGradGradGradGradGradGrad
 Berny optimization.
 Internal  Forces:  Max     0.004609010 RMS     0.000899534
 Search for a local minimum.
 Step number   1 out of a maximum of   97
 All quantities printed in internal units (Hartrees-Bohrs-Radians)
 Mixed Optimization -- En-DIIS/RFO-DIIS
 Second derivative matrix not updated -- analytic derivatives used.
 ITU=  0
     Eigenvalues ---    0.00141   0.00451   0.00962   0.01175   0.01384
     Eigenvalues ---    0.01416   0.01776   0.01867   0.02067   0.02237
     Eigenvalues ---    0.02372   0.02787   0.02867   0.03296   0.03937
     Eigenvalues ---    0.08568   0.08672   0.10445   0.10868   0.11213
     Eigenvalues ---    0.11336   0.12024   0.12664   0.13337   0.15803
     Eigenvalues ---    0.17533   0.18470   0.18705   0.18977   0.19061
     Eigenvalues ---    0.19416   0.19794   0.22320   0.27780   0.29758
     Eigenvalues ---    0.33199   0.33646   0.34245   0.35300   0.35553
     Eigenvalues ---    0.36406   0.36553   0.36989   0.37770   0.38252
     Eigenvalues ---    0.40348   0.42509   0.46368   0.47725   0.48600
     Eigenvalues ---    0.51326   0.54671   0.55710   0.56407
 RFO step:  Lambda=-2.03488846D-04 EMin= 1.40955527D-03
 Linear search not attempted -- first point.
 Iteration  1 RMS(Cart)=  0.01087508 RMS(Int)=  0.00004511
 Iteration  2 RMS(Cart)=  0.00006428 RMS(Int)=  0.00000078
 Iteration  3 RMS(Cart)=  0.00000000 RMS(Int)=  0.00000078
 Variable       Old X    -DE/DX   Delta X   Delta X   Delta X     New X
                                 (Linear)    (Quad)   (Total)
    R1        1.81656   0.00278   0.00000   0.00492   0.00492   1.82148
    R2        2.57906   0.00191   0.00000   0.00431   0.00431   2.58337
    R3        2.94882   0.00113   0.00000   0.00369   0.00369   2.95251
    R4        2.65205   0.00109   0.00000   0.00259   0.00259   2.65464
    R5        2.63843   0.00204   0.00000   0.00309   0.00309   2.64152
    R6        2.59048  -0.00019   0.00000  -0.00133  -0.00133   2.58914
    R7        1.81088   0.00350   0.00000   0.00631   0.00631   1.81719
    R8        2.05425  -0.00012   0.00000  -0.00061  -0.00061   2.05363
    R9        2.61197   0.00086   0.00000   0.00207   0.00207   2.61404
   R10        2.04647   0.00056   0.00000   0.00163   0.00163   2.04810
   R11        2.64282   0.00163   0.00000   0.00298   0.00298   2.64580
   R12        2.63629   0.00080   0.00000   0.00294   0.00294   2.63923
   R13        2.56056  -0.00209   0.00000  -0.00625  -0.00625   2.55430
   R14        2.04385   0.00033   0.00000   0.00064   0.00064   2.04449
   R15        2.63053   0.00052   0.00000   0.00094   0.00094   2.63148
   R16        2.04928   0.00025   0.00000   0.00087   0.00087   2.05015
   R17        2.67034   0.00461   0.00000   0.01438   0.01438   2.68472
   R18        2.05491   0.00052   0.00000   0.00118   0.00118   2.05609
   R19        2.06764  -0.00013   0.00000  -0.00119  -0.00119   2.06645
   R20        2.06765  -0.00013   0.00000  -0.00117  -0.00117   2.06648
    A1        1.95333   0.00065   0.00000   0.00347   0.00347   1.95680
    A2        2.14975  -0.00090   0.00000  -0.00465  -0.00465   2.14510
    A3        2.08822   0.00095   0.00000   0.00575   0.00575   2.09397
    A4        2.04522  -0.00005   0.00000  -0.00110  -0.00110   2.04412
    A5        2.06823   0.00008   0.00000  -0.00092  -0.00092   2.06731
    A6        2.04734   0.00005   0.00000   0.00075   0.00075   2.04808
    A7        2.16762  -0.00014   0.00000   0.00017   0.00017   2.16779
    A8        1.99643   0.00014   0.00000   0.00066   0.00066   1.99709
    A9        2.10457   0.00039   0.00000   0.00255   0.00255   2.10713
   A10        2.12690  -0.00060   0.00000  -0.00193  -0.00193   2.12497
   A11        2.05171   0.00021   0.00000  -0.00062  -0.00062   2.05108
   A12        2.12765  -0.00108   0.00000  -0.00863  -0.00863   2.11902
   A13        2.08951   0.00050   0.00000   0.00319   0.00319   2.09270
   A14        2.06602   0.00058   0.00000   0.00544   0.00544   2.07146
   A15        2.09186   0.00011   0.00000  -0.00188  -0.00188   2.08998
   A16        2.02056   0.00074   0.00000   0.00333   0.00333   2.02389
   A17        2.17076  -0.00085   0.00000  -0.00145  -0.00145   2.16932
   A18        2.11436   0.00015   0.00000   0.00023   0.00023   2.11458
   A19        2.08152  -0.00047   0.00000  -0.00102  -0.00102   2.08050
   A20        2.08731   0.00032   0.00000   0.00080   0.00080   2.08810
   A21        2.13135   0.00051   0.00000   0.00274   0.00274   2.13409
   A22        2.07270   0.00079   0.00000   0.00643   0.00643   2.07914
   A23        2.07913  -0.00130   0.00000  -0.00917  -0.00917   2.06996
   A24        2.05777   0.00009   0.00000  -0.00003  -0.00003   2.05774
   A25        1.85079   0.00032   0.00000  -0.00116  -0.00116   1.84963
   A26        1.93954   0.00029   0.00000  -0.00072  -0.00073   1.93881
   A27        1.93962   0.00027   0.00000  -0.00114  -0.00114   1.93849
   A28        1.91065  -0.00041   0.00000  -0.00071  -0.00071   1.90994
   A29        1.91065  -0.00042   0.00000  -0.00054  -0.00054   1.91011
   A30        1.91154  -0.00006   0.00000   0.00406   0.00406   1.91560
    D1        3.13185   0.00002   0.00000   0.00311   0.00311   3.13496
    D2       -0.00797  -0.00003   0.00000   0.00186   0.00186  -0.00611
    D3        3.09902  -0.00001   0.00000   0.01212   0.01212   3.11114
    D4       -0.04448   0.00005   0.00000   0.01346   0.01346  -0.03102
    D5       -0.04237  -0.00002   0.00000   0.01194   0.01194  -0.03044
    D6        3.09732   0.00004   0.00000   0.01328   0.01328   3.11059
    D7       -0.00626   0.00003   0.00000   0.00327   0.00327  -0.00299
    D8        3.13879   0.00004   0.00000   0.00252   0.00252   3.14131
    D9        3.13514   0.00004   0.00000   0.00345   0.00345   3.13858
   D10       -0.00300   0.00005   0.00000   0.00270   0.00270  -0.00030
   D11       -3.13807  -0.00003   0.00000  -0.00226  -0.00226  -3.14033
   D12        0.00238  -0.00003   0.00000  -0.00219  -0.00220   0.00019
   D13        0.00371  -0.00004   0.00000  -0.00243  -0.00243   0.00128
   D14       -3.13902  -0.00004   0.00000  -0.00237  -0.00237  -3.14139
   D15        3.11858   0.00009   0.00000   0.01059   0.01059   3.12917
   D16       -0.02113   0.00003   0.00000   0.00927   0.00927  -0.01187
   D17        3.14063  -0.00002   0.00000  -0.00025  -0.00025   3.14038
   D18        0.00072  -0.00002   0.00000  -0.00071  -0.00071   0.00001
   D19        0.00240  -0.00001   0.00000  -0.00098  -0.00098   0.00142
   D20       -3.13751  -0.00001   0.00000  -0.00144  -0.00144  -3.13896
   D21        0.00098  -0.00002   0.00000  -0.00164  -0.00164  -0.00066
   D22       -3.14108  -0.00003   0.00000  -0.00152  -0.00152   3.14058
   D23       -3.13899  -0.00002   0.00000  -0.00208  -0.00208  -3.14107
   D24        0.00213  -0.00003   0.00000  -0.00196  -0.00196   0.00017
   D25        3.14055   0.00004   0.00000   0.00307   0.00307  -3.13956
   D26       -0.00029   0.00003   0.00000   0.00189   0.00189   0.00160
   D27       -0.00053   0.00006   0.00000   0.00294   0.00294   0.00241
   D28       -3.14137   0.00004   0.00000   0.00176   0.00176  -3.13961
   D29        3.14147   0.00006   0.00000   0.00533   0.00533  -3.13639
   D30       -0.00062   0.00005   0.00000   0.00545   0.00545   0.00483
   D31       -0.00214   0.00000   0.00000   0.00019   0.00019  -0.00195
   D32        3.14060   0.00000   0.00000   0.00011   0.00011   3.14072
   D33        3.14019  -0.00001   0.00000  -0.00097  -0.00097   3.13922
   D34       -0.00026  -0.00001   0.00000  -0.00105  -0.00105  -0.00130
   D35       -3.14110   0.00000   0.00000  -0.00293  -0.00293   3.13916
   D36       -1.06627  -0.00015   0.00000  -0.00487  -0.00487  -1.07114
   D37        1.06721   0.00016   0.00000  -0.00098  -0.00098   1.06623
         Item               Value     Threshold  Converged?
 Maximum Force            0.004609     0.000015     NO 
 RMS     Force            0.000900     0.000010     NO 
 Maximum Displacement     0.048841     0.000060     NO 
 RMS     Displacement     0.010885     0.000040     NO 
 Predicted change in Energy=-1.019288D-04
 GradGradGradGradGradGradGradGradGradGradGradGradGradGradGradGradGradGrad

                          Input orientation:                          
 ---------------------------------------------------------------------
 Center     Atomic      Atomic             Coordinates (Angstroms)
 Number     Number       Type             X           Y           Z
 ---------------------------------------------------------------------
      1          8           0        8.669606    7.536376    5.489509
      2          1           0        9.475000    7.380587    5.995617
      3          6           0        6.261576    6.866295    5.177641
      4          5           0        7.642846    6.730033    5.895010
      5          8           0        7.898400    5.849609    6.913224
      6          1           0        7.144796    5.311192    7.171863
      7          6           0        5.154552    6.061520    5.494225
      8          1           0        5.225085    5.298215    6.264539
      9          6           0        3.941982    6.202923    4.843706
     10          1           0        3.091738    5.578227    5.091650
     11          6           0        3.796509    7.168741    3.840557
     12          6           0        4.877985    7.985362    3.502778
     13          1           0        4.790376    8.740140    2.732622
     14          6           0        6.088031    7.821753    4.172199
     15          1           0        6.921876    8.460786    3.901411
     16          8           0        2.579096    7.237264    3.257249
     17          6           0        2.387727    8.198914    2.229158
     18          1           0        1.356716    8.085030    1.900725
     19          1           0        2.539239    9.213930    2.606737
     20          1           0        3.060506    8.013455    1.387263
 ---------------------------------------------------------------------
                    Distance matrix (angstroms):
                    1          2          3          4          5
     1  O    0.000000
     2  H    0.963885   0.000000
     3  C    2.518904   3.355544   0.000000
     4  B    1.367061   1.946825   1.562399   0.000000
     5  O    2.338142   2.381504   2.593278   1.370115   0.000000
     6  H    3.179119   3.331035   2.678683   1.972693   0.961615
     7  C    3.811932   4.545063   1.404774   2.607517   3.096315
     8  H    4.180282   4.740292   2.171298   2.834118   2.805608
     9  C    4.954350   5.773047   2.435588   3.883230   4.478948
    10  H    5.924968   6.694153   3.422629   4.762838   5.147405
    11  C    5.157643   6.077370   2.820607   4.382642   5.292155
    12  C    4.304077   5.264271   2.443727   3.865628   5.031450
    13  H    4.908961   5.868664   3.413772   4.709332   5.957551
    14  C    2.912264   3.871827   1.397831   2.564640   3.831450
    15  H    2.535972   3.474331   2.146430   2.736739   4.104006
    16  O    6.493594   7.421097   4.169674   5.732070   6.602025
    17  C    7.108506   8.067547   5.047389   6.573610   7.604422
    18  H    8.164481   9.119809   6.023383   7.570056   8.539080
    19  H    6.978966   7.934131   5.096737   6.559671   7.654090
    20  H    6.965489   7.923584   5.092131   6.554753   7.656611
                    6          7          8          9         10
     6  H    0.000000
     7  C    2.708972   0.000000
     8  H    2.123369   1.086735   0.000000
     9  C    4.058758   1.383292   2.117455   0.000000
    10  H    4.563538   2.156581   2.450560   1.083807   0.000000
    11  C    5.075344   2.409323   3.378666   1.400098   2.142818
    12  C    5.074624   2.782718   3.868923   2.418941   3.392564
    13  H    6.083407   3.864464   4.950783   3.407919   4.295122
    14  C    4.051870   2.391141   3.389809   2.770750   3.854422
    15  H    4.545931   3.378900   4.297130   3.855597   4.939207
    16  O    6.315027   3.608242   4.450276   2.333273   2.525912
    17  C    7.443049   4.783768   5.722670   3.638069   3.944299
    18  H    8.305477   5.606371   6.463241   4.345925   4.413203
    19  H    7.568547   5.011501   5.993839   4.004732   4.438286
    20  H    7.579264   5.006218   5.987132   4.000253   4.433260
                   11         12         13         14         15
    11  C    0.000000
    12  C    1.396623   0.000000
    13  H    2.164391   1.081899   0.000000
    14  C    2.405719   1.392517   2.144697   0.000000
    15  H    3.382455   2.135984   2.446916   1.084890   0.000000
    16  O    1.351679   2.429984   2.724634   3.673062   4.557596
    17  C    2.375401   2.805191   2.513787   4.196416   4.839784
    18  H    3.248865   3.869863   3.593222   5.254926   5.925786
    19  H    2.699229   2.789624   2.303898   4.121013   4.631513
    20  H    2.697016   2.789162   2.308790   4.118073   4.629387
                   16         17         18         19         20
    16  O    0.000000
    17  C    1.420692   0.000000
    18  H    2.013226   1.088036   0.000000
    19  H    2.081337   1.093517   1.780795   0.000000
    20  H    2.081124   1.093533   1.780918   1.788848   0.000000
 Symmetry turned off by external request.
 Stoichiometry    C7H9BO3
 Framework group  C1[X(C7H9BO3)]
 Deg. of freedom    54
 Full point group                 C1      NOp   1
 Rotational constants (GHZ):           3.2970347           0.5405865           0.4658444
 Standard basis: 6-311+G(d,p) (5D, 7F)
   296 basis functions,   468 primitive gaussians,   307 cartesian basis functions
    40 alpha electrons       40 beta electrons
       nuclear repulsion energy       563.4547998546 Hartrees.
 NAtoms=   20 NActive=   20 NUniq=   20 SFac= 1.00D+00 NAtFMM=   60 NAOKFM=F Big=F
 Integral buffers will be    131072 words long.
 Raffenetti 2 integral format.
 Two-electron integral symmetry is turned off.
 ------------------------------------------------------------------------------
 Polarizable Continuum Model (PCM)
 =================================
 Model                : PCM.
 Atomic radii         : SMD-Coulomb.
 Polarization charges : Total charges.
 Charge compensation  : None.
 Solution method      : Matrix inversion.
 Cavity type          : VdW (van der Waals Surface) (Alpha=1.000).
 Cavity algorithm     : GePol (No added spheres)
                        Default sphere list used, NSphG=   20.
                        Lebedev-Laikov grids with approx.  5.0 points / Ang**2.
                        Smoothing algorithm: York/Karplus (Gamma=1.0000).
                        Polarization charges: spherical gaussians, with
                                              point-specific exponents (IZeta= 3).
                        Self-potential: point-specific (ISelfS= 7).
                        Self-field    : sphere-specific E.n sum rule (ISelfD= 2).
 1st derivatives      : Analytical E(r).r(x)/FMM algorithm (CHGder, D1EAlg=3).
                        Cavity 1st derivative terms included.
 Solvent              : TetraHydroFuran, Eps=   7.425700 Eps(inf)=   1.974025
 ------------------------------------------------------------------------------
 Spheres list:
 ISph  on   Nord     Re0    Alpha      Xe            Ye            Ze
    1   O      1    2.2940  1.000      8.669606      7.536376      5.489509
    2   H      2    1.2000  1.000      9.475000      7.380587      5.995617
    3   C      3    1.8500  1.000      6.261576      6.866295      5.177641
    4   B      4    1.8000  1.000      7.642846      6.730033      5.895010
    5   O      5    2.2940  1.000      7.898400      5.849609      6.913224
    6   H      6    1.2000  1.000      7.144796      5.311192      7.171863
    7   C      7    1.8500  1.000      5.154552      6.061520      5.494225
    8   H      8    1.2000  1.000      5.225085      5.298215      6.264539
    9   C      9    1.8500  1.000      3.941982      6.202923      4.843706
   10   H     10    1.2000  1.000      3.091738      5.578227      5.091650
   11   C     11    1.8500  1.000      3.796509      7.168741      3.840557
   12   C     12    1.8500  1.000      4.877985      7.985362      3.502778
   13   H     13    1.2000  1.000      4.790376      8.740140      2.732622
   14   C     14    1.8500  1.000      6.088031      7.821753      4.172199
   15   H     15    1.2000  1.000      6.921876      8.460786      3.901411
   16   O     16    2.2940  1.000      2.579096      7.237264      3.257249
   17   C     17    1.8500  1.000      2.387727      8.198914      2.229158
   18   H     18    1.2000  1.000      1.356716      8.085030      1.900725
   19   H     19    1.2000  1.000      2.539239      9.213930      2.606737
   20   H     20    1.2000  1.000      3.060506      8.013455      1.387263
 ------------------------------------------------------------------------------
 ------------------------------------------------------------------------------
 Atomic radii for non-electrostatic terms: SMD-CDS.
 ------------------------------------------------------------------------------
 Nuclear repulsion after PCM non-electrostatic terms =      563.4513932288 Hartrees.
 One-electron integrals computed using PRISM.
 NBasis=   296 RedAO= T EigKep=  1.57D-06  NBF=   296
 NBsUse=   296 1.00D-06 EigRej= -1.00D+00 NBFU=   296
 Initial guess from the checkpoint file:  "4-OMe-phboh2-opt-freq-thf.chk"
 B after Tr=     0.003137    0.008398   -0.011786
         Rot=    1.000000   -0.000522    0.000030   -0.000096 Ang=  -0.06 deg.
 ExpMin= 3.15D-02 ExpMax= 8.59D+03 ExpMxC= 1.30D+03 IAcc=3 IRadAn=         5 AccDes= 0.00D+00
 Harris functional with IExCor= 1009 and IRadAn=       5 diagonalized for initial guess.
 HarFok:  IExCor= 1009 AccDes= 0.00D+00 IRadAn=         5 IDoV= 1 UseB2=F ITyADJ=14
 ICtDFT=  3500011 ScaDFX=  1.000000  1.000000  1.000000  1.000000
 FoFCou: FMM=F IPFlag=           0 FMFlag=      100000 FMFlg1=           0
         NFxFlg=           0 DoJE=T BraDBF=F KetDBF=T FulRan=T
         wScrn=  0.000000 ICntrl=       500 IOpCl=  0 I1Cent=   200000004 NGrid=           0
         NMat0=    1 NMatS0=      1 NMatT0=    0 NMatD0=    1 NMtDS0=    0 NMtDT0=    0
 Symmetry not used in FoFCou.
 Requested convergence on RMS density matrix=1.00D-08 within 128 cycles.
 Requested convergence on MAX density matrix=1.00D-06.
 Requested convergence on             energy=1.00D-06.
 Level shift goal  0.100 maximum shift  0.100.
 No special actions if energy rises.
 Dynamic level shift is on during FON iterations.
 Inv3:  Mode=1 IEnd=     8629248.
 Iteration    1 A*A^-1 deviation from unit magnitude is 5.77D-15 for   1682.
 Iteration    1 A*A^-1 deviation from orthogonality  is 1.50D-15 for    859    233.
 Iteration    1 A^-1*A deviation from unit magnitude is 5.77D-15 for   1682.
 Iteration    1 A^-1*A deviation from orthogonality  is 2.30D-15 for    846    826.
 Error on total polarization charges =  0.02501
 SCF Done:  E(RM062X) =  -522.753770614     A.U. after   11 cycles
            NFock= 11  Conv=0.56D-08     -V/T= 2.0037
 SMD-CDS (non-electrostatic) energy       (kcal/mol) =      -2.14
 (included in total energy above)
 D1PCM: PCM CHGder 1st derivatives, ID1Alg=3 FixD1E=F DoIter=F DoCFld=F I1PDM=0.
 Calling FoFJK, ICntrl=      2127 FMM=F ISym2X=0 I1Cent= 0 IOpClX= 0 NMat=1 NMatS=1 NMatT=0.
 -------------------------------------------------------------------
 Center     Atomic                   Forces (Hartrees/Bohr)
 Number     Number              X              Y              Z
 -------------------------------------------------------------------
      1        8          -0.000009674    0.000003426   -0.000003035
      2        1           0.000019375   -0.000015065    0.000018805
      3        6           0.000004617   -0.000007031    0.000002576
      4        5          -0.000009785   -0.000017450    0.000011628
      5        8           0.000017641    0.000014482   -0.000010621
      6        1          -0.000038246   -0.000036015    0.000004382
      7        6          -0.000007170   -0.000004838    0.000006026
      8        1          -0.000001303    0.000003123    0.000007869
      9        6          -0.000004276   -0.000003523   -0.000001895
     10        1          -0.000006285    0.000002281   -0.000002757
     11        6           0.000013411    0.000001761    0.000002807
     12        6           0.000006571    0.000004312   -0.000001577
     13        1           0.000004245    0.000003660   -0.000000160
     14        6           0.000000613    0.000005639   -0.000005032
     15        1           0.000001558   -0.000001661    0.000000427
     16        8          -0.000024730    0.000048138   -0.000051340
     17        6           0.000014413   -0.000033092    0.000038347
     18        1           0.000002930    0.000011412   -0.000007655
     19        1           0.000005927    0.000013470   -0.000001160
     20        1           0.000010169    0.000006972   -0.000007637
 -------------------------------------------------------------------
 Cartesian Forces:  Max     0.000051340 RMS     0.000015642

 GradGradGradGradGradGradGradGradGradGradGradGradGradGradGradGradGradGrad
 Berny optimization.
 Using GEDIIS/GDIIS optimizer.
 FormGI is forming the generalized inverse of G from B-inverse, IUseBI=4.
 Internal  Forces:  Max     0.000050696 RMS     0.000010223
 Search for a local minimum.
 Step number   2 out of a maximum of   97
 All quantities printed in internal units (Hartrees-Bohrs-Radians)
 Mixed Optimization -- En-DIIS/RFO-DIIS
 Swapping is turned off.
 Update second derivatives using D2CorX and points    1    2
 DE= -1.02D-04 DEPred=-1.02D-04 R= 1.00D+00
 TightC=F SS=  1.41D+00  RLast= 4.25D-02 DXNew= 5.0454D-01 1.2757D-01
 Trust test= 1.00D+00 RLast= 4.25D-02 DXMaxT set to 3.00D-01
 ITU=  1  0
     Eigenvalues ---    0.00140   0.00451   0.00961   0.01175   0.01384
     Eigenvalues ---    0.01416   0.01776   0.01867   0.02067   0.02237
     Eigenvalues ---    0.02372   0.02787   0.02867   0.03296   0.03937
     Eigenvalues ---    0.08568   0.08672   0.10446   0.10867   0.11215
     Eigenvalues ---    0.11336   0.12022   0.12662   0.13361   0.15794
     Eigenvalues ---    0.17520   0.18480   0.18705   0.18977   0.19062
     Eigenvalues ---    0.19407   0.19802   0.22309   0.27779   0.29763
     Eigenvalues ---    0.33248   0.33646   0.34273   0.35323   0.35553
     Eigenvalues ---    0.36406   0.36565   0.37016   0.37880   0.38231
     Eigenvalues ---    0.40394   0.42512   0.46366   0.47694   0.48597
     Eigenvalues ---    0.51295   0.54591   0.55614   0.56407
 En-DIIS/RFO-DIIS/Sim-DIIS IScMMF=       -3 using points:     2    1
 RFO step:  Lambda=-4.76523771D-07.
 DidBck=F Rises=F RFO-DIIS coefs:    1.28481   -0.28481
 Iteration  1 RMS(Cart)=  0.00458960 RMS(Int)=  0.00001107
 Iteration  2 RMS(Cart)=  0.00001556 RMS(Int)=  0.00000022
 Iteration  3 RMS(Cart)=  0.00000000 RMS(Int)=  0.00000022
 Variable       Old X    -DE/DX   Delta X   Delta X   Delta X     New X
                                 (Linear)    (Quad)   (Total)
    R1        1.82148   0.00002   0.00140  -0.00135   0.00005   1.82153
    R2        2.58337   0.00001   0.00123  -0.00118   0.00004   2.58341
    R3        2.95251   0.00000   0.00105  -0.00100   0.00005   2.95256
    R4        2.65464   0.00000   0.00074  -0.00072   0.00002   2.65465
    R5        2.64152   0.00002   0.00088  -0.00084   0.00004   2.64156
    R6        2.58914  -0.00001  -0.00038   0.00037  -0.00001   2.58914
    R7        1.81719   0.00004   0.00180  -0.00172   0.00008   1.81727
    R8        2.05363   0.00000  -0.00017   0.00018   0.00001   2.05364
    R9        2.61404   0.00001   0.00059  -0.00058   0.00001   2.61406
   R10        2.04810   0.00000   0.00046  -0.00046   0.00001   2.04811
   R11        2.64580   0.00001   0.00085  -0.00084   0.00001   2.64581
   R12        2.63923   0.00001   0.00084  -0.00082   0.00001   2.63925
   R13        2.55430   0.00002  -0.00178   0.00183   0.00004   2.55435
   R14        2.04449   0.00000   0.00018  -0.00018   0.00001   2.04450
   R15        2.63148   0.00000   0.00027  -0.00026   0.00001   2.63148
   R16        2.05015   0.00000   0.00025  -0.00024   0.00001   2.05015
   R17        2.68472  -0.00005   0.00409  -0.00425  -0.00016   2.68456
   R18        2.05609   0.00000   0.00034  -0.00032   0.00002   2.05611
   R19        2.06645   0.00001  -0.00034   0.00036   0.00002   2.06647
   R20        2.06648   0.00001  -0.00033   0.00036   0.00003   2.06650
    A1        1.95680   0.00000   0.00099  -0.00098   0.00001   1.95682
    A2        2.14510  -0.00002  -0.00132   0.00126  -0.00006   2.14503
    A3        2.09397   0.00002   0.00164  -0.00154   0.00009   2.09406
    A4        2.04412   0.00000  -0.00031   0.00028  -0.00003   2.04409
    A5        2.06731   0.00002  -0.00026   0.00028   0.00002   2.06733
    A6        2.04808   0.00000   0.00021  -0.00025  -0.00004   2.04805
    A7        2.16779  -0.00002   0.00005  -0.00003   0.00002   2.16780
    A8        1.99709   0.00000   0.00019  -0.00014   0.00004   1.99714
    A9        2.10713  -0.00001   0.00073  -0.00071   0.00002   2.10714
   A10        2.12497   0.00000  -0.00055   0.00058   0.00003   2.12500
   A11        2.05108   0.00001  -0.00018   0.00013  -0.00005   2.05104
   A12        2.11902   0.00000  -0.00246   0.00244  -0.00002   2.11900
   A13        2.09270   0.00000   0.00091  -0.00092  -0.00001   2.09269
   A14        2.07146   0.00000   0.00155  -0.00151   0.00004   2.07149
   A15        2.08998   0.00000  -0.00054   0.00053   0.00000   2.08998
   A16        2.02389   0.00001   0.00095  -0.00092   0.00002   2.02391
   A17        2.16932  -0.00001  -0.00041   0.00039  -0.00002   2.16929
   A18        2.11458   0.00000   0.00006  -0.00008  -0.00002   2.11457
   A19        2.08050   0.00000  -0.00029   0.00030   0.00001   2.08051
   A20        2.08810   0.00000   0.00023  -0.00022   0.00000   2.08811
   A21        2.13409   0.00000   0.00078  -0.00078   0.00000   2.13409
   A22        2.07914   0.00001   0.00183  -0.00178   0.00006   2.07919
   A23        2.06996   0.00000  -0.00261   0.00255  -0.00006   2.06990
   A24        2.05774   0.00000  -0.00001   0.00003   0.00002   2.05776
   A25        1.84963   0.00000  -0.00033   0.00036   0.00003   1.84966
   A26        1.93881   0.00000  -0.00021   0.00025   0.00004   1.93885
   A27        1.93849   0.00000  -0.00032   0.00035   0.00003   1.93852
   A28        1.90994   0.00000  -0.00020   0.00015  -0.00005   1.90988
   A29        1.91011   0.00000  -0.00015   0.00010  -0.00005   1.91006
   A30        1.91560   0.00000   0.00116  -0.00116   0.00000   1.91560
    D1        3.13496   0.00000   0.00089   0.00063   0.00151   3.13647
    D2       -0.00611   0.00000   0.00053   0.00091   0.00143  -0.00467
    D3        3.11114   0.00001   0.00345   0.00491   0.00836   3.11950
    D4       -0.03102   0.00001   0.00383   0.00461   0.00845  -0.02257
    D5       -0.03044   0.00001   0.00340   0.00475   0.00815  -0.02229
    D6        3.11059   0.00001   0.00378   0.00445   0.00823   3.11883
    D7       -0.00299   0.00001   0.00093  -0.00027   0.00066  -0.00233
    D8        3.14131   0.00000   0.00072  -0.00062   0.00010   3.14141
    D9        3.13858   0.00001   0.00098  -0.00011   0.00087   3.13946
   D10       -0.00030   0.00000   0.00077  -0.00046   0.00031   0.00001
   D11       -3.14033   0.00000  -0.00064   0.00034  -0.00031  -3.14063
   D12        0.00019   0.00000  -0.00063   0.00053  -0.00010   0.00009
   D13        0.00128   0.00000  -0.00069   0.00019  -0.00051   0.00078
   D14       -3.14139   0.00000  -0.00067   0.00038  -0.00030   3.14150
   D15        3.12917   0.00001   0.00302   0.00065   0.00367   3.13284
   D16       -0.01187   0.00001   0.00264   0.00095   0.00359  -0.00828
   D17        3.14038   0.00000  -0.00007   0.00030   0.00023   3.14061
   D18        0.00001   0.00000  -0.00020   0.00021   0.00000   0.00001
   D19        0.00142   0.00000  -0.00028  -0.00004  -0.00032   0.00109
   D20       -3.13896   0.00000  -0.00041  -0.00013  -0.00054  -3.13950
   D21       -0.00066   0.00000  -0.00047   0.00034  -0.00013  -0.00079
   D22        3.14058   0.00000  -0.00043   0.00041  -0.00002   3.14055
   D23       -3.14107   0.00000  -0.00059   0.00025  -0.00035  -3.14142
   D24        0.00017   0.00000  -0.00056   0.00032  -0.00024  -0.00007
   D25       -3.13956   0.00000   0.00087  -0.00078   0.00010  -3.13946
   D26        0.00160   0.00000   0.00054  -0.00060  -0.00006   0.00154
   D27        0.00241   0.00000   0.00084  -0.00086  -0.00002   0.00239
   D28       -3.13961   0.00000   0.00050  -0.00068  -0.00018  -3.13979
   D29       -3.13639   0.00000   0.00152  -0.00145   0.00007  -3.13632
   D30        0.00483   0.00000   0.00155  -0.00137   0.00018   0.00502
   D31       -0.00195   0.00000   0.00005   0.00034   0.00039  -0.00156
   D32        3.14072   0.00000   0.00003   0.00015   0.00018   3.14090
   D33        3.13922   0.00000  -0.00028   0.00051   0.00024   3.13945
   D34       -0.00130   0.00000  -0.00030   0.00033   0.00003  -0.00127
   D35        3.13916   0.00000  -0.00083   0.00081  -0.00002   3.13914
   D36       -1.07114   0.00000  -0.00139   0.00134  -0.00005  -1.07118
   D37        1.06623   0.00000  -0.00028   0.00029   0.00001   1.06624
         Item               Value     Threshold  Converged?
 Maximum Force            0.000051     0.000015     NO 
 RMS     Force            0.000010     0.000010     NO 
 Maximum Displacement     0.020459     0.000060     NO 
 RMS     Displacement     0.004590     0.000040     NO 
 Predicted change in Energy=-2.382678D-07
 GradGradGradGradGradGradGradGradGradGradGradGradGradGradGradGradGradGrad

                          Input orientation:                          
 ---------------------------------------------------------------------
 Center     Atomic      Atomic             Coordinates (Angstroms)
 Number     Number       Type             X           Y           Z
 ---------------------------------------------------------------------
      1          8           0        8.667362    7.542162    5.495260
      2          1           0        9.473363    7.384775    5.999958
      3          6           0        6.261372    6.866983    5.178217
      4          5           0        7.642708    6.730474    5.895468
      5          8           0        7.900364    5.844739    6.908528
      6          1           0        7.149066    5.300366    7.161504
      7          6           0        5.153703    6.063684    5.496328
      8          1           0        5.223568    5.301883    6.268197
      9          6           0        3.941088    6.205097    4.845881
     10          1           0        3.090317    5.581655    5.095192
     11          6           0        3.796215    7.169446    3.841228
     12          6           0        4.878283    7.984694    3.501998
     13          1           0        4.791105    8.738380    2.730722
     14          6           0        6.088289    7.821258    4.171541
     15          1           0        6.922500    8.459365    3.899688
     16          8           0        2.578721    7.238107    3.258054
     17          6           0        2.387985    8.198170    2.228476
     18          1           0        1.356801    8.084669    1.900420
     19          1           0        2.540431    9.213705    2.604314
     20          1           0        3.060400    8.010741    1.386708
 ---------------------------------------------------------------------
                    Distance matrix (angstroms):
                    1          2          3          4          5
     1  O    0.000000
     2  H    0.963913   0.000000
     3  C    2.518962   3.355630   0.000000
     4  B    1.367083   1.946875   1.562425   0.000000
     5  O    2.338131   2.381498   2.593309   1.370111   0.000000
     6  H    3.179188   3.331111   2.678753   1.972749   0.961659
     7  C    3.812046   4.545149   1.404782   2.607502   3.096190
     8  H    4.180430   4.740374   2.171320   2.834085   2.805344
     9  C    4.954503   5.773179   2.435623   3.883252   4.478865
    10  H    5.925122   6.694260   3.422652   4.762824   5.147228
    11  C    5.157791   6.077539   2.820642   4.382705   5.292184
    12  C    4.304189   5.264453   2.443752   3.865723   5.031583
    13  H    4.909071   5.868875   3.413803   4.709453   5.957745
    14  C    2.912343   3.871996   1.397854   2.564752   3.831624
    15  H    2.536070   3.474590   2.146487   2.736951   4.104340
    16  O    6.493773   7.421296   4.169734   5.732156   6.602070
    17  C    7.108643   8.067730   5.047391   6.573665   7.604462
    18  H    8.164649   9.120014   6.023415   7.570131   8.539125
    19  H    6.977886   7.933531   5.096811   6.559829   7.655395
    20  H    6.966906   7.924645   5.092145   6.554811   7.655541
                    6          7          8          9         10
     6  H    0.000000
     7  C    2.708678   0.000000
     8  H    2.122626   1.086739   0.000000
     9  C    4.058543   1.383298   2.117435   0.000000
    10  H    4.563136   2.156577   2.450504   1.083811   0.000000
    11  C    5.075362   2.409324   3.378654   1.400102   2.142848
    12  C    5.074845   2.782712   3.868921   2.418951   3.392593
    13  H    6.083729   3.864461   4.950784   3.407925   4.295150
    14  C    4.052163   2.391146   3.389831   2.770773   3.854451
    15  H    4.546433   3.378933   4.297196   3.855623   4.939238
    16  O    6.315047   3.608279   4.450297   2.333314   2.525993
    17  C    7.443113   4.783732   5.722617   3.638033   3.944298
    18  H    8.305521   5.606372   6.463223   4.345926   4.413244
    19  H    7.571110   5.011544   5.993797   4.004771   4.438314
    20  H    7.577043   5.006189   5.987164   4.000230   4.433307
                   11         12         13         14         15
    11  C    0.000000
    12  C    1.396630   0.000000
    13  H    2.164390   1.081902   0.000000
    14  C    2.405736   1.392520   2.144705   0.000000
    15  H    3.382450   2.135953   2.446871   1.084893   0.000000
    16  O    1.351703   2.429997   2.724618   3.673091   4.557586
    17  C    2.375364   2.805177   2.513774   4.196405   4.839732
    18  H    3.248863   3.869869   3.593214   5.254937   5.925748
    19  H    2.699249   2.789598   2.303789   4.120971   4.631366
    20  H    2.697011   2.789234   2.308932   4.118168   4.629487
                   16         17         18         19         20
    16  O    0.000000
    17  C    1.420609   0.000000
    18  H    2.013188   1.088046   0.000000
    19  H    2.081305   1.093529   1.780779   0.000000
    20  H    2.081084   1.093547   1.780904   1.788870   0.000000
 Symmetry turned off by external request.
 Stoichiometry    C7H9BO3
 Framework group  C1[X(C7H9BO3)]
 Deg. of freedom    54
 Full point group                 C1      NOp   1
 Rotational constants (GHZ):           3.2970808           0.5405786           0.4658267
 Standard basis: 6-311+G(d,p) (5D, 7F)
   296 basis functions,   468 primitive gaussians,   307 cartesian basis functions
    40 alpha electrons       40 beta electrons
       nuclear repulsion energy       563.4511205768 Hartrees.
 NAtoms=   20 NActive=   20 NUniq=   20 SFac= 1.00D+00 NAtFMM=   60 NAOKFM=F Big=F
 Integral buffers will be    131072 words long.
 Raffenetti 2 integral format.
 Two-electron integral symmetry is turned off.
 ------------------------------------------------------------------------------
 Polarizable Continuum Model (PCM)
 =================================
 Model                : PCM.
 Atomic radii         : SMD-Coulomb.
 Polarization charges : Total charges.
 Charge compensation  : None.
 Solution method      : Matrix inversion.
 Cavity type          : VdW (van der Waals Surface) (Alpha=1.000).
 Cavity algorithm     : GePol (No added spheres)
                        Default sphere list used, NSphG=   20.
                        Lebedev-Laikov grids with approx.  5.0 points / Ang**2.
                        Smoothing algorithm: York/Karplus (Gamma=1.0000).
                        Polarization charges: spherical gaussians, with
                                              point-specific exponents (IZeta= 3).
                        Self-potential: point-specific (ISelfS= 7).
                        Self-field    : sphere-specific E.n sum rule (ISelfD= 2).
 1st derivatives      : Analytical E(r).r(x)/FMM algorithm (CHGder, D1EAlg=3).
                        Cavity 1st derivative terms included.
 Solvent              : TetraHydroFuran, Eps=   7.425700 Eps(inf)=   1.974025
 ------------------------------------------------------------------------------
 Spheres list:
 ISph  on   Nord     Re0    Alpha      Xe            Ye            Ze
    1   O      1    2.2940  1.000      8.667362      7.542162      5.495260
    2   H      2    1.2000  1.000      9.473363      7.384775      5.999958
[...]
 87,0.00042879,0.00026448,-0.00012769,-0.00004005,-0.00004860,-0.000034
 37,0.00749995,-0.01490938,0.01724821,-0.00028292,-0.00006601,0.0011397
 2,-0.00177434,-0.00120251,0.00051207,-0.00249409,0.00055230,-0.0013180
 4,-0.05916088,0.00604654,-0.01447771,0.06171160,-0.00022925,0.00027847
 ,-0.00019330,-0.00010890,0.00003755,0.00008239,0.00258255,-0.00787547,
 0.01109591,0.00149820,-0.00234732,0.00007700,-0.00048719,0.00039355,-0
 .00105546,-0.00091540,0.00099226,-0.00024085,0.00948751,-0.18054386,0.
 14653637,-0.00619175,0.18383004,0.00026382,-0.00004560,0.00031496,0.00
 002475,0.00010107,0.00007777,-0.00053414,0.00369484,-0.00183731,-0.000
 43950,-0.00048526,-0.00247389,0.00019358,-0.00132321,0.00212218,-0.000
 06586,0.00010738,0.00064209,-0.01785940,0.14546908,-0.19338085,0.02090
 720,-0.16241403,0.19697917,-0.00345884,-0.00051585,-0.00084079,0.00006
 203,-0.00004545,0.00024456,-0.05224579,-0.03626453,0.01046901,0.003325
 30,-0.00536405,0.00449138,0.00012441,0.00131794,-0.00128048,-0.0004206
 3,0.00009373,0.00000597,-0.30728017,0.03108482,-0.13555145,0.00147228,
 -0.00167331,0.00020392,0.71408187,0.00075284,0.00059974,-0.00063354,-0
 .00029078,-0.00027795,-0.00029044,-0.00077164,0.03000096,-0.02095121,-
 0.00559584,0.00117965,0.00181011,0.00043480,-0.00014070,0.00048907,-0.
 00055851,-0.00004774,-0.00074676,-0.01823263,-0.09902666,0.03360750,0.
 02000974,0.00128501,0.01198876,0.13676673,0.43456316,-0.00192037,-0.00
 122445,-0.00010678,0.00049350,-0.00009467,0.00000438,-0.02513098,-0.03
 612976,0.03475066,0.00475016,0.00198015,0.00542664,-0.00042075,0.00089
 035,-0.00082944,0.00058573,-0.00054356,0.00000347,-0.08614993,0.054389
 41,-0.14855120,-0.02158114,0.00296450,-0.00705405,0.11031086,-0.255605
 67,0.42770371,-0.00072587,-0.00008105,-0.00016255,-0.00002692,-0.00002
 918,0.00004198,-0.00240693,0.00033039,-0.00464752,0.00050327,-0.000799
 53,0.00080379,-0.00017703,0.00025982,-0.00032468,-0.00001418,-0.000101
 95,0.00009212,-0.01507407,-0.01547382,0.00817378,0.00060558,0.00111370
 ,0.00110640,-0.23236259,-0.13401437,0.05183860,0.24325684,0.00008100,-
 0.00009336,-0.00004544,0.00004072,-0.00002465,-0.00002937,-0.00005363,
 0.00447079,0.00347599,0.00013906,0.00037708,0.00017431,-0.00004214,-0.
 00000124,-0.00001535,0.00001888,-0.00000627,0.00000545,0.00478479,0.00
 574828,-0.00122707,0.00075146,-0.00180871,-0.00258690,-0.13302090,-0.1
 4124016,0.05132469,0.14437273,0.14121917,-0.00031474,-0.00012049,-0.00
 019271,-0.00001271,-0.00005806,-0.00002496,-0.00434531,0.00359453,0.00
 254079,-0.00012633,-0.00022316,0.00066780,-0.00002875,0.00010728,-0.00
 011673,-0.00002281,-0.00004037,0.00002465,-0.01211245,-0.00966950,0.00
 718324,0.00148663,-0.00245212,-0.00161111,0.05085083,0.05094221,-0.064
 89465,-0.05340112,-0.05699704,0.05945762,0.00315010,0.00142075,-0.0000
 4106,-0.00023826,0.00003275,-0.00016726,-0.00021244,-0.02207201,0.0240
 8063,-0.00941162,-0.00043246,-0.00343794,0.00207704,-0.00213914,0.0030
 3997,0.00029349,0.00055148,-0.00054666,0.02147809,0.02947238,-0.020343
 64,-0.00339431,-0.00146946,-0.00356075,-0.11500589,0.01131545,-0.03116
 041,0.00442102,-0.01813260,0.01814100,0.64273686,-0.00115689,-0.000202
 04,-0.00041708,0.00006418,0.00000933,0.00013270,-0.02232846,-0.0456443
 5,0.03089954,-0.00057774,-0.00227431,0.00192205,0.00055796,-0.00012855
 ,0.00026110,0.00014086,0.00025339,0.00002361,0.07128139,0.01485802,0.0
 1460808,-0.00186012,0.00515812,0.00269097,-0.03833850,-0.19288183,0.11
 016465,0.00270931,-0.00710658,0.01278621,0.10636722,0.45929201,0.00252
 314,0.00075567,0.00036063,-0.00020337,0.00007419,-0.00013759,0.0246117
 0,0.03118333,-0.02610787,-0.00328322,0.00195975,-0.00351818,0.00031933
 ,-0.00090594,0.00085265,-0.00009515,0.00022806,0.00002726,-0.06228920,
 -0.00308605,-0.02370311,-0.00317614,0.00291922,0.00440380,0.01851851,0
 .13090426,-0.19207551,-0.00278889,0.00413264,-0.00070541,0.09431230,-0
 .25058910,0.45781265,-0.00156617,-0.00090649,0.00033756,0.00019697,0.0
 0009373,-0.00000882,0.01640083,0.05847234,-0.05573502,0.00879569,0.000
 12391,0.00101279,-0.00158551,0.00180035,-0.00200765,-0.00012555,-0.000
 52675,0.00046023,-0.06715714,-0.02007379,-0.00703178,-0.00105280,0.000
 11884,-0.00003616,0.04239962,-0.03671330,0.05196436,0.00115822,0.00014
 456,-0.00196484,-0.21630728,-0.06697686,0.00390937,0.62848927,-0.00057
 376,0.00015227,-0.00044903,0.00017621,0.00008340,-0.00007419,0.0217334
 3,0.01435589,0.00511935,-0.00023862,0.00010866,0.00569543,0.00115150,-
 0.00027589,-0.00052368,-0.00016102,0.00013952,-0.00008538,-0.01532148,
 -0.00704409,-0.00192475,0.00014138,-0.00027822,-0.00076471,-0.00726414
 ,-0.02110027,0.02412762,-0.00027906,0.00023314,0.00524497,-0.11615155,
 -0.17357414,0.05900277,0.09392904,0.45493262,0.00006879,-0.00058407,0.
 00052037,-0.00006320,-0.00009695,-0.00000203,-0.01913867,0.02032631,-0
 .01815423,0.00136344,0.00590069,0.00061320,-0.00135612,-0.00009002,-0.
 00159606,0.00005157,-0.00031894,0.00036789,-0.01186237,-0.00391892,-0.
 00356901,-0.00011483,-0.00079949,-0.00036083,0.02256183,0.01181196,0.0
 0372967,-0.00156099,0.00540386,-0.00052836,0.05317540,0.07962334,-0.12
 353413,0.11838783,-0.29290146,0.46577103,-0.00030135,-0.00016662,0.000
 03518,0.00001679,0.00000271,-0.00000107,-0.00372367,-0.00092418,-0.003
 83007,0.00098069,0.00064361,-0.00043606,-0.00056234,0.00031696,-0.0004
 0057,-0.00002070,-0.00011521,0.00007881,-0.00142734,-0.00023989,-0.000
 02946,0.00006600,0.00025064,0.00017086,-0.00331846,-0.00376331,-0.0001
 3033,0.00017109,-0.00079405,0.00096001,0.00792170,-0.01579504,0.017768
 04,-0.05664495,0.00908048,-0.01882928,0.05732675,0.00012791,0.00003646
 ,0.00000915,-0.00001286,0.00000736,0.00000134,-0.00079550,0.00461575,0
 .00258338,-0.00038931,0.00021387,0.00009918,0.00010570,-0.00017599,-0.
 00006597,-0.00001459,0.00002858,0.00000202,-0.00055463,-0.00021747,-0.
 00081838,0.00023653,-0.00046164,-0.00037551,-0.00398640,0.00157332,0.0
 0273584,0.00028812,-0.00051800,0.00044825,0.00356973,-0.00738453,0.012
 13097,0.00840027,-0.18562865,0.15579256,-0.01100163,0.18872344,-0.0002
 7522,-0.00012171,-0.00001313,0.00001786,0.00000984,0.00001318,-0.00395
 786,0.00259826,0.00328715,0.00063670,0.00053832,0.00021416,-0.00024917
 ,0.00004750,-0.00042275,-0.00001433,-0.00005649,0.00007705,0.00024156,
 -0.00069854,-0.00000960,0.00018083,-0.00037294,-0.00048669,0.00008169,
 0.00281928,0.00320255,-0.00013053,-0.00001046,-0.00023727,-0.00155918,
 0.00406487,-0.00145818,-0.01832247,0.15600442,-0.19699158,0.02530025,-
 0.16971324,0.20415022,-0.00090378,0.00011241,-0.00036522,0.00047568,0.
 00023924,0.00007017,-0.11919105,-0.01360756,-0.01005004,-0.00129407,0.
 01628218,-0.01710913,-0.00473161,0.00070764,-0.00313925,-0.00029473,-0
 .00062134,0.00040001,0.04257030,-0.00845256,0.02447809,-0.00328263,-0.
 00463360,0.00032141,-0.02399396,0.01651355,-0.02567143,0.00009273,0.00
 108456,-0.00062785,-0.05794954,-0.04160048,0.01757480,-0.28359934,0.03
 460297,-0.12820564,0.00197845,-0.00065005,0.00056651,0.67098000,-0.003
 04112,-0.00239201,0.00042835,-0.00009369,-0.00030755,0.00012511,0.0234
 4085,-0.18938000,0.13520414,0.01016053,0.00162751,0.00349174,-0.002828
 71,0.00250141,-0.00180122,-0.00021628,-0.00047192,0.00034760,-0.042676
 93,-0.03058221,0.01717082,-0.00422441,0.00214527,0.00312624,0.01988271
 ,-0.01714442,0.02337261,0.00068658,-0.00064983,-0.00012610,-0.00065747
 ,0.03287060,-0.03397193,-0.01562208,-0.10034446,0.03349930,0.01988428,
 0.00143055,0.00938793,0.13125515,0.44994156,0.00268571,0.00188509,-0.0
 0113778,0.00038096,0.00027899,-0.00026301,-0.04700008,0.11964536,-0.20
 384735,-0.01072058,0.00597072,-0.00971864,0.00008252,-0.00042687,0.002
 32830,0.00016646,0.00022970,-0.00022346,0.05882515,0.03157987,-0.00248
 711,-0.00007496,0.00297135,0.00396890,-0.02904111,0.02199427,-0.036423
 98,-0.00020016,0.00002750,-0.00122451,-0.02342435,-0.05114915,0.040784
 77,-0.07806075,0.05457321,-0.14787419,-0.02009111,0.00073720,-0.006743
 69,0.08920093,-0.24903672,0.43289318,-0.00050853,0.00045563,-0.0007331
 7,-0.00005949,0.00002883,0.00005286,0.00662174,0.00240833,-0.00080485,
 -0.00047779,0.00104566,0.00007333,0.00021555,-0.00036172,0.00021512,0.
 00000508,0.00003257,-0.00000498,0.00183520,-0.00010746,-0.00219711,0.0
 0029468,0.00018932,-0.00013102,-0.00025462,0.00075906,-0.00031514,-0.0
 0009200,0.00008878,0.00021151,-0.00154922,0.00027095,-0.00435777,-0.01
 588429,-0.01605828,0.00730571,0.00074117,0.00108297,0.00109288,-0.2257
 7138,-0.13089233,0.05337178,0.23645612,-0.00014186,0.00060932,-0.00050
 089,0.00024673,0.00012772,-0.00027931,-0.01587466,-0.00798997,0.004146
 27,-0.00081157,-0.00253643,-0.00097950,0.00014213,0.00045783,0.0001100
 9,-0.00005644,0.00002146,-0.00008908,-0.00000160,0.00102392,0.00625574
 ,-0.00086472,-0.00046197,0.00024078,0.00081355,-0.00053339,-0.00043269
 ,0.00006598,-0.00035686,-0.00041936,0.00015822,0.00434600,0.00383611,0
 .00430200,0.00632934,0.00043720,0.00074750,-0.00166883,-0.00244816,-0.
 13097613,-0.14670977,0.05068581,0.14199638,0.14733398,-0.00020843,-0.0
 0030842,0.00040300,-0.00018632,-0.00036901,0.00008382,0.01756755,0.011
 85044,-0.00166215,0.00187558,-0.00011701,-0.00215658,-0.00022478,-0.00
 020901,0.00057181,0.00009430,-0.00004249,0.00002030,-0.00228096,0.0062
 1944,0.00010776,0.00092092,0.00067398,-0.00015685,-0.00035456,-0.00046
 955,-0.00099542,0.00022990,-0.00041527,-0.00029609,-0.00418156,0.00393
 161,0.00242281,-0.01314120,-0.00815175,0.00758098,0.00143852,-0.002303
 37,-0.00152484,0.05346023,0.05078122,-0.06921636,-0.05424451,-0.060232
 34,0.06472371,-0.00474830,-0.00173813,-0.00041060,0.00043603,0.0000326
 8,0.00021945,-0.01347353,0.00203648,-0.00710728,0.01127577,-0.00080707
 ,0.00578579,-0.00224489,0.00255633,-0.00345751,-0.00008838,-0.00074742
 ,0.00066044,0.00785110,-0.00183826,0.00313712,-0.00026777,0.00041047,-
 0.00052016,-0.01878842,0.01555234,-0.02662929,0.00054914,0.00017225,0.
 00136933,-0.26864659,-0.02239540,-0.07075397,-0.05196129,-0.00484117,-
 0.02132427,0.00125363,0.00140409,0.00013490,0.00543707,-0.00664606,0.0
 0598002,-0.00176931,0.00028294,-0.00085486,0.41427736,0.00099773,0.000
 45650,0.00010839,-0.00006261,-0.00001880,-0.00007472,0.00390252,0.0020
 5135,-0.00163746,-0.00186924,-0.00007269,-0.00134040,0.00040752,-0.000
 31224,0.00053074,-0.00013245,0.00015320,-0.00018472,-0.00695617,-0.002
 52086,0.00452761,0.00138259,-0.00027920,0.00087489,0.03723258,0.001062
 08,0.02169982,0.00081739,-0.00010374,-0.00261567,0.00097585,-0.0824587
 5,0.03654014,-0.02070943,0.01081099,-0.00956437,0.00193922,-0.00089490
 ,-0.00067256,-0.00161428,-0.00158450,0.00792048,-0.00068044,0.00000330
 ,-0.00077481,-0.00748228,0.25064027,-0.00306541,-0.00108387,-0.0001747
 0,0.00027288,-0.00002381,0.00011279,-0.00904933,-0.00237693,-0.0025903
 1,0.00687906,-0.00088750,0.00316624,-0.00137327,0.00144689,-0.00191959
 ,0.00009817,-0.00047312,0.00046621,0.00819151,0.00668284,0.00164937,-0
 .00152293,0.00047704,-0.00108014,-0.04837858,0.01253172,-0.02593385,0.
 00076547,-0.00290905,0.00017448,-0.09457279,0.02674125,-0.11345726,-0.
 00532128,-0.00284168,0.01052028,-0.00042663,-0.00092294,-0.00168740,0.
 00096166,0.00577754,0.00162267,0.00013926,-0.00036826,-0.00006196,0.15
 228897,-0.18497312,0.32236008,0.00029098,0.00010535,0.00004579,-0.0000
 2731,-0.00000923,-0.00002673,0.00092704,0.00014692,0.00028914,-0.00069
 107,0.00016071,-0.00034123,0.00011245,-0.00017038,0.00020663,0.0000211
 6,0.00003213,-0.00002999,-0.00036600,0.00061608,-0.00148521,-0.0003344
 0,0.00005646,-0.00005286,-0.00339455,-0.00279350,0.00010326,0.00013089
 ,0.00038913,-0.00006804,-0.01515045,0.02893720,-0.03352632,-0.00176450
 ,0.00147858,-0.00183588,-0.00244721,0.00131117,-0.00168106,0.00037197,
 0.00064817,-0.00078012,0.00016577,-0.00002501,0.00010063,-0.08459076,-
 0.01312081,0.00288864,0.62769361,-0.00122229,-0.00048306,-0.00010653,0
 .00010084,0.00003451,0.00006937,-0.00262282,0.00104727,-0.00222437,0.0
 0289444,-0.00027450,0.00123031,-0.00060364,0.00059939,-0.00081428,0.00
 001776,-0.00018687,0.00019241,-0.00013177,0.00074623,0.00089220,-0.000
 19949,0.00001525,-0.00043481,-0.00345786,0.00314187,-0.00157230,0.0001
 6973,-0.00030205,-0.00025756,0.01809653,-0.00422987,0.00676265,-0.0067
 2810,0.00091852,-0.00462574,-0.00024176,-0.00041841,-0.00059298,0.0012
 0566,-0.00126773,0.00241463,-0.00037543,-0.00002912,-0.00014935,0.0064
 2066,-0.14607669,0.08947321,0.01896341,0.53548312,0.00137532,0.0004857
 7,0.00008175,-0.00013616,0.00000992,-0.00003047,0.00307574,-0.00110538
 ,0.00227888,-0.00311203,0.00008710,-0.00164721,0.00065528,-0.00066035,
 0.00094024,-0.00001568,0.00021557,-0.00019514,-0.00068452,0.00119446,0
 .00017449,0.00020614,-0.00033110,0.00008448,0.00079199,-0.00127379,0.0
 0464642,0.00014608,-0.00016340,-0.00039746,-0.02246624,0.01131141,-0.0
 2606900,0.00633968,-0.00114178,0.00286283,-0.00025421,0.00005483,-0.00
 091089,-0.00134680,0.00218774,-0.00214321,0.00045988,0.00000582,0.0001
 8014,-0.01688992,0.08131188,-0.14969631,-0.00180471,0.05955614,0.52435
 145,-0.00011143,-0.00003281,-0.00001345,0.00001190,0.00000100,0.000003
 39,-0.00022502,0.00009481,-0.00015182,0.00023608,-0.00000639,0.0001144
 5,-0.00006407,0.00005941,-0.00008662,0.00000381,-0.00002239,0.00002255
 ,0.00001292,0.00006555,-0.00005663,-0.00003358,0.00001999,-0.00001570,
 -0.00024076,-0.00003514,-0.00017445,0.00000089,0.00000319,-0.00000426,
 0.00287309,0.00013428,0.00081422,-0.00026429,-0.00032476,0.00010720,0.
 00007561,0.00033040,-0.00017153,0.00017160,0.00002971,-0.00004566,-0.0
 0001603,-0.00001257,-0.00001136,-0.00281636,0.00225394,-0.00349914,-0.
 30654295,-0.03054449,-0.07663071,0.32428587,0.00007957,0.00002933,0.00
 000210,-0.00000626,0.00000083,-0.00000158,0.00014073,0.00002439,-0.000
 04662,-0.00015460,0.00001789,-0.00010316,0.00002596,-0.00002638,0.0000
 4111,-0.00000749,0.00001213,-0.00001369,-0.00028840,-0.00028245,0.0001
 4842,0.00010955,-0.00003764,0.00003900,0.00116086,0.00016333,0.0005875
 2,-0.00003752,-0.00000749,-0.00000339,-0.00096638,-0.00256148,0.002803
 69,-0.00055937,-0.00050442,0.00045310,-0.00003924,0.00034615,-0.000572
 45,0.00014217,0.00035267,-0.00009818,0.00003002,0.00001066,0.00003960,
 0.02965749,-0.00224675,0.01512181,-0.04061080,-0.05432498,-0.01491430,
 0.03179180,0.05794752,-0.00012729,-0.00004863,-0.00001308,0.00001050,0
 .00000220,0.00000623,-0.00021039,-0.00006985,-0.00010079,0.00026776,-0
 .00004157,0.00013392,-0.00005591,0.00005747,-0.00007340,0.00000977,-0.
 00002193,0.00002266,0.00030727,0.00030609,-0.00018344,-0.00010728,0.00
 000303,-0.00008980,-0.00139161,0.00008258,-0.00042517,0.00003715,0.000
 01255,0.00000580,0.00195569,0.00324766,-0.00187216,0.00039532,0.000560
 86,-0.00017159,0.00016529,-0.00041130,0.00023268,-0.00015250,-0.000141
 90,0.00027661,-0.00005407,0.00002162,-0.00000753,-0.03130547,0.0035340
 3,-0.01643353,-0.06644567,-0.01069410,-0.06935306,0.08503217,0.0021560
 1,0.08046716,0.00005895,0.00001297,-0.00000240,-0.00000613,0.00000062,
 -0.00000357,-0.00004862,-0.00050953,0.00047420,-0.00018897,0.00003590,
 -0.00002416,0.00004491,-0.00005022,0.00004918,0.00000172,0.00001503,-0
 .00001122,0.00065447,0.00013245,0.00001926,0.00000415,0.00001563,0.000
 03153,-0.00034462,0.00012332,-0.00065646,-0.00001307,0.00000083,0.0000
 3907,0.00140423,0.00122201,0.00114633,0.00014597,-0.00012203,0.0007235
 9,-0.00162850,0.00095800,0.00003052,-0.00040212,0.00008525,-0.00077939
 ,0.00000447,0.00003901,0.00003022,0.00149463,0.00605072,0.00069716,-0.
 05814454,-0.03839533,-0.01561643,-0.00172701,-0.02779550,-0.01081027,0
 .05513781,0.00023182,0.00009396,0.00001837,-0.00001869,-0.00000146,-0.
 00001039,0.00067446,-0.00001310,0.00020198,-0.00052617,0.00004106,-0.0
 0029117,0.00009424,-0.00010091,0.00014851,-0.00000113,0.00002795,-0.00
 003218,-0.00053280,0.00009595,-0.00006486,0.00005919,-0.00005100,0.000
 02885,0.00089822,-0.00038891,0.00103489,0.00002825,0.00003200,-0.00016
 894,-0.00561374,0.00047784,-0.00301994,0.00044555,-0.00000018,0.000295
 89,0.00034177,0.00029597,-0.00035249,-0.00005948,0.00031985,-0.0002818
 9,0.00005366,0.00001080,0.00003297,0.00179000,-0.02836103,0.00843106,-
 0.03513949,-0.27014389,-0.08914189,-0.00059050,-0.00038453,-0.00185776
 ,0.03953765,0.30164085,-0.00011055,-0.00003064,-0.00001699,0.00001146,
 -0.00000299,0.00000056,-0.00051865,-0.00034188,0.00020274,0.00018608,0
 .00001536,0.00016561,-0.00005042,0.00005024,-0.00008558,0.00000566,-0.
 00001838,0.00001748,0.00077378,-0.00000097,-0.00005586,-0.00003685,0.0
 0006409,0.00001373,-0.00049657,0.00012624,-0.00128699,-0.00004956,0.00
 002964,0.00014853,0.00420333,0.00063348,0.00336068,-0.00084795,-0.0012
 4406,0.00068233,-0.00065198,0.00067126,-0.00007765,-0.00012841,0.00014
 429,-0.00074961,-0.00003221,0.00001319,0.00001099,0.00097024,0.0363188
 9,0.00315777,-0.01556977,-0.09604430,-0.08894076,0.00017224,-0.0072689
 0,-0.00224126,0.01722599,0.08843290,0.09205355,0.00009679,0.00004272,0
 .00000539,-0.00000997,0.00000232,-0.00000273,0.00002279,-0.00055116,0.
 00056949,-0.00025882,-0.00004322,-0.00016783,0.00005097,-0.00004782,0.
 00008808,0.00000256,0.00001784,-0.00001601,0.00058390,0.00028958,0.000
 10976,0.00003473,-0.00003442,-0.00000791,-0.00035620,0.00054119,-0.000
 10578,0.00000299,-0.00002864,-0.00002916,0.00150998,-0.00065588,-0.001
 02371,0.00032655,-0.00095773,0.00054589,-0.00045737,-0.00040993,-0.001
 92235,-0.00066361,0.00082584,-0.00047523,0.00004288,-0.00002986,-0.000
 02930,0.00682088,-0.00333236,-0.00597342,-0.15626015,0.03665394,0.1259
 0727,-0.01563030,0.00732740,0.02247952,0.00355225,-0.00167281,-0.00505
 584,0.16058916,0.00014439,0.00004793,0.00002179,-0.00001188,-0.0000037
 9,-0.00000957,0.00048665,0.00018489,0.00009795,-0.00031717,0.00006002,
 -0.00012936,0.00007640,-0.00008416,0.00010101,-0.00000469,0.00002474,-
 0.00002427,-0.00037367,-0.00023927,-0.00024207,0.00001324,0.00000951,0
 .00006817,0.00067985,-0.00078708,0.00033103,-0.00002552,0.00013847,0.0
 0002830,-0.00432553,0.00118111,-0.00166048,0.00098557,0.00068598,-0.00
 064425,-0.00012624,0.00009696,0.00014162,0.00006994,-0.00035502,0.0000
 7862,0.00003348,0.00001200,0.00001313,-0.01381993,-0.00024755,0.030176
 90,0.03902389,-0.06424897,-0.04768865,-0.00321502,0.00147120,0.0033029
 2,0.01864323,-0.00359122,-0.02154748,-0.03793700,0.06564426,-0.0002045
 7,-0.00007147,-0.00000603,0.00001607,0.00000054,0.00000731,-0.00065708
 ,-0.00030239,-0.00005967,0.00045141,-0.00008891,0.00020648,-0.00007814
 ,0.00009373,-0.00010568,0.00000455,-0.00002677,0.00001976,0.00070275,0
 .00025651,0.00035978,-0.00002977,-0.00000560,-0.00007556,-0.00119540,0
 .00086299,-0.00089048,0.00003075,-0.00018730,0.00002633,0.00655351,-0.
 00088719,0.00261314,-0.00032922,-0.00022616,0.00013341,-0.00083618,-0.
 00065527,-0.00061331,-0.00023756,0.00003324,0.00017847,-0.00004750,-0.
 00000302,-0.00002754,0.00870706,0.00847095,-0.03019484,0.12001351,-0.0
 4307459,-0.19621716,-0.00540491,0.00162991,0.00981974,0.00743685,-0.00
 340391,-0.00635927,-0.13489612,0.03758471,0.22118512\\0.00000097,0.000
 00724,-0.00000548,0.00000191,0.00000931,-0.00000625,0.00000152,0.00000
 306,-0.00000092,0.00000271,0.00000639,-0.00000254,0.00000538,0.0000086
 3,-0.00000123,0.00000647,0.00000787,0.00000086,0.00000315,0.00000205,0
 .00000203,0.00000529,0.00000359,0.00000330,0.00000205,-0.00000092,0.00
 000343,0.00000329,-0.00000168,0.00000570,-0.00000073,-0.00000296,0.000
 00184,-0.00000237,-0.00000203,-0.00000110,-0.00000452,-0.00000358,-0.0
 0000235,-0.00000122,0.00000097,-0.00000245,-0.00000253,0.00000167,-0.0
 0000474,-0.00000161,-0.00000582,0.00000337,-0.00000440,-0.00000801,0.0
 0000190,-0.00000469,-0.00001011,0.00000349,-0.00000540,-0.00000710,-0.
 00000020,-0.00000525,-0.00000858,0.00000134\\\@
 The archive entry for this job was punched.


 E PUR SI MUOVE    -- GALILEO GALILEI
 Job cpu time:       0 days  1 hours  2 minutes 40.7 seconds.
 Elapsed time:       0 days  0 hours  2 minutes  3.3 seconds.
 File lengths (MBytes):  RWF=    220 Int=      0 D2E=      0 Chk=     17 Scr=      1
 Normal termination of Gaussian 16 at Tue Apr 22 20:47:55 2025.
