/home/tahminaafroz
cn013.cluster.local
tahminaafroz
Tue May  6 17:42:54 CDT 2025
 Entering Gaussian System, Link 0=g16
 Initial command:
 /home/apps/g16/l1.exe "/tmp/4-OMe-ph-opt-freq-thf/Gau-812726.inp" -scrdir="/tmp/4-OMe-ph-opt-freq-thf/"
 Entering Link 1 = /home/apps/g16/l1.exe PID=    812727.
  
 Copyright (c) 1988-2019, Gaussian, Inc.  All Rights Reserved.
  
 This is part of the Gaussian(R) 16 program.  It is based on
 the Gaussian(R) 09 system (copyright 2009, Gaussian, Inc.),
 the Gaussian(R) 03 system (copyright 2003, Gaussian, Inc.),
 the Gaussian(R) 98 system (copyright 1998, Gaussian, Inc.),
 the Gaussian(R) 94 system (copyright 1995, Gaussian, Inc.),
 the Gaussian 92(TM) system (copyright 1992, Gaussian, Inc.),
 the Gaussian 90(TM) system (copyright 1990, Gaussian, Inc.),
 the Gaussian 88(TM) system (copyright 1988, Gaussian, Inc.),
 the Gaussian 86(TM) system (copyright 1986, Carnegie Mellon
 University), and the Gaussian 82(TM) system (copyright 1983,
 Carnegie Mellon University). Gaussian is a federally registered
 trademark of Gaussian, Inc.
  
 This software contains proprietary and confidential information,
 including trade secrets, belonging to Gaussian, Inc.
  
 This software is provided under written license and may be
 used, copied, transmitted, or stored only in accord with that
 written license.
  
 The following legend is applicable only to US Government
 contracts under FAR:
  
                    RESTRICTED RIGHTS LEGEND
  
 Use, reproduction and disclosure by the US Government is
 subject to restrictions as set forth in subparagraphs (a)
 and (c) of the Commercial Computer Software - Restricted
 Rights clause in FAR 52.227-19.
  
 Gaussian, Inc.
 340 Quinnipiac St., Bldg. 40, Wallingford CT 06492
  
  
 ---------------------------------------------------------------
 Warning -- This program may not be used in any manner that
 competes with the business of Gaussian, Inc. or will provide
 assistance to any competitor of Gaussian, Inc.  The licensee
 of this program is prohibited from giving any competitor of
 Gaussian, Inc. access to this program.  By using this program,
 the user acknowledges that Gaussian, Inc. is engaged in the
 business of creating and licensing software in the field of
 computational chemistry and represents and warrants to the
 licensee that it is not a competitor of Gaussian, Inc. and that
 it will not use this program in any manner prohibited above.
 ---------------------------------------------------------------
  

 Cite this work as:
 Gaussian 16, Revision C.01,
 M. J. Frisch, G. W. Trucks, H. B. Schlegel, G. E. Scuseria, 
 M. A. Robb, J. R. Cheeseman, G. Scalmani, V. Barone, 
 G. A. Petersson, H. Nakatsuji, X. Li, M. Caricato, A. V. Marenich, 
 J. Bloino, B. G. Janesko, R. Gomperts, B. Mennucci, H. P. Hratchian, 
 J. V. Ortiz, A. F. Izmaylov, J. L. Sonnenberg, D. Williams-Young, 
 F. Ding, F. Lipparini, F. Egidi, J. Goings, B. Peng, A. Petrone, 
 T. Henderson, D. Ranasinghe, V. G. Zakrzewski, J. Gao, N. Rega, 
 G. Zheng, W. Liang, M. Hada, M. Ehara, K. Toyota, R. Fukuda, 
 J. Hasegawa, M. Ishida, T. Nakajima, Y. Honda, O. Kitao, H. Nakai, 
 T. Vreven, K. Throssell, J. A. Montgomery, Jr., J. E. Peralta, 
 F. Ogliaro, M. J. Bearpark, J. J. Heyd, E. N. Brothers, K. N. Kudin, 
 V. N. Staroverov, T. A. Keith, R. Kobayashi, J. Normand, 
 K. Raghavachari, A. P. Rendell, J. C. Burant, S. S. Iyengar, 
 J. Tomasi, M. Cossi, J. M. Millam, M. Klene, C. Adamo, R. Cammi, 
 J. W. Ochterski, R. L. Martin, K. Morokuma, O. Farkas, 
 J. B. Foresman, and D. J. Fox, Gaussian, Inc., Wallingford CT, 2019.
 
 ******************************************
 Gaussian 16:  AS64L-G16RevC.01  3-Jul-2019
                 6-May-2025 
 ******************************************
 %mem=20GB
 %nprocshared=32
 Will use up to   32 processors via shared memory.
 %chk=4-OMe-ph-opt-freq-thf.chk
 ----------------------------------------------------------------------
 # opt=(calcfc,tight) freq 6-311+g(d,p) scrf=(smd,solvent=thf) nosymm s
 cf=(qc,fermi,xqc) geom=connectivity int=ultrafine m062x
 ----------------------------------------------------------------------
 1/7=10,10=4,18=20,19=15,26=6,38=1,57=2/1,3;
 2/9=110,12=2,15=1,17=6,18=5,40=1/2;
 3/5=4,6=6,7=111,11=2,25=1,30=1,70=32201,71=2,72=20,74=-55,75=-5,140=1/1,2,3;
 4//1;
 5/5=2,22=13,38=5,53=20/2;
 8/6=4,10=90,11=11/1;
 11/6=1,8=1,9=11,15=111,16=1,31=1/1,2,10;
 10/6=1,13=1,31=1/2;
 6/7=2,8=2,9=2,10=2,28=1/1;
 7/10=1,25=1,30=1/1,2,3,16;
 1/7=10,10=4,18=20,19=15,26=6/3(2);
 2/9=110,15=1/2;
 99//99;
 2/9=110,15=1/2;
 3/5=4,6=6,7=111,11=2,25=1,30=1,70=32205,71=1,72=20,74=-55,75=-5/1,2,3;
 4/5=5,16=3,69=1/1;
 5/5=2,22=13,38=5,53=20/2;
 7/30=1/1,2,3,16;
 1/7=10,18=20,19=15,26=6/3(-5);
 2/9=110,15=1/2;
 6/7=2,8=2,9=2,10=2,19=2,28=1/1;
 99/9=1/99;
 ---------------------
 4-OMe-ph-opt-freq-thf
 ---------------------
 Symbolic Z-matrix:
 Charge =  0 Multiplicity = 2
 C                     6.25964   6.87347   5.18298 
 C                     5.14774   6.0809    5.51276 
 H                     5.21389   5.33133   6.29693 
 C                     3.93492   6.22163   4.86255 
 H                     3.08031   5.60755   5.12174 
 C                     3.79446   7.17434   3.84621 
 C                     4.88051   7.97973   3.49626 
 H                     4.79654   8.72466   2.71617 
 C                     6.09009   7.81848   4.1671 
 H                     6.92711   8.44959   3.88759 
 O                     2.57671   7.24275   3.26348 
 C                     2.38995   8.1921    2.22332 
 H                     1.3574    8.0814    1.89862 
 H                     2.54961   9.21089   2.58713 
 H                     3.05937   7.99063   1.38239 
 

 GradGradGradGradGradGradGradGradGradGradGradGradGradGradGradGradGradGrad
 Berny optimization.
 Initialization pass.
                           ----------------------------
                           !    Initial Parameters    !
                           ! (Angstroms and Degrees)  !
 --------------------------                            --------------------------
 ! Name  Definition              Value          Derivative Info.                !
 --------------------------------------------------------------------------------
 ! R1    R(1,2)                  1.4047         calculate D2E/DX2 analytically  !
 ! R2    R(1,9)                  1.3978         calculate D2E/DX2 analytically  !
 ! R3    R(2,3)                  1.0868         calculate D2E/DX2 analytically  !
 ! R4    R(2,4)                  1.3833         calculate D2E/DX2 analytically  !
 ! R5    R(4,5)                  1.0838         calculate D2E/DX2 analytically  !
 ! R6    R(4,6)                  1.4001         calculate D2E/DX2 analytically  !
 ! R7    R(6,7)                  1.3966         calculate D2E/DX2 analytically  !
 ! R8    R(6,11)                 1.3517         calculate D2E/DX2 analytically  !
 ! R9    R(7,8)                  1.0819         calculate D2E/DX2 analytically  !
 ! R10   R(7,9)                  1.3925         calculate D2E/DX2 analytically  !
 ! R11   R(9,10)                 1.0849         calculate D2E/DX2 analytically  !
 ! R12   R(11,12)                1.4206         calculate D2E/DX2 analytically  !
 ! R13   R(12,13)                1.088          calculate D2E/DX2 analytically  !
 ! R14   R(12,14)                1.0935         calculate D2E/DX2 analytically  !
 ! R15   R(12,15)                1.0936         calculate D2E/DX2 analytically  !
 ! A1    A(2,1,9)              117.1333         calculate D2E/DX2 analytically  !
 ! A2    A(1,2,3)              120.6873         calculate D2E/DX2 analytically  !
 ! A3    A(1,2,4)              121.7521         calculate D2E/DX2 analytically  !
 ! A4    A(3,2,4)              117.5604         calculate D2E/DX2 analytically  !
 ! A5    A(2,4,5)              121.4192         calculate D2E/DX2 analytically  !
 ! A6    A(2,4,6)              119.8935         calculate D2E/DX2 analytically  !
 ! A7    A(5,4,6)              118.6873         calculate D2E/DX2 analytically  !
 ! A8    A(4,6,7)              119.7531         calculate D2E/DX2 analytically  !
 ! A9    A(4,6,11)             115.9605         calculate D2E/DX2 analytically  !
 ! A10   A(7,6,11)             124.2864         calculate D2E/DX2 analytically  !
 ! A11   A(6,7,8)              121.1563         calculate D2E/DX2 analytically  !
 ! A12   A(6,7,9)              119.2072         calculate D2E/DX2 analytically  !
 ! A13   A(8,7,9)              119.6365         calculate D2E/DX2 analytically  !
 ! A14   A(1,9,7)              122.2605         calculate D2E/DX2 analytically  !
 ! A15   A(1,9,10)             119.1399         calculate D2E/DX2 analytically  !
 ! A16   A(7,9,10)             118.5995         calculate D2E/DX2 analytically  !
 ! A17   A(6,11,12)            117.8989         calculate D2E/DX2 analytically  !
 ! A18   A(11,12,13)           105.9783         calculate D2E/DX2 analytically  !
 ! A19   A(11,12,14)           111.0883         calculate D2E/DX2 analytically  !
 ! A20   A(11,12,15)           111.0668         calculate D2E/DX2 analytically  !
 ! A21   A(13,12,14)           109.4287         calculate D2E/DX2 analytically  !
 ! A22   A(13,12,15)           109.4328         calculate D2E/DX2 analytically  !
 ! A23   A(14,12,15)           109.7616         calculate D2E/DX2 analytically  !
 ! D1    D(9,1,2,3)           -179.7155         calculate D2E/DX2 analytically  !
 ! D2    D(9,1,2,4)              0.1448         calculate D2E/DX2 analytically  !
 ! D3    D(2,1,9,7)             -0.1926         calculate D2E/DX2 analytically  !
 ! D4    D(2,1,9,10)           179.868          calculate D2E/DX2 analytically  !
 ! D5    D(1,2,4,5)           -179.9669         calculate D2E/DX2 analytically  !
 ! D6    D(1,2,4,6)              0.0085         calculate D2E/DX2 analytically  !
 ! D7    D(3,2,4,5)             -0.1024         calculate D2E/DX2 analytically  !
 ! D8    D(3,2,4,6)            179.873          calculate D2E/DX2 analytically  !
 ! D9    D(2,4,6,7)             -0.1216         calculate D2E/DX2 analytically  !
 ! D10   D(2,4,6,11)           179.9            calculate D2E/DX2 analytically  !
 ! D11   D(5,4,6,7)            179.8545         calculate D2E/DX2 analytically  !
 ! D12   D(5,4,6,11)            -0.1239         calculate D2E/DX2 analytically  !
 ! D13   D(4,6,7,8)           -179.8464         calculate D2E/DX2 analytically  !
 ! D14   D(4,6,7,9)              0.0758         calculate D2E/DX2 analytically  !
 ! D15   D(11,6,7,8)             0.13           calculate D2E/DX2 analytically  !
 ! D16   D(11,6,7,9)          -179.9478         calculate D2E/DX2 analytically  !
 ! D17   D(4,6,11,12)         -179.7635         calculate D2E/DX2 analytically  !
 ! D18   D(7,6,11,12)            0.2592         calculate D2E/DX2 analytically  !
 ! D19   D(6,7,9,1)              0.0853         calculate D2E/DX2 analytically  !
 ! D20   D(6,7,9,10)          -179.9749         calculate D2E/DX2 analytically  !
 ! D21   D(8,7,9,1)           -179.9913         calculate D2E/DX2 analytically  !
 ! D22   D(8,7,9,10)            -0.0515         calculate D2E/DX2 analytically  !
 ! D23   D(6,11,12,13)         179.9471         calculate D2E/DX2 analytically  !
 ! D24   D(6,11,12,14)         -61.2854         calculate D2E/DX2 analytically  !
 ! D25   D(6,11,12,15)          61.1861         calculate D2E/DX2 analytically  !
 --------------------------------------------------------------------------------
 Trust Radius=3.00D-01 FncErr=5.00D-06 GrdErr=5.00D-06 EigMax=2.50D+02 EigMin=1.00D-04
 Number of steps in this run=     73 maximum allowed number of steps=    100.
 GradGradGradGradGradGradGradGradGradGradGradGradGradGradGradGradGradGrad

                          Input orientation:                          
 ---------------------------------------------------------------------
 Center     Atomic      Atomic             Coordinates (Angstroms)
 Number     Number       Type             X           Y           Z
 ---------------------------------------------------------------------
      1          6           0        6.259641    6.873471    5.182983
      2          6           0        5.147740    6.080898    5.512756
      3          1           0        5.213887    5.331327    6.296931
      4          6           0        3.934924    6.221630    4.862548
      5          1           0        3.080314    5.607546    5.121735
      6          6           0        3.794459    7.174338    3.846214
      7          6           0        4.880506    7.979729    3.496256
      8          1           0        4.796541    8.724665    2.716173
      9          6           0        6.090094    7.818480    4.167096
     10          1           0        6.927113    8.449585    3.887587
     11          8           0        2.576714    7.242748    3.263482
     12          6           0        2.389953    8.192097    2.223317
     13          1           0        1.357400    8.081396    1.898623
     14          1           0        2.549614    9.210892    2.587134
     15          1           0        3.059373    7.990626    1.382387
 ---------------------------------------------------------------------
                    Distance matrix (angstroms):
                    1          2          3          4          5
     1  C    0.000000
     2  C    1.404723   0.000000
     3  H    2.170873   1.086813   0.000000
     4  C    2.435546   1.383293   2.117980   0.000000
     5  H    3.422636   2.156666   2.451431   1.083806   0.000000
     6  C    2.820389   2.409220   3.378976   1.400113   2.142847
     7  C    2.443536   2.782669   3.868974   2.419048   3.392658
     8  H    3.413610   3.864417   4.950833   3.408004   4.295183
     9  C    1.397789   2.391239   3.389670   2.770982   3.854652
    10  H    2.146557   3.379056   4.296931   3.855843   4.939450
    11  O    4.169508   3.608227   4.450845   2.333330   2.525986
    12  C    5.047067   4.783614   5.723018   3.638024   3.944278
    13  H    6.023128   5.606302   6.463783   4.345942   4.413255
    14  H    5.095711   5.010627   5.992660   4.004033   4.437336
    15  H    5.092571   5.006824   5.988868   4.000932   4.434212
                    6          7          8          9         10
     6  C    0.000000
     7  C    1.396647   0.000000
     8  H    2.164411   1.081901   0.000000
     9  C    2.405790   1.392527   2.144674   0.000000
    10  H    3.382527   2.136002   2.446879   1.084905   0.000000
    11  O    1.351725   2.429976   2.724565   3.673122   4.557624
    12  C    2.375345   2.805054   2.513603   4.196297   4.839619
    13  H    3.248865   3.869760   3.593031   5.254854   5.925643
    14  H    2.698606   2.788427   2.302553   4.119477   4.629607
    15  H    2.697614   2.790177   2.309881   4.119406   4.630992
                   11         12         13         14         15
    11  O    0.000000
    12  C    1.420594   0.000000
    13  H    2.013181   1.088047   0.000000
    14  H    2.081291   1.093525   1.780782   0.000000
    15  H    2.081057   1.093562   1.780857   1.788943   0.000000
 Symmetry turned off by external request.
 Stoichiometry    C7H7O(2)
 Framework group  C1[X(C7H7O)]
 Deg. of freedom    39
 Full point group                 C1      NOp   1
 Rotational constants (GHZ):           5.0816361           1.6295269           1.2436602
 Standard basis: 6-311+G(d,p) (5D, 7F)
   218 basis functions,   344 primitive gaussians,   226 cartesian basis functions
    29 alpha electrons       28 beta electrons
       nuclear repulsion energy       335.4698501440 Hartrees.
 NAtoms=   15 NActive=   15 NUniq=   15 SFac= 1.00D+00 NAtFMM=   60 NAOKFM=F Big=F
 Integral buffers will be    131072 words long.
 Raffenetti 2 integral format.
 Two-electron integral symmetry is turned off.
 Force inversion solution in PCM.
 ------------------------------------------------------------------------------
 Polarizable Continuum Model (PCM)
 =================================
 Model                : PCM.
 Atomic radii         : SMD-Coulomb.
 Polarization charges : Total charges.
 Charge compensation  : None.
 Solution method      : Matrix inversion.
 Cavity type          : VdW (van der Waals Surface) (Alpha=1.000).
 Cavity algorithm     : GePol (No added spheres)
                        Default sphere list used, NSphG=   15.
                        Lebedev-Laikov grids with approx.  5.0 points / Ang**2.
                        Smoothing algorithm: York/Karplus (Gamma=1.0000).
                        Polarization charges: spherical gaussians, with
                                              point-specific exponents (IZeta= 3).
                        Self-potential: point-specific (ISelfS= 7).
                        Self-field    : sphere-specific E.n sum rule (ISelfD= 2).
 1st derivatives      : Analytical E(r).r(x)/FMM algorithm (CHGder, D1EAlg=3).
                        Cavity 1st derivative terms included.
 2nd derivatives      : Analytical E(r).r(xy)/FMM algorithm (CHGder, D2EAlg=3).
                        Cavity 2nd derivative terms included.
 Solvent              : TetraHydroFuran, Eps=   7.425700 Eps(inf)=   1.974025
 ------------------------------------------------------------------------------
 Spheres list:
 ISph  on   Nord     Re0    Alpha      Xe            Ye            Ze
    1   C      1    1.8500  1.000      6.259641      6.873471      5.182983
    2   C      2    1.8500  1.000      5.147740      6.080898      5.512756
    3   H      3    1.2000  1.000      5.213887      5.331327      6.296931
    4   C      4    1.8500  1.000      3.934924      6.221630      4.862548
    5   H      5    1.2000  1.000      3.080314      5.607546      5.121735
    6   C      6    1.8500  1.000      3.794459      7.174338      3.846214
    7   C      7    1.8500  1.000      4.880506      7.979729      3.496256
    8   H      8    1.2000  1.000      4.796541      8.724665      2.716173
    9   C      9    1.8500  1.000      6.090094      7.818480      4.167096
   10   H     10    1.2000  1.000      6.927113      8.449585      3.887587
   11   O     11    2.2940  1.000      2.576714      7.242748      3.263482
   12   C     12    1.8500  1.000      2.389953      8.192097      2.223317
   13   H     13    1.2000  1.000      1.357400      8.081396      1.898623
   14   H     14    1.2000  1.000      2.549614      9.210892      2.587134
   15   H     15    1.2000  1.000      3.059373      7.990626      1.382387
 ------------------------------------------------------------------------------
 ------------------------------------------------------------------------------
 Atomic radii for non-electrostatic terms: SMD-CDS.
 ------------------------------------------------------------------------------
 Nuclear repulsion after PCM non-electrostatic terms =      335.4677021715 Hartrees.
 One-electron integrals computed using PRISM.
 NBasis=   218 RedAO= T EigKep=  3.20D-06  NBF=   218
 NBsUse=   218 1.00D-06 EigRej= -1.00D+00 NBFU=   218
 ExpMin= 4.38D-02 ExpMax= 8.59D+03 ExpMxC= 1.30D+03 IAcc=3 IRadAn=         5 AccDes= 0.00D+00
 Harris functional with IExCor= 1009 and IRadAn=       5 diagonalized for initial guess.
 HarFok:  IExCor= 1009 AccDes= 0.00D+00 IRadAn=         5 IDoV= 1 UseB2=F ITyADJ=14
 ICtDFT=  3500011 ScaDFX=  1.000000  1.000000  1.000000  1.000000
 FoFCou: FMM=F IPFlag=           0 FMFlag=      100000 FMFlg1=           0
         NFxFlg=           0 DoJE=T BraDBF=F KetDBF=T FulRan=T
         wScrn=  0.000000 ICntrl=       500 IOpCl=  0 I1Cent=   200000004 NGrid=           0
         NMat0=    1 NMatS0=      1 NMatT0=    0 NMatD0=    1 NMtDS0=    0 NMtDT0=    0
 Symmetry not used in FoFCou.
 Initial guess <Sx>= 0.0000 <Sy>= 0.0000 <Sz>= 0.5000 <S**2>= 0.7500 S= 0.5000
 Requested convergence on RMS density matrix=1.00D-08 within 128 cycles.
 Requested convergence on MAX density matrix=1.00D-06.
 Requested convergence on             energy=1.00D-06.
 Level shift goal  0.100 maximum shift  0.100.
 No special actions if energy rises.
 Dynamic level shift is on during FON iterations.
 Inv3:  Mode=1 IEnd=     4770363.
 Iteration    1 A*A^-1 deviation from unit magnitude is 3.11D-15 for     97.
 Iteration    1 A*A^-1 deviation from orthogonality  is 2.04D-15 for   1119    809.
 Iteration    1 A^-1*A deviation from unit magnitude is 2.44D-15 for   1252.
 Iteration    1 A^-1*A deviation from orthogonality  is 3.06D-15 for    478    458.
 Error on total polarization charges =  0.03483
 SCF Done:  E(UM062X) =  -346.028892927     A.U. after   17 cycles
            NFock= 17  Conv=0.43D-08     -V/T= 2.0041
 <Sx>= 0.0000 <Sy>= 0.0000 <Sz>= 0.5000 <S**2>= 0.7636 S= 0.5068
 <L.S>=  0.00000000000    
 SMD-CDS (non-electrostatic) energy       (kcal/mol) =      -1.35
 (included in total energy above)
 Annihilation of the first spin contaminant:
 S**2 before annihilation     0.7636,   after     0.7501
 DoSCS=F DFT=T ScalE2(SS,OS)=  1.000000  1.000000
 Range of M.O.s used for correlation:     1   218
 NBasis=   218 NAE=    29 NBE=    28 NFC=     0 NFV=     0
 NROrb=    218 NOA=    29 NOB=    28 NVA=   189 NVB=   190

 **** Warning!!: The largest alpha MO coefficient is  0.16219126D+03


 **** Warning!!: The largest beta MO coefficient is  0.15803464D+03

 Symmetrizing basis deriv contribution to polar:
 IMax=3 JMax=2 DiffMx= 0.00D+00
 G2DrvN: will do    16 centers at a time, making    1 passes.
 Calling FoFCou, ICntrl=  3107 FMM=F I1Cent=   0 AccDes= 0.00D+00.
 NEqPCM:  Using equilibrium solvation (IEInf=0, Eps=   7.4257, EpsInf=   1.9740)
 G2PCM: DoFxE=T DoFxN=T DoGrad=T DoDP/DQ/DG/TGxP=FFFF NFrqRd=   0 IEInf=0 SqF1=F DoCFld=F IF1Alg=4.
 End of G2Drv F.D. properties file   721 does not exist.
 End of G2Drv F.D. properties file   722 does not exist.
 End of G2Drv F.D. properties file   788 does not exist.
          IDoAtm=111111111111111
 NEqPCM:  Using equilibrium solvation (IEInf=0, Eps=   7.4257, EpsInf=   1.9740)
          Differentiating once with respect to nuclear coordinates.
 Keep R1 and R2 ints in memory in canonical form, NReq=603546516.
          There are    48 degrees of freedom in the 1st order CPHF.  IDoFFX=6 NUNeed=     0.
     42 vectors produced by pass  0 Test12= 2.25D-14 2.08D-09 XBig12= 2.58D-01 9.19D-02.
 AX will form    42 AO Fock derivatives at one time.
     42 vectors produced by pass  1 Test12= 2.25D-14 2.08D-09 XBig12= 2.87D-02 5.78D-02.
     42 vectors produced by pass  2 Test12= 2.25D-14 2.08D-09 XBig12= 6.56D-04 7.47D-03.
     42 vectors produced by pass  3 Test12= 2.25D-14 2.08D-09 XBig12= 1.29D-05 1.15D-03.
     42 vectors produced by pass  4 Test12= 2.25D-14 2.08D-09 XBig12= 1.81D-07 1.21D-04.
     42 vectors produced by pass  5 Test12= 2.25D-14 2.08D-09 XBig12= 2.20D-09 7.05D-06.
     38 vectors produced by pass  6 Test12= 2.25D-14 2.08D-09 XBig12= 1.72D-11 4.75D-07.
     22 vectors produced by pass  7 Test12= 2.25D-14 2.08D-09 XBig12= 1.07D-13 3.47D-08.
      2 vectors produced by pass  8 Test12= 2.25D-14 2.08D-09 XBig12= 6.49D-16 2.45D-09.
 InvSVY:  IOpt=1 It=  1 EMax= 1.78D-15
 Solved reduced A of dimension   314 with    42 vectors.
 End of Minotr F.D. properties file   721 does not exist.
 End of Minotr F.D. properties file   722 does not exist.
 End of Minotr F.D. properties file   788 does not exist.

 **********************************************************************

            Population analysis using the SCF Density.

 **********************************************************************

 Alpha  occ. eigenvalues --  -19.65564 -10.60896 -10.58217 -10.57419 -10.55475
 Alpha  occ. eigenvalues --  -10.55437 -10.54815 -10.54558  -1.19683  -0.96689
 Alpha  occ. eigenvalues --   -0.85947  -0.84992  -0.78613  -0.69972  -0.67200
 Alpha  occ. eigenvalues --   -0.61417  -0.56112  -0.54825  -0.53133  -0.51275
 Alpha  occ. eigenvalues --   -0.49423  -0.48167  -0.45553  -0.42929  -0.39821
 Alpha  occ. eigenvalues --   -0.39294  -0.32927  -0.31791  -0.28724
 Alpha virt. eigenvalues --    0.01347   0.01856   0.02484   0.03129   0.03403
 Alpha virt. eigenvalues --    0.04892   0.05165   0.05635   0.06231   0.08047
 Alpha virt. eigenvalues --    0.08245   0.08755   0.09518   0.10710   0.11975
 Alpha virt. eigenvalues --    0.12885   0.13623   0.14140   0.15333   0.15510
 Alpha virt. eigenvalues --    0.15558   0.17131   0.17854   0.18695   0.19345
 Alpha virt. eigenvalues --    0.20642   0.21108   0.21292   0.22770   0.23331
 Alpha virt. eigenvalues --    0.23607   0.24382   0.24544   0.25384   0.25779
 Alpha virt. eigenvalues --    0.26507   0.26813   0.28075   0.28810   0.28990
 Alpha virt. eigenvalues --    0.31702   0.34015   0.34949   0.35843   0.38415
 Alpha virt. eigenvalues --    0.39924   0.40564   0.42453   0.46662   0.49724
 Alpha virt. eigenvalues --    0.51710   0.54361   0.55623   0.56989   0.57946
 Alpha virt. eigenvalues --    0.60005   0.60035   0.61469   0.61767   0.64349
 Alpha virt. eigenvalues --    0.64707   0.65984   0.66305   0.67913   0.68652
 Alpha virt. eigenvalues --    0.70162   0.71727   0.72428   0.75243   0.77477
 Alpha virt. eigenvalues --    0.78647   0.79512   0.81170   0.83584   0.86979
 Alpha virt. eigenvalues --    0.88346   0.89086   0.91187   0.91249   0.94142
 Alpha virt. eigenvalues --    0.95238   1.01157   1.03806   1.04606   1.05114
 Alpha virt. eigenvalues --    1.06040   1.07625   1.12628   1.13392   1.16738
 Alpha virt. eigenvalues --    1.19200   1.19833   1.23312   1.32937   1.33641
 Alpha virt. eigenvalues --    1.39379   1.45172   1.49835   1.50494   1.54108
 Alpha virt. eigenvalues --    1.54497   1.58291   1.59527   1.60996   1.61647
 Alpha virt. eigenvalues --    1.64827   1.68032   1.69469   1.71404   1.73752
 Alpha virt. eigenvalues --    1.73908   1.74515   1.79175   1.81193   1.82397
 Alpha virt. eigenvalues --    1.86372   1.89969   1.92225   1.93153   1.93688
 Alpha virt. eigenvalues --    1.95535   1.97079   1.97979   2.04120   2.06943
 Alpha virt. eigenvalues --    2.09167   2.10364   2.12095   2.15419   2.21034
 Alpha virt. eigenvalues --    2.22746   2.31881   2.35032   2.35284   2.41341
 Alpha virt. eigenvalues --    2.46534   2.49048   2.53253   2.53647   2.55336
 Alpha virt. eigenvalues --    2.60849   2.62532   2.68128   2.69971   2.70443
 Alpha virt. eigenvalues --    2.71185   2.73586   2.75330   2.76709   2.81419
 Alpha virt. eigenvalues --    2.82741   2.84380   2.91783   2.91954   2.94886
 Alpha virt. eigenvalues --    2.96721   3.00976   3.12118   3.12558   3.14293
 Alpha virt. eigenvalues --    3.19020   3.21640   3.31797   3.36340   3.43923
 Alpha virt. eigenvalues --    3.47675   3.54582   3.60043   3.67481   3.79181
 Alpha virt. eigenvalues --    3.83471   3.89551   4.02428   4.13810   4.16135
 Alpha virt. eigenvalues --    4.18411   4.26336   4.82743   5.14256   5.51222
 Alpha virt. eigenvalues --    5.87968  23.63347  23.97080  24.00277  24.01889
 Alpha virt. eigenvalues --   24.10076  24.17775  24.23497  50.07445
  Beta  occ. eigenvalues --  -19.65586 -10.60930 -10.58216 -10.56357 -10.55468
  Beta  occ. eigenvalues --  -10.55424 -10.54740 -10.54483  -1.19747  -0.95964
  Beta  occ. eigenvalues --   -0.85483  -0.84184  -0.77799  -0.69473  -0.66215
  Beta  occ. eigenvalues --   -0.61165  -0.55522  -0.54936  -0.52040  -0.49941
  Beta  occ. eigenvalues --   -0.48864  -0.47668  -0.45230  -0.42618  -0.39290
  Beta  occ. eigenvalues --   -0.38997  -0.31795  -0.27545
  Beta virt. eigenvalues --   -0.06572   0.01281   0.01845   0.03148   0.03499
  Beta virt. eigenvalues --    0.03561   0.04902   0.05185   0.06101   0.06585
  Beta virt. eigenvalues --    0.07948   0.08580   0.09084   0.09562   0.10841
  Beta virt. eigenvalues --    0.11972   0.12824   0.13665   0.14148   0.15265
  Beta virt. eigenvalues --    0.15456   0.15622   0.16972   0.18107   0.18662
  Beta virt. eigenvalues --    0.19458   0.20362   0.21433   0.21940   0.22866
  Beta virt. eigenvalues --    0.23261   0.23599   0.24721   0.24736   0.25510
  Beta virt. eigenvalues --    0.25897   0.26489   0.26739   0.28008   0.28905
  Beta virt. eigenvalues --    0.28966   0.31765   0.34152   0.35002   0.36795
  Beta virt. eigenvalues --    0.38665   0.40110   0.40595   0.42913   0.46668
  Beta virt. eigenvalues --    0.47622   0.51244   0.53621   0.55813   0.57210
  Beta virt. eigenvalues --    0.58019   0.59089   0.60021   0.60040   0.62116
  Beta virt. eigenvalues --    0.64319   0.64723   0.65966   0.66511   0.67910
  Beta virt. eigenvalues --    0.68768   0.71393   0.71574   0.72407   0.75089
  Beta virt. eigenvalues --    0.77408   0.79032   0.79488   0.81248   0.83358
  Beta virt. eigenvalues --    0.86111   0.88043   0.89019   0.91023   0.91501
  Beta virt. eigenvalues --    0.94167   0.95816   1.01085   1.04192   1.04948
  Beta virt. eigenvalues --    1.05055   1.05988   1.07790   1.12471   1.13413
  Beta virt. eigenvalues --    1.17098   1.19799   1.19890   1.25005   1.32870
  Beta virt. eigenvalues --    1.33592   1.39470   1.45541   1.49837   1.50872
  Beta virt. eigenvalues --    1.54351   1.55979   1.58367   1.60571   1.61288
  Beta virt. eigenvalues --    1.61845   1.64853   1.68802   1.69669   1.71728
  Beta virt. eigenvalues --    1.73777   1.73977   1.74543   1.79472   1.81201
  Beta virt. eigenvalues --    1.82483   1.86656   1.90481   1.92354   1.93632
  Beta virt. eigenvalues --    1.94202   1.96224   1.97269   1.98222   2.04487
  Beta virt. eigenvalues --    2.07053   2.09173   2.10369   2.12104   2.15430
  Beta virt. eigenvalues --    2.21063   2.23095   2.32175   2.35584   2.35913
  Beta virt. eigenvalues --    2.41780   2.46709   2.49044   2.53244   2.53553
  Beta virt. eigenvalues --    2.55337   2.60901   2.62728   2.68385   2.70196
  Beta virt. eigenvalues --    2.70813   2.71573   2.73642   2.75611   2.76763
  Beta virt. eigenvalues --    2.81529   2.82862   2.84265   2.91914   2.92503
  Beta virt. eigenvalues --    2.94738   2.96763   3.02548   3.12081   3.12614
  Beta virt. eigenvalues --    3.14334   3.19665   3.22093   3.31701   3.36659
  Beta virt. eigenvalues --    3.44134   3.47878   3.54720   3.60742   3.67547
  Beta virt. eigenvalues --    3.79744   3.83466   3.89628   4.02531   4.13948
  Beta virt. eigenvalues --    4.16121   4.18666   4.26316   4.83057   5.14135
  Beta virt. eigenvalues --    5.51201   5.87959  23.63592  23.97566  24.00279
  Beta virt. eigenvalues --   24.01892  24.10397  24.17762  24.23567  50.07460
          Condensed to atoms (all electrons):
               1          2          3          4          5          6
     1  C    5.296740   0.236817   0.018908   0.338550  -0.012172  -0.678437
     2  C    0.236817   5.740908   0.374609  -0.556661   0.036669   0.600321
     3  H    0.018908   0.374609   0.460415  -0.064977  -0.005293   0.014411
     4  C    0.338550  -0.556661  -0.064977   9.725756   0.321204  -1.067728
     5  H   -0.012172   0.036669  -0.005293   0.321204   0.449353   0.045574
     6  C   -0.678437   0.600321   0.014411  -1.067728   0.045574   8.033962
     7  C    0.265623  -0.489031   0.017549  -1.414925  -0.023735  -0.826592
     8  H   -0.018063   0.011619   0.000040  -0.073442  -0.000037   0.012433
     9  C    0.267138   0.525798  -0.017357  -0.623113  -0.003726  -0.017946
    10  H   -0.003036  -0.005600  -0.000082  -0.007012   0.000039   0.005147
    11  O    0.012485  -0.012820  -0.000735  -0.511684  -0.003431   0.305540
    12  C   -0.010425   0.014789   0.000396   0.014174   0.003006   0.074649
    13  H   -0.000422  -0.000636  -0.000001  -0.008747  -0.000023   0.017430
    14  H    0.000210   0.000733   0.000000   0.003131   0.000030  -0.016960
    15  H    0.000426   0.000590   0.000000   0.004144   0.000030  -0.018343
               7          8          9         10         11         12
     1  C    0.265623  -0.018063   0.267138  -0.003036   0.012485  -0.010425
     2  C   -0.489031   0.011619   0.525798  -0.005600  -0.012820   0.014789
     3  H    0.017549   0.000040  -0.017357  -0.000082  -0.000735   0.000396
     4  C   -1.414925  -0.073442  -0.623113  -0.007012  -0.511684   0.014174
     5  H   -0.023735  -0.000037  -0.003726   0.000039  -0.003431   0.003006
     6  C   -0.826592   0.012433  -0.017946   0.005147   0.305540   0.074649
     7  C    7.910040   0.424295  -0.444556   0.010804   0.114879  -0.144259
     8  H    0.424295   0.452867   0.008348  -0.005219  -0.013297   0.002166
     9  C   -0.444556   0.008348   6.790902   0.339969   0.016071  -0.168974
    10  H    0.010804  -0.005219   0.339969   0.461571  -0.000369   0.001834
    11  O    0.114879  -0.013297   0.016071  -0.000369   8.254689   0.123629
    12  C   -0.144259   0.002166  -0.168974   0.001834   0.123629   5.199395
    13  H    0.007103   0.000546   0.011510  -0.000003  -0.058543   0.406905
    14  H    0.010690  -0.000991  -0.007547   0.000021  -0.034639   0.415923
    15  H    0.011527  -0.001044  -0.008181   0.000021  -0.034638   0.416203
              13         14         15
     1  C   -0.000422   0.000210   0.000426
     2  C   -0.000636   0.000733   0.000590
     3  H   -0.000001   0.000000   0.000000
     4  C   -0.008747   0.003131   0.004144
     5  H   -0.000023   0.000030   0.000030
     6  C    0.017430  -0.016960  -0.018343
     7  C    0.007103   0.010690   0.011527
     8  H    0.000546  -0.000991  -0.001044
     9  C    0.011510  -0.007547  -0.008181
    10  H   -0.000003   0.000021   0.000021
    11  O   -0.058543  -0.034639  -0.034638
    12  C    0.406905   0.415923   0.416203
    13  H    0.471393  -0.021221  -0.021136
    14  H   -0.021221   0.511460  -0.044215
    15  H   -0.021136  -0.044215   0.511277
          Atomic-Atomic Spin Densities.
               1          2          3          4          5          6
     1  C    1.174325  -0.289515   0.012051   0.273830   0.004186  -0.272255
     2  C   -0.289515   0.422370  -0.015135  -0.432894  -0.009862   0.340679
     3  H    0.012051  -0.015135   0.020553   0.018437   0.000986  -0.017930
     4  C    0.273830  -0.432894   0.018437   0.553461   0.009015  -0.355556
     5  H    0.004186  -0.009862   0.000986   0.009015   0.002895  -0.004213
     6  C   -0.272255   0.340679  -0.017930  -0.355556  -0.004213   0.239976
     7  C    0.226916  -0.288344   0.008786   0.285959   0.004338  -0.310780
     8  H    0.004636  -0.003560   0.000012   0.003579   0.000029  -0.005921
     9  C   -0.281116   0.352453  -0.014511  -0.329040  -0.003662   0.332944
    10  H    0.012935  -0.015920   0.000120   0.011895   0.000012  -0.015890
    11  O   -0.004089   0.003489  -0.000132  -0.010588  -0.000797   0.023720
    12  C   -0.009402   0.011866  -0.000201  -0.016183  -0.000145   0.012784
    13  H    0.000158  -0.000273   0.000000   0.000502   0.000002  -0.000384
    14  H   -0.000325   0.000359   0.000000  -0.000747  -0.000001   0.000249
    15  H   -0.000333   0.000373   0.000000  -0.000754  -0.000002   0.000281
               7          8          9         10         11         12
     1  C    0.226916   0.004636  -0.281116   0.012935  -0.004089  -0.009402
     2  C   -0.288344  -0.003560   0.352453  -0.015920   0.003489   0.011866
     3  H    0.008786   0.000012  -0.014511   0.000120  -0.000132  -0.000201
     4  C    0.285959   0.003579  -0.329040   0.011895  -0.010588  -0.016183
     5  H    0.004338   0.000029  -0.003662   0.000012  -0.000797  -0.000145
     6  C   -0.310780  -0.005921   0.332944  -0.015890   0.023720   0.012784
     7  C    0.411885   0.014331  -0.341751   0.010865  -0.007733  -0.017627
     8  H    0.014331   0.002970  -0.013534   0.001055  -0.000809  -0.000031
     9  C   -0.341751  -0.013534   0.364708  -0.012822   0.003166   0.015775
    10  H    0.010865   0.001055  -0.012822   0.021764  -0.000079  -0.000355
    11  O   -0.007733  -0.000809   0.003166  -0.000079  -0.012944  -0.000280
    12  C   -0.017627  -0.000031   0.015775  -0.000355  -0.000280   0.002604
    13  H    0.000758   0.000011  -0.000481   0.000001  -0.000112  -0.000238
    14  H   -0.001341  -0.000040   0.000912  -0.000007   0.000640   0.000381
    15  H   -0.001417  -0.000045   0.000936  -0.000007   0.000646   0.000393
              13         14         15
     1  C    0.000158  -0.000325  -0.000333
     2  C   -0.000273   0.000359   0.000373
     3  H    0.000000   0.000000   0.000000
     4  C    0.000502  -0.000747  -0.000754
     5  H    0.000002  -0.000001  -0.000002
     6  C   -0.000384   0.000249   0.000281
     7  C    0.000758  -0.001341  -0.001417
     8  H    0.000011  -0.000040  -0.000045
     9  C   -0.000481   0.000912   0.000936
    10  H    0.000001  -0.000007  -0.000007
    11  O   -0.000112   0.000640   0.000646
    12  C   -0.000238   0.000381   0.000393
    13  H    0.000263  -0.000057  -0.000064
    14  H   -0.000057  -0.001054   0.000473
    15  H   -0.000064   0.000473  -0.001043
 Mulliken charges and spin densities:
               1          2
     1  C    0.285657   0.852001
     2  C   -0.478105   0.076087
     3  H    0.202116   0.013036
     4  C   -0.078670   0.010916
     5  H    0.192514   0.002780
     6  C   -0.483460  -0.032296
     7  C    0.570587  -0.005155
     8  H    0.199776   0.002683
     9  C   -0.668336   0.073977
    10  H    0.201913   0.013568
    11  O   -0.157138  -0.005903
    12  C   -0.349411  -0.000660
    13  H    0.195844   0.000085
    14  H    0.183374  -0.000558
    15  H    0.183340  -0.000563
 Sum of Mulliken charges =   0.00000   1.00000
 Mulliken charges and spin densities with hydrogens summed into heavy atoms:
               1          2
     1  C    0.285657   0.852001
     2  C   -0.275989   0.089123
     4  C    0.113844   0.013696
     6  C   -0.483460  -0.032296
     7  C    0.770363  -0.002472
     9  C   -0.466423   0.087545
    11  O   -0.157138  -0.005903
    12  C    0.213147  -0.001695
 APT charges:
               1
     1  C    1.629873
     2  C   -1.439266
     3  H    0.341188
     4  C   -0.522824
     5  H   -0.617484
     6  C   -0.568360
     7  C    0.127860
     8  H    0.805392
     9  C   -1.486862
    10  H    1.706051
    11  O   -0.006430
    12  C   -1.481713
    13  H   -0.238739
    14  H    1.594347
    15  H    0.156967
 Sum of APT charges =   0.00000
 APT charges with hydrogens summed into heavy atoms:
               1
     1  C    1.629873
     2  C   -1.098078
     4  C   -1.140307
     6  C   -0.568360
     7  C    0.933252
     9  C    0.219189
    11  O   -0.006430
    12  C    0.030862
 Electronic spatial extent (au):  <R**2>=          18520.9520
 Charge=              0.0000 electrons
 Dipole moment (field-independent basis, Debye):
    X=             -0.9066    Y=              1.4719    Z=             -1.8564  Tot=              2.5366
 Quadrupole moment (field-independent basis, Debye-Ang):
   XX=            -55.7383   YY=            -23.3845   ZZ=            -58.9103
   XY=             -0.1102   XZ=            -10.2422   YZ=            -14.2307
 Traceless Quadrupole moment (field-independent basis, Debye-Ang):
   XX=             -9.7273   YY=             22.6265   ZZ=            -12.8992
   XY=             -0.1102   XZ=            -10.2422   YZ=            -14.2307
 Octapole moment (field-independent basis, Debye-Ang**2):
  XXX=           -680.7185  YYY=           -737.6297  ZZZ=           -629.0545  XYY=           -151.4675
  XXY=           -364.8573  XXZ=           -255.6479  XZZ=           -268.3870  YZZ=           -457.3994
  YYZ=           -287.3627  XYZ=            -74.1349
 Hexadecapole moment (field-independent basis, Debye-Ang**3):
 XXXX=          -6436.7720 YYYY=         -12018.6879 ZZZZ=          -5280.3461 XXXY=          -4629.8252
 XXXZ=          -3069.4513 YYYX=          -3575.0327 YYYZ=          -4608.4122 ZZZX=          -2976.2858
 ZZZY=          -4705.5814 XXYY=          -3372.1634 XXZZ=          -2231.2924 YYZZ=          -4342.8544
 XXYZ=          -1771.8244 YYXZ=          -1375.6930 ZZXY=          -2050.6792
 N-N= 3.354677021715D+02 E-N=-1.476511480372D+03  KE= 3.446208531060D+02
  Exact polarizability:       0.000       0.000       0.000       0.000       0.000       0.000
 Approx polarizability:     118.121       8.223      92.962      13.493     -23.217      95.323
                          Isotropic Fermi Contact Couplings
        Atom                 a.u.       MegaHertz       Gauss      10(-4) cm-1
     1  C(13)              0.55545     624.42688     222.81104     208.28639
     2  C(13)              0.02564      28.81922      10.28341       9.61306
     3  H(1)               0.00874      39.08253      13.94562      13.03653
     4  C(13)              0.04087      45.94491      16.39429      15.32557
     5  H(1)               0.00159       7.11554       2.53900       2.37349
     6  C(13)             -0.01013     -11.38826      -4.06361      -3.79871
     7  C(13)              0.04149      46.64449      16.64391      15.55893
     8  H(1)               0.00140       6.27990       2.24082       2.09475
     9  C(13)              0.02517      28.29218      10.09535       9.43726
    10  H(1)               0.00930      41.56208      14.83038      13.86362
    11  O(17)              0.00217      -1.31384      -0.46881      -0.43825
    12  C(13)              0.00040       0.45317       0.16170       0.15116
    13  H(1)               0.00004       0.18868       0.06732       0.06294
    14  H(1)              -0.00010      -0.42957      -0.15328      -0.14329
    15  H(1)              -0.00009      -0.42308      -0.15097      -0.14113
 --------------------------------------------------------
       Center         ----  Spin Dipole Couplings  ----
                      3XX-RR        3YY-RR        3ZZ-RR
 --------------------------------------------------------
     1   Atom        0.567890     -0.434901     -0.132989
     2   Atom        0.084431     -0.030964     -0.053466
     3   Atom        0.001223      0.004080     -0.005303
     4   Atom        0.033479     -0.024060     -0.009418
     5   Atom        0.006675     -0.001968     -0.004707
     6   Atom        0.024518     -0.013836     -0.010681
     7   Atom        0.021974     -0.021650     -0.000324
     8   Atom       -0.003104      0.000361      0.002744
     9   Atom       -0.002259     -0.011185      0.013445
    10   Atom       -0.010424      0.006925      0.003500
    11   Atom        0.025893     -0.014202     -0.011691
    12   Atom        0.000995     -0.000724     -0.000271
    13   Atom        0.000685     -0.000485     -0.000200
    14   Atom        0.001027     -0.000699     -0.000328
    15   Atom        0.000575     -0.000930      0.000355
 --------------------------------------------------------
                        XY            XZ            YZ
 --------------------------------------------------------
     1   Atom       -0.164816      0.552807      0.013151
     2   Atom        0.065862      0.010346     -0.040900
     3   Atom        0.014385     -0.008554     -0.011098
     4   Atom       -0.008997      0.026267      0.012869
     5   Atom        0.005720     -0.000856     -0.000642
     6   Atom        0.013106      0.019888     -0.034704
     7   Atom       -0.019011      0.031872      0.004908
     8   Atom       -0.002431      0.003231     -0.006401
     9   Atom       -0.008099      0.051581     -0.098185
    10   Atom        0.004639     -0.003453     -0.018150
    11   Atom        0.015002      0.019240     -0.034963
    12   Atom       -0.000127      0.000958     -0.000286
    13   Atom       -0.000081      0.000596     -0.000086
    14   Atom       -0.000944      0.001122     -0.000330
    15   Atom       -0.000357      0.001510     -0.000100
 --------------------------------------------------------


 ---------------------------------------------------------------------------------
              Anisotropic Spin Dipole Couplings in Principal Axis System
 ---------------------------------------------------------------------------------

       Atom             a.u.   MegaHertz   Gauss  10(-4) cm-1        Axes

              Baa    -0.5339   -71.645   -25.565   -23.898  0.3917  0.7270 -0.5640
     1 C(13)  Bbb    -0.3526   -47.311   -16.882   -15.781 -0.2850  0.6787  0.6769
              Bcc     0.8865   118.956    42.446    39.679  0.8748 -0.1044  0.4730
 
              Baa    -0.0990   -13.278    -4.738    -4.429 -0.2825  0.6805  0.6761
     2 C(13)  Bbb    -0.0157    -2.106    -0.752    -0.703  0.3178 -0.5986  0.7353
              Bcc     0.1146    15.384     5.490     5.132  0.9051  0.4226 -0.0471
 
              Baa    -0.0129    -6.890    -2.458    -2.298 -0.2882  0.6826  0.6716
     3 H(1)   Bbb    -0.0109    -5.817    -2.076    -1.940  0.7502 -0.2748  0.6014
              Bcc     0.0238    12.707     4.534     4.239  0.5950  0.6772 -0.4329
 
              Baa    -0.0385    -5.171    -1.845    -1.725  0.3123  0.7322 -0.6053
     4 C(13)  Bbb    -0.0075    -1.008    -0.360    -0.336 -0.2840  0.6800  0.6760
              Bcc     0.0460     6.179     2.205     2.061  0.9066 -0.0392  0.4202
 
              Baa    -0.0050    -2.664    -0.951    -0.889 -0.2837  0.6799  0.6762
     5 H(1)   Bbb    -0.0046    -2.458    -0.877    -0.820  0.3510 -0.5826  0.7330
              Bcc     0.0096     5.122     1.828     1.709  0.8923  0.4453 -0.0734
 
              Baa    -0.0539    -7.233    -2.581    -2.413 -0.2850  0.6791  0.6764
     6 C(13)  Bbb     0.0202     2.709     0.967     0.904  0.3922  0.7266 -0.5642
              Bcc     0.0337     4.525     1.614     1.509  0.8746 -0.1045  0.4734
 
              Baa    -0.0383    -5.136    -1.833    -1.713  0.4909  0.7104 -0.5042
     7 C(13)  Bbb    -0.0088    -1.177    -0.420    -0.393 -0.2841  0.6777  0.6782
              Bcc     0.0470     6.312     2.252     2.106  0.8236 -0.1897  0.5345
 
              Baa    -0.0050    -2.676    -0.955    -0.893 -0.2811  0.6796  0.6776
     8 H(1)   Bbb    -0.0044    -2.324    -0.829    -0.775  0.9089  0.4152 -0.0393
              Bcc     0.0094     5.000     1.784     1.668  0.3081 -0.6048  0.7344
 
              Baa    -0.1062   -14.245    -5.083    -4.752 -0.2841  0.6773  0.6786
     9 C(13)  Bbb    -0.0107    -1.439    -0.513    -0.480  0.8903  0.4491 -0.0756
              Bcc     0.1169    15.684     5.596     5.232  0.3559 -0.5827  0.7306
 
              Baa    -0.0132    -7.039    -2.512    -2.348 -0.2915  0.6770  0.6758
    10 H(1)   Bbb    -0.0112    -5.977    -2.133    -1.994  0.9426  0.0828  0.3236
              Bcc     0.0244    13.016     4.644     4.342  0.1631  0.7313 -0.6622
 
              Baa    -0.0551     3.990     1.424     1.331 -0.2861  0.6807  0.6744
    11 O(17)  Bbb     0.0211    -1.530    -0.546    -0.510  0.2507  0.7325 -0.6330
              Bcc     0.0340    -2.460    -0.878    -0.821  0.9248  0.0121  0.3802
 
              Baa    -0.0010    -0.129    -0.046    -0.043 -0.2906  0.6711  0.6821
    12 C(13)  Bbb    -0.0006    -0.077    -0.028    -0.026  0.3960  0.7332 -0.5527
              Bcc     0.0015     0.206     0.074     0.069  0.8710 -0.1095  0.4788
 
              Baa    -0.0005    -0.286    -0.102    -0.096 -0.2885  0.6717  0.6823
    13 H(1)   Bbb    -0.0005    -0.244    -0.087    -0.081  0.3533  0.7370 -0.5762
              Bcc     0.0010     0.530     0.189     0.177  0.8899 -0.0748  0.4499
 
              Baa    -0.0012    -0.630    -0.225    -0.210  0.5237  0.7538 -0.3970
    14 H(1)   Bbb    -0.0008    -0.446    -0.159    -0.149 -0.1992  0.5614  0.8032
              Bcc     0.0020     1.077     0.384     0.359  0.8283 -0.3415  0.4442
 
              Baa    -0.0012    -0.630    -0.225    -0.210  0.5818  0.6158 -0.5314
    15 H(1)   Bbb    -0.0008    -0.445    -0.159    -0.148 -0.3545  0.7800  0.5157
              Bcc     0.0020     1.076     0.384     0.359  0.7320 -0.1116  0.6721
 

 ---------------------------------------------------------------------------------

 D2PCM: PCM CHGder 2nd derivatives, FixD1E=F FixD2E=F DoIter=F DoCFld=F I1PDM=0
 Calling FoFJK, ICntrl=    100127 FMM=F ISym2X=0 I1Cent= 0 IOpClX= 1 NMat=1 NMatS=1 NMatT=0.
 -------------------------------------------------------------------
 Center     Atomic                   Forces (Hartrees/Bohr)
 Number     Number              X              Y              Z
 -------------------------------------------------------------------
      1        6          -0.045689214    0.005630681   -0.024559366
      2        6           0.022156768   -0.005589197    0.015101233
      3        1           0.001311836    0.000395171   -0.000035949
      4        6          -0.000008893    0.006066639   -0.006105050
      5        1           0.000962236   -0.000567113    0.000935865
      6        6           0.001458996    0.000114452    0.000453745
      7        6          -0.006026030   -0.004140542    0.001658433
      8        1           0.001368036    0.000224676    0.000387534
      9        6           0.026311338   -0.003614903    0.014398827
     10        1          -0.000024660    0.001388195   -0.001405158
     11        8          -0.002086033    0.000391154   -0.001256601
     12        6           0.000118974   -0.000506180    0.000560340
     13        1           0.000018489    0.000070140   -0.000058831
     14        1           0.000028864    0.000150653    0.000047821
     15        1           0.000099291   -0.000013826   -0.000122844
 -------------------------------------------------------------------
 Cartesian Forces:  Max     0.045689214 RMS     0.010038365
 FormGI is forming the generalized inverse of G from B-inverse, IUseBI=4.

 GradGradGradGradGradGradGradGradGradGradGradGradGradGradGradGradGradGrad
 Berny optimization.
 Internal  Forces:  Max     0.028141990 RMS     0.005908920
 Search for a local minimum.
 Step number   1 out of a maximum of   73
 All quantities printed in internal units (Hartrees-Bohrs-Radians)
 Mixed Optimization -- RFO/linear search
 Second derivative matrix not updated -- analytic derivatives used.
 ITU=  0
     Eigenvalues ---    0.00442   0.01386   0.01782   0.01919   0.01940
     Eigenvalues ---    0.02254   0.02565   0.03106   0.03247   0.03348
     Eigenvalues ---    0.08557   0.08662   0.10603   0.10997   0.11339
     Eigenvalues ---    0.12199   0.13406   0.16044   0.18771   0.18803
     Eigenvalues ---    0.19003   0.20610   0.21854   0.26111   0.32936
     Eigenvalues ---    0.33778   0.34207   0.35235   0.35479   0.35879
     Eigenvalues ---    0.36477   0.36912   0.37756   0.39179   0.41787
     Eigenvalues ---    0.44969   0.46595   0.50712   0.56576
 RFO step:  Lambda=-8.93591604D-03 EMin= 4.41962250D-03
 Linear search not attempted -- first point.
 Iteration  1 RMS(Cart)=  0.02353851 RMS(Int)=  0.00101635
 Iteration  2 RMS(Cart)=  0.00147760 RMS(Int)=  0.00035819
 Iteration  3 RMS(Cart)=  0.00000055 RMS(Int)=  0.00035819
 Variable       Old X    -DE/DX   Delta X   Delta X   Delta X     New X
                                 (Linear)    (Quad)   (Total)
    R1        2.65454  -0.01889   0.00000  -0.05315  -0.05256   2.60198
    R2        2.64144  -0.01948   0.00000  -0.05534  -0.05476   2.58668
    R3        2.05378  -0.00022   0.00000  -0.00481  -0.00481   2.04897
    R4        2.61404   0.00265   0.00000   0.01300   0.01300   2.62705
    R5        2.04810  -0.00022   0.00000   0.00054   0.00054   2.04863
    R6        2.64583   0.00225   0.00000   0.00121   0.00064   2.64647
    R7        2.63928   0.00182   0.00000  -0.00077  -0.00135   2.63793
    R8        2.55439   0.00201   0.00000   0.01011   0.01011   2.56450
    R9        2.04450  -0.00023   0.00000   0.00019   0.00019   2.04468
   R10        2.63149   0.00259   0.00000   0.01594   0.01594   2.64743
   R11        2.05017   0.00115   0.00000  -0.00098  -0.00098   2.04919
   R12        2.68453  -0.00056   0.00000  -0.00340  -0.00340   2.68113
   R13        2.05611   0.00000   0.00000   0.00026   0.00026   2.05637
   R14        2.06646   0.00016   0.00000   0.00081   0.00081   2.06727
   R15        2.06653   0.00016   0.00000   0.00081   0.00081   2.06734
    A1        2.04436   0.02814   0.00000   0.12311   0.12465   2.16902
    A2        2.10639   0.00593   0.00000   0.02619   0.02593   2.13232
    A3        2.12498  -0.01464   0.00000  -0.07357  -0.07306   2.05191
    A4        2.05182   0.00871   0.00000   0.04739   0.04713   2.09895
    A5        2.11917  -0.00157   0.00000  -0.00763  -0.00731   2.11186
    A6        2.09254   0.00017   0.00000   0.00665   0.00601   2.09854
    A7        2.07148   0.00140   0.00000   0.00098   0.00130   2.07279
    A8        2.09009   0.00062   0.00000   0.01152   0.01028   2.10037
    A9        2.02389  -0.00004   0.00000  -0.00641  -0.00579   2.01810
   A10        2.16921  -0.00057   0.00000  -0.00511  -0.00449   2.16472
   A11        2.11458   0.00149   0.00000   0.00251   0.00285   2.11743
   A12        2.08056  -0.00008   0.00000   0.00551   0.00484   2.08540
   A13        2.08805  -0.00141   0.00000  -0.00803  -0.00769   2.08036
   A14        2.13385  -0.01420   0.00000  -0.07321  -0.07272   2.06113
   A15        2.07938   0.00875   0.00000   0.04965   0.04940   2.12879
   A16        2.06995   0.00545   0.00000   0.02356   0.02332   2.09327
   A17        2.05772  -0.00068   0.00000  -0.00269  -0.00269   2.05504
   A18        1.84967   0.00014   0.00000   0.00103   0.00103   1.85070
   A19        1.93886  -0.00002   0.00000   0.00128   0.00128   1.94013
   A20        1.93848  -0.00001   0.00000   0.00137   0.00137   1.93985
   A21        1.90989  -0.00004   0.00000  -0.00114  -0.00114   1.90875
   A22        1.90996  -0.00004   0.00000  -0.00112  -0.00112   1.90884
   A23        1.91570  -0.00002   0.00000  -0.00141  -0.00142   1.91429
    D1       -3.13663  -0.00008   0.00000  -0.00327  -0.00331  -3.13994
    D2        0.00253  -0.00001   0.00000  -0.00130  -0.00134   0.00119
    D3       -0.00336   0.00004   0.00000   0.00226   0.00228  -0.00108
    D4        3.13929  -0.00001   0.00000   0.00096   0.00101   3.14029
    D5       -3.14102  -0.00002   0.00000  -0.00062  -0.00064   3.14153
    D6        0.00015   0.00001   0.00000  -0.00013  -0.00019  -0.00004
    D7       -0.00179   0.00005   0.00000   0.00127   0.00127  -0.00052
    D8        3.13938   0.00007   0.00000   0.00176   0.00172   3.14110
    D9       -0.00212   0.00003   0.00000   0.00098   0.00097  -0.00115
   D10        3.13985   0.00001   0.00000   0.00067   0.00070   3.14055
   D11        3.13905   0.00005   0.00000   0.00145   0.00142   3.14047
   D12       -0.00216   0.00003   0.00000   0.00115   0.00114  -0.00102
   D13       -3.13891  -0.00002   0.00000  -0.00040  -0.00034  -3.13926
   D14        0.00132   0.00000   0.00000  -0.00011  -0.00007   0.00125
   D15        0.00227   0.00000   0.00000  -0.00007  -0.00005   0.00222
   D16       -3.14068   0.00002   0.00000   0.00022   0.00023  -3.14045
   D17       -3.13747   0.00001   0.00000   0.00011   0.00009  -3.13737
   D18        0.00452  -0.00001   0.00000  -0.00021  -0.00020   0.00433
   D19        0.00149  -0.00007   0.00000  -0.00173  -0.00166  -0.00017
   D20       -3.14115  -0.00002   0.00000  -0.00043  -0.00040  -3.14156
   D21       -3.14144  -0.00005   0.00000  -0.00144  -0.00138   3.14036
   D22       -0.00090   0.00000   0.00000  -0.00014  -0.00012  -0.00102
   D23        3.14067   0.00000   0.00000  -0.00003  -0.00003   3.14064
   D24       -1.06963   0.00002   0.00000  -0.00008  -0.00008  -1.06972
   D25        1.06790  -0.00003   0.00000  -0.00003  -0.00003   1.06787
         Item               Value     Threshold  Converged?
 Maximum Force            0.028142     0.000015     NO 
 RMS     Force            0.005909     0.000010     NO 
 Maximum Displacement     0.139027     0.000060     NO 
 RMS     Displacement     0.023423     0.000040     NO 
 Predicted change in Energy=-4.641098D-03
 GradGradGradGradGradGradGradGradGradGradGradGradGradGradGradGradGradGrad

                          Input orientation:                          
 ---------------------------------------------------------------------
 Center     Atomic      Atomic             Coordinates (Angstroms)
 Number     Number       Type             X           Y           Z
 ---------------------------------------------------------------------
      1          6           0        6.186071    6.881532    5.146397
      2          6           0        5.144185    6.066035    5.527602
      3          1           0        5.247458    5.326982    6.314222
      4          6           0        3.931929    6.218626    4.864476
      5          1           0        3.074873    5.605788    5.119697
      6          6           0        3.798913    7.173753    3.848943
      7          6           0        4.880821    7.981502    3.494474
      8          1           0        4.795051    8.725804    2.713846
      9          6           0        6.103149    7.828780    4.161768
     10          1           0        6.948371    8.452396    3.892338
     11          8           0        2.576273    7.242253    3.264042
     12          6           0        2.393151    8.191415    2.225518
     13          1           0        1.361002    8.083476    1.898160
     14          1           0        2.553631    9.210593    2.589184
     15          1           0        3.063394    7.990493    1.384554
 ---------------------------------------------------------------------
                    Distance matrix (angstroms):
                    1          2          3          4          5
     1  C    0.000000
     2  C    1.376909   0.000000
     3  H    2.159036   1.084268   0.000000
     4  C    2.366449   1.390175   2.151141   0.000000
     5  H    3.362706   2.158765   2.494945   1.084090   0.000000
     6  C    2.732637   2.419647   3.403887   1.400453   2.144193
     7  C    2.375387   2.805706   3.889972   2.425909   3.398060
     8  H    3.354636   3.887607   4.971858   3.414108   4.299027
     9  C    1.368813   2.427423   3.409437   2.792954   3.876825
    10  H    2.149739   3.409383   4.304282   3.877332   4.961207
    11  O    4.087056   3.619581   4.484093   2.333882   2.523901
    12  C    4.963222   4.794704   5.750613   3.636459   3.940365
    13  H    5.939445   5.617419   6.496492   4.345844   4.410736
    14  H    5.015824   5.023298   6.017894   4.003565   4.435066
    15  H    5.013220   5.019769   6.013822   4.000466   4.431506
                    6          7          8          9         10
     6  C    0.000000
     7  C    1.395934   0.000000
     8  H    2.165548   1.081999   0.000000
     9  C    2.415869   1.400961   2.147615   0.000000
    10  H    3.399397   2.157499   2.469895   1.084385   0.000000
    11  O    1.357074   2.431158   2.725182   3.686296   4.579786
    12  C    2.376407   2.800503   2.508618   4.200554   4.857616
    13  H    3.252162   3.866231   3.587565   5.260870   5.944034
    14  H    2.699341   2.783169   2.296634   4.120863   4.646162
    15  H    2.698382   2.784759   2.303549   4.120580   4.647083
                   11         12         13         14         15
    11  O    0.000000
    12  C    1.418793   0.000000
    13  H    2.012504   1.088184   0.000000
    14  H    2.080940   1.093952   1.780526   0.000000
    15  H    2.080775   1.093991   1.780611   1.788753   0.000000
 Symmetry turned off by external request.
 Stoichiometry    C7H7O(2)
 Framework group  C1[X(C7H7O)]
 Deg. of freedom    39
 Full point group                 C1      NOp   1
 Rotational constants (GHZ):           5.0254602           1.6504193           1.2523303
 Standard basis: 6-311+G(d,p) (5D, 7F)
   218 basis functions,   344 primitive gaussians,   226 cartesian basis functions
    29 alpha electrons       28 beta electrons
       nuclear repulsion energy       336.2727439819 Hartrees.
 NAtoms=   15 NActive=   15 NUniq=   15 SFac= 1.00D+00 NAtFMM=   60 NAOKFM=F Big=F
 Integral buffers will be    131072 words long.
 Raffenetti 2 integral format.
 Two-electron integral symmetry is turned off.
 ------------------------------------------------------------------------------
 Polarizable Continuum Model (PCM)
 =================================
 Model                : PCM.
 Atomic radii         : SMD-Coulomb.
 Polarization charges : Total charges.
 Charge compensation  : None.
 Solution method      : Matrix inversion.
 Cavity type          : VdW (van der Waals Surface) (Alpha=1.000).
 Cavity algorithm     : GePol (No added spheres)
                        Default sphere list used, NSphG=   15.
                        Lebedev-Laikov grids with approx.  5.0 points / Ang**2.
                        Smoothing algorithm: York/Karplus (Gamma=1.0000).
                        Polarization charges: spherical gaussians, with
                                              point-specific exponents (IZeta= 3).
                        Self-potential: point-specific (ISelfS= 7).
                        Self-field    : sphere-specific E.n sum rule (ISelfD= 2).
 1st derivatives      : Analytical E(r).r(x)/FMM algorithm (CHGder, D1EAlg=3).
                        Cavity 1st derivative terms included.
 Solvent              : TetraHydroFuran, Eps=   7.425700 Eps(inf)=   1.974025
 ------------------------------------------------------------------------------
 Spheres list:
 ISph  on   Nord     Re0    Alpha      Xe            Ye            Ze
    1   C      1    1.8500  1.000      6.186071      6.881532      5.146397
    2   C      2    1.8500  1.000      5.144185      6.066035      5.527602
    3   H      3    1.2000  1.000      5.247458      5.326982      6.314222
    4   C      4    1.8500  1.000      3.931929      6.218626      4.864476
    5   H      5    1.2000  1.000      3.074873      5.605788      5.119697
    6   C      6    1.8500  1.000      3.798913      7.173753      3.848943
    7   C      7    1.8500  1.000      4.880821      7.981502      3.494474
    8   H      8    1.2000  1.000      4.795051      8.725804      2.713846
    9   C      9    1.8500  1.000      6.103149      7.828780      4.161768
   10   H     10    1.2000  1.000      6.948371      8.452396      3.892338
   11   O     11    2.2940  1.000      2.576273      7.242253      3.264042
   12   C     12    1.8500  1.000      2.393151      8.191415      2.225518
   13   H     13    1.2000  1.000      1.361002      8.083476      1.898160
   14   H     14    1.2000  1.000      2.553631      9.210593      2.589184
   15   H     15    1.2000  1.000      3.063394      7.990493      1.384554
 ------------------------------------------------------------------------------
 ------------------------------------------------------------------------------
 Atomic radii for non-electrostatic terms: SMD-CDS.
 ------------------------------------------------------------------------------
 Nuclear repulsion after PCM non-electrostatic terms =      336.2705307529 Hartrees.
 One-electron integrals computed using PRISM.
 NBasis=   218 RedAO= T EigKep=  2.86D-06  NBF=   218
 NBsUse=   218 1.00D-06 EigRej= -1.00D+00 NBFU=   218
 Initial guess from the checkpoint file:  "4-OMe-ph-opt-freq-thf.chk"
 B after Tr=    -0.012142    0.003809   -0.007984
         Rot=    1.000000   -0.000016    0.000250    0.000218 Ang=  -0.04 deg.
 Initial guess <Sx>= 0.0000 <Sy>= 0.0000 <Sz>= 0.5000 <S**2>= 0.7632 S= 0.5066
 ExpMin= 4.38D-02 ExpMax= 8.59D+03 ExpMxC= 1.30D+03 IAcc=3 IRadAn=         5 AccDes= 0.00D+00
 Harris functional with IExCor= 1009 and IRadAn=       5 diagonalized for initial guess.
 HarFok:  IExCor= 1009 AccDes= 0.00D+00 IRadAn=         5 IDoV= 1 UseB2=F ITyADJ=14
 ICtDFT=  3500011 ScaDFX=  1.000000  1.000000  1.000000  1.000000
 FoFCou: FMM=F IPFlag=           0 FMFlag=      100000 FMFlg1=           0
         NFxFlg=           0 DoJE=T BraDBF=F KetDBF=T FulRan=T
         wScrn=  0.000000 ICntrl=       500 IOpCl=  0 I1Cent=   200000004 NGrid=           0
         NMat0=    1 NMatS0=      1 NMatT0=    0 NMatD0=    1 NMtDS0=    0 NMtDT0=    0
 Symmetry not used in FoFCou.
 Requested convergence on RMS density matrix=1.00D-08 within 128 cycles.
 Requested convergence on MAX density matrix=1.00D-06.
 Requested convergence on             energy=1.00D-06.
 Level shift goal  0.100 maximum shift  0.100.
 No special actions if energy rises.
 Dynamic level shift is on during FON iterations.
 Inv3:  Mode=1 IEnd=     4732608.
 Iteration    1 A*A^-1 deviation from unit magnitude is 3.89D-15 for   1245.
 Iteration    1 A*A^-1 deviation from orthogonality  is 2.22D-15 for    510     97.
 Iteration    1 A^-1*A deviation from unit magnitude is 3.44D-15 for   1245.
 Iteration    1 A^-1*A deviation from orthogonality  is 2.58D-15 for    425    125.
 Error on total polarization charges =  0.03483
 SCF Done:  E(UM062X) =  -346.033528436     A.U. after   14 cycles
            NFock= 14  Conv=0.94D-08     -V/T= 2.0038
 <Sx>= 0.0000 <Sy>= 0.0000 <Sz>= 0.5000 <S**2>= 0.7619 S= 0.5059
 <L.S>=  0.00000000000    
 SMD-CDS (non-electrostatic) energy       (kcal/mol) =      -1.39
 (included in total energy above)
 Annihilation of the first spin contaminant:
 S**2 before annihilation     0.7619,   after     0.7501
 D1PCM: PCM CHGder 1st derivatives, ID1Alg=3 FixD1E=F DoIter=F DoCFld=F I1PDM=0.
 Calling FoFJK, ICntrl=      2127 FMM=F ISym2X=0 I1Cent= 0 IOpClX= 1 NMat=1 NMatS=1 NMatT=0.
 -------------------------------------------------------------------
 Center     Atomic                   Forces (Hartrees/Bohr)
 Number     Number              X              Y              Z
 -------------------------------------------------------------------
      1        6          -0.001023992    0.000062457   -0.000425841
      2        6           0.000221992   -0.001635988    0.001755829
      3        1           0.000051044   -0.000113501    0.000087562
      4        6          -0.000568178    0.000038641   -0.000270193
      5        1          -0.000033264   -0.000040831    0.000014659
      6        6          -0.000213383    0.000050376   -0.000154344
      7        6          -0.000543284    0.000190589   -0.000415787
      8        1           0.000016765    0.000047932   -0.000033328
      9        6           0.002168635    0.001182145   -0.000314424
     10        1          -0.000045124    0.000209807   -0.000243818
     11        8          -0.000069541   -0.000003070   -0.000014582
     12        6           0.000028226   -0.000022045    0.000035836
     13        1          -0.000000486    0.000010551   -0.000007891
     14        1           0.000005061    0.000011974   -0.000006492
     15        1           0.000005530    0.000010961   -0.000007185
 -------------------------------------------------------------------
 Cartesian Forces:  Max     0.002168635 RMS     0.000564878

 GradGradGradGradGradGradGradGradGradGradGradGradGradGradGradGradGradGrad
 Berny optimization.
 Using GEDIIS/GDIIS optimizer.
 FormGI is forming the generalized inverse of G from B-inverse, IUseBI=4.
 Internal  Forces:  Max     0.001444236 RMS     0.000420563
 Search for a local minimum.
 Step number   2 out of a maximum of   73
 All quantities printed in internal units (Hartrees-Bohrs-Radians)
 Mixed Optimization -- En-DIIS/RFO-DIIS
 Update second derivatives using D2CorX and points    1    2
 DE= -4.64D-03 DEPred=-4.64D-03 R= 9.99D-01
 TightC=F SS=  1.41D+00  RLast= 1.97D-01 DXNew= 5.0454D-01 5.9063D-01
 Trust test= 9.99D-01 RLast= 1.97D-01 DXMaxT set to 5.05D-01
 ITU=  1  0
 Use linear search instead of GDIIS.
     Eigenvalues ---    0.00442   0.01386   0.01781   0.01919   0.01938
     Eigenvalues ---    0.02253   0.02564   0.03102   0.03246   0.03346
     Eigenvalues ---    0.08557   0.08662   0.10599   0.10997   0.11334
     Eigenvalues ---    0.12199   0.13406   0.16042   0.18737   0.18803
     Eigenvalues ---    0.18886   0.20255   0.21828   0.26111   0.32937
     Eigenvalues ---    0.33778   0.34205   0.35247   0.35508   0.35920
     Eigenvalues ---    0.36491   0.36953   0.37809   0.39496   0.41807
     Eigenvalues ---    0.45181   0.46826   0.50962   0.56566
 RFO step:  Lambda=-2.66839663D-05 EMin= 4.41962036D-03
 Quartic linear search produced a step of  0.03858.
 Iteration  1 RMS(Cart)=  0.00197322 RMS(Int)=  0.00001520
 Iteration  2 RMS(Cart)=  0.00000411 RMS(Int)=  0.00001481
 Iteration  3 RMS(Cart)=  0.00000000 RMS(Int)=  0.00001481
 Variable       Old X    -DE/DX   Delta X   Delta X   Delta X     New X
                                 (Linear)    (Quad)   (Total)
    R1        2.60198   0.00111  -0.00203   0.00425   0.00225   2.60423
    R2        2.58668   0.00116  -0.00211   0.00404   0.00195   2.58863
    R3        2.04897   0.00014  -0.00019   0.00016  -0.00002   2.04895
    R4        2.62705   0.00081   0.00050   0.00131   0.00181   2.62886
    R5        2.04863   0.00005   0.00002   0.00019   0.00021   2.04884
    R6        2.64647   0.00075   0.00002   0.00113   0.00113   2.64761
    R7        2.63793   0.00073  -0.00005   0.00093   0.00085   2.63878
    R8        2.56450   0.00004   0.00039   0.00005   0.00044   2.56494
    R9        2.04468   0.00006   0.00001   0.00017   0.00018   2.04486
   R10        2.64743   0.00083   0.00061   0.00175   0.00236   2.64979
   R11        2.04919   0.00015  -0.00004   0.00001  -0.00003   2.04916
   R12        2.68113  -0.00002  -0.00013  -0.00004  -0.00017   2.68096
   R13        2.05637   0.00000   0.00001   0.00002   0.00003   2.05640
   R14        2.06727   0.00001   0.00003   0.00001   0.00004   2.06731
   R15        2.06734   0.00001   0.00003   0.00001   0.00004   2.06738
    A1        2.16902   0.00144   0.00481   0.00234   0.00721   2.17623
    A2        2.13232   0.00049   0.00100   0.00055   0.00154   2.13387
    A3        2.05191  -0.00106  -0.00282  -0.00228  -0.00508   2.04683
    A4        2.09895   0.00056   0.00182   0.00173   0.00354   2.10248
    A5        2.11186  -0.00006  -0.00028   0.00040   0.00013   2.11199
    A6        2.09854   0.00009   0.00023   0.00039   0.00060   2.09914
    A7        2.07279  -0.00003   0.00005  -0.00080  -0.00073   2.07205
    A8        2.10037   0.00051   0.00040   0.00156   0.00191   2.10228
    A9        2.01810  -0.00025  -0.00022  -0.00097  -0.00117   2.01693
   A10        2.16472  -0.00027  -0.00017  -0.00059  -0.00074   2.16398
   A11        2.11743  -0.00002   0.00011  -0.00054  -0.00042   2.11701
   A12        2.08540   0.00008   0.00019   0.00044   0.00060   2.08600
   A13        2.08036  -0.00006  -0.00030   0.00010  -0.00018   2.08018
   A14        2.06113  -0.00107  -0.00281  -0.00245  -0.00524   2.05589
   A15        2.12879   0.00084   0.00191   0.00271   0.00461   2.13339
   A16        2.09327   0.00023   0.00090  -0.00026   0.00063   2.09390
   A17        2.05504  -0.00007  -0.00010   0.00009  -0.00002   2.05502
   A18        1.85070   0.00001   0.00004   0.00001   0.00005   1.85076
   A19        1.94013   0.00001   0.00005   0.00009   0.00014   1.94027
   A20        1.93985   0.00001   0.00005   0.00005   0.00010   1.93996
   A21        1.90875  -0.00001  -0.00004  -0.00005  -0.00010   1.90866
   A22        1.90884  -0.00001  -0.00004  -0.00004  -0.00008   1.90876
   A23        1.91429  -0.00001  -0.00005  -0.00007  -0.00012   1.91417
    D1       -3.13994  -0.00003  -0.00013  -0.00112  -0.00125  -3.14119
    D2        0.00119  -0.00001  -0.00005  -0.00069  -0.00074   0.00045
    D3       -0.00108   0.00001   0.00009   0.00074   0.00083  -0.00026
    D4        3.14029   0.00001   0.00004   0.00071   0.00076   3.14105
    D5        3.14153   0.00000  -0.00002  -0.00008  -0.00011   3.14142
    D6       -0.00004   0.00000  -0.00001   0.00015   0.00014   0.00011
    D7       -0.00052   0.00001   0.00005   0.00034   0.00039  -0.00013
    D8        3.14110   0.00002   0.00007   0.00058   0.00064  -3.14144
    D9       -0.00115   0.00001   0.00004   0.00029   0.00032  -0.00083
   D10        3.14055   0.00000   0.00003   0.00023   0.00026   3.14081
   D11        3.14047   0.00001   0.00005   0.00052   0.00057   3.14104
   D12       -0.00102   0.00001   0.00004   0.00046   0.00051  -0.00051
   D13       -3.13926   0.00000  -0.00001  -0.00026  -0.00027  -3.13952
   D14        0.00125   0.00000   0.00000  -0.00024  -0.00024   0.00102
   D15        0.00222   0.00000   0.00000  -0.00020  -0.00020   0.00202
   D16       -3.14045   0.00000   0.00001  -0.00018  -0.00017  -3.14062
   D17       -3.13737   0.00000   0.00000   0.00063   0.00063  -3.13674
   D18        0.00433   0.00000  -0.00001   0.00057   0.00057   0.00490
   D19       -0.00017  -0.00001  -0.00006  -0.00025  -0.00031  -0.00048
   D20       -3.14156   0.00000  -0.00002  -0.00023  -0.00024   3.14139
   D21        3.14036  -0.00001  -0.00005  -0.00023  -0.00028   3.14008
   D22       -0.00102   0.00000   0.00000  -0.00021  -0.00021  -0.00123
   D23        3.14064   0.00000   0.00000  -0.00016  -0.00016   3.14048
   D24       -1.06972   0.00000   0.00000  -0.00017  -0.00017  -1.06988
   D25        1.06787   0.00000   0.00000  -0.00015  -0.00015   1.06771
         Item               Value     Threshold  Converged?
 Maximum Force            0.001444     0.000015     NO 
 RMS     Force            0.000421     0.000010     NO 
 Maximum Displacement     0.005512     0.000060     NO 
 RMS     Displacement     0.001972     0.000040     NO 
 Predicted change in Energy=-1.978618D-05
 GradGradGradGradGradGradGradGradGradGradGradGradGradGradGradGradGradGrad

                          Input orientation:                          
 ---------------------------------------------------------------------
 Center     Atomic      Atomic             Coordinates (Angstroms)
 Number     Number       Type             X           Y           Z
 ---------------------------------------------------------------------
      1          6           0        6.183154    6.881971    5.145539
      2          6           0        5.143236    6.063464    5.529948
      3          1           0        5.248619    5.324436    6.316296
      4          6           0        3.931103    6.217852    4.865002
      5          1           0        3.073004    5.605593    5.118561
      6          6           0        3.799449    7.173955    3.849381
      7          6           0        4.881112    7.982381    3.493938
      8          1           0        4.794101    8.726347    2.712998
      9          6           0        6.105326    7.830911    4.160686
     10          1           0        6.950162    8.454676    3.890460
     11          8           0        2.576497    7.242575    3.264601
     12          6           0        2.393484    8.191265    2.225752
     13          1           0        1.361281    8.083432    1.898486
     14          1           0        2.554165    9.210641    2.588834
     15          1           0        3.063580    7.989928    1.384741
 ---------------------------------------------------------------------
                    Distance matrix (angstroms):
                    1          2          3          4          5
     1  C    0.000000
     2  C    1.378098   0.000000
     3  H    2.161005   1.084256   0.000000
     4  C    2.364633   1.391135   2.154135   0.000000
     5  H    3.361980   2.159802   2.499384   1.084199   0.000000
     6  C    2.728980   2.421417   3.406829   1.401053   2.144365
     7  C    2.373605   2.810033   3.894282   2.428147   3.399673
     8  H    3.353871   3.892050   4.976278   3.415909   4.299769
     9  C    1.369847   2.434002   3.415116   2.797367   3.881307
    10  H    2.153352   3.416255   4.310258   3.881730   4.965668
    11  O    4.083618   3.620808   4.486907   2.333730   2.522578
    12  C    4.959940   4.796497   5.753525   3.636519   3.939009
    13  H    5.936103   5.618805   6.499269   4.345640   4.408918
    14  H    5.012884   5.025750   6.021349   4.004209   4.434534
    15  H    5.010281   5.021850   6.016600   4.000633   4.430187
                    6          7          8          9         10
     6  C    0.000000
     7  C    1.396384   0.000000
     8  H    2.165784   1.082092   0.000000
     9  C    2.417761   1.402210   2.148701   0.000000
    10  H    3.401312   2.158995   2.471603   1.084368   0.000000
    11  O    1.357309   2.431288   2.724630   3.688053   4.581466
    12  C    2.376516   2.800040   2.507325   4.201380   4.858389
    13  H    3.252353   3.865862   3.586226   5.261870   5.944861
    14  H    2.699593   2.782539   2.295053   4.121300   4.646558
    15  H    2.698475   2.784276   2.302451   4.121089   4.647595
                   11         12         13         14         15
    11  O    0.000000
    12  C    1.418701   0.000000
    13  H    2.012476   1.088198   0.000000
    14  H    2.080972   1.093972   1.780492   0.000000
    15  H    2.080783   1.094013   1.780589   1.788710   0.000000
 Symmetry turned off by external request.
 Stoichiometry    C7H7O(2)
 Framework group  C1[X(C7H7O)]
 Deg. of freedom    39
 Full point group                 C1      NOp   1
 Rotational constants (GHZ):           5.0121200           1.6511196           1.2519026
 Standard basis: 6-311+G(d,p) (5D, 7F)
   218 basis functions,   344 primitive gaussians,   226 cartesian basis functions
    29 alpha electrons       28 beta electrons
       nuclear repulsion energy       336.1591235612 Hartrees.
 NAtoms=   15 NActive=   15 NUniq=   15 SFac= 1.00D+00 NAtFMM=   60 NAOKFM=F Big=F
 Integral buffers will be    131072 words long.
 Raffenetti 2 integral format.
 Two-electron integral symmetry is turned off.
 ------------------------------------------------------------------------------
 Polarizable Continuum Model (PCM)
 =================================
 Model                : PCM.
 Atomic radii         : SMD-Coulomb.
 Polarization charges : Total charges.
 Charge compensation  : None.
 Solution method      : Matrix inversion.
 Cavity type          : VdW (van der Waals Surface) (Alpha=1.000).
 Cavity algorithm     : GePol (No added spheres)
                        Default sphere list used, NSphG=   15.
                        Lebedev-Laikov grids with approx.  5.0 points / Ang**2.
                        Smoothing algorithm: York/Karplus (Gamma=1.0000).
                        Polarization charges: spherical gaussians, with
                                              point-specific exponents (IZeta= 3).
                        Self-potential: point-specific (ISelfS= 7).
                        Self-field    : sphere-specific E.n sum rule (ISelfD= 2).
 1st derivatives      : Analytical E(r).r(x)/FMM algorithm (CHGder, D1EAlg=3).
                        Cavity 1st derivative terms included.
 Solvent              : TetraHydroFuran, Eps=   7.425700 Eps(inf)=   1.974025
 ------------------------------------------------------------------------------
 Spheres list:
 ISph  on   Nord     Re0    Alpha      Xe            Ye            Ze
    1   C      1    1.8500  1.000      6.183154      6.881971      5.145539
    2   C      2    1.8500  1.000      5.143236      6.063464      5.529948
    3   H      3    1.2000  1.000      5.248619      5.324436      6.316296
    4   C      4    1.8500  1.000      3.931103      6.217852      4.865002
    5   H      5    1.2000  1.000      3.073004      5.605593      5.118561
    6   C      6    1.8500  1.000      3.799449      7.173955      3.849381
    7   C      7    1.8500  1.000      4.881112      7.982381      3.493938
    8   H      8    1.2000  1.000      4.794101      8.726347      2.712998
    9   C      9    1.8500  1.000      6.105326      7.830911      4.160686
   10   H     10    1.2000  1.000      6.950162      8.454676      3.890460
   11   O     11    2.2940  1.000      2.576497      7.242575      3.264601
   12   C     12    1.8500  1.000      2.393484      8.191265      2.225752
   13   H     13    1.2000  1.000      1.361281      8.083432      1.898486
   14   H     14    1.2000  1.000      2.554165      9.210641      2.588834
   15   H     15    1.2000  1.000      3.063580      7.989928      1.384741
 ------------------------------------------------------------------------------
 ------------------------------------------------------------------------------
[...]
 ! D20   D(6,7,9,10)           179.988          -DE/DX =    0.0                 !
 ! D21   D(8,7,9,1)            179.9132         -DE/DX =    0.0                 !
 ! D22   D(8,7,9,10)            -0.0714         -DE/DX =    0.0                 !
 ! D23   D(6,11,12,13)         179.9344         -DE/DX =    0.0                 !
 ! D24   D(6,11,12,14)         -61.3017         -DE/DX =    0.0                 !
 ! D25   D(6,11,12,15)          61.1732         -DE/DX =    0.0                 !
 --------------------------------------------------------------------------------
 GradGradGradGradGradGradGradGradGradGradGradGradGradGradGradGradGradGrad


 ----------------------------------------------------------------------

 Electric dipole moment (input orientation):
 (Debye = 10**-18 statcoulomb cm , SI units = C m)
                  (au)            (Debye)         (10**-30 SI)
   Tot        0.940061D+00      0.238940D+01      0.797017D+01
   x         -0.296061D+00     -0.752511D+00     -0.251011D+01
   y          0.562468D+00      0.142965D+01      0.476880D+01
   z         -0.692598D+00     -0.176041D+01     -0.587209D+01

 Dipole polarizability, Alpha (input orientation).
 (esu units = cm**3 , SI units = C**2 m**2 J**-1)
 Alpha(0;0):
               (au)            (10**-24 esu)      (10**-40 SI)
   iso        0.107002D+03      0.158561D+02      0.176423D+02
   aniso      0.600309D+02      0.889566D+01      0.989776D+01
   xx         0.121297D+03      0.179743D+02      0.199991D+02
   yx         0.655411D+01      0.971220D+00      0.108063D+01
   yy         0.977265D+02      0.144816D+02      0.161129D+02
   zx         0.159821D+02      0.236830D+01      0.263509D+01
   zy        -0.272960D+02     -0.404485D+01     -0.450050D+01
   zz         0.101983D+03      0.151124D+02      0.168148D+02

 ----------------------------------------------------------------------

 Dipole orientation:
     6          9.36561531        -17.40990341         -3.06235558
     6          7.11649941        -16.40363620         -3.90429877
     1          6.68483294        -16.20571389         -5.89752084
     6          5.38384478        -15.63471908         -2.08263903
     1          3.57841636        -14.82698059         -2.61718395
     6          5.94981458        -15.89373066          0.49087743
     6          8.25449555        -16.92643938          1.25610989
     1          8.71676373        -17.14169220          3.23637070
     6         10.00787738        -17.70408376         -0.57240200
     1         11.80192807        -18.50752001          0.00652291
     8          4.13286034        -15.08472657          2.11046939
     6          4.61955077        -15.29586994          4.73841290
     1          2.95306820        -14.55236384          5.68646373
     1          4.89868542        -17.26862852          5.28983379
     1          6.27283138        -14.18039064          5.28287999

 Electric dipole moment (dipole orientation):
 (Debye = 10**-18 statcoulomb cm , SI units = C m)
                  (au)            (Debye)         (10**-30 SI)
   Tot        0.940061D+00      0.238940D+01      0.797017D+01
   x          0.000000D+00      0.000000D+00      0.000000D+00
   y          0.000000D+00      0.000000D+00      0.000000D+00
   z          0.940061D+00      0.238940D+01      0.797017D+01

 Dipole polarizability, Alpha (dipole orientation).
 (esu units = cm**3 , SI units = C**2 m**2 J**-1)
 Alpha(0;0):
               (au)            (10**-24 esu)      (10**-40 SI)
   iso        0.107002D+03      0.158561D+02      0.176423D+02
   aniso      0.600309D+02      0.889566D+01      0.989776D+01
   xx         0.112818D+03      0.167179D+02      0.186012D+02
   yx        -0.201152D+02     -0.298076D+01     -0.331654D+01
   yy         0.768010D+02      0.113807D+02      0.126628D+02
   zx        -0.472962D+01     -0.700858D+00     -0.779810D+00
   zy         0.199108D+01      0.295047D+00      0.328284D+00
   zz         0.131387D+03      0.194696D+02      0.216628D+02

 ----------------------------------------------------------------------
 Unable to Open any file for archive entry.
 1\1\GINC-CN013\Freq\UM062X\6-311+G(d,p)\C7H7O1(2)\TAHMINAAFROZ\06-May-
 2025\0\\#N Geom=AllCheck Guess=TCheck SCRF=Check GenChk UM062X/6-311+G
 (d,p) Freq\\4-OMe-ph-opt-freq-thf\\0,2\C,6.1829921315,6.8819705233,5.1
 454646376\C,5.1433235282,6.0635278227,5.5299436762\H,5.2487634864,5.32
 44965118,6.3163271895\C,3.9310632948,6.2178066029,4.865025743\H,3.0729
 434634,5.6055691906,5.118572296\C,3.7994315718,7.1739471085,3.84935887
 27\C,4.8811273052,7.9823997036,3.4938991458\H,4.7941113853,8.726364689
 2,2.7129561418\C,6.105372543,7.830807731,4.1607974716\H,6.9501720902,8
 .4546362636,3.8904822273\O,2.5764841346,7.2425660184,3.2645790778\C,2.
 3934764236,8.1912782292,2.2257487504\H,1.3612860037,8.0834265363,1.898
 4476751\H,2.5541203112,9.2106480347,2.5888640844\H,3.0636053273,7.9899
 830343,1.3847550106\\Version=AS64L-G16RevC.01\HF=-346.0335482\S2=0.761
 932\S2-1=0.\S2A=0.750064\RMSD=4.707e-09\RMSF=4.415e-06\ZeroPoint=0.120
 86\Thermal=0.1276536\ETot=-345.9058946\HTot=-345.9049505\GTot=-345.944
 3015\Dipole=-0.2960607,0.5624676,-0.6925982\DipoleDeriv=-0.2369895,0.0
 133782,-0.0423926,-0.02099,-0.2078649,0.0364618,-0.0087914,0.0491986,-
 0.2162333,0.1307086,0.1411688,-0.0418037,0.0812952,-0.0077932,-0.07009
 62,0.0173678,-0.0439757,-0.0586897,0.1421342,-0.0053195,-0.0203975,-0.
 0026008,0.0951904,0.1078472,-0.0230509,0.1064766,0.0872248,-0.1633804,
 -0.0183319,0.0517392,0.2476861,-0.1290188,-0.0150413,-0.2126167,-0.124
 2684,-0.2138202,0.0115498,-0.082888,0.007931,-0.0625084,0.1134369,0.05
 17188,-0.013281,0.0422936,0.1432482,1.5113535,-0.3404279,0.9301353,-0.
 1453797,0.076509,-0.0110463,0.7318101,-0.0952734,0.5285556,-0.2622185,
 0.2151631,-0.2183314,-0.1185009,-0.1486164,-0.1587204,0.1138522,-0.018
 2191,-0.1853397,0.119725,0.003532,-0.0405427,0.0016048,0.1037103,0.102
 694,-0.0367612,0.1058966,0.0786618,-0.0210764,-0.062923,0.104214,0.029
 2368,0.0189399,-0.127063,0.0147492,-0.1640233,0.0497526,0.0467394,-0.0
 757257,0.0089523,-0.0861738,0.1160811,0.0543699,0.0182469,0.0579562,0.
 1558882,-1.6269848,0.3317925,-0.8745324,0.2574016,-0.6209229,0.3803815
 ,-0.7973613,0.4130414,-1.1026552,0.3543451,-0.0874058,0.0835576,-0.297
 0823,0.61429,-0.3803051,0.2982106,-0.2910733,0.7847093,-0.097285,0.004
 5241,-0.0953852,-0.0391153,0.0869423,0.0159361,-0.0532983,0.0344029,0.
 0615473,0.0887356,-0.0606173,-0.0044196,0.0463136,-0.1265054,0.0210716
 ,-0.0603817,-0.0923075,-0.0280711,0.0026434,0.0240805,0.1512758,0.1088
 132,0.0156217,-0.0082085,0.0113057,0.0198749,-0.0847786\Polar=121.2967
 234,6.5541143,97.7265226,15.9820993,-27.2959909,101.9832698\Quadrupole
 =-6.757842,16.1298501,-9.3720081,0.6978279,-6.9972196,-10.2941532\PG=C
 01 [X(C7H7O1)]\NImag=0\\0.37843716,0.14156155,0.39406876,-0.01300203,-
 0.26396993,0.33104885,-0.23218118,-0.10707357,0.03171518,0.58451815,-0
 .13195337,-0.16919169,0.06196893,0.09967540,0.45866666,0.05669212,0.07
 247304,-0.10113024,0.09185885,-0.29065661,0.45782393,0.00595900,-0.014
 26045,0.01677909,-0.05577323,0.01411735,-0.02193243,0.05466648,0.00086
 994,-0.01001482,0.01053542,0.01801490,-0.17979963,0.15085653,-0.014156
 69,0.18370650,0.00158697,0.00420353,-0.00341312,-0.02582158,0.14923269
 ,-0.19779882,0.02696057,-0.16619604,0.20231970,-0.06099476,-0.04904469
 ,0.01874057,-0.28433965,0.03797717,-0.13381458,0.00176413,-0.00164701,
 -0.00000368,0.69512031,-0.00536345,0.03107184,-0.02193751,-0.01736355,
 -0.09464795,0.03155347,0.01892505,0.00270802,0.01091494,0.13657101,0.4
 2952814,-0.02512704,-0.04037968,0.04139959,-0.07837318,0.05481514,-0.1
 4381370,-0.02063764,0.00228128,-0.00530249,0.10373245,-0.25132022,0.41
 903212,-0.00339242,-0.00071034,-0.00384719,-0.01517371,-0.01472140,0.0
 0686182,0.00081763,0.00103874,0.00120525,-0.23314934,-0.13415613,0.051
 34706,0.24401626,0.00008226,0.00448430,0.00299226,0.00496745,0.0058613
 8,-0.00014619,0.00053294,-0.00181854,-0.00248217,-0.13264864,-0.140520
 36,0.04993429,0.14427412,0.14005216,-0.00464916,0.00263407,0.00282994,
 -0.01286796,-0.00840813,0.00666121,0.00171764,-0.00226902,-0.00151111,
 0.04984300,0.04928202,-0.06392334,-0.05231310,-0.05576038,0.05820895,-
 0.00954437,-0.02365527,0.02171426,0.02222423,0.02823151,-0.01908115,-0
 .00307621,-0.00143120,-0.00323034,-0.11581361,0.01187533,-0.03228428,0
 .00445766,-0.01796223,0.01785300,0.63937007,-0.02475107,-0.05065448,0.
 03563992,0.06962825,0.01665504,0.01287462,-0.00164248,0.00482673,0.002
 47989,-0.03833500,-0.19058711,0.10813576,0.00248927,-0.00653235,0.0124
 0650,0.10654882,0.45280038,0.02282765,0.03609187,-0.03132428,-0.060580
 41,-0.00459488,-0.02066079,-0.00300884,0.00257996,0.00414235,0.0179450
 5,0.12927938,-0.19006107,-0.00265117,0.00382632,-0.00014335,0.09470793
 ,-0.24905470,0.45136589,0.02435036,0.06832638,-0.06312757,-0.06971423,
 -0.02272738,-0.00683932,-0.00116416,-0.00025461,-0.00008120,0.04202048
 ,-0.03928022,0.05549452,0.00105881,0.00022786,-0.00188144,-0.21810763,
 -0.06671974,0.00233467,0.60977625,0.02332811,0.01042461,0.01092876,-0.
 01931933,-0.00487643,-0.00256071,0.00008859,0.00004615,-0.00034926,-0.
 00669034,-0.02430583,0.02531507,-0.00038927,0.00001256,0.00486321,-0.1
 1600662,-0.17174227,0.05865668,0.09593627,0.44903548,-0.01799113,0.029
 90008,-0.02595741,-0.01029502,-0.00398667,0.00035844,-0.00043553,-0.00
 049791,-0.00002568,0.02282097,0.01160454,0.00173549,-0.00127253,0.0051
 0649,-0.00066394,0.05177412,0.07938426,-0.12249011,0.10993036,-0.29032
 962,0.45575154,-0.00327302,0.00040884,-0.00469268,-0.00089736,-0.00054
 600,0.00049363,0.00005549,0.00015875,0.00007768,-0.00315647,-0.0034608
 2,-0.00018446,0.00023125,-0.00080878,0.00101200,0.00839202,-0.01523166
 ,0.01731593,-0.05585430,0.01004826,-0.01949496,0.05661512,-0.00052766,
 0.00426342,0.00240983,-0.00042814,-0.00021293,-0.00075290,0.00013620,-
 0.00026238,-0.00019528,-0.00386576,0.00136970,0.00256888,0.00032489,-0
 .00050784,0.00041997,0.00365911,-0.00689294,0.01192325,0.00887370,-0.1
 8499415,0.15566486,-0.01163041,0.18769808,-0.00375832,0.00285399,0.002
 47009,0.00034319,-0.00080502,0.00016267,0.00010163,-0.00018429,-0.0002
 8636,0.00022720,0.00273156,0.00291892,-0.00012955,-0.00005619,-0.00022
 376,-0.00157955,0.00405468,-0.00121294,-0.01849600,0.15610815,-0.19707
 273,0.02578661,-0.16969281,0.20381956,-0.09821848,-0.01606659,-0.00371
 611,0.04439519,-0.00983761,0.02732768,-0.00302674,-0.00314125,-0.00031
 971,-0.02016192,0.01971838,-0.02850680,0.00063151,0.00078732,-0.000127
 32,-0.05312541,-0.03954434,0.01733177,-0.26652752,0.03389645,-0.122158
 53,-0.00005518,-0.00125192,-0.00005182,0.62168381,0.00857729,-0.207791
 78,0.16071266,-0.04019549,-0.03035768,0.01642398,-0.00438069,0.0012973
 0,0.00205988,0.02092918,-0.01678689,0.02632552,0.00082890,-0.00056560,
 -0.00004294,0.00047662,0.03289532,-0.03286131,-0.02163879,-0.09102420,
 0.02622903,0.01862076,0.00168351,0.00931289,0.15022923,0.45411136,-0.0
 2837525,0.15029032,-0.21396987,0.05782141,0.02925674,-0.00208405,0.000
 93713,0.00260010,0.00299068,-0.02974000,0.02580181,-0.03781970,-0.0001
 5776,-0.00006852,-0.00097899,-0.02290119,-0.04978176,0.04023152,-0.066
 50923,0.04963550,-0.13333990,-0.01998972,0.00094089,-0.00621366,0.0575
 7348,-0.26609438,0.41690878,0.00590802,0.00083577,0.00158868,0.0015500
 8,0.00071573,-0.00237159,0.00023484,0.00023931,-0.00001479,-0.00033102
 ,0.00043666,-0.00039083,-0.00007448,0.00002807,0.00011740,-0.00149258,
 0.00056636,-0.00415292,-0.01590476,-0.01641364,0.00729294,0.00105112,0
 .00102175,0.00112239,-0.22711237,-0.13062280,0.05069213,0.23761406,-0.
 01427705,-0.01016742,0.00435107,-0.00054129,0.00038586,0.00487417,-0.0
 0054718,-0.00043900,-0.00008932,0.00076495,-0.00018911,0.00006437,-0.0
 0000438,-0.00018955,-0.00023317,0.00030875,0.00397899,0.00318466,0.003
 87190,0.00663931,0.00085800,0.00061483,-0.00157709,-0.00222705,-0.1344
 8695,-0.14102391,0.04832955,0.14412789,0.14256892,0.01673251,0.0107261
 9,-0.00356386,-0.00110771,0.00540296,-0.00041619,0.00077102,0.00024072
 ,-0.00021455,-0.00071883,-0.00008402,-0.00066894,0.00014960,-0.0002199
 1,-0.00013640,-0.00387402,0.00330817,0.00207852,-0.01306216,-0.0076664
 1,0.00806261,0.00153780,-0.00204972,-0.00135566,0.05457122,0.04992395,
 -0.06364036,-0.05434734,-0.05885951,0.05971473,-0.00718665,0.00042298,
 -0.00293846,0.00421895,-0.00212862,0.00208634,-0.00014503,0.00027026,-
 0.00033249,-0.01635580,0.01393143,-0.02396228,0.00043624,0.00015449,0.
 00136094,-0.26444386,-0.02245643,-0.06993913,-0.04786654,-0.00443232,-
 0.01938724,0.00113625,0.00145519,0.00008423,0.00179534,-0.00426319,0.0
 0236945,-0.00163102,0.00016166,-0.00077584,0.40959053,0.00285714,0.002
 24424,-0.00223972,-0.00551455,-0.00263261,0.00459746,0.00118720,-0.000
 16050,0.00066957,0.03630702,0.00085057,0.02152290,0.00089721,-0.000151
 84,-0.00249488,0.00162959,-0.07975314,0.03673474,-0.02138292,0.0094214
 4,-0.00981862,0.00195850,-0.00099206,-0.00066591,-0.00104805,-0.001716
 19,0.00768363,-0.00072836,0.00010146,-0.00059959,-0.00711584,0.2487485
 5,-0.00536803,-0.00323195,-0.00020941,0.00546578,0.00602165,0.00048811
 ,-0.00126691,0.00028588,-0.00080584,-0.04640515,0.01204272,-0.02463843
 ,0.00063352,-0.00282389,0.00008634,-0.09450093,0.02664405,-0.11066764,
 -0.00231326,-0.00263710,0.01023472,-0.00045715,-0.00090330,-0.00181801
 ,-0.00087246,0.00630444,-0.00027014,0.00012061,-0.00022296,0.00008525,
 0.15037326,-0.18440367,0.31971139,0.00055059,0.00025523,-0.00010188,-0
 .00014392,0.00069307,-0.00134210,-0.00032376,0.00003581,-0.00004112,-0
 .00369837,-0.00251874,-0.00010987,0.00014681,0.00038381,-0.00007224,-0
 .01471520,0.02881807,-0.03319749,-0.00210694,0.00139121,-0.00212186,-0
 .00233486,0.00132581,-0.00160700,0.00051628,0.00055797,-0.00050146,0.0
 0014475,0.00001278,0.00013429,-0.08509944,-0.01373605,0.00313041,0.626
 99273,-0.00119877,0.00090581,-0.00121831,-0.00106989,0.00052740,0.0004
 3046,-0.00014709,-0.00003101,-0.00034140,-0.00281073,0.00238418,-0.001
 01928,0.00014430,-0.00027409,-0.00025512,0.01670514,-0.00421651,0.0060
 6504,-0.00569282,0.00132791,-0.00413460,-0.00033924,-0.00032826,-0.000
 61424,0.00032870,-0.00086713,0.00140030,-0.00031887,-0.00013073,-0.000
 21479,0.00702447,-0.14487809,0.08904752,0.01885823,0.53278334,0.001356
 29,-0.00064301,0.00140404,0.00046727,0.00117903,0.00042992,0.00014622,
 -0.00026505,0.00002096,0.00021854,-0.00087740,0.00353074,0.00016669,-0
 .00015548,-0.00036822,-0.02085374,0.01114220,-0.02531803,0.00494609,-0
 .00112602,0.00269644,-0.00011638,0.00006404,-0.00073225,-0.00029176,0.
 00149801,-0.00126679,0.00047473,-0.00007057,0.00006740,-0.01789936,0.0
 8038601,-0.14877188,-0.00095854,0.05969629,0.52193584,-0.00011679,0.00
 009292,-0.00011493,-0.00004064,0.00006250,-0.00006931,-0.00002695,0.00
 001322,-0.00000268,-0.00020128,-0.00006537,-0.00013959,-0.00000020,0.0
 0000191,-0.00000343,0.00288483,0.00014048,0.00080192,-0.00021360,-0.00
 032618,0.00011648,0.00007016,0.00033628,-0.00017631,0.00009529,0.00005
 195,-0.00007949,-0.00001105,-0.00001257,-0.00000419,-0.00274953,0.0023
 4167,-0.00355548,-0.30585540,-0.02986080,-0.07703942,0.32367204,0.0000
 5967,0.00008814,-0.00012738,-0.00018546,-0.00028978,0.00018512,0.00009
 752,-0.00003127,0.00002081,0.00112305,0.00019320,0.00056419,-0.0000317
 0,-0.00000949,0.00000153,-0.00086437,-0.00249345,0.00280820,-0.0006535
 1,-0.00049934,0.00043882,-0.00003249,0.00033790,-0.00056739,0.00016951
 ,0.00027134,-0.00004379,0.00003473,0.00000635,0.00003614,0.02952715,-0
 .00226741,0.01506746,-0.03981816,-0.05410525,-0.01468538,0.03100605,0.
 05773685,-0.00008781,-0.00011878,0.00001606,0.00018740,0.00029646,-0.0
 0024236,-0.00008914,-0.00001386,-0.00007350,-0.00134813,0.00006320,-0.
 00036307,0.00003053,0.00001462,0.00000176,0.00184966,0.00320437,-0.001
 85915,0.00050534,0.00058797,-0.00012096,0.00016126,-0.00040439,0.00021
 783,-0.00020023,-0.00008984,0.00016527,-0.00005233,0.00001637,-0.00001
 060,-0.03116658,0.00357624,-0.01644044,-0.06695690,-0.01051259,-0.0696
 6531,0.08554776,0.00199524,0.08084867,-0.00014044,-0.00058185,0.000434
 16,0.00066903,0.00019123,0.00006135,0.00000252,0.00002402,0.00003313,-
 0.00034368,0.00016494,-0.00068636,-0.00000824,-0.00000683,0.00002790,0
 .00141229,0.00117623,0.00122397,0.00006633,-0.00012933,0.00072507,-0.0
 0166019,0.00098850,0.00003797,-0.00033889,0.00010302,-0.00070681,-0.00
 000145,0.00005552,0.00004253,0.00157327,0.00578185,0.00064848,-0.05825
 042,-0.03825118,-0.01563749,-0.00180516,-0.02776704,-0.01081719,0.0553
 2407,0.00040229,0.00008110,-0.00001662,-0.00031771,0.00011235,0.000019
 67,0.00004769,-0.00004338,0.00001606,0.00079573,-0.00034318,0.00089954
 ,0.00003924,0.00002692,-0.00016940,-0.00535797,0.00057258,-0.00297283,
 0.00019414,-0.00002894,0.00028441,0.00036380,0.00027477,-0.00035509,0.
 00008922,0.00018927,-0.00013662,0.00005721,0.00000952,0.00003398,0.001
 49027,-0.02867758,0.00861749,-0.03514502,-0.26883969,-0.08875638,-0.00
 060648,-0.00038872,-0.00185855,0.03961359,0.30076014,-0.00039419,-0.00
 042628,0.00024222,0.00066864,0.00004728,-0.00004117,-0.00002660,0.0000
 6028,0.00002520,-0.00042243,0.00015374,-0.00120562,-0.00004604,0.00002
 320,0.00013851,0.00410703,0.00054372,0.00329086,-0.00076134,-0.0012804
 7,0.00061538,-0.00064338,0.00066046,-0.00007051,-0.00022782,0.00020488
 ,-0.00071060,-0.00003285,0.00003410,0.00003591,0.00113024,0.03631202,0
 .00331051,-0.01559861,-0.09533252,-0.08875078,0.00013647,-0.00733060,-
 0.00227608,0.01713151,0.08790274,0.09182629,-0.00015702,-0.00051092,0.
 00056890,0.00068829,0.00025041,0.00006870,0.00003599,-0.00003418,-0.00
 001600,-0.00035902,0.00058546,-0.00017170,0.00000221,-0.00001374,-0.00
 001723,0.00157777,-0.00068676,-0.00095893,0.00018745,-0.00098185,0.000
 49685,-0.00032003,-0.00041754,-0.00190465,-0.00055090,0.00072604,-0.00
 043269,0.00005586,-0.00004888,-0.00004887,0.00672728,-0.00343439,-0.00
 563269,-0.15582285,0.03662855,0.12502088,-0.01570172,0.00733506,0.0224
 3636,0.00350096,-0.00166599,-0.00502062,0.16013572,0.00033312,0.000187
 97,-0.00002937,-0.00027702,-0.00019999,-0.00017212,0.00000204,0.000015
 84,0.00005609,0.00057407,-0.00072521,0.00029223,-0.00002346,0.00013235
 ,0.00002574,-0.00415719,0.00114322,-0.00166639,0.00091973,0.00056371,-
 0.00070306,-0.00012433,0.00014028,0.00010672,0.00015789,-0.00031473,0.
 00018624,0.00002020,0.00002640,0.00002184,-0.01404149,-0.00013682,0.03
 019165,0.03888598,-0.06425786,-0.04738628,-0.00317558,0.00145094,0.003
 24354,0.01863732,-0.00370517,-0.02157256,-0.03773128,0.06567908,-0.000
 44259,-0.00040346,0.00015740,0.00051815,0.00023045,0.00026305,-0.00001
 621,-0.00001400,-0.00006742,-0.00107498,0.00079177,-0.00082050,0.00002
 288,-0.00018445,0.00002239,0.00629919,-0.00098169,0.00262822,-0.000139
 47,-0.00014575,0.00021611,-0.00080615,-0.00065376,-0.00060320,-0.00033
 158,0.00009323,-0.00000218,-0.00004622,-0.00000972,-0.00003786,0.00899
 692,0.00873982,-0.03029454,0.11934438,-0.04299677,-0.19521206,-0.00541
 780,0.00163702,0.00980187,0.00748178,-0.00350841,-0.00643013,-0.134388
 30,0.03740573,0.22037885\\-0.00001173,0.00000664,-0.00000933,0.0000127
 8,0.00000999,-0.00000125,0.00000520,0.00000377,0.00000278,0.00000216,0
 .00000109,0.00000212,0.00000254,0.00000078,0.00000332,0.00000005,-0.00
 000023,0.00000047,0.00000092,0.00000087,-0.00000129,-0.00000238,-0.000
 00071,-0.00000264,0.00000181,-0.00000720,0.00000771,-0.00000011,0.0000
 0330,-0.00000436,-0.00000133,-0.00000198,0.00000116,-0.00000207,-0.000
 00394,0.00000075,-0.00000237,-0.00000512,0.00000155,-0.00000277,-0.000
 00304,-0.00000110,-0.00000270,-0.00000422,0.00000012\\\@
 The archive entry for this job was punched.


 A FOOL CAN ASK MORE QUESTIONS THAN
 A WISE MAN CAN ANSWER.
 Job cpu time:       0 days  0 hours 48 minutes 52.1 seconds.
 Elapsed time:       0 days  0 hours  1 minutes 35.8 seconds.
 File lengths (MBytes):  RWF=    164 Int=      0 D2E=      0 Chk=     14 Scr=      1
 Normal termination of Gaussian 16 at Tue May  6 17:46:48 2025.
