/home/tahminaafroz
cn012.cluster.local
tahminaafroz
Mon May  5 08:12:38 CDT 2025
 Entering Gaussian System, Link 0=g16
 Initial command:
 /home/apps/g16/l1.exe "/tmp/boh2-opt-freq/Gau-1311196.inp" -scrdir="/tmp/boh2-opt-freq/"
 Entering Link 1 = /home/apps/g16/l1.exe PID=   1311197.
  
 Copyright (c) 1988-2019, Gaussian, Inc.  All Rights Reserved.
  
 This is part of the Gaussian(R) 16 program.  It is based on
 the Gaussian(R) 09 system (copyright 2009, Gaussian, Inc.),
 the Gaussian(R) 03 system (copyright 2003, Gaussian, Inc.),
 the Gaussian(R) 98 system (copyright 1998, Gaussian, Inc.),
 the Gaussian(R) 94 system (copyright 1995, Gaussian, Inc.),
 the Gaussian 92(TM) system (copyright 1992, Gaussian, Inc.),
 the Gaussian 90(TM) system (copyright 1990, Gaussian, Inc.),
 the Gaussian 88(TM) system (copyright 1988, Gaussian, Inc.),
 the Gaussian 86(TM) system (copyright 1986, Carnegie Mellon
 University), and the Gaussian 82(TM) system (copyright 1983,
 Carnegie Mellon University). Gaussian is a federally registered
 trademark of Gaussian, Inc.
  
 This software contains proprietary and confidential information,
 including trade secrets, belonging to Gaussian, Inc.
  
 This software is provided under written license and may be
 used, copied, transmitted, or stored only in accord with that
 written license.
  
 The following legend is applicable only to US Government
 contracts under FAR:
  
                    RESTRICTED RIGHTS LEGEND
  
 Use, reproduction and disclosure by the US Government is
 subject to restrictions as set forth in subparagraphs (a)
 and (c) of the Commercial Computer Software - Restricted
 Rights clause in FAR 52.227-19.
  
 Gaussian, Inc.
 340 Quinnipiac St., Bldg. 40, Wallingford CT 06492
  
  
 ---------------------------------------------------------------
 Warning -- This program may not be used in any manner that
 competes with the business of Gaussian, Inc. or will provide
 assistance to any competitor of Gaussian, Inc.  The licensee
 of this program is prohibited from giving any competitor of
 Gaussian, Inc. access to this program.  By using this program,
 the user acknowledges that Gaussian, Inc. is engaged in the
 business of creating and licensing software in the field of
 computational chemistry and represents and warrants to the
 licensee that it is not a competitor of Gaussian, Inc. and that
 it will not use this program in any manner prohibited above.
 ---------------------------------------------------------------
  

 Cite this work as:
 Gaussian 16, Revision C.01,
 M. J. Frisch, G. W. Trucks, H. B. Schlegel, G. E. Scuseria, 
 M. A. Robb, J. R. Cheeseman, G. Scalmani, V. Barone, 
 G. A. Petersson, H. Nakatsuji, X. Li, M. Caricato, A. V. Marenich, 
 J. Bloino, B. G. Janesko, R. Gomperts, B. Mennucci, H. P. Hratchian, 
 J. V. Ortiz, A. F. Izmaylov, J. L. Sonnenberg, D. Williams-Young, 
 F. Ding, F. Lipparini, F. Egidi, J. Goings, B. Peng, A. Petrone, 
 T. Henderson, D. Ranasinghe, V. G. Zakrzewski, J. Gao, N. Rega, 
 G. Zheng, W. Liang, M. Hada, M. Ehara, K. Toyota, R. Fukuda, 
 J. Hasegawa, M. Ishida, T. Nakajima, Y. Honda, O. Kitao, H. Nakai, 
 T. Vreven, K. Throssell, J. A. Montgomery, Jr., J. E. Peralta, 
 F. Ogliaro, M. J. Bearpark, J. J. Heyd, E. N. Brothers, K. N. Kudin, 
 V. N. Staroverov, T. A. Keith, R. Kobayashi, J. Normand, 
 K. Raghavachari, A. P. Rendell, J. C. Burant, S. S. Iyengar, 
 J. Tomasi, M. Cossi, J. M. Millam, M. Klene, C. Adamo, R. Cammi, 
 J. W. Ochterski, R. L. Martin, K. Morokuma, O. Farkas, 
 J. B. Foresman, and D. J. Fox, Gaussian, Inc., Wallingford CT, 2019.
 
 ******************************************
 Gaussian 16:  AS64L-G16RevC.01  3-Jul-2019
                 5-May-2025 
 ******************************************
 %mem=20GB
 %nprocshared=32
 Will use up to   32 processors via shared memory.
 %chk=boh2-opt-freq.chk
 ----------------------------------------------------------------------
 # opt=(calcfc,tight) freq 6-311+g(d,p) nosymm scf=(qc,fermi,xqc) geom=
 connectivity int=ultrafine m062x
 ----------------------------------------------------------------------
 1/7=10,10=4,18=20,19=15,26=4,38=1,57=2/1,3;
 2/9=110,12=2,15=1,17=6,18=5,40=1/2;
 3/5=4,6=6,7=111,11=2,25=1,30=1,71=2,74=-55,75=-5,140=1/1,2,3;
 4//1;
 5/5=2,22=13,38=5/2;
 8/6=4,10=90,11=11/1;
 11/6=1,8=1,9=11,15=111,16=1,31=1/1,2,10;
 10/6=1,13=1,31=1/2;
 6/7=2,8=2,9=2,10=2,28=1/1;
 7/10=1,25=1,30=1/1,2,3,16;
 1/7=10,10=4,18=20,19=15,26=4/3(2);
 2/9=110,15=1/2;
 99//99;
 2/9=110,15=1/2;
 3/5=4,6=6,7=111,11=2,25=1,30=1,71=1,74=-55,75=-5/1,2,3;
 4/5=5,16=3,69=1/1;
 5/5=2,22=13,38=5/2;
 7/30=1/1,2,3,16;
 1/7=10,18=20,19=15,26=4/3(-5);
 2/9=110,15=1/2;
 6/7=2,8=2,9=2,10=2,19=2,28=1/1;
 99/9=1/99;
 -------------
 boh2-opt-freq
 -------------
 Symbolic Z-matrix:
 Charge =  0 Multiplicity = 2
 O                     8.69358   7.45981   5.55976 
 H                     9.50656   7.14396   5.97061 
 B                     7.64305   6.61556   5.7762 
 O                     7.87783   5.48454   6.50883 
 H                     7.10413   4.92981   6.64587 
 

 GradGradGradGradGradGradGradGradGradGradGradGradGradGradGradGradGradGrad
 Berny optimization.
 Initialization pass.
                           ----------------------------
                           !    Initial Parameters    !
                           ! (Angstroms and Degrees)  !
 --------------------------                            --------------------------
 ! Name  Definition              Value          Derivative Info.                !
 --------------------------------------------------------------------------------
 ! R1    R(1,2)                  0.9641         calculate D2E/DX2 analytically  !
 ! R2    R(1,3)                  1.365          calculate D2E/DX2 analytically  !
 ! R3    R(3,4)                  1.3679         calculate D2E/DX2 analytically  !
 ! R4    R(4,5)                  0.9618         calculate D2E/DX2 analytically  !
 ! A1    A(2,1,3)              112.258          calculate D2E/DX2 analytically  !
 ! A2    A(1,3,4)              117.6605         calculate D2E/DX2 analytically  !
 ! A3    A(3,4,5)              114.5268         calculate D2E/DX2 analytically  !
 ! D1    D(2,1,3,4)             -0.2569         calculate D2E/DX2 analytically  !
 ! D2    D(1,3,4,5)            179.0496         calculate D2E/DX2 analytically  !
 --------------------------------------------------------------------------------
 Trust Radius=3.00D-01 FncErr=1.00D-07 GrdErr=1.00D-06 EigMax=2.50D+02 EigMin=1.00D-04
 Number of steps in this run=     20 maximum allowed number of steps=    100.
 GradGradGradGradGradGradGradGradGradGradGradGradGradGradGradGradGradGrad

                          Input orientation:                          
 ---------------------------------------------------------------------
 Center     Atomic      Atomic             Coordinates (Angstroms)
 Number     Number       Type             X           Y           Z
 ---------------------------------------------------------------------
      1          8           0        8.693580    7.459810    5.559758
      2          1           0        9.506557    7.143956    5.970607
      3          5           0        7.643048    6.615556    5.776200
      4          8           0        7.877832    5.484540    6.508831
      5          1           0        7.104131    4.929810    6.645869
 ---------------------------------------------------------------------
                    Distance matrix (angstroms):
                    1          2          3          4          5
     1  O    0.000000
     2  H    0.964102   0.000000
     3  B    1.365002   1.946707   0.000000
     4  O    2.338349   2.386649   1.367870   0.000000
     5  H    3.179133   3.336176   1.971927   0.961831   0.000000
 Symmetry turned off by external request.
 Stoichiometry    BH2O2(2)
 Framework group  C1[X(BH2O2)]
 Deg. of freedom     9
 Full point group                 C1      NOp   1
 Rotational constants (GHZ):          93.1137188          10.3722880           9.3327570
 Standard basis: 6-311+G(d,p) (5D, 7F)
    78 basis functions,   124 primitive gaussians,    81 cartesian basis functions
    12 alpha electrons       11 beta electrons
       nuclear repulsion energy        60.2223732160 Hartrees.
 NAtoms=    5 NActive=    5 NUniq=    5 SFac= 1.00D+00 NAtFMM=   60 NAOKFM=F Big=F
 Integral buffers will be    131072 words long.
 Raffenetti 2 integral format.
 Two-electron integral symmetry is turned off.
 One-electron integrals computed using PRISM.
 NBasis=    78 RedAO= T EigKep=  9.72D-04  NBF=    78
 NBsUse=    78 1.00D-06 EigRej= -1.00D+00 NBFU=    78
 ExpMin= 3.15D-02 ExpMax= 8.59D+03 ExpMxC= 1.30D+03 IAcc=3 IRadAn=         5 AccDes= 0.00D+00
 Harris functional with IExCor= 1009 and IRadAn=       5 diagonalized for initial guess.
 HarFok:  IExCor= 1009 AccDes= 0.00D+00 IRadAn=         5 IDoV= 1 UseB2=F ITyADJ=14
 ICtDFT=  3500011 ScaDFX=  1.000000  1.000000  1.000000  1.000000
 FoFCou: FMM=F IPFlag=           0 FMFlag=      100000 FMFlg1=           0
         NFxFlg=           0 DoJE=T BraDBF=F KetDBF=T FulRan=T
         wScrn=  0.000000 ICntrl=       500 IOpCl=  0 I1Cent=   200000004 NGrid=           0
         NMat0=    1 NMatS0=      1 NMatT0=    0 NMatD0=    1 NMtDS0=    0 NMtDT0=    0
 Symmetry not used in FoFCou.
 Initial guess <Sx>= 0.0000 <Sy>= 0.0000 <Sz>= 0.5000 <S**2>= 0.7500 S= 0.5000
 Keep R1 and R2 ints in memory in canonical form, NReq=38505423.
 Requested convergence on RMS density matrix=1.00D-08 within 128 cycles.
 Requested convergence on MAX density matrix=1.00D-06.
 Requested convergence on             energy=1.00D-06.
 Level shift goal  0.100 maximum shift  0.100.
 No special actions if energy rises.
 Dynamic level shift is on during FON iterations.
 SCF Done:  E(UM062X) =  -176.521081477     A.U. after   13 cycles
            NFock= 13  Conv=0.71D-08     -V/T= 2.0032
 <Sx>= 0.0000 <Sy>= 0.0000 <Sz>= 0.5000 <S**2>= 0.7535 S= 0.5017
 <L.S>=  0.00000000000    
 Annihilation of the first spin contaminant:
 S**2 before annihilation     0.7535,   after     0.7500
 DoSCS=F DFT=T ScalE2(SS,OS)=  1.000000  1.000000
 Range of M.O.s used for correlation:     1    78
 NBasis=    78 NAE=    12 NBE=    11 NFC=     0 NFV=     0
 NROrb=     78 NOA=    12 NOB=    11 NVA=    66 NVB=    67

 **** Warning!!: The largest alpha MO coefficient is  0.12145547D+02


 **** Warning!!: The largest beta MO coefficient is  0.12887148D+02

 Symmetrizing basis deriv contribution to polar:
 IMax=3 JMax=2 DiffMx= 0.00D+00
 G2DrvN: will do     6 centers at a time, making    1 passes.
 Calling FoFCou, ICntrl=  3107 FMM=F I1Cent=   0 AccDes= 0.00D+00.
 End of G2Drv F.D. properties file   721 does not exist.
 End of G2Drv F.D. properties file   722 does not exist.
 End of G2Drv F.D. properties file   788 does not exist.
          IDoAtm=11111
          Differentiating once with respect to nuclear coordinates.
 Keep R1 and R2 ints in memory in canonical form, NReq=38397970.
          There are    18 degrees of freedom in the 1st order CPHF.  IDoFFX=6 NUNeed=     0.
     12 vectors produced by pass  0 Test12= 8.49D-15 5.56D-09 XBig12= 1.18D-01 7.28D-02.
 AX will form    12 AO Fock derivatives at one time.
     12 vectors produced by pass  1 Test12= 8.49D-15 5.56D-09 XBig12= 1.20D-02 3.20D-02.
     12 vectors produced by pass  2 Test12= 8.49D-15 5.56D-09 XBig12= 6.65D-04 7.89D-03.
     12 vectors produced by pass  3 Test12= 8.49D-15 5.56D-09 XBig12= 1.82D-05 8.35D-04.
     12 vectors produced by pass  4 Test12= 8.49D-15 5.56D-09 XBig12= 4.46D-07 1.25D-04.
     12 vectors produced by pass  5 Test12= 8.49D-15 5.56D-09 XBig12= 1.14D-08 2.35D-05.
     12 vectors produced by pass  6 Test12= 8.49D-15 5.56D-09 XBig12= 1.64D-10 2.85D-06.
     10 vectors produced by pass  7 Test12= 8.49D-15 5.56D-09 XBig12= 1.38D-12 2.52D-07.
      4 vectors produced by pass  8 Test12= 8.49D-15 5.56D-09 XBig12= 9.07D-15 1.75D-08.
 InvSVY:  IOpt=1 It=  1 EMax= 1.44D-15
 Solved reduced A of dimension    98 with    12 vectors.
 End of Minotr F.D. properties file   721 does not exist.
 End of Minotr F.D. properties file   722 does not exist.
 End of Minotr F.D. properties file   788 does not exist.

 **********************************************************************

            Population analysis using the SCF Density.

 **********************************************************************

 Alpha  occ. eigenvalues --  -19.65898 -19.64450  -7.11775  -1.18419  -1.14521
 Alpha  occ. eigenvalues --   -0.67233  -0.63665  -0.52193  -0.48828  -0.46742
 Alpha  occ. eigenvalues --   -0.41498  -0.27247
 Alpha virt. eigenvalues --    0.01042   0.02244   0.03015   0.04999   0.07040
 Alpha virt. eigenvalues --    0.14018   0.14748   0.18100   0.19849   0.21425
 Alpha virt. eigenvalues --    0.22968   0.24425   0.25358   0.27240   0.29657
 Alpha virt. eigenvalues --    0.34828   0.35491   0.41545   0.42922   0.52652
 Alpha virt. eigenvalues --    0.58528   0.62384   0.69346   0.88999   0.90246
 Alpha virt. eigenvalues --    0.95507   0.95597   1.03288   1.07741   1.10571
 Alpha virt. eigenvalues --    1.11478   1.18132   1.28624   1.40500   1.44167
 Alpha virt. eigenvalues --    1.44799   1.45455   1.51814   1.65944   1.70173
 Alpha virt. eigenvalues --    1.84651   1.97456   2.07315   2.11706   2.46939
 Alpha virt. eigenvalues --    2.53597   2.55718   3.05323   3.08600   3.16643
 Alpha virt. eigenvalues --    3.20402   3.22958   3.44668   3.48794   3.58604
 Alpha virt. eigenvalues --    3.84622   3.86846   5.04749   5.06410   5.20263
 Alpha virt. eigenvalues --    5.37409   5.58925   5.65250  14.60591  49.93278
 Alpha virt. eigenvalues --   49.96676
  Beta  occ. eigenvalues --  -19.65756 -19.64354  -7.10868  -1.17789  -1.14081
  Beta  occ. eigenvalues --   -0.66523  -0.62501  -0.49910  -0.48229  -0.46487
  Beta  occ. eigenvalues --   -0.41736
  Beta virt. eigenvalues --   -0.10578   0.01006   0.02207   0.02291   0.07352
  Beta virt. eigenvalues --    0.09353   0.13163   0.14625   0.16155   0.19247
  Beta virt. eigenvalues --    0.19923   0.21981   0.22386   0.24101   0.26501
  Beta virt. eigenvalues --    0.27868   0.29327   0.32908   0.37613   0.41998
  Beta virt. eigenvalues --    0.51519   0.57622   0.62663   0.68501   0.86480
  Beta virt. eigenvalues --    0.89515   0.93880   0.97546   1.02038   1.07372
  Beta virt. eigenvalues --    1.09990   1.10080   1.16877   1.29333   1.39738
  Beta virt. eigenvalues --    1.43924   1.44524   1.45557   1.50629   1.63476
  Beta virt. eigenvalues --    1.69785   1.83810   1.95003   2.07286   2.11472
  Beta virt. eigenvalues --    2.48034   2.53543   2.55933   3.05493   3.08692
  Beta virt. eigenvalues --    3.16755   3.20420   3.23115   3.44770   3.48502
  Beta virt. eigenvalues --    3.58707   3.84488   3.86836   5.04819   5.06420
  Beta virt. eigenvalues --    5.20517   5.37684   5.58950   5.65281  14.61943
  Beta virt. eigenvalues --   49.93186  49.96654
          Condensed to atoms (all electrons):
               1          2          3          4          5
     1  O    7.728118   0.272652   0.329013  -0.016517   0.007752
     2  H    0.272652   0.446948   0.002718  -0.005731   0.001946
     3  B    0.329013   0.002718   4.392710   0.216723  -0.003747
     4  O   -0.016517  -0.005731   0.216723   7.832538   0.277227
     5  H    0.007752   0.001946  -0.003747   0.277227   0.435612
          Atomic-Atomic Spin Densities.
               1          2          3          4          5
     1  O    0.102216  -0.025522  -0.158120   0.030507  -0.002229
     2  H   -0.025522   0.041542   0.022167  -0.001972   0.000302
     3  B   -0.158120   0.022167   1.431509  -0.223884  -0.005359
     4  O    0.030507  -0.001972  -0.223884   0.130050   0.012143
     5  H   -0.002229   0.000302  -0.005359   0.012143  -0.001381
 Mulliken charges and spin densities:
               1          2
     1  O   -0.321018  -0.053148
     2  H    0.281467   0.036517
     3  B    0.062582   1.066313
     4  O   -0.304241  -0.053157
     5  H    0.281210   0.003475
 Sum of Mulliken charges =   0.00000   1.00000
 Mulliken charges and spin densities with hydrogens summed into heavy atoms:
               1          2
     1  O   -0.039551  -0.016631
     3  B    0.062582   1.066313
     4  O   -0.023031  -0.049681
 APT charges:
               1
     1  O   -0.490033
     2  H    1.985992
     3  B   -1.435978
     4  O    1.082537
     5  H   -1.142518
 Sum of APT charges =   0.00000
 APT charges with hydrogens summed into heavy atoms:
               1
     1  O    1.495959
     3  B   -1.435978
     4  O   -0.059981
 Electronic spatial extent (au):  <R**2>=          12000.0402
 Charge=              0.0000 electrons
 Dipole moment (field-independent basis, Debye):
    X=             -0.2401    Y=             -1.5921    Z=              0.9145  Tot=              1.8516
 Quadrupole moment (field-independent basis, Debye-Ang):
   XX=            -18.1363   YY=            -38.8540   ZZ=             -7.7457
   XY=            -11.5883   XZ=              5.2737   YZ=             -2.7633
 Traceless Quadrupole moment (field-independent basis, Debye-Ang):
   XX=              3.4424   YY=            -17.2754   ZZ=             13.8330
   XY=            -11.5883   XZ=              5.2737   YZ=             -2.7633
 Octapole moment (field-independent basis, Debye-Ang**2):
  XXX=           -386.0453  YYY=           -563.4554  ZZZ=           -235.6322  XYY=           -292.6523
  XXY=           -177.8492  XXZ=            -56.6314  XZZ=            -80.1017  YZZ=            -98.6879
  YYZ=           -179.6591  XYZ=            -16.3008
 Hexadecapole moment (field-independent basis, Debye-Ang**3):
 XXXX=          -5923.3313 YYYY=          -6638.2976 ZZZZ=          -3231.1939 XXXY=          -2846.8028
 XXXZ=          -1881.5165 YYYX=          -4373.9556 YYYZ=          -2932.0225 ZZZX=          -2038.2536
 ZZZY=          -1786.4266 XXYY=          -2838.0016 XXZZ=          -1276.5950 YYZZ=          -1584.7365
 XXYZ=           -623.4193 YYXZ=          -1317.4503 ZZXY=           -780.5188
 N-N= 6.022237321598D+01 E-N=-5.365950758318D+02  KE= 1.759631820318D+02
  Exact polarizability:       0.000       0.000       0.000       0.000       0.000       0.000
 Approx polarizability:      26.271       2.123      25.509       0.291      -2.434      22.010
                          Isotropic Fermi Contact Couplings
        Atom                 a.u.       MegaHertz       Gauss      10(-4) cm-1
     1  O(17)              0.20539    -124.50611     -44.42688     -41.53077
     2  H(1)               0.01300      58.08861      20.72746      19.37627
     3  B(11)              0.51287     735.64398     262.49606     245.38442
     4  O(17)              0.03424     -20.75443      -7.40570      -6.92293
     5  H(1)               0.00243      10.87973       3.88216       3.62909
 --------------------------------------------------------
       Center         ----  Spin Dipole Couplings  ----
                      3XX-RR        3YY-RR        3ZZ-RR
 --------------------------------------------------------
     1   Atom        0.100534     -0.023461     -0.077074
     2   Atom        0.012514     -0.005399     -0.007116
     3   Atom        0.243192     -0.156609     -0.086583
     4   Atom        0.145968     -0.048746     -0.097222
     5   Atom       -0.009318      0.019375     -0.010057
 --------------------------------------------------------
                        XY            XZ            YZ
 --------------------------------------------------------
     1   Atom        0.029593      0.039515     -0.046830
     2   Atom        0.005662      0.002076      0.000241
     3   Atom       -0.125559      0.181101     -0.032687
     4   Atom       -0.171195      0.210063     -0.170346
     5   Atom        0.013351     -0.004998     -0.021352
 --------------------------------------------------------


 ---------------------------------------------------------------------------------
              Anisotropic Spin Dipole Couplings in Principal Axis System
 ---------------------------------------------------------------------------------

       Atom             a.u.   MegaHertz   Gauss  10(-4) cm-1        Axes

              Baa    -0.1154     8.348     2.979     2.785 -0.2217  0.4984  0.8381
     1 O(17)  Bbb     0.0034    -0.247    -0.088    -0.082 -0.0483  0.8528 -0.5199
              Bcc     0.1120    -8.101    -2.891    -2.702  0.9739  0.1558  0.1650
 
              Baa    -0.0075    -4.027    -1.437    -1.343 -0.2312  0.5167  0.8244
     2 H(1)   Bbb    -0.0068    -3.631    -1.296    -1.211 -0.1776  0.8107 -0.5579
              Bcc     0.0144     7.658     2.732     2.554  0.9566  0.2754  0.0956
 
              Baa    -0.2007   -34.359   -12.260   -11.461  0.3933  0.8349 -0.3850
     3 B(11)  Bbb    -0.1546   -26.475    -9.447    -8.831 -0.2263  0.4938  0.8396
              Bcc     0.3553    60.834    21.707    20.292  0.8911 -0.2430  0.3832
 
              Baa    -0.2558    18.508     6.604     6.174 -0.2221  0.5034  0.8350
     4 O(17)  Bbb    -0.1366     9.883     3.527     3.297  0.6367  0.7235 -0.2668
              Bcc     0.3924   -28.392   -10.131    -9.470  0.7384 -0.4724  0.4812
 
              Baa    -0.0216   -11.550    -4.121    -3.853 -0.2051  0.5036  0.8393
     5 H(1)   Bbb    -0.0135    -7.178    -2.561    -2.394  0.9304 -0.1658  0.3269
              Bcc     0.0351    18.728     6.682     6.247  0.3038  0.8479 -0.4345
 

 ---------------------------------------------------------------------------------

 Calling FoFJK, ICntrl=    100127 FMM=F ISym2X=0 I1Cent= 0 IOpClX= 1 NMat=1 NMatS=1 NMatT=0.
 -------------------------------------------------------------------
 Center     Atomic                   Forces (Hartrees/Bohr)
 Number     Number              X              Y              Z
 -------------------------------------------------------------------
      1        8          -0.018148577   -0.004691660   -0.002254048
      2        1           0.001143924   -0.001029624    0.000883093
      3        5           0.024857075    0.001909073    0.005714080
      4        8          -0.009859308    0.002491263   -0.003816530
      5        1           0.002006886    0.001320948   -0.000526595
 -------------------------------------------------------------------
 Cartesian Forces:  Max     0.024857075 RMS     0.008709417
 FormGI is forming the generalized inverse of G from B-inverse, IUseBI=4.

 GradGradGradGradGradGradGradGradGradGradGradGradGradGradGradGradGradGrad
 Berny optimization.
 Internal  Forces:  Max     0.018009555 RMS     0.008499661
 Search for a local minimum.
 Step number   1 out of a maximum of   20
 All quantities printed in internal units (Hartrees-Bohrs-Radians)
 Mixed Optimization -- RFO/linear search
 Second derivative matrix not updated -- analytic derivatives used.
 The second derivative matrix:
                          R1        R2        R3        R4        A1
           R1           0.53332
           R2           0.01115   0.39876
           R3          -0.00341   0.05444   0.40282
           R4          -0.00082  -0.00395   0.00310   0.54837
           A1           0.02513   0.03235   0.00003  -0.00081   0.11093
           A2          -0.01474   0.04047   0.06530   0.00798  -0.02676
           A3          -0.00166   0.00335   0.03321   0.02301   0.00081
           D1           0.00004  -0.00004   0.00008  -0.00002   0.00030
           D2           0.00000   0.00005   0.00044  -0.00013  -0.00016
                          A2        A3        D1        D2
           A2           0.27500
           A3           0.02535   0.11088
           D1           0.00016  -0.00004   0.02190
           D2           0.00019   0.00022  -0.00172   0.02335
 ITU=  0
     Eigenvalues ---    0.02076   0.02449   0.09763   0.10704   0.25057
     Eigenvalues ---    0.35196   0.48580   0.53653   0.55055
 RFO step:  Lambda=-2.39599904D-03 EMin= 2.07553222D-02
 Linear search not attempted -- first point.
 Iteration  1 RMS(Cart)=  0.05765972 RMS(Int)=  0.00183890
 Iteration  2 RMS(Cart)=  0.00217968 RMS(Int)=  0.00000059
 Iteration  3 RMS(Cart)=  0.00000059 RMS(Int)=  0.00000000
 Variable       Old X    -DE/DX   Delta X   Delta X   Delta X     New X
                                 (Linear)    (Quad)   (Total)
    R1        1.82189   0.00168   0.00000   0.00511   0.00511   1.82700
    R2        2.57948  -0.01641   0.00000  -0.04790  -0.04790   2.53158
    R3        2.58490  -0.00682   0.00000  -0.02258  -0.02258   2.56232
    R4        1.81760  -0.00245   0.00000  -0.00541  -0.00541   1.81219
    A1        1.95927  -0.00105   0.00000   0.02241   0.02241   1.98168
    A2        2.05356   0.01801   0.00000   0.08065   0.08065   2.13421
    A3        1.99887  -0.00002   0.00000  -0.00920  -0.00920   1.98967
    D1       -0.00448   0.00005   0.00000   0.00235   0.00235  -0.00213
    D2        3.12501   0.00035   0.00000   0.01373   0.01373   3.13873
         Item               Value     Threshold  Converged?
 Maximum Force            0.018010     0.000015     NO 
 RMS     Force            0.008500     0.000010     NO 
 Maximum Displacement     0.083518     0.000060     NO 
 RMS     Displacement     0.056846     0.000040     NO 
 Predicted change in Energy=-1.210151D-03
 GradGradGradGradGradGradGradGradGradGradGradGradGradGradGradGradGradGrad

                          Input orientation:                          
 ---------------------------------------------------------------------
 Center     Atomic      Atomic             Coordinates (Angstroms)
 Number     Number       Type             X           Y           Z
 ---------------------------------------------------------------------
      1          8           0        8.680946    7.455045    5.558296
      2          1           0        9.524921    7.188152    5.947129
      3          5           0        7.683601    6.594451    5.801913
      4          8           0        7.864760    5.461997    6.525277
      5          1           0        7.070919    4.934027    6.628650
 ---------------------------------------------------------------------
                    Distance matrix (angstroms):
                    1          2          3          4          5
     1  O    0.000000
     2  H    0.966808   0.000000
     3  B    1.339652   1.940110   0.000000
     4  O    2.360816   2.463738   1.355923   0.000000
     5  H    3.177007   3.401128   1.953428   0.958968   0.000000
 Symmetry turned off by external request.
 Stoichiometry    BH2O2(2)
 Framework group  C1[X(BH2O2)]
 Deg. of freedom     9
 Full point group                 C1      NOp   1
 Rotational constants (GHZ):         104.8135019          10.1790840           9.2780399
 Standard basis: 6-311+G(d,p) (5D, 7F)
    78 basis functions,   124 primitive gaussians,    81 cartesian basis functions
    12 alpha electrons       11 beta electrons
       nuclear repulsion energy        60.4748554952 Hartrees.
 NAtoms=    5 NActive=    5 NUniq=    5 SFac= 1.00D+00 NAtFMM=   60 NAOKFM=F Big=F
 Integral buffers will be    131072 words long.
 Raffenetti 2 integral format.
 Two-electron integral symmetry is turned off.
 One-electron integrals computed using PRISM.
 NBasis=    78 RedAO= T EigKep=  9.38D-04  NBF=    78
 NBsUse=    78 1.00D-06 EigRej= -1.00D+00 NBFU=    78
 Initial guess from the checkpoint file:  "boh2-opt-freq.chk"
 B after Tr=     0.015541   -0.081404    0.057530
         Rot=    0.999999    0.001382   -0.000215   -0.000893 Ang=   0.19 deg.
 Initial guess <Sx>= 0.0000 <Sy>= 0.0000 <Sz>= 0.5000 <S**2>= 0.7535 S= 0.5017
 ExpMin= 3.15D-02 ExpMax= 8.59D+03 ExpMxC= 1.30D+03 IAcc=3 IRadAn=         5 AccDes= 0.00D+00
 Harris functional with IExCor= 1009 and IRadAn=       5 diagonalized for initial guess.
 HarFok:  IExCor= 1009 AccDes= 0.00D+00 IRadAn=         5 IDoV= 1 UseB2=F ITyADJ=14
 ICtDFT=  3500011 ScaDFX=  1.000000  1.000000  1.000000  1.000000
 FoFCou: FMM=F IPFlag=           0 FMFlag=      100000 FMFlg1=           0
         NFxFlg=           0 DoJE=T BraDBF=F KetDBF=T FulRan=T
         wScrn=  0.000000 ICntrl=       500 IOpCl=  0 I1Cent=   200000004 NGrid=           0
         NMat0=    1 NMatS0=      1 NMatT0=    0 NMatD0=    1 NMtDS0=    0 NMtDT0=    0
 Symmetry not used in FoFCou.
 Keep R1 and R2 ints in memory in canonical form, NReq=38505423.
 Requested convergence on RMS density matrix=1.00D-08 within 128 cycles.
 Requested convergence on MAX density matrix=1.00D-06.
 Requested convergence on             energy=1.00D-06.
 Level shift goal  0.100 maximum shift  0.100.
 No special actions if energy rises.
 Dynamic level shift is on during FON iterations.
 SCF Done:  E(UM062X) =  -176.522283226     A.U. after   12 cycles
            NFock= 12  Conv=0.50D-08     -V/T= 2.0028
 <Sx>= 0.0000 <Sy>= 0.0000 <Sz>= 0.5000 <S**2>= 0.7535 S= 0.5018
 <L.S>=  0.00000000000    
 Annihilation of the first spin contaminant:
 S**2 before annihilation     0.7535,   after     0.7500
 Calling FoFJK, ICntrl=      2127 FMM=F ISym2X=0 I1Cent= 0 IOpClX= 1 NMat=1 NMatS=1 NMatT=0.
 -------------------------------------------------------------------
 Center     Atomic                   Forces (Hartrees/Bohr)
 Number     Number              X              Y              Z
 -------------------------------------------------------------------
      1        8           0.000823247    0.001303738   -0.000555434
      2        1           0.000143128   -0.000037270    0.000048337
      3        5          -0.000625681   -0.000698273    0.000240353
      4        8          -0.000305777   -0.000538002    0.000285382
      5        1          -0.000034916   -0.000030193   -0.000018637
 -------------------------------------------------------------------
 Cartesian Forces:  Max     0.001303738 RMS     0.000523697

 GradGradGradGradGradGradGradGradGradGradGradGradGradGradGradGradGradGrad
 Berny optimization.
 Using GEDIIS/GDIIS optimizer.
 FormGI is forming the generalized inverse of G from B-inverse, IUseBI=4.
 Internal  Forces:  Max     0.001623442 RMS     0.000677427
 Search for a local minimum.
 Step number   2 out of a maximum of   20
 All quantities printed in internal units (Hartrees-Bohrs-Radians)
 Mixed Optimization -- En-DIIS/RFO-DIIS
 Update second derivatives using D2CorX and points    1    2
 DE= -1.20D-03 DEPred=-1.21D-03 R= 9.93D-01
 TightC=F SS=  1.41D+00  RLast= 1.01D-01 DXNew= 5.0454D-01 3.0216D-01
 Trust test= 9.93D-01 RLast= 1.01D-01 DXMaxT set to 3.02D-01
 The second derivative matrix:
                          R1        R2        R3        R4        A1
           R1           0.53313
           R2           0.01109   0.42235
           R3          -0.00338   0.06359   0.40634
           R4          -0.00070  -0.00198   0.00383   0.54845
           A1           0.02522   0.03291   0.00022  -0.00082   0.11091
           A2          -0.01644   0.03551   0.06385   0.00870  -0.02612
           A3          -0.00168   0.00354   0.03329   0.02304   0.00082
           D1           0.00002   0.00007   0.00013   0.00000   0.00030
           D2          -0.00003  -0.00007   0.00040  -0.00012  -0.00015
                          A2        A3        D1        D2
           A2           0.26086
           A3           0.02517   0.11088
           D1           0.00000  -0.00004   0.02190
           D2          -0.00003   0.00021  -0.00173   0.02335
 ITU=  1  0
 Use linear search instead of GDIIS.
     Eigenvalues ---    0.02075   0.02449   0.09759   0.10717   0.24079
     Eigenvalues ---    0.35857   0.50122   0.53672   0.55086
 RFO step:  Lambda=-9.89236199D-06 EMin= 2.07515876D-02
 Quartic linear search produced a step of -0.00134.
 Iteration  1 RMS(Cart)=  0.00369885 RMS(Int)=  0.00000468
 Iteration  2 RMS(Cart)=  0.00000441 RMS(Int)=  0.00000000
 Iteration  3 RMS(Cart)=  0.00000000 RMS(Int)=  0.00000000
 Variable       Old X    -DE/DX   Delta X   Delta X   Delta X     New X
                                 (Linear)    (Quad)   (Total)
    R1        1.82700   0.00015  -0.00001   0.00032   0.00031   1.82731
    R2        2.53158   0.00162   0.00006   0.00341   0.00347   2.53505
    R3        2.56232   0.00058   0.00003   0.00037   0.00040   2.56272
    R4        1.81219   0.00004   0.00001   0.00006   0.00007   1.81226
    A1        1.98168   0.00003  -0.00003   0.00009   0.00006   1.98174
    A2        2.13421   0.00106  -0.00011   0.00374   0.00363   2.13784
    A3        1.98967   0.00000   0.00001  -0.00105  -0.00104   1.98863
    D1       -0.00213   0.00003   0.00000   0.00128   0.00128  -0.00085
    D2        3.13873   0.00004  -0.00002   0.00198   0.00196   3.14069
         Item               Value     Threshold  Converged?
 Maximum Force            0.001623     0.000015     NO 
 RMS     Force            0.000677     0.000010     NO 
 Maximum Displacement     0.005130     0.000060     NO 
 RMS     Displacement     0.003698     0.000040     NO 
 Predicted change in Energy=-4.947646D-06
 GradGradGradGradGradGradGradGradGradGradGradGradGradGradGradGradGradGrad

                          Input orientation:                          
 ---------------------------------------------------------------------
 Center     Atomic      Atomic             Coordinates (Angstroms)
 Number     Number       Type             X           Y           Z
 ---------------------------------------------------------------------
      1          8           0        8.681579    7.456364    5.557771
      2          1           0        9.526688    7.190867    5.945506
      3          5           0        7.684593    6.593005    5.803181
      4          8           0        7.863522    5.460322    6.527138
      5          1           0        7.068766    4.933114    6.627668
 ---------------------------------------------------------------------
                    Distance matrix (angstroms):
                    1          2          3          4          5
     1  O    0.000000
     2  H    0.966973   0.000000
     3  B    1.341491   1.941909   0.000000
     4  O    2.364969   2.469656   1.356134   0.000000
     5  H    3.180037   3.406489   1.953012   0.959005   0.000000
 Symmetry turned off by external request.
 Stoichiometry    BH2O2(2)
 Framework group  C1[X(BH2O2)]
 Deg. of freedom     9
 Full point group                 C1      NOp   1
 Rotational constants (GHZ):         105.1740861          10.1445097           9.2521034
 Standard basis: 6-311+G(d,p) (5D, 7F)
    78 basis functions,   124 primitive gaussians,    81 cartesian basis functions
    12 alpha electrons       11 beta electrons
       nuclear repulsion energy        60.4180499329 Hartrees.
 NAtoms=    5 NActive=    5 NUniq=    5 SFac= 1.00D+00 NAtFMM=   60 NAOKFM=F Big=F
 Integral buffers will be    131072 words long.
 Raffenetti 2 integral format.
 Two-electron integral symmetry is turned off.
 One-electron integrals computed using PRISM.
 NBasis=    78 RedAO= T EigKep=  9.42D-04  NBF=    78
 NBsUse=    78 1.00D-06 EigRej= -1.00D+00 NBFU=    78
 Initial guess from the checkpoint file:  "boh2-opt-freq.chk"
 B after Tr=     0.004281   -0.006432    0.001532
         Rot=    1.000000    0.000213    0.000157   -0.000030 Ang=   0.03 deg.
 Initial guess <Sx>= 0.0000 <Sy>= 0.0000 <Sz>= 0.5000 <S**2>= 0.7535 S= 0.5018
 Keep R1 and R2 ints in memory in canonical form, NReq=38505423.
 Requested convergence on RMS density matrix=1.00D-08 within 128 cycles.
 Requested convergence on MAX density matrix=1.00D-06.
 Requested convergence on             energy=1.00D-06.
 Level shift goal  0.100 maximum shift  0.100.
 No special actions if energy rises.
 Dynamic level shift is on during FON iterations.
 SCF Done:  E(UM062X) =  -176.522288108     A.U. after    9 cycles
            NFock=  9  Conv=0.98D-08     -V/T= 2.0028
 <Sx>= 0.0000 <Sy>= 0.0000 <Sz>= 0.5000 <S**2>= 0.7535 S= 0.5018
 <L.S>=  0.00000000000    
 Annihilation of the first spin contaminant:
 S**2 before annihilation     0.7535,   after     0.7500
 Calling FoFJK, ICntrl=      2127 FMM=F ISym2X=0 I1Cent= 0 IOpClX= 1 NMat=1 NMatS=1 NMatT=0.
 -------------------------------------------------------------------
 Center     Atomic                   Forces (Hartrees/Bohr)
 Number     Number              X              Y              Z
 -------------------------------------------------------------------
      1        8          -0.000081366   -0.000066982    0.000009458
      2        1          -0.000003288    0.000000894    0.000003240
      3        5           0.000117112    0.000118826   -0.000044926
      4        8          -0.000013507   -0.000050450    0.000033046
      5        1          -0.000018951   -0.000002287   -0.000000818
 -------------------------------------------------------------------
 Cartesian Forces:  Max     0.000118826 RMS     0.000054928

 GradGradGradGradGradGradGradGradGradGradGradGradGradGradGradGradGradGrad
 Berny optimization.
 Using GEDIIS/GDIIS optimizer.
 FormGI is forming the generalized inverse of G from B-inverse, IUseBI=4.
 Internal  Forces:  Max     0.000109611 RMS     0.000048641
 Search for a local minimum.
 Step number   3 out of a maximum of   20
 All quantities printed in internal units (Hartrees-Bohrs-Radians)
 Mixed Optimization -- En-DIIS/RFO-DIIS
 Swapping is turned off.
 Update second derivatives using D2CorX and points    1    2    3
 DE= -4.88D-06 DEPred=-4.95D-06 R= 9.87D-01
 TightC=F SS=  1.41D+00  RLast= 5.66D-03 DXNew= 5.0817D-01 1.6990D-02
 Trust test= 9.87D-01 RLast= 5.66D-03 DXMaxT set to 3.02D-01
 The second derivative matrix:
                          R1        R2        R3        R4        A1
           R1           0.53340
           R2           0.01403   0.45535
           R3          -0.00406   0.05779   0.39919
           R4          -0.00089  -0.00382   0.00301   0.54840
           A1           0.02514   0.03223  -0.00026  -0.00086   0.11088
           A2          -0.01662   0.03431   0.05211   0.00699  -0.02701
           A3          -0.00171   0.00323   0.03317   0.02303   0.00081
           D1           0.00005   0.00043  -0.00002  -0.00003   0.00029
           D2          -0.00002   0.00009   0.00000  -0.00019  -0.00018
                          A2        A3        D1        D2
           A2           0.24503
           A3           0.02493   0.11088
           D1          -0.00012  -0.00004   0.02190
           D2          -0.00053   0.00020  -0.00173   0.02333
 ITU=  1  1  0
     Eigenvalues ---    0.02075   0.02448   0.09676   0.10728   0.23393
     Eigenvalues ---    0.37078   0.50553   0.53846   0.55040
 En-DIIS/RFO-DIIS/Sim-DIIS IScMMF=       -3 using points:     3    2
 RFO step:  Lambda=-6.03753328D-08.
 DidBck=F Rises=F RFO-DIIS coefs:    1.01188   -0.01188
 Iteration  1 RMS(Cart)=  0.00028522 RMS(Int)=  0.00000005
 Iteration  2 RMS(Cart)=  0.00000004 RMS(Int)=  0.00000000
 Variable       Old X    -DE/DX   Delta X   Delta X   Delta X     New X
                                 (Linear)    (Quad)   (Total)
    R1        1.82731  -0.00001   0.00000  -0.00001  -0.00001   1.82730
    R2        2.53505  -0.00011   0.00004  -0.00034  -0.00030   2.53475
    R3        2.56272   0.00007   0.00000   0.00017   0.00018   2.56290
    R4        1.81226   0.00001   0.00000   0.00002   0.00002   1.81228
    A1        1.98174   0.00001   0.00000   0.00022   0.00022   1.98195
    A2        2.13784   0.00007   0.00004   0.00027   0.00031   2.13815
    A3        1.98863   0.00000  -0.00001  -0.00009  -0.00010   1.98853
    D1       -0.00085   0.00000   0.00002  -0.00004  -0.00002  -0.00088
    D2        3.14069   0.00000   0.00002   0.00005   0.00007   3.14076
         Item               Value     Threshold  Converged?
 Maximum Force            0.000110     0.000015     NO 
 RMS     Force            0.000049     0.000010     NO 
 Maximum Displacement     0.000455     0.000060     NO 
 RMS     Displacement     0.000285     0.000040     NO 
 Predicted change in Energy=-3.371044D-08
 GradGradGradGradGradGradGradGradGradGradGradGradGradGradGradGradGradGrad

                          Input orientation:                          
 ---------------------------------------------------------------------
 Center     Atomic      Atomic             Coordinates (Angstroms)
 Number     Number       Type             X           Y           Z
 ---------------------------------------------------------------------
      1          8           0        8.681535    7.456322    5.557771
      2          1           0        9.526783    7.191107    5.945385
      3          5           0        7.684772    6.592976    5.803265
      4          8           0        7.863476    5.460160    6.527248
      5          1           0        7.068582    4.933107    6.627597
 ---------------------------------------------------------------------
                    Distance matrix (angstroms):
                    1          2          3          4          5
     1  O    0.000000
     2  H    0.966968   0.000000
     3  B    1.341331   1.941897   0.000000
     4  O    2.365114   2.470088   1.356229   0.000000
     5  H    3.180056   3.406866   1.953043   0.959016   0.000000
 Symmetry turned off by external request.
 Stoichiometry    BH2O2(2)
 Framework group  C1[X(BH2O2)]
 Deg. of freedom     9
 Full point group                 C1      NOp   1
 Rotational constants (GHZ):         105.2164126          10.1432736           9.2514026
 Standard basis: 6-311+G(d,p) (5D, 7F)
    78 basis functions,   124 primitive gaussians,    81 cartesian basis functions
    12 alpha electrons       11 beta electrons
       nuclear repulsion energy        60.4175850316 Hartrees.
 NAtoms=    5 NActive=    5 NUniq=    5 SFac= 1.00D+00 NAtFMM=   60 NAOKFM=F Big=F
 Integral buffers will be    131072 words long.
 Raffenetti 2 integral format.
 Two-electron integral symmetry is turned off.
 One-electron integrals computed using PRISM.
 NBasis=    78 RedAO= T EigKep=  9.42D-04  NBF=    78
 NBsUse=    78 1.00D-06 EigRej= -1.00D+00 NBFU=    78
 Initial guess from the checkpoint file:  "boh2-opt-freq.chk"
 B after Tr=    -0.000030   -0.000292    0.000318
         Rot=    1.000000    0.000005   -0.000003   -0.000002 Ang=   0.00 deg.
 Initial guess <Sx>= 0.0000 <Sy>= 0.0000 <Sz>= 0.5000 <S**2>= 0.7535 S= 0.5018
 Keep R1 and R2 ints in memory in canonical form, NReq=38505423.
 Requested convergence on RMS density matrix=1.00D-08 within 128 cycles.
 Requested convergence on MAX density matrix=1.00D-06.
 Requested convergence on             energy=1.00D-06.
 Level shift goal  0.100 maximum shift  0.100.
 No special actions if energy rises.
 Dynamic level shift is on during FON iterations.
 SCF Done:  E(UM062X) =  -176.522288141     A.U. after    7 cycles
            NFock=  7  Conv=0.82D-08     -V/T= 2.0028
 <Sx>= 0.0000 <Sy>= 0.0000 <Sz>= 0.5000 <S**2>= 0.7535 S= 0.5018
 <L.S>=  0.00000000000    
 Annihilation of the first spin contaminant:
 S**2 before annihilation     0.7535,   after     0.7500
 Calling FoFJK, ICntrl=      2127 FMM=F ISym2X=0 I1Cent= 0 IOpClX= 1 NMat=1 NMatS=1 NMatT=0.
 -------------------------------------------------------------------
 Center     Atomic                   Forces (Hartrees/Bohr)
 Number     Number              X              Y              Z
 -------------------------------------------------------------------
      1        8           0.000010947   -0.000003920   -0.000001517
      2        1           0.000002880   -0.000004088    0.000007475
      3        5           0.000001797   -0.000008648   -0.000001776
      4        8          -0.000006866    0.000010067   -0.000001901
      5        1          -0.000008758    0.000006590   -0.000002280
 -------------------------------------------------------------------
 Cartesian Forces:  Max     0.000010947 RMS     0.000006202

 GradGradGradGradGradGradGradGradGradGradGradGradGradGradGradGradGradGrad
 Berny optimization.
 Using GEDIIS/GDIIS optimizer.
 FormGI is forming the generalized inverse of G from B-inverse, IUseBI=4.
 Internal  Forces:  Max     0.000008324 RMS     0.000002934
 Search for a local minimum.
 Step number   4 out of a maximum of   20
 All quantities printed in internal units (Hartrees-Bohrs-Radians)
 Mixed Optimization -- En-DIIS/RFO-DIIS
 Swapping is turned off.
 Update second derivatives using D2CorX and points    1    2    3    4
 DE= -3.25D-08 DEPred=-3.37D-08 R= 9.64D-01
 Trust test= 9.64D-01 RLast= 5.33D-04 DXMaxT set to 3.02D-01
 The second derivative matrix:
                          R1        R2        R3        R4        A1
           R1           0.53313
           R2           0.01247   0.45647
           R3          -0.00355   0.04706   0.41384
           R4          -0.00066  -0.00405   0.00433   0.54839
           A1           0.02528   0.03265  -0.00009  -0.00094   0.11082
           A2          -0.01543   0.03392   0.06007   0.00715  -0.02734
           A3          -0.00174   0.00233   0.03407   0.02315   0.00085
           D1           0.00003   0.00027   0.00006  -0.00001   0.00030
           D2           0.00000  -0.00010   0.00032  -0.00016  -0.00018
                          A2        A3        D1        D2
           A2           0.24489
           A3           0.02561   0.11092
           D1           0.00000  -0.00004   0.02190
           D2          -0.00040   0.00022  -0.00173   0.02334
 ITU=  0  1  1  0
     Eigenvalues ---    0.02075   0.02449   0.09640   0.10723   0.23082
     Eigenvalues ---    0.39211   0.50378   0.53755   0.55058
 En-DIIS/RFO-DIIS/Sim-DIIS IScMMF=       -3 using points:     4    3    2
 RFO step:  Lambda=-1.79723795D-10.
 DIIS inversion failure, remove point   3.
 RFO-DIIS uses    2 points instead of    3
 DidBck=F Rises=F RFO-DIIS coefs:    0.97616    0.02384    0.00000
 Iteration  1 RMS(Cart)=  0.00000661 RMS(Int)=  0.00000000
 Iteration  2 RMS(Cart)=  0.00000000 RMS(Int)=  0.00000000
 Variable       Old X    -DE/DX   Delta X   Delta X   Delta X     New X
                                 (Linear)    (Quad)   (Total)
    R1        1.82730   0.00000   0.00000   0.00000   0.00000   1.82730
    R2        2.53475   0.00000   0.00001   0.00000   0.00001   2.53476
    R3        2.56290  -0.00001   0.00000  -0.00002  -0.00002   2.56288
    R4        1.81228   0.00000   0.00000   0.00000   0.00000   1.81228
    A1        1.98195   0.00000  -0.00001   0.00001   0.00000   1.98195
    A2        2.13815   0.00000  -0.00001   0.00001   0.00000   2.13815
    A3        1.98853   0.00000   0.00000   0.00000   0.00000   1.98853
    D1       -0.00088   0.00000   0.00000  -0.00001  -0.00001  -0.00088
    D2        3.14076   0.00000   0.00000   0.00000  -0.00001   3.14076
         Item               Value     Threshold  Converged?
 Maximum Force            0.000008     0.000015     YES
 RMS     Force            0.000003     0.000010     YES
 Maximum Displacement     0.000011     0.000060     YES
 RMS     Displacement     0.000007     0.000040     YES
 Predicted change in Energy=-9.694017D-11
 Optimization completed.
    -- Stationary point found.
                           ----------------------------
                           !   Optimized Parameters   !
                           ! (Angstroms and Degrees)  !
 --------------------------                            --------------------------
 ! Name  Definition              Value          Derivative Info.                !
 --------------------------------------------------------------------------------
 ! R1    R(1,2)                  0.967          -DE/DX =    0.0                 !
 ! R2    R(1,3)                  1.3413         -DE/DX =    0.0                 !
 ! R3    R(3,4)                  1.3562         -DE/DX =    0.0                 !
 ! R4    R(4,5)                  0.959          -DE/DX =    0.0                 !
 ! A1    A(2,1,3)              113.5576         -DE/DX =    0.0                 !
 ! A2    A(1,3,4)              122.5071         -DE/DX =    0.0                 !
 ! A3    A(3,4,5)              113.9342         -DE/DX =    0.0                 !
 ! D1    D(2,1,3,4)             -0.0503         -DE/DX =    0.0                 !
 ! D2    D(1,3,4,5)            179.9525         -DE/DX =    0.0                 !
 --------------------------------------------------------------------------------
 GradGradGradGradGradGradGradGradGradGradGradGradGradGradGradGradGradGrad

                          Input orientation:                          
 ---------------------------------------------------------------------
 Center     Atomic      Atomic             Coordinates (Angstroms)
 Number     Number       Type             X           Y           Z
 ---------------------------------------------------------------------
      1          8           0        8.681535    7.456322    5.557771
      2          1           0        9.526783    7.191107    5.945385
      3          5           0        7.684772    6.592976    5.803265
      4          8           0        7.863476    5.460160    6.527248
      5          1           0        7.068582    4.933107    6.627597
 ---------------------------------------------------------------------
                    Distance matrix (angstroms):
                    1          2          3          4          5
     1  O    0.000000
     2  H    0.966968   0.000000
     3  B    1.341331   1.941897   0.000000
     4  O    2.365114   2.470088   1.356229   0.000000
     5  H    3.180056   3.406866   1.953043   0.959016   0.000000
 Symmetry turned off by external request.
 Stoichiometry    BH2O2(2)
 Framework group  C1[X(BH2O2)]
 Deg. of freedom     9
 Full point group                 C1      NOp   1
 Rotational constants (GHZ):         105.2164126          10.1432736           9.2514026

 **********************************************************************

            Population analysis using the SCF Density.

 **********************************************************************

 Alpha  occ. eigenvalues --  -19.65834 -19.64910  -7.11169  -1.18694  -1.15360
 Alpha  occ. eigenvalues --   -0.67498  -0.64451  -0.52385  -0.49229  -0.47530
 Alpha  occ. eigenvalues --   -0.42001  -0.25928
 Alpha virt. eigenvalues --    0.01169   0.02114   0.03287   0.05146   0.07613
 Alpha virt. eigenvalues --    0.13834   0.14872   0.18305   0.19499   0.21485
 Alpha virt. eigenvalues --    0.23079   0.24051   0.26021   0.27031   0.29798
 Alpha virt. eigenvalues --    0.34932   0.36477   0.41743   0.42377   0.52926
 Alpha virt. eigenvalues --    0.58709   0.64726   0.69653   0.89212   0.89642
 Alpha virt. eigenvalues --    0.95777   0.96909   1.02981   1.07196   1.10564
 Alpha virt. eigenvalues --    1.10860   1.17386   1.31118   1.39892   1.43931
 Alpha virt. eigenvalues --    1.44884   1.45767   1.50911   1.66792   1.72851
 Alpha virt. eigenvalues --    1.85327   1.96832   2.07106   2.11696   2.48742
 Alpha virt. eigenvalues --    2.53294   2.56167   3.04984   3.08829   3.18429
 Alpha virt. eigenvalues --    3.20157   3.24771   3.43662   3.50894   3.57671
 Alpha virt. eigenvalues --    3.84711   3.86306   5.04691   5.06076   5.21217
 Alpha virt. eigenvalues --    5.38144   5.58919   5.67027  14.64923  49.93562
 Alpha virt. eigenvalues --   49.96277
  Beta  occ. eigenvalues --  -19.65685 -19.64805  -7.10314  -1.18049  -1.14880
  Beta  occ. eigenvalues --   -0.66736  -0.63373  -0.50090  -0.48603  -0.47218
  Beta  occ. eigenvalues --   -0.42226
  Beta virt. eigenvalues --   -0.09534   0.01200   0.02145   0.02605   0.07713
  Beta virt. eigenvalues --    0.09866   0.12858   0.14944   0.16205   0.18785
  Beta virt. eigenvalues --    0.19797   0.22231   0.22573   0.24415   0.26504
  Beta virt. eigenvalues --    0.28257   0.30090   0.32981   0.37899   0.41493
  Beta virt. eigenvalues --    0.51837   0.57998   0.65430   0.68879   0.87067
  Beta virt. eigenvalues --    0.89469   0.94142   0.98890   1.01883   1.06814
  Beta virt. eigenvalues --    1.09671   1.10027   1.16299   1.31438   1.39266
  Beta virt. eigenvalues --    1.43746   1.44488   1.45911   1.50305   1.64738
  Beta virt. eigenvalues --    1.71936   1.84612   1.94852   2.06987   2.11483
  Beta virt. eigenvalues --    2.49552   2.53472   2.56405   3.05138   3.08915
  Beta virt. eigenvalues --    3.18593   3.20173   3.24995   3.43818   3.50604
  Beta virt. eigenvalues --    3.57760   3.84494   3.86335   5.04774   5.06089
  Beta virt. eigenvalues --    5.21436   5.38457   5.58922   5.67085  14.66281
  Beta virt. eigenvalues --   49.93497  49.96240
          Condensed to atoms (all electrons):
               1          2          3          4          5
     1  O    7.704919   0.269011   0.335460  -0.012294   0.006536
     2  H    0.269011   0.452017   0.006608  -0.006335   0.001794
     3  B    0.335460   0.006608   4.441982   0.189885  -0.003468
     4  O   -0.012294  -0.006335   0.189885   7.830975   0.283994
     5  H    0.006536   0.001794  -0.003468   0.283994   0.427725
          Atomic-Atomic Spin Densities.
               1          2          3          4          5
     1  O    0.117168  -0.032276  -0.173361   0.033701  -0.002342
     2  H   -0.032276   0.051955   0.026856  -0.003757   0.000307
     3  B   -0.173361   0.026856   1.476768  -0.251770  -0.005309
     4  O    0.033701  -0.003757  -0.251770   0.145278   0.013052
     5  H   -0.002342   0.000307  -0.005309   0.013052  -0.001371
 Mulliken charges and spin densities:
               1          2
     1  O   -0.303632  -0.057110
     2  H    0.276905   0.043085
     3  B    0.029533   1.073185
     4  O   -0.286225  -0.063496
     5  H    0.283419   0.004337
 Sum of Mulliken charges =   0.00000   1.00000
 Mulliken charges and spin densities with hydrogens summed into heavy atoms:
               1          2
     1  O   -0.026727  -0.014025
     3  B    0.029533   1.073185
     4  O   -0.002806  -0.059159
 Electronic spatial extent (au):  <R**2>=          11992.4246
 Charge=              0.0000 electrons
 Dipole moment (field-independent basis, Debye):
    X=              0.0165    Y=             -1.4508    Z=              0.8730  Tot=              1.6933
 Quadrupole moment (field-independent basis, Debye-Ang):
   XX=            -13.8032   YY=            -36.9554   ZZ=             -8.3892
   XY=             -8.4040   XZ=              6.3128   YZ=             -2.0848
 Traceless Quadrupole moment (field-independent basis, Debye-Ang):
   XX=              5.9127   YY=            -17.2395   ZZ=             11.3268
   XY=             -8.4040   XZ=              6.3128   YZ=             -2.0848
 Octapole moment (field-independent basis, Debye-Ang**2):
  XXX=           -331.1287  YYY=           -543.0186  ZZZ=           -243.4009  XYY=           -261.3930
  XXY=           -134.0629  XXZ=            -36.3218  XZZ=            -77.9071  YZZ=            -96.1052
  YYZ=           -169.2333  XYZ=              0.2708
 Hexadecapole moment (field-independent basis, Debye-Ang**3):
 XXXX=          -5302.8398 YYYY=          -6434.5894 ZZZZ=          -3315.1634 XXXY=          -2333.0843
 XXXZ=          -1613.5940 YYYX=          -4086.5754 YYYZ=          -2817.4934 ZZZX=          -2060.4943
 ZZZY=          -1786.4994 XXYY=          -2443.7812 XXZZ=          -1195.9747 YYZZ=          -1528.5461
 XXYZ=           -392.7482 YYXZ=          -1145.8573 ZZXY=           -699.3017
 N-N= 6.041758503157D+01 E-N=-5.369826178181D+02  KE= 1.760258217702D+02
                          Isotropic Fermi Contact Couplings
        Atom                 a.u.       MegaHertz       Gauss      10(-4) cm-1
     1  O(17)              0.22866    -138.61023     -49.45958     -46.23540
     2  H(1)               0.01466      65.54269      23.38726      21.86269
     3  B(11)              0.47545     681.96734     243.34291     227.47982
     4  O(17)              0.03953     -23.96283      -8.55053      -7.99314
     5  H(1)               0.00272      12.17447       4.34415       4.06096
 --------------------------------------------------------
       Center         ----  Spin Dipole Couplings  ----
                      3XX-RR        3YY-RR        3ZZ-RR
 --------------------------------------------------------
     1   Atom        0.087673     -0.016280     -0.071393
     2   Atom        0.011758     -0.004879     -0.006879
     3   Atom        0.245309     -0.158673     -0.086636
     4   Atom        0.131333     -0.037617     -0.093716
     5   Atom       -0.008107      0.019596     -0.011488
 --------------------------------------------------------
                        XY            XZ            YZ
 --------------------------------------------------------
     1   Atom        0.029831      0.035322     -0.047389
     2   Atom        0.006293      0.001312      0.000459
     3   Atom       -0.124963      0.182758     -0.031530
     4   Atom       -0.176416      0.210391     -0.178895
     5   Atom        0.015680     -0.005492     -0.020897
 --------------------------------------------------------


 ---------------------------------------------------------------------------------
              Anisotropic Spin Dipole Couplings in Principal Axis System
 ---------------------------------------------------------------------------------

       Atom             a.u.   MegaHertz   Gauss  10(-4) cm-1        Axes

              Baa    -0.1092     7.901     2.819     2.636 -0.2257  0.4991  0.8366
     1 O(17)  Bbb     0.0103    -0.744    -0.265    -0.248 -0.0852  0.8454 -0.5274
              Bcc     0.0989    -7.158    -2.554    -2.388  0.9705  0.1903  0.1483
 
              Baa    -0.0070    -3.736    -1.333    -1.246 -0.2413  0.8257 -0.5099
     2 H(1)   Bbb    -0.0070    -3.715    -1.325    -1.239 -0.2169  0.4663  0.8576
              Bcc     0.0140     7.450     2.658     2.485  0.9459  0.3176  0.0666
 
              Baa    -0.2027   -34.698   -12.381   -11.574  0.3918  0.8330 -0.3908
     3 B(11)  Bbb    -0.1549   -26.516    -9.462    -8.845 -0.2263  0.4989  0.8366
              Bcc     0.3575    61.214    21.843    20.419  0.8918 -0.2393  0.3839
 
              Baa    -0.2574    18.624     6.646     6.212 -0.2261  0.4994  0.8364
     4 O(17)  Bbb    -0.1386    10.026     3.578     3.344  0.6577  0.7116 -0.2471
              Bcc     0.3960   -28.651   -10.223    -9.557  0.7185 -0.4943  0.4893
 
              Baa    -0.0225   -11.996    -4.280    -4.001 -0.2250  0.4994  0.8367
     5 H(1)   Bbb    -0.0137    -7.335    -2.617    -2.447  0.9098 -0.1998  0.3639
              Bcc     0.0362    19.331     6.898     6.448  0.3489  0.8431 -0.4093
 

 ---------------------------------------------------------------------------------

 Unable to Open any file for archive entry.
 1\1\GINC-CN012\FOpt\UM062X\6-311+G(d,p)\B1H2O2(2)\TAHMINAAFROZ\05-May-
 2025\0\\# opt=(calcfc,tight) freq 6-311+g(d,p) nosymm scf=(qc,fermi,xq
 c) geom=connectivity int=ultrafine m062x\\boh2-opt-freq\\0,2\O,8.68153
 50137,7.4563217245,5.5577709551\H,9.5267830892,7.1911074597,5.94538460
 87\B,7.6847719932,6.5929756677,5.8032648341\O,7.863476211,5.4601602264
 ,6.5272475209\H,7.0685816929,4.9331069217,6.6275970812\\Version=AS64L-
 G16RevC.01\HF=-176.5222881\S2=0.753524\S2-1=0.\S2A=0.750008\RMSD=8.206
 e-09\RMSF=6.202e-06\Dipole=0.0064859,-0.5708022,0.343483\Quadrupole=4.
 395958,-12.8171388,8.4211807,-6.2481902,4.6933946,-1.5499978\PG=C01 [X
 (B1H2O2)]\\@
 The archive entry for this job was punched.


 Once you get people laughing, they're
 listening and you can tell them almost anything.
                                 -- Herb Gardner
 Job cpu time:       0 days  0 hours  4 minutes 14.6 seconds.
 Elapsed time:       0 days  0 hours  0 minutes  9.5 seconds.
 File lengths (MBytes):  RWF=     10 Int=      0 D2E=      0 Chk=      3 Scr=      1
 Normal termination of Gaussian 16 at Mon May  5 08:12:48 2025.
 Link1:  Proceeding to internal job step number  2.
 ----------------------------------------------------------------------
 #N Geom=AllCheck Guess=TCheck SCRF=Check GenChk UM062X/6-311+G(d,p) Fr
 eq
 ----------------------------------------------------------------------
 1/7=10,10=4,29=7,30=1,38=1,40=1/1,3;
 2/12=2,15=1,40=1/2;
 3/5=4,6=6,7=111,11=2,14=-4,25=1,30=1,70=2,71=2,74=-55,75=-5,116=2,140=1/1,2,3;
 4/5=101/1;
 5/5=2,22=13,38=6,98=1/2;
 8/6=4,10=90,11=11/1;
 11/6=1,8=1,9=11,15=111,16=1,31=1/1,2,10;
 10/6=1,31=1/2;
 6/7=2,8=2,9=2,10=2,28=1/1;
 7/8=1,10=1,25=1,30=1/1,2,3,16;
 1/7=10,10=4,30=1/3;
 99//99;
 Structure from the checkpoint file:  "boh2-opt-freq.chk"
 -------------
 boh2-opt-freq
 -------------
 Charge =  0 Multiplicity = 2
 Redundant internal coordinates found in file.  (old form).
 O,0,8.6815350137,7.4563217245,5.5577709551
 H,0,9.5267830892,7.1911074597,5.9453846087
 B,0,7.6847719932,6.5929756677,5.8032648341
 O,0,7.863476211,5.4601602264,6.5272475209
 H,0,7.0685816929,4.9331069217,6.6275970812
 Recover connectivity data from disk.

 GradGradGradGradGradGradGradGradGradGradGradGradGradGradGradGradGradGrad
 Berny optimization.
 Initialization pass.
                           ----------------------------
                           !    Initial Parameters    !
                           ! (Angstroms and Degrees)  !
 --------------------------                            --------------------------
 ! Name  Definition              Value          Derivative Info.                !
 --------------------------------------------------------------------------------
 ! R1    R(1,2)                  0.967          calculate D2E/DX2 analytically  !
 ! R2    R(1,3)                  1.3413         calculate D2E/DX2 analytically  !
 ! R3    R(3,4)                  1.3562         calculate D2E/DX2 analytically  !
 ! R4    R(4,5)                  0.959          calculate D2E/DX2 analytically  !
 ! A1    A(2,1,3)              113.5576         calculate D2E/DX2 analytically  !
 ! A2    A(1,3,4)              122.5071         calculate D2E/DX2 analytically  !
 ! A3    A(3,4,5)              113.9342         calculate D2E/DX2 analytically  !
 ! D1    D(2,1,3,4)             -0.0503         calculate D2E/DX2 analytically  !
 ! D2    D(1,3,4,5)            179.9525         calculate D2E/DX2 analytically  !
 --------------------------------------------------------------------------------
 Trust Radius=3.00D-01 FncErr=1.00D-07 GrdErr=1.00D-07 EigMax=2.50D+02 EigMin=1.00D-04
 Number of steps in this run=      2 maximum allowed number of steps=      2.
 GradGradGradGradGradGradGradGradGradGradGradGradGradGradGradGradGradGrad

                          Input orientation:                          
 ---------------------------------------------------------------------
 Center     Atomic      Atomic             Coordinates (Angstroms)
 Number     Number       Type             X           Y           Z
 ---------------------------------------------------------------------
      1          8           0        8.681535    7.456322    5.557771
      2          1           0        9.526783    7.191107    5.945385
      3          5           0        7.684772    6.592976    5.803265
      4          8           0        7.863476    5.460160    6.527248
      5          1           0        7.068582    4.933107    6.627597
 ---------------------------------------------------------------------
                    Distance matrix (angstroms):
                    1          2          3          4          5
     1  O    0.000000
     2  H    0.966968   0.000000
     3  B    1.341331   1.941897   0.000000
     4  O    2.365114   2.470088   1.356229   0.000000
     5  H    3.180056   3.406866   1.953043   0.959016   0.000000
 Symmetry turned off by external request.
 Stoichiometry    BH2O2(2)
 Framework group  C1[X(BH2O2)]
 Deg. of freedom     9
 Full point group                 C1      NOp   1
 Rotational constants (GHZ):         105.2164126          10.1432736           9.2514026
 Standard basis: 6-311+G(d,p) (5D, 7F)
    78 basis functions,   124 primitive gaussians,    81 cartesian basis functions
    12 alpha electrons       11 beta electrons
       nuclear repulsion energy        60.4175850316 Hartrees.
 NAtoms=    5 NActive=    5 NUniq=    5 SFac= 1.00D+00 NAtFMM=   60 NAOKFM=F Big=F
 Integral buffers will be    131072 words long.
 Raffenetti 2 integral format.
 Two-electron integral symmetry is turned off.
 One-electron integrals computed using PRISM.
 NBasis=    78 RedAO= T EigKep=  9.42D-04  NBF=    78
 NBsUse=    78 1.00D-06 EigRej= -1.00D+00 NBFU=    78
 Initial guess from the checkpoint file:  "boh2-opt-freq.chk"
 B after Tr=     0.000000    0.000000    0.000000
         Rot=    1.000000    0.000000    0.000000    0.000000 Ang=   0.00 deg.
 Initial guess <Sx>= 0.0000 <Sy>= 0.0000 <Sz>= 0.5000 <S**2>= 0.7535 S= 0.5018
 Keep R1 and R2 ints in memory in canonical form, NReq=38505423.
 Requested convergence on RMS density matrix=1.00D-08 within 128 cycles.
 Requested convergence on MAX density matrix=1.00D-06.
 Requested convergence on             energy=1.00D-06.
 Level shift goal  0.100 maximum shift  0.100.
 No special actions if energy rises.
 Dynamic level shift is on during FON iterations.
 SCF Done:  E(UM062X) =  -176.522288141     A.U. after    1 cycles
            NFock=  1  Conv=0.21D-08     -V/T= 2.0028
 <Sx>= 0.0000 <Sy>= 0.0000 <Sz>= 0.5000 <S**2>= 0.7535 S= 0.5018
 <L.S>=  0.00000000000    
 Annihilation of the first spin contaminant:
 S**2 before annihilation     0.7535,   after     0.7500
 DoSCS=F DFT=T ScalE2(SS,OS)=  1.000000  1.000000
 Range of M.O.s used for correlation:     1    78
 NBasis=    78 NAE=    12 NBE=    11 NFC=     0 NFV=     0
 NROrb=     78 NOA=    12 NOB=    11 NVA=    66 NVB=    67

 **** Warning!!: The largest alpha MO coefficient is  0.12536461D+02


 **** Warning!!: The largest beta MO coefficient is  0.12499369D+02

 Symmetrizing basis deriv contribution to polar:
 IMax=3 JMax=2 DiffMx= 0.00D+00
 G2DrvN: will do     6 centers at a time, making    1 passes.
 Calling FoFCou, ICntrl=  3107 FMM=F I1Cent=   0 AccDes= 0.00D+00.
 End of G2Drv F.D. properties file   721 does not exist.
 End of G2Drv F.D. properties file   722 does not exist.
 End of G2Drv F.D. properties file   788 does not exist.
          IDoAtm=11111
          Differentiating once with respect to electric field.
                with respect to dipole field.
          Differentiating once with respect to nuclear coordinates.
 Keep R1 and R2 ints in memory in canonical form, NReq=38397970.
          There are    18 degrees of freedom in the 1st order CPHF.  IDoFFX=6 NUNeed=     3.
     15 vectors produced by pass  0 Test12= 8.49D-15 5.56D-09 XBig12= 2.51D+01 2.67D+00.
 AX will form    15 AO Fock derivatives at one time.
     15 vectors produced by pass  1 Test12= 8.49D-15 5.56D-09 XBig12= 2.54D+00 7.32D-01.
     15 vectors produced by pass  2 Test12= 8.49D-15 5.56D-09 XBig12= 9.22D-02 7.31D-02.
     15 vectors produced by pass  3 Test12= 8.49D-15 5.56D-09 XBig12= 2.57D-03 9.05D-03.
     15 vectors produced by pass  4 Test12= 8.49D-15 5.56D-09 XBig12= 7.11D-05 2.08D-03.
     15 vectors produced by pass  5 Test12= 8.49D-15 5.56D-09 XBig12= 1.11D-06 1.84D-04.
     15 vectors produced by pass  6 Test12= 8.49D-15 5.56D-09 XBig12= 9.62D-09 1.40D-05.
     11 vectors produced by pass  7 Test12= 8.49D-15 5.56D-09 XBig12= 7.88D-11 1.47D-06.
      3 vectors produced by pass  8 Test12= 8.49D-15 5.56D-09 XBig12= 5.25D-13 1.13D-07.
      1 vectors produced by pass  9 Test12= 8.49D-15 5.56D-09 XBig12= 3.34D-15 1.22D-08.
 InvSVY:  IOpt=1 It=  1 EMax= 1.11D-15
 Solved reduced A of dimension   120 with    15 vectors.
 Isotropic polarizability for W=    0.000000       25.08 Bohr**3.
 End of Minotr F.D. properties file   721 does not exist.
 End of Minotr F.D. properties file   722 does not exist.
 End of Minotr F.D. properties file   788 does not exist.

 **********************************************************************

            Population analysis using the SCF Density.

 **********************************************************************

 Alpha  occ. eigenvalues --  -19.65834 -19.64910  -7.11169  -1.18694  -1.15360
 Alpha  occ. eigenvalues --   -0.67498  -0.64451  -0.52385  -0.49229  -0.47530
 Alpha  occ. eigenvalues --   -0.42001  -0.25928
 Alpha virt. eigenvalues --    0.01169   0.02114   0.03287   0.05146   0.07613
 Alpha virt. eigenvalues --    0.13834   0.14872   0.18305   0.19499   0.21485
 Alpha virt. eigenvalues --    0.23079   0.24051   0.26021   0.27031   0.29798
 Alpha virt. eigenvalues --    0.34932   0.36477   0.41743   0.42377   0.52926
 Alpha virt. eigenvalues --    0.58709   0.64726   0.69653   0.89212   0.89642
 Alpha virt. eigenvalues --    0.95777   0.96909   1.02981   1.07196   1.10564
 Alpha virt. eigenvalues --    1.10860   1.17386   1.31118   1.39892   1.43931
 Alpha virt. eigenvalues --    1.44884   1.45767   1.50911   1.66792   1.72851
 Alpha virt. eigenvalues --    1.85328   1.96832   2.07106   2.11696   2.48742
 Alpha virt. eigenvalues --    2.53294   2.56167   3.04984   3.08829   3.18429
 Alpha virt. eigenvalues --    3.20157   3.24771   3.43662   3.50894   3.57671
 Alpha virt. eigenvalues --    3.84711   3.86306   5.04691   5.06076   5.21217
 Alpha virt. eigenvalues --    5.38144   5.58919   5.67027  14.64923  49.93562
 Alpha virt. eigenvalues --   49.96277
  Beta  occ. eigenvalues --  -19.65685 -19.64805  -7.10314  -1.18049  -1.14880
  Beta  occ. eigenvalues --   -0.66736  -0.63373  -0.50090  -0.48603  -0.47218
  Beta  occ. eigenvalues --   -0.42226
  Beta virt. eigenvalues --   -0.09534   0.01200   0.02145   0.02605   0.07713
  Beta virt. eigenvalues --    0.09866   0.12858   0.14944   0.16205   0.18785
  Beta virt. eigenvalues --    0.19797   0.22231   0.22573   0.24415   0.26504
  Beta virt. eigenvalues --    0.28257   0.30090   0.32981   0.37899   0.41493
  Beta virt. eigenvalues --    0.51837   0.57998   0.65430   0.68879   0.87067
  Beta virt. eigenvalues --    0.89469   0.94142   0.98890   1.01883   1.06814
  Beta virt. eigenvalues --    1.09671   1.10027   1.16299   1.31438   1.39266
  Beta virt. eigenvalues --    1.43746   1.44488   1.45911   1.50305   1.64738
  Beta virt. eigenvalues --    1.71936   1.84612   1.94852   2.06987   2.11483
  Beta virt. eigenvalues --    2.49552   2.53472   2.56405   3.05138   3.08915
  Beta virt. eigenvalues --    3.18593   3.20173   3.24995   3.43818   3.50604
  Beta virt. eigenvalues --    3.57760   3.84494   3.86335   5.04774   5.06089
  Beta virt. eigenvalues --    5.21436   5.38457   5.58922   5.67085  14.66281
  Beta virt. eigenvalues --   49.93497  49.96240
          Condensed to atoms (all electrons):
               1          2          3          4          5
     1  O    7.704919   0.269011   0.335460  -0.012294   0.006536
     2  H    0.269011   0.452017   0.006608  -0.006335   0.001794
     3  B    0.335460   0.006608   4.441982   0.189885  -0.003468
     4  O   -0.012294  -0.006335   0.189885   7.830976   0.283994
     5  H    0.006536   0.001794  -0.003468   0.283994   0.427725
          Atomic-Atomic Spin Densities.
               1          2          3          4          5
     1  O    0.117168  -0.032276  -0.173361   0.033701  -0.002342
     2  H   -0.032276   0.051955   0.026856  -0.003757   0.000307
     3  B   -0.173361   0.026856   1.476768  -0.251770  -0.005309
     4  O    0.033701  -0.003757  -0.251770   0.145278   0.013052
     5  H   -0.002342   0.000307  -0.005309   0.013052  -0.001371
 Mulliken charges and spin densities:
               1          2
     1  O   -0.303632  -0.057110
     2  H    0.276905   0.043085
     3  B    0.029533   1.073185
     4  O   -0.286225  -0.063496
     5  H    0.283419   0.004337
 Sum of Mulliken charges =   0.00000   1.00000
 Mulliken charges and spin densities with hydrogens summed into heavy atoms:
               1          2
     1  O   -0.026727  -0.014025
     3  B    0.029533   1.073185
     4  O   -0.002806  -0.059159
 APT charges:
               1
     1  O   -0.729158
     2  H    0.291588
     3  B    0.863645
     4  O   -0.767303
     5  H    0.341227
 Sum of APT charges =   0.00000
 APT charges with hydrogens summed into heavy atoms:
               1
     1  O   -0.437569
     3  B    0.863645
     4  O   -0.426076
 Electronic spatial extent (au):  <R**2>=          11992.4246
 Charge=              0.0000 electrons
 Dipole moment (field-independent basis, Debye):
    X=              0.0165    Y=             -1.4508    Z=              0.8730  Tot=              1.6933
 Quadrupole moment (field-independent basis, Debye-Ang):
   XX=            -13.8032   YY=            -36.9554   ZZ=             -8.3892
   XY=             -8.4040   XZ=              6.3128   YZ=             -2.0848
 Traceless Quadrupole moment (field-independent basis, Debye-Ang):
   XX=              5.9127   YY=            -17.2395   ZZ=             11.3268
   XY=             -8.4040   XZ=              6.3128   YZ=             -2.0848
 Octapole moment (field-independent basis, Debye-Ang**2):
  XXX=           -331.1288  YYY=           -543.0186  ZZZ=           -243.4009  XYY=           -261.3930
  XXY=           -134.0629  XXZ=            -36.3219  XZZ=            -77.9071  YZZ=            -96.1053
  YYZ=           -169.2333  XYZ=              0.2708
 Hexadecapole moment (field-independent basis, Debye-Ang**3):
 XXXX=          -5302.8413 YYYY=          -6434.5893 ZZZZ=          -3315.1638 XXXY=          -2333.0851
 XXXZ=          -1613.5950 YYYX=          -4086.5755 YYYZ=          -2817.4933 ZZZX=          -2060.4948
 ZZZY=          -1786.4995 XXYY=          -2443.7815 XXZZ=          -1195.9753 YYZZ=          -1528.5462
 XXYZ=           -392.7487 YYXZ=          -1145.8574 ZZXY=           -699.3019
 N-N= 6.041758503157D+01 E-N=-5.369826183876D+02  KE= 1.760258221172D+02
  Exact polarizability:      27.109       2.825      25.913      -0.040      -2.241      22.226
 Approx polarizability:      26.795       2.396      25.709       0.189      -2.275      22.220
                          Isotropic Fermi Contact Couplings
        Atom                 a.u.       MegaHertz       Gauss      10(-4) cm-1
     1  O(17)              0.22866    -138.61025     -49.45958     -46.23540
     2  H(1)               0.01466      65.54277      23.38729      21.86272
     3  B(11)              0.47545     681.96729     243.34289     227.47980
     4  O(17)              0.03953     -23.96292      -8.55056      -7.99317
     5  H(1)               0.00272      12.17442       4.34414       4.06095
 --------------------------------------------------------
       Center         ----  Spin Dipole Couplings  ----
                      3XX-RR        3YY-RR        3ZZ-RR
 --------------------------------------------------------
     1   Atom        0.087673     -0.016280     -0.071393
     2   Atom        0.011758     -0.004879     -0.006879
     3   Atom        0.245309     -0.158673     -0.086636
     4   Atom        0.131333     -0.037617     -0.093715
     5   Atom       -0.008107      0.019596     -0.011488
 --------------------------------------------------------
                        XY            XZ            YZ
 --------------------------------------------------------
     1   Atom        0.029831      0.035322     -0.047389
     2   Atom        0.006293      0.001312      0.000459
     3   Atom       -0.124963      0.182758     -0.031530
     4   Atom       -0.176416      0.210391     -0.178894
     5   Atom        0.015680     -0.005492     -0.020897
 --------------------------------------------------------


 ---------------------------------------------------------------------------------
              Anisotropic Spin Dipole Couplings in Principal Axis System
 ---------------------------------------------------------------------------------

       Atom             a.u.   MegaHertz   Gauss  10(-4) cm-1        Axes

              Baa    -0.1092     7.901     2.819     2.636 -0.2257  0.4991  0.8366
     1 O(17)  Bbb     0.0103    -0.744    -0.265    -0.248 -0.0852  0.8454 -0.5274
              Bcc     0.0989    -7.158    -2.554    -2.388  0.9705  0.1903  0.1483
 
              Baa    -0.0070    -3.736    -1.333    -1.246 -0.2413  0.8257 -0.5100
     2 H(1)   Bbb    -0.0070    -3.714    -1.325    -1.239 -0.2169  0.4663  0.8576
              Bcc     0.0140     7.450     2.658     2.485  0.9459  0.3176  0.0666
 
              Baa    -0.2027   -34.698   -12.381   -11.574  0.3918  0.8330 -0.3908
     3 B(11)  Bbb    -0.1549   -26.516    -9.462    -8.845 -0.2263  0.4989  0.8366
              Bcc     0.3575    61.214    21.843    20.419  0.8918 -0.2393  0.3839
 
              Baa    -0.2574    18.624     6.646     6.212 -0.2261  0.4994  0.8364
     4 O(17)  Bbb    -0.1386    10.026     3.578     3.344  0.6577  0.7116 -0.2471
              Bcc     0.3960   -28.651   -10.223    -9.557  0.7185 -0.4943  0.4893
 
              Baa    -0.0225   -11.996    -4.280    -4.001 -0.2250  0.4994  0.8367
     5 H(1)   Bbb    -0.0137    -7.335    -2.617    -2.447  0.9098 -0.1998  0.3639
              Bcc     0.0362    19.331     6.898     6.448  0.3489  0.8431 -0.4093
 

 ---------------------------------------------------------------------------------

 Calling FoFJK, ICntrl=    100127 FMM=F ISym2X=0 I1Cent= 0 IOpClX= 1 NMat=1 NMatS=1 NMatT=0.
 Full mass-weighted force constant matrix:
 Low frequencies ---  -35.2529   -0.0012   -0.0005    0.0013    8.4573   19.4902
 Low frequencies ---  456.2582  463.0010  566.6661
 Diagonal vibrational polarizability:
        7.4462310      19.0302755      26.1490876
 Harmonic frequencies (cm**-1), IR intensities (KM/Mole), Raman scattering
 activities (A**4/AMU), depolarization ratios for plane and unpolarized
 incident light, reduced masses (AMU), force constants (mDyne/A),
 and normal coordinates:
                      1                      2                      3
                      A                      A                      A
 Frequencies --    456.2575               462.9241               566.6508
 Red. masses --      2.9641                 1.1049                 1.4353
 Frc consts  --      0.3635                 0.1395                 0.2715
 IR Inten    --     47.1357               251.1869                17.4444
  Atom  AN      X      Y      Z        X      Y      Z        X      Y      Z
     1   8    -0.01   0.16  -0.10     0.00   0.00  -0.03     0.03  -0.06  -0.09
     2   1     0.27   0.60  -0.40    -0.11   0.33   0.46    -0.17   0.38   0.64
     3   5     0.23  -0.07   0.10     0.01   0.00   0.02    -0.04   0.08   0.13
     4   8    -0.14  -0.16   0.07     0.01  -0.05  -0.06     0.00   0.00   0.00
     5   1    -0.37   0.10  -0.33    -0.21   0.41   0.67     0.14  -0.31  -0.52
                      4                      5                      6
                      A                      A                      A
 Frequencies --    965.8084               987.9994              1218.1180
 Red. masses --      1.1797                 1.7173                 3.8686
 Frc consts  --      0.6483                 0.9877                 3.3821
 IR Inten    --     94.2387                83.1610               186.9934
  Atom  AN      X      Y      Z        X      Y      Z        X      Y      Z
     1   8    -0.06  -0.04   0.01    -0.05  -0.15   0.08    -0.13  -0.03  -0.02
     2   1    -0.16  -0.24   0.10     0.41   0.80  -0.36    -0.38  -0.56   0.23
     3   5     0.04   0.00   0.01     0.02  -0.03   0.02     0.34  -0.14   0.18
     4   8     0.07   0.02   0.01     0.01   0.11  -0.06    -0.10   0.18  -0.13
     5   1    -0.45   0.66  -0.51     0.01   0.11  -0.06     0.30  -0.29   0.25
                      7                      8                      9
                      A                      A                      A
 Frequencies --   1450.5588              3803.9332              3944.3698
 Red. masses --      9.2049                 1.0639                 1.0665
 Frc consts  --     11.4114                 9.0702                 9.7761
 IR Inten    --    375.1761                32.4700               153.1277
  Atom  AN      X      Y      Z        X      Y      Z        X      Y      Z
     1   8    -0.25  -0.20   0.05    -0.05   0.02  -0.02     0.00   0.00   0.00
     2   1    -0.16  -0.04  -0.02     0.88  -0.25   0.39     0.01   0.00   0.00
     3   5     0.37   0.61  -0.27     0.00   0.00   0.00     0.00   0.00   0.00
     4   8    -0.01  -0.19   0.11     0.00   0.00   0.00    -0.05  -0.04   0.01
     5   1     0.14  -0.38   0.26    -0.01   0.00   0.00     0.82   0.56  -0.12

 -------------------
 - Thermochemistry -
 -------------------
 Temperature   298.150 Kelvin.  Pressure   1.00000 Atm.
 Atom     1 has atomic number  8 and mass  15.99491
 Atom     2 has atomic number  1 and mass   1.00783
 Atom     3 has atomic number  5 and mass  11.00931
 Atom     4 has atomic number  8 and mass  15.99491
 Atom     5 has atomic number  1 and mass   1.00783
 Molecular mass:    45.01478 amu.
 Principal axes and moments of inertia in atomic units:
                           1         2         3
     Eigenvalues --    17.15266 177.92493 195.07758
           X            0.38659   0.89407  -0.22626
           Y            0.83427  -0.23445   0.49902
           Z           -0.39311   0.38168   0.83653
 This molecule is an asymmetric top.
 Rotational symmetry number  1.
 Rotational temperatures (Kelvin)      5.04959     0.48680     0.44400
 Rotational constants (GHZ):         105.21641    10.14327     9.25140
 Zero-point vibrational energy      82881.0 (Joules/Mol)
                                   19.80903 (Kcal/Mol)
 Warning -- explicit consideration of   3 degrees of freedom as
           vibrations may cause significant error
 Vibrational temperatures:    656.45   666.04   815.28  1389.58  1421.51
          (Kelvin)           1752.60  2087.03  5473.01  5675.07
 
 Zero-point correction=                           0.031568 (Hartree/Particle)
 Thermal correction to Energy=                    0.035193
 Thermal correction to Enthalpy=                  0.036137
 Thermal correction to Gibbs Free Energy=         0.006663
 Sum of electronic and zero-point Energies=           -176.490720
 Sum of electronic and thermal Energies=              -176.487095
 Sum of electronic and thermal Enthalpies=            -176.486151
 Sum of electronic and thermal Free Energies=         -176.515625
 
                     E (Thermal)             CV                S
                      KCal/Mol        Cal/Mol-Kelvin    Cal/Mol-Kelvin
 Total                   22.084             10.833             62.035
 Electronic               0.000              0.000              1.377
 Translational            0.889              2.981             37.339
 Rotational               0.889              2.981             21.015
 Vibrational             20.307              4.872              2.304
 Vibration     1          0.814              1.347              0.777
 Vibration     2          0.821              1.332              0.758
 Vibration     3          0.923              1.103              0.511
                       Q            Log10(Q)             Ln(Q)
 Total Bot       0.861666D-03         -3.064661         -7.056642
 Total V=0       0.285405D+12         11.455462         26.377176
 Vib (Bot)       0.415517D-14        -14.381411        -33.114422
 Vib (Bot)    1  0.373941D+00         -0.427197         -0.983658
 Vib (Bot)    2  0.366531D+00         -0.435890         -1.003673
 Vib (Bot)    3  0.272503D+00         -0.564629         -1.300106
 Vib (V=0)       0.137630D+01          0.138712          0.319396
 Vib (V=0)    1  0.112436D+01          0.050907          0.117218
 Vib (V=0)    2  0.111996D+01          0.049201          0.113289
 Vib (V=0)    3  0.106944D+01          0.029155          0.067132
 Electronic      0.200000D+01          0.301030          0.693147
 Translational   0.118710D+08          7.074487         16.289607
 Rotational      0.873441D+04          3.941233          9.075025
 -------------------------------------------------------------------
 Center     Atomic                   Forces (Hartrees/Bohr)
 Number     Number              X              Y              Z
 -------------------------------------------------------------------
      1        8           0.000010936   -0.000003929   -0.000001515
      2        1           0.000002892   -0.000004092    0.000007480
      3        5           0.000001793   -0.000008627   -0.000001790
      4        8          -0.000006856    0.000010065   -0.000001898
      5        1          -0.000008764    0.000006584   -0.000002278
 -------------------------------------------------------------------
 Cartesian Forces:  Max     0.000010936 RMS     0.000006199
 FormGI is forming the generalized inverse of G from B-inverse, IUseBI=4.

 GradGradGradGradGradGradGradGradGradGradGradGradGradGradGradGradGradGrad
 Berny optimization.
 Internal  Forces:  Max     0.000008312 RMS     0.000002930
 Search for a local minimum.
 Step number   1 out of a maximum of    2
 All quantities printed in internal units (Hartrees-Bohrs-Radians)
 Second derivative matrix not updated -- analytic derivatives used.
 The second derivative matrix:
                          R1        R2        R3        R4        A1
           R1           0.52083
           R2           0.01410   0.45595
           R3          -0.00240   0.05067   0.43041
           R4          -0.00085  -0.00410   0.00267   0.55878
           A1           0.02651   0.03175  -0.00093  -0.00055   0.10912
           A2          -0.01585   0.03187   0.05528   0.00717  -0.02686
           A3          -0.00207   0.00266   0.03588   0.02338   0.00036
           D1          -0.00004   0.00011   0.00010  -0.00008  -0.00002
           D2           0.00001  -0.00010   0.00008  -0.00019  -0.00001
                          A2        A3        D1        D2
           A2           0.24512
           A3           0.02485   0.11018
           D1           0.00005   0.00007   0.02158
           D2          -0.00012   0.00027  -0.00130   0.02254
 ITU=  0
     Eigenvalues ---    0.02067   0.02345   0.09594   0.10567   0.23441
     Eigenvalues ---    0.39663   0.50941   0.52769   0.56063
 Angle between quadratic step and forces=  22.61 degrees.
 Linear search not attempted -- first point.
 Iteration  1 RMS(Cart)=  0.00000660 RMS(Int)=  0.00000000
 Iteration  2 RMS(Cart)=  0.00000000 RMS(Int)=  0.00000000
 Variable       Old X    -DE/DX   Delta X   Delta X   Delta X     New X
                                 (Linear)    (Quad)   (Total)
    R1        1.82730   0.00000   0.00000   0.00000   0.00000   1.82730
    R2        2.53475   0.00000   0.00000   0.00001   0.00001   2.53476
    R3        2.56290  -0.00001   0.00000  -0.00002  -0.00002   2.56288
    R4        1.81228   0.00000   0.00000   0.00000   0.00000   1.81228
    A1        1.98195   0.00000   0.00000   0.00000   0.00000   1.98195
    A2        2.13815   0.00000   0.00000   0.00000   0.00000   2.13815
    A3        1.98853   0.00000   0.00000   0.00000   0.00000   1.98853
    D1       -0.00088   0.00000   0.00000  -0.00001  -0.00001  -0.00088
    D2        3.14076   0.00000   0.00000  -0.00001  -0.00001   3.14076
         Item               Value     Threshold  Converged?
 Maximum Force            0.000008     0.000015     YES
 RMS     Force            0.000003     0.000010     YES
 Maximum Displacement     0.000011     0.000060     YES
 RMS     Displacement     0.000007     0.000040     YES
 Predicted change in Energy=-9.399002D-11
 Optimization completed.
    -- Stationary point found.
                           ----------------------------
                           !   Optimized Parameters   !
                           ! (Angstroms and Degrees)  !
 --------------------------                            --------------------------
 ! Name  Definition              Value          Derivative Info.                !
 --------------------------------------------------------------------------------
 ! R1    R(1,2)                  0.967          -DE/DX =    0.0                 !
 ! R2    R(1,3)                  1.3413         -DE/DX =    0.0                 !
 ! R3    R(3,4)                  1.3562         -DE/DX =    0.0                 !
 ! R4    R(4,5)                  0.959          -DE/DX =    0.0                 !
 ! A1    A(2,1,3)              113.5576         -DE/DX =    0.0                 !
 ! A2    A(1,3,4)              122.5071         -DE/DX =    0.0                 !
 ! A3    A(3,4,5)              113.9342         -DE/DX =    0.0                 !
 ! D1    D(2,1,3,4)             -0.0503         -DE/DX =    0.0                 !
 ! D2    D(1,3,4,5)            179.9525         -DE/DX =    0.0                 !
 --------------------------------------------------------------------------------
 GradGradGradGradGradGradGradGradGradGradGradGradGradGradGradGradGradGrad


 ----------------------------------------------------------------------

 Electric dipole moment (input orientation):
 (Debye = 10**-18 statcoulomb cm , SI units = C m)
                  (au)            (Debye)         (10**-30 SI)
   Tot        0.666211D+00      0.169334D+01      0.564838D+01
   x          0.648565D-02      0.164849D-01      0.549876D-01
   y         -0.570802D+00     -0.145083D+01     -0.483946D+01
   z          0.343483D+00      0.873046D+00      0.291217D+01

 Dipole polarizability, Alpha (input orientation).
 (esu units = cm**3 , SI units = C**2 m**2 J**-1)
 Alpha(0;0):
               (au)            (10**-24 esu)      (10**-40 SI)
   iso        0.250829D+02      0.371690D+01      0.413561D+01
   aniso      0.764484D+01      0.113285D+01      0.126046D+01
   xx         0.271088D+02      0.401711D+01      0.446964D+01
   yx         0.282503D+01      0.418626D+00      0.465784D+00
   yy         0.259134D+02      0.383996D+01      0.427253D+01
   zx        -0.398298D-01     -0.590217D-02     -0.656705D-02
   zy        -0.224105D+01     -0.332090D+00     -0.369500D+00
   zz         0.222265D+02      0.329363D+01      0.366465D+01

 ----------------------------------------------------------------------

 Dipole orientation:
     8         16.37999910         16.35441148         -6.49785582
     1         17.96729752         16.73235635         -5.67524756
     5         14.48301263         15.90026440         -4.87916929
     8         14.79559328         15.97048576         -2.33637059
     1         13.28622678         15.61112486         -1.39987417

 Electric dipole moment (dipole orientation):
 (Debye = 10**-18 statcoulomb cm , SI units = C m)
                  (au)            (Debye)         (10**-30 SI)
   Tot        0.666211D+00      0.169334D+01      0.564838D+01
   x          0.000000D+00      0.000000D+00      0.000000D+00
   y          0.000000D+00      0.000000D+00      0.000000D+00
   z          0.666211D+00      0.169334D+01      0.564838D+01

 Dipole polarizability, Alpha (dipole orientation).
 (esu units = cm**3 , SI units = C**2 m**2 J**-1)
 Alpha(0;0):
               (au)            (10**-24 esu)      (10**-40 SI)
   iso        0.250829D+02      0.371690D+01      0.413561D+01
   aniso      0.764484D+01      0.113285D+01      0.126046D+01
   xx         0.271404D+02      0.402179D+01      0.447485D+01
   yx         0.146058D+01      0.216436D+00      0.240817D+00
   yy         0.212424D+02      0.314780D+01      0.350240D+01
   zx        -0.243559D+01     -0.360917D+00     -0.401574D+00
   zy        -0.578816D+00     -0.857718D-01     -0.954339D-01
   zz         0.268658D+02      0.398110D+01      0.442958D+01

 ----------------------------------------------------------------------
 Unable to Open any file for archive entry.
 1\1\GINC-CN012\Freq\UM062X\6-311+G(d,p)\B1H2O2(2)\TAHMINAAFROZ\05-May-
 2025\0\\#N Geom=AllCheck Guess=TCheck SCRF=Check GenChk UM062X/6-311+G
 (d,p) Freq\\boh2-opt-freq\\0,2\O,8.6815350137,7.4563217245,5.557770955
 1\H,9.5267830892,7.1911074597,5.9453846087\B,7.6847719932,6.5929756677
 ,5.8032648341\O,7.863476211,5.4601602264,6.5272475209\H,7.0685816929,4
 .9331069217,6.6275970812\\Version=AS64L-G16RevC.01\HF=-176.5222881\S2=
 0.753524\S2-1=0.\S2A=0.750008\RMSD=2.059e-09\RMSF=6.199e-06\ZeroPoint=
 0.0315677\Thermal=0.0351933\ETot=-176.4870948\HTot=-176.4861506\GTot=-
 176.5156254\Dipole=0.0064857,-0.5708021,0.3434829\DipoleDeriv=-0.88430
 67,-0.5497502,0.2130204,-0.3577299,-0.8297991,0.1260671,0.0969721,0.07
 37522,-0.4733668,0.2177268,0.0019815,-0.0483755,0.0862899,0.3174862,0.
 0691175,-0.0996736,0.0461039,0.3395511,0.8643581,0.3513528,-0.0011133,
 0.4321811,1.283163,-0.5951133,-0.0463557,-0.6165792,0.4434151,-0.46815
 5,0.1750867,-0.1347028,-0.1926831,-1.178855,0.437641,0.0838274,0.53668
 16,-0.6548989,0.2703768,0.0213292,-0.0288287,0.031942,0.4080048,-0.037
 7123,-0.0347702,-0.0399585,0.3452995\Polar=27.1087943,2.8250268,25.913
 3511,-0.0398298,-2.2410548,22.2264859\Quadrupole=4.3959533,-12.8171336
 ,8.4211803,-6.2481916,4.6933898,-1.549998\PG=C01 [X(B1H2O2)]\NImag=0\\
 0.62951794,0.07009693,0.28150405,0.12129391,-0.13199213,0.14013978,-0.
 38369874,0.10301263,-0.16206643,0.41521629,0.12610425,-0.06258061,0.06
 370471,-0.10539967,0.05649567,-0.17587906,0.05746773,-0.09529072,0.173
 62289,-0.05799308,0.08911439,-0.25963971,-0.14126437,0.02112199,-0.039
 16334,-0.02407401,0.00055110,0.37645257,-0.17553525,-0.17522263,0.0409
 8244,-0.00218348,0.00715746,0.00225089,0.14266983,0.44165357,0.0416453
 3,0.05023503,-0.04528095,-0.01251578,-0.00365419,0.01071790,0.00996215
 ,-0.20991262,0.15296197,0.01075332,-0.03363622,0.02182353,0.00742521,0
 .00308359,0.00166655,-0.07805126,0.02917954,-0.03787075,0.44581302,-0.
 02298495,-0.04350244,0.02229037,0.00341236,-0.00069184,-0.00194656,0.0
 4918027,-0.25549821,0.16451507,0.22388589,0.47640373,0.01542289,0.0194
 1784,-0.00315244,0.00144461,-0.00203857,-0.00387452,-0.04972368,0.1591
 3278,-0.11074366,-0.01649239,-0.21793078,0.13600651,0.00306718,0.00179
 102,-0.00217300,0.00022059,0.00028584,0.00003853,0.00040174,0.00586936
 ,-0.00122094,-0.38594028,-0.25349357,0.04934858,0.38225077,0.00231902,
 -0.00019837,0.00501461,0.00115816,-0.00038067,0.00022101,-0.02651173,-
 0.01809020,-0.00118329,-0.22251280,-0.17671124,0.04141872,0.24554735,0
 .19538048,-0.00248307,0.00487152,0.00358432,-0.00048529,-0.00001888,-0
 .00066705,0.01808844,0.00754651,-0.00765525,0.03087307,0.03307190,-0.0
 1823589,-0.04599316,-0.04547105,0.02297387\\-0.00001094,0.00000393,0.0
 0000151,-0.00000289,0.00000409,-0.00000748,-0.00000179,0.00000863,0.00
 000179,0.00000686,-0.00001006,0.00000190,0.00000876,-0.00000658,0.0000
 0228\\\@
 The archive entry for this job was punched.


 THE SOLUTION TO A PROBLEM CHANGES THE PROBLEM.

                                 -- JOHN PEERS
           PAUL DICKSON'S "THE OFFICIAL RULES"
 Job cpu time:       0 days  0 hours  2 minutes 15.0 seconds.
 Elapsed time:       0 days  0 hours  0 minutes  4.8 seconds.
 File lengths (MBytes):  RWF=     10 Int=      0 D2E=      0 Chk=      3 Scr=      1
 Normal termination of Gaussian 16 at Mon May  5 08:12:53 2025.
