/home/tahminaafroz
cn010.cluster.local
tahminaafroz
Mon Jun  2 03:18:50 CDT 2025
 Entering Gaussian System, Link 0=g16
 Initial command:
 /home/apps/g16/l1.exe "/tmp/boh2-cation-opt-freq-thf-2/Gau-2947486.inp" -scrdir="/tmp/boh2-cation-opt-freq-thf-2/"
 Entering Link 1 = /home/apps/g16/l1.exe PID=   2947487.
  
 Copyright (c) 1988-2019, Gaussian, Inc.  All Rights Reserved.
  
 This is part of the Gaussian(R) 16 program.  It is based on
 the Gaussian(R) 09 system (copyright 2009, Gaussian, Inc.),
 the Gaussian(R) 03 system (copyright 2003, Gaussian, Inc.),
 the Gaussian(R) 98 system (copyright 1998, Gaussian, Inc.),
 the Gaussian(R) 94 system (copyright 1995, Gaussian, Inc.),
 the Gaussian 92(TM) system (copyright 1992, Gaussian, Inc.),
 the Gaussian 90(TM) system (copyright 1990, Gaussian, Inc.),
 the Gaussian 88(TM) system (copyright 1988, Gaussian, Inc.),
 the Gaussian 86(TM) system (copyright 1986, Carnegie Mellon
 University), and the Gaussian 82(TM) system (copyright 1983,
 Carnegie Mellon University). Gaussian is a federally registered
 trademark of Gaussian, Inc.
  
 This software contains proprietary and confidential information,
 including trade secrets, belonging to Gaussian, Inc.
  
 This software is provided under written license and may be
 used, copied, transmitted, or stored only in accord with that
 written license.
  
 The following legend is applicable only to US Government
 contracts under FAR:
  
                    RESTRICTED RIGHTS LEGEND
  
 Use, reproduction and disclosure by the US Government is
 subject to restrictions as set forth in subparagraphs (a)
 and (c) of the Commercial Computer Software - Restricted
 Rights clause in FAR 52.227-19.
  
 Gaussian, Inc.
 340 Quinnipiac St., Bldg. 40, Wallingford CT 06492
  
  
 ---------------------------------------------------------------
 Warning -- This program may not be used in any manner that
 competes with the business of Gaussian, Inc. or will provide
 assistance to any competitor of Gaussian, Inc.  The licensee
 of this program is prohibited from giving any competitor of
 Gaussian, Inc. access to this program.  By using this program,
 the user acknowledges that Gaussian, Inc. is engaged in the
 business of creating and licensing software in the field of
 computational chemistry and represents and warrants to the
 licensee that it is not a competitor of Gaussian, Inc. and that
 it will not use this program in any manner prohibited above.
 ---------------------------------------------------------------
  

 Cite this work as:
 Gaussian 16, Revision C.01,
 M. J. Frisch, G. W. Trucks, H. B. Schlegel, G. E. Scuseria, 
 M. A. Robb, J. R. Cheeseman, G. Scalmani, V. Barone, 
 G. A. Petersson, H. Nakatsuji, X. Li, M. Caricato, A. V. Marenich, 
 J. Bloino, B. G. Janesko, R. Gomperts, B. Mennucci, H. P. Hratchian, 
 J. V. Ortiz, A. F. Izmaylov, J. L. Sonnenberg, D. Williams-Young, 
 F. Ding, F. Lipparini, F. Egidi, J. Goings, B. Peng, A. Petrone, 
 T. Henderson, D. Ranasinghe, V. G. Zakrzewski, J. Gao, N. Rega, 
 G. Zheng, W. Liang, M. Hada, M. Ehara, K. Toyota, R. Fukuda, 
 J. Hasegawa, M. Ishida, T. Nakajima, Y. Honda, O. Kitao, H. Nakai, 
 T. Vreven, K. Throssell, J. A. Montgomery, Jr., J. E. Peralta, 
 F. Ogliaro, M. J. Bearpark, J. J. Heyd, E. N. Brothers, K. N. Kudin, 
 V. N. Staroverov, T. A. Keith, R. Kobayashi, J. Normand, 
 K. Raghavachari, A. P. Rendell, J. C. Burant, S. S. Iyengar, 
 J. Tomasi, M. Cossi, J. M. Millam, M. Klene, C. Adamo, R. Cammi, 
 J. W. Ochterski, R. L. Martin, K. Morokuma, O. Farkas, 
 J. B. Foresman, and D. J. Fox, Gaussian, Inc., Wallingford CT, 2019.
 
 ******************************************
 Gaussian 16:  AS64L-G16RevC.01  3-Jul-2019
                 2-Jun-2025 
 ******************************************
 %oldchk= boh2-cation-opt-freq-thf.chk
 %nprocshared=32
 Will use up to   32 processors via shared memory.
 %mem=20GB
 %chk=boh2-cation-opt-freq-thf-2.chk
 Copying data from "boh2-cation-opt-freq-thf.chk" to current chk file "boh2-cation-opt-freq-thf-2.chk"
 IOpt=  2 FromEx=T IUOpen= 4 IOptOp= 5 NList=   0 IFRang= 0 IUIn= 4 IUOut= 2.
 ----------------------------------------------------------------------
 # opt=(calcfc,tight) freq 6-311+g(d,p) scrf=(smd,solvent=thf) nosymm s
 cf=(qc,fermi,xqc) geom=connectivity int=ultrafine m062x guess=read
 ----------------------------------------------------------------------
 1/7=10,10=4,18=20,19=15,26=6,38=1,57=2/1,3;
 2/9=110,12=2,15=1,17=6,18=5,40=1/2;
 3/5=4,6=6,7=111,11=2,25=1,30=1,70=32201,71=2,72=20,74=-55,75=-5,116=-2,140=1/1,2,3;
 4/5=1/1;
 5/5=2,22=13,38=6,53=20/2;
 8/6=4,10=90,11=11/1;
 11/6=1,8=1,9=11,15=111,16=1,31=1/1,2,10;
 10/6=1,13=1,31=1/2;
 6/7=2,8=2,9=2,10=2,28=1/1;
 7/10=1,25=1,30=1/1,2,3,16;
 1/7=10,10=4,18=20,19=15,26=6/3(2);
 2/9=110,15=1/2;
 99//99;
 2/9=110,15=1/2;
 3/5=4,6=6,7=111,11=2,25=1,30=1,70=32205,71=1,72=20,74=-55,75=-5/1,2,3;
 4/5=5,16=3,69=1/1;
 5/5=2,22=13,38=5,53=20/2;
 7/30=1/1,2,3,16;
 1/7=10,18=20,19=15,26=6/3(-5);
 2/9=110,15=1/2;
 6/7=2,8=2,9=2,10=2,19=2,28=1/1;
 99/9=1/99;
 ------------------------
 boh2-cation-opt-freq-thf
 ------------------------
 Symbolic Z-matrix:
 Charge =  1 Multiplicity = 1
 O                     8.67899   7.41669   5.66063 
 H                     9.64256   7.50677   5.52673 
 B                     8.09004   6.42095   6.16585 
 O                     7.41537   5.53517   6.76026 
 H                     6.99819   4.7541    6.34779 
 

 GradGradGradGradGradGradGradGradGradGradGradGradGradGradGradGradGradGrad
 Berny optimization.
 Initialization pass.
                           ----------------------------
                           !    Initial Parameters    !
                           ! (Angstroms and Degrees)  !
 --------------------------                            --------------------------
 ! Name  Definition              Value          Derivative Info.                !
 --------------------------------------------------------------------------------
 ! R1    R(1,2)                  0.977          calculate D2E/DX2 analytically  !
 ! R2    R(1,3)                  1.2624         calculate D2E/DX2 analytically  !
 ! R3    R(3,4)                  1.2622         calculate D2E/DX2 analytically  !
 ! R4    R(4,5)                  0.9769         calculate D2E/DX2 analytically  !
 ! A1    A(2,1,3)              125.9947         calculate D2E/DX2 analytically  !
 ! A2    A(3,4,5)              126.1966         calculate D2E/DX2 analytically  !
 ! A3    L(1,3,4,2,-1)         184.4945         calculate D2E/DX2 analytically  !
 ! A4    L(1,3,4,2,-2)         163.066          calculate D2E/DX2 analytically  !
 ! D1    D(2,1,4,5)            -94.3415         calculate D2E/DX2 analytically  !
 --------------------------------------------------------------------------------
 Trust Radius=3.00D-01 FncErr=5.00D-06 GrdErr=5.00D-06 EigMax=2.50D+02 EigMin=1.00D-04
 Number of steps in this run=     20 maximum allowed number of steps=    100.
 GradGradGradGradGradGradGradGradGradGradGradGradGradGradGradGradGradGrad

                          Input orientation:                          
 ---------------------------------------------------------------------
 Center     Atomic      Atomic             Coordinates (Angstroms)
 Number     Number       Type             X           Y           Z
 ---------------------------------------------------------------------
      1          8           0        8.678989    7.416689    5.660635
      2          1           0        9.642556    7.506771    5.526725
      3          5           0        8.090043    6.420947    6.165851
      4          8           0        7.415371    5.535168    6.760263
      5          1           0        6.998187    4.754096    6.347792
 ---------------------------------------------------------------------
                    Distance matrix (angstroms):
                    1          2          3          4          5
     1  O    0.000000
     2  H    0.976989   0.000000
     3  B    1.262380   1.999448   0.000000
     4  O    2.519133   3.220122   1.262185   0.000000
     5  H    3.222837   3.904364   2.000911   0.976856   0.000000
 Symmetry turned off by external request.
 Stoichiometry    BH2O2(1+)
 Framework group  C1[X(BH2O2)]
 Deg. of freedom     9
 Full point group                 C1      NOp   1
 Rotational constants (GHZ):         466.0292529           8.6518225           8.6487232
 Standard basis: 6-311+G(d,p) (5D, 7F)
    78 basis functions,   124 primitive gaussians,    81 cartesian basis functions
    11 alpha electrons       11 beta electrons
       nuclear repulsion energy        61.0581155806 Hartrees.
 NAtoms=    5 NActive=    5 NUniq=    5 SFac= 1.00D+00 NAtFMM=   60 NAOKFM=F Big=F
 Integral buffers will be    131072 words long.
 Raffenetti 2 integral format.
 Two-electron integral symmetry is turned off.
 Force inversion solution in PCM.
 ------------------------------------------------------------------------------
 Polarizable Continuum Model (PCM)
 =================================
 Model                : PCM.
 Atomic radii         : SMD-Coulomb.
 Polarization charges : Total charges.
 Charge compensation  : None.
 Solution method      : Matrix inversion.
 Cavity type          : VdW (van der Waals Surface) (Alpha=1.000).
 Cavity algorithm     : GePol (No added spheres)
                        Default sphere list used, NSphG=    5.
                        Lebedev-Laikov grids with approx.  5.0 points / Ang**2.
                        Smoothing algorithm: York/Karplus (Gamma=1.0000).
                        Polarization charges: spherical gaussians, with
                                              point-specific exponents (IZeta= 3).
                        Self-potential: point-specific (ISelfS= 7).
                        Self-field    : sphere-specific E.n sum rule (ISelfD= 2).
 1st derivatives      : Analytical E(r).r(x)/FMM algorithm (CHGder, D1EAlg=3).
                        Cavity 1st derivative terms included.
 2nd derivatives      : Analytical E(r).r(xy)/FMM algorithm (CHGder, D2EAlg=3).
                        Cavity 2nd derivative terms included.
 Solvent              : TetraHydroFuran, Eps=   7.425700 Eps(inf)=   1.974025
 ------------------------------------------------------------------------------
 Spheres list:
 ISph  on   Nord     Re0    Alpha      Xe            Ye            Ze
    1   O      1    2.2940  1.000      8.678989      7.416689      5.660635
    2   H      2    1.2000  1.000      9.642556      7.506771      5.526725
    3   B      3    1.8000  1.000      8.090043      6.420947      6.165851
    4   O      4    2.2940  1.000      7.415371      5.535168      6.760263
    5   H      5    1.2000  1.000      6.998187      4.754096      6.347792
 ------------------------------------------------------------------------------
 ------------------------------------------------------------------------------
 Atomic radii for non-electrostatic terms: SMD-CDS.
 ------------------------------------------------------------------------------
 Nuclear repulsion after PCM non-electrostatic terms =       61.0568518249 Hartrees.
 One-electron integrals computed using PRISM.
 NBasis=    78 RedAO= T EigKep=  3.72D-04  NBF=    78
 NBsUse=    78 1.00D-06 EigRej= -1.00D+00 NBFU=    78
 Initial guess from the checkpoint file:  "boh2-cation-opt-freq-thf-2.chk"
 B after Tr=     0.000000    0.000000    0.000000
         Rot=    1.000000    0.000000    0.000000    0.000000 Ang=   0.00 deg.
 Keep R1 ints in memory in canonical form, NReq=33757602.
 Requested convergence on RMS density matrix=1.00D-08 within 128 cycles.
 Requested convergence on MAX density matrix=1.00D-06.
 Requested convergence on             energy=1.00D-06.
 Level shift goal  0.100 maximum shift  0.100.
 No special actions if energy rises.
 Dynamic level shift is on during FON iterations.
 Inv3:  Mode=1 IEnd=     1491075.
 Iteration    1 A*A^-1 deviation from unit magnitude is 2.55D-15 for    496.
 Iteration    1 A*A^-1 deviation from orthogonality  is 1.23D-15 for    693    404.
 Iteration    1 A^-1*A deviation from unit magnitude is 2.44D-15 for    496.
 Iteration    1 A^-1*A deviation from orthogonality  is 1.26D-15 for    701    700.
 Error on total polarization charges =  0.00227
 SCF Done:  E(RM062X) =  -176.364451197     A.U. after    1 cycles
            NFock=  1  Conv=0.36D-08     -V/T= 2.0035
 SMD-CDS (non-electrostatic) energy       (kcal/mol) =      -0.79
 (included in total energy above)
 DoSCS=F DFT=T ScalE2(SS,OS)=  1.000000  1.000000
 Range of M.O.s used for correlation:     1    78
 NBasis=    78 NAE=    11 NBE=    11 NFC=     0 NFV=     0
 NROrb=     78 NOA=    11 NOB=    11 NVA=    67 NVB=    67

 **** Warning!!: The largest alpha MO coefficient is  0.18531560D+02

 Symmetrizing basis deriv contribution to polar:
 IMax=3 JMax=2 DiffMx= 0.00D+00
 G2DrvN: will do     6 centers at a time, making    1 passes.
 Calling FoFCou, ICntrl=  3107 FMM=F I1Cent=   0 AccDes= 0.00D+00.
 NEqPCM:  Using equilibrium solvation (IEInf=0, Eps=   7.4257, EpsInf=   1.9740)
 G2PCM: DoFxE=T DoFxN=T DoGrad=T DoDP/DQ/DG/TGxP=FFFF NFrqRd=   0 IEInf=0 SqF1=F DoCFld=F IF1Alg=4.
 End of G2Drv F.D. properties file   721 does not exist.
 End of G2Drv F.D. properties file   722 does not exist.
 End of G2Drv F.D. properties file   788 does not exist.
          IDoAtm=11111
 NEqPCM:  Using equilibrium solvation (IEInf=0, Eps=   7.4257, EpsInf=   1.9740)
          Differentiating once with respect to nuclear coordinates.
 Keep R1 ints in memory in canonical form, NReq=33650071.
          There are    18 degrees of freedom in the 1st order CPHF.  IDoFFX=6 NUNeed=     0.
     12 vectors produced by pass  0 Test12= 4.09D-15 5.56D-09 XBig12= 6.32D-02 6.17D-02.
 AX will form    12 AO Fock derivatives at one time.
     12 vectors produced by pass  1 Test12= 4.09D-15 5.56D-09 XBig12= 7.07D-03 2.73D-02.
     12 vectors produced by pass  2 Test12= 4.09D-15 5.56D-09 XBig12= 1.48D-04 2.63D-03.
     12 vectors produced by pass  3 Test12= 4.09D-15 5.56D-09 XBig12= 2.79D-06 5.58D-04.
     12 vectors produced by pass  4 Test12= 4.09D-15 5.56D-09 XBig12= 2.80D-08 5.64D-05.
     12 vectors produced by pass  5 Test12= 4.09D-15 5.56D-09 XBig12= 1.42D-10 3.03D-06.
      9 vectors produced by pass  6 Test12= 4.09D-15 5.56D-09 XBig12= 5.97D-13 2.06D-07.
      1 vectors produced by pass  7 Test12= 4.09D-15 5.56D-09 XBig12= 1.90D-15 9.52D-09.
 InvSVY:  IOpt=1 It=  1 EMax= 6.66D-16
 Solved reduced A of dimension    82 with    12 vectors.
 End of Minotr F.D. properties file   721 does not exist.
 End of Minotr F.D. properties file   722 does not exist.
 End of Minotr F.D. properties file   788 does not exist.

 **********************************************************************

            Population analysis using the SCF Density.

 **********************************************************************

 Alpha  occ. eigenvalues --  -19.78522 -19.78517  -7.27877  -1.30554  -1.30356
 Alpha  occ. eigenvalues --   -0.81167  -0.79721  -0.63466  -0.63320  -0.57037
 Alpha  occ. eigenvalues --   -0.57014
 Alpha virt. eigenvalues --   -0.05621  -0.01889  -0.01810  -0.00330   0.01902
 Alpha virt. eigenvalues --    0.02341   0.08473   0.10103   0.12029   0.15022
 Alpha virt. eigenvalues --    0.17006   0.18519   0.19966   0.20094   0.21874
 Alpha virt. eigenvalues --    0.24460   0.28669   0.36380   0.36871   0.48297
 Alpha virt. eigenvalues --    0.48513   0.49638   0.62378   0.72126   0.72421
 Alpha virt. eigenvalues --    0.76878   0.85037   0.93023   0.95401   0.97951
 Alpha virt. eigenvalues --    0.99119   1.04483   1.10534   1.13930   1.24234
 Alpha virt. eigenvalues --    1.38594   1.42873   1.51130   1.60734   1.64852
 Alpha virt. eigenvalues --    1.78189   1.79191   1.98061   1.99916   2.06150
 Alpha virt. eigenvalues --    2.24861   2.44714   2.52447   2.90285   2.92099
 Alpha virt. eigenvalues --    3.01523   3.04411   3.32021   3.32143   3.39035
 Alpha virt. eigenvalues --    3.52992   3.72305   3.81753   4.94719   4.95122
 Alpha virt. eigenvalues --    5.11848   5.16254   5.56365   5.71717  15.04676
 Alpha virt. eigenvalues --   49.88326  49.91182
          Condensed to atoms (all electrons):
               1          2          3          4          5
     1  O    7.708384   0.311416   0.476972  -0.226875   0.000859
     2  H    0.311416   0.286467  -0.007319   0.000896  -0.000057
     3  B    0.476972  -0.007319   3.336800   0.477148  -0.007616
     4  O   -0.226875   0.000896   0.477148   7.707895   0.311762
     5  H    0.000859  -0.000057  -0.007616   0.311762   0.286084
 Mulliken charges:
               1
     1  O   -0.270755
     2  H    0.408598
     3  B    0.724015
     4  O   -0.270826
     5  H    0.408968
 Sum of Mulliken charges =   1.00000
 Mulliken charges with hydrogens summed into heavy atoms:
               1
     1  O    0.137842
     3  B    0.724015
     4  O    0.138142
 APT charges:
               1
     1  O   -0.587854
     2  H    2.580364
     3  B    0.245355
     4  O    0.520853
     5  H   -1.758719
 Sum of APT charges =   1.00000
 APT charges with hydrogens summed into heavy atoms:
               1
     1  O    1.992510
     3  B    0.245355
     4  O   -1.237866
 Electronic spatial extent (au):  <R**2>=          11534.4506
 Charge=              1.0000 electrons
 Dipole moment (field-independent basis, Debye):
    X=             40.1554    Y=             29.1960    Z=             28.3157  Tot=             57.1546
 Quadrupole moment (field-independent basis, Debye-Ang):
   XX=            328.1558   YY=            168.0700   ZZ=            151.5391
   XY=            250.6538   XZ=            235.7760   YZ=            171.7589
 Traceless Quadrupole moment (field-independent basis, Debye-Ang):
   XX=            112.2342   YY=            -47.8517   ZZ=            -64.3825
   XY=            250.6538   XZ=            235.7760   YZ=            171.7589
 Octapole moment (field-independent basis, Debye-Ang**2):
  XXX=           2631.4385  YYY=            886.6585  ZZZ=            697.7525  XYY=           1488.6173
  XXY=           2099.9780  XXZ=           1912.9622  XZZ=           1261.3951  YZZ=            912.3098
  YYZ=            982.7225  XYZ=           1468.1440
 Hexadecapole moment (field-independent basis, Debye-Ang**3):
 XXXX=          20736.9159 YYYY=           3893.0130 ZZZZ=           2216.8258 XXXY=          17257.2194
 XXXZ=          15183.3230 YYYX=           8207.0275 YYYZ=           5127.9431 ZZZX=           5852.3236
 ZZZY=           4136.5335 XXYY=          12803.4961 XXZZ=          10154.2599 YYZZ=           5100.6288
 XXYZ=          12210.7391 YYXZ=           8664.0816 ZZXY=           7807.8355
 N-N= 6.105685182485D+01 E-N=-5.310497819951D+02  KE= 1.757435220173D+02
  Exact polarizability:       0.000       0.000       0.000       0.000       0.000       0.000
 Approx polarizability:      15.900       5.685      19.690      -3.050      -4.221      14.055
 D2PCM: PCM CHGder 2nd derivatives, FixD1E=F FixD2E=F DoIter=F DoCFld=F I1PDM=0
 Calling FoFJK, ICntrl=    100127 FMM=F ISym2X=0 I1Cent= 0 IOpClX= 0 NMat=1 NMatS=1 NMatT=0.
 -------------------------------------------------------------------
 Center     Atomic                   Forces (Hartrees/Bohr)
 Number     Number              X              Y              Z
 -------------------------------------------------------------------
      1        8          -0.000101178    0.000029847   -0.000009654
      2        1          -0.000127538    0.000077728   -0.000153397
      3        5           0.000011511    0.000002825    0.000033223
      4        8           0.000133038   -0.000061455    0.000046413
      5        1           0.000084167   -0.000048946    0.000083415
 -------------------------------------------------------------------
 Cartesian Forces:  Max     0.000153397 RMS     0.000080982
 FormGI is forming the generalized inverse of G from B-inverse, IUseBI=4.

 GradGradGradGradGradGradGradGradGradGradGradGradGradGradGradGradGradGrad
 Berny optimization.
 Internal  Forces:  Max     0.000014527 RMS     0.000007686
 Search for a local minimum.
 Step number   1 out of a maximum of   20
 All quantities printed in internal units (Hartrees-Bohrs-Radians)
 Mixed Optimization -- En-DIIS/RFO-DIIS
 Second derivative matrix not updated -- analytic derivatives used.
 The second derivative matrix:
                          R1        R2        R3        R4        A1
           R1           0.48298
           R2           0.01179   0.69310
           R3          -0.01177   0.04496   0.69369
           R4           0.00269  -0.00999   0.01313   0.48333
           A1           0.02161   0.06734  -0.00584   0.00207   0.05994
           A2           0.00220  -0.01097   0.06341   0.01953  -0.00146
           A3          -0.00085  -0.00802   0.00427   0.00116  -0.00388
           A4          -0.00152   0.00248   0.00383   0.00047   0.00430
           D1           0.00094  -0.00094  -0.00155  -0.00064  -0.00089
                          A2        A3        A4        D1
           A2           0.06643
           A3          -0.00105   0.08288
           A4          -0.00007   0.00113   0.00908
           D1           0.00231  -0.00730  -0.00027   0.00494
 ITU=  0
     Eigenvalues ---    0.00414   0.00862   0.05192   0.05888   0.08382
     Eigenvalues ---    0.47744   0.48698   0.66135   0.74325
 RFO step:  Lambda= 0.00000000D+00 EMin= 4.13514351D-03
 Linear search not attempted -- first point.
 Iteration  1 RMS(Cart)=  0.00007208 RMS(Int)=  0.00000002
 Iteration  2 RMS(Cart)=  0.00000002 RMS(Int)=  0.00000000
 Variable       Old X    -DE/DX   Delta X   Delta X   Delta X     New X
                                 (Linear)    (Quad)   (Total)
    R1        1.84624  -0.00001   0.00000  -0.00001  -0.00001   1.84623
    R2        2.38555  -0.00001   0.00000  -0.00002  -0.00002   2.38553
    R3        2.38518  -0.00001   0.00000  -0.00003  -0.00003   2.38515
    R4        1.84599   0.00000   0.00000  -0.00001  -0.00001   1.84598
    A1        2.19902   0.00000   0.00000   0.00000   0.00000   2.19902
    A2        2.20255   0.00001   0.00000   0.00013   0.00013   2.20268
    A3        3.22004   0.00001   0.00000   0.00005   0.00005   3.22009
    A4        2.84604   0.00001   0.00000   0.00061   0.00061   2.84665
    D1       -1.64657   0.00000   0.00000  -0.00006  -0.00006  -1.64663
         Item               Value     Threshold  Converged?
 Maximum Force            0.000015     0.000015     YES
 RMS     Force            0.000008     0.000010     YES
 Maximum Displacement     0.000165     0.000060     NO 
 RMS     Displacement     0.000072     0.000040     NO 
 Predicted change in Energy=-2.636735D-09
 GradGradGradGradGradGradGradGradGradGradGradGradGradGradGradGradGradGrad

                          Input orientation:                          
 ---------------------------------------------------------------------
 Center     Atomic      Atomic             Coordinates (Angstroms)
 Number     Number       Type             X           Y           Z
 ---------------------------------------------------------------------
      1          8           0        8.678985    7.416666    5.660597
      2          1           0        9.642548    7.506769    5.526722
      3          5           0        8.090060    6.420987    6.165938
      4          8           0        7.415374    5.535162    6.760227
      5          1           0        6.998180    4.754088    6.347782
 ---------------------------------------------------------------------
                    Distance matrix (angstroms):
                    1          2          3          4          5
     1  O    0.000000
     2  H    0.976983   0.000000
     3  B    1.262370   1.999434   0.000000
     4  O    2.519118   3.220104   1.262167   0.000000
     5  H    3.222832   3.904366   2.000955   0.976851   0.000000
 Symmetry turned off by external request.
 Stoichiometry    BH2O2(1+)
 Framework group  C1[X(BH2O2)]
 Deg. of freedom     9
 Full point group                 C1      NOp   1
 Rotational constants (GHZ):         466.0805569           8.6519350           8.6488129
 Standard basis: 6-311+G(d,p) (5D, 7F)
    78 basis functions,   124 primitive gaussians,    81 cartesian basis functions
    11 alpha electrons       11 beta electrons
       nuclear repulsion energy        61.0586048844 Hartrees.
 NAtoms=    5 NActive=    5 NUniq=    5 SFac= 1.00D+00 NAtFMM=   60 NAOKFM=F Big=F
 Integral buffers will be    131072 words long.
 Raffenetti 2 integral format.
 Two-electron integral symmetry is turned off.
 ------------------------------------------------------------------------------
 Polarizable Continuum Model (PCM)
 =================================
 Model                : PCM.
 Atomic radii         : SMD-Coulomb.
 Polarization charges : Total charges.
 Charge compensation  : None.
 Solution method      : Matrix inversion.
 Cavity type          : VdW (van der Waals Surface) (Alpha=1.000).
 Cavity algorithm     : GePol (No added spheres)
                        Default sphere list used, NSphG=    5.
                        Lebedev-Laikov grids with approx.  5.0 points / Ang**2.
                        Smoothing algorithm: York/Karplus (Gamma=1.0000).
                        Polarization charges: spherical gaussians, with
                                              point-specific exponents (IZeta= 3).
                        Self-potential: point-specific (ISelfS= 7).
                        Self-field    : sphere-specific E.n sum rule (ISelfD= 2).
 1st derivatives      : Analytical E(r).r(x)/FMM algorithm (CHGder, D1EAlg=3).
                        Cavity 1st derivative terms included.
 Solvent              : TetraHydroFuran, Eps=   7.425700 Eps(inf)=   1.974025
 ------------------------------------------------------------------------------
 Spheres list:
 ISph  on   Nord     Re0    Alpha      Xe            Ye            Ze
    1   O      1    2.2940  1.000      8.678985      7.416666      5.660597
    2   H      2    1.2000  1.000      9.642548      7.506769      5.526722
    3   B      3    1.8000  1.000      8.090060      6.420987      6.165938
    4   O      4    2.2940  1.000      7.415374      5.535162      6.760227
    5   H      5    1.2000  1.000      6.998180      4.754088      6.347782
 ------------------------------------------------------------------------------
 ------------------------------------------------------------------------------
 Atomic radii for non-electrostatic terms: SMD-CDS.
 ------------------------------------------------------------------------------
 Nuclear repulsion after PCM non-electrostatic terms =       61.0573411669 Hartrees.
 One-electron integrals computed using PRISM.
 NBasis=    78 RedAO= T EigKep=  3.72D-04  NBF=    78
 NBsUse=    78 1.00D-06 EigRej= -1.00D+00 NBFU=    78
 Initial guess from the checkpoint file:  "boh2-cation-opt-freq-thf-2.chk"
 B after Tr=     0.000449   -0.000445   -0.000135
         Rot=    1.000000    0.000011    0.000012   -0.000006 Ang=   0.00 deg.
 Keep R1 ints in memory in canonical form, NReq=33757602.
 Requested convergence on RMS density matrix=1.00D-08 within 128 cycles.
 Requested convergence on MAX density matrix=1.00D-06.
 Requested convergence on             energy=1.00D-06.
 Level shift goal  0.100 maximum shift  0.100.
 No special actions if energy rises.
 Dynamic level shift is on during FON iterations.
 Inv3:  Mode=1 IEnd=     1491075.
 Iteration    1 A*A^-1 deviation from unit magnitude is 2.66D-15 for    697.
 Iteration    1 A*A^-1 deviation from orthogonality  is 1.29D-15 for    697    530.
 Iteration    1 A^-1*A deviation from unit magnitude is 2.66D-15 for    697.
 Iteration    1 A^-1*A deviation from orthogonality  is 1.10D-15 for    699      4.
 Error on total polarization charges =  0.00227
 SCF Done:  E(RM062X) =  -176.364451200     A.U. after    5 cycles
            NFock=  5  Conv=0.85D-08     -V/T= 2.0035
 SMD-CDS (non-electrostatic) energy       (kcal/mol) =      -0.79
 (included in total energy above)
 D1PCM: PCM CHGder 1st derivatives, ID1Alg=3 FixD1E=F DoIter=F DoCFld=F I1PDM=0.
 Calling FoFJK, ICntrl=      2127 FMM=F ISym2X=0 I1Cent= 0 IOpClX= 0 NMat=1 NMatS=1 NMatT=0.
 -------------------------------------------------------------------
 Center     Atomic                   Forces (Hartrees/Bohr)
 Number     Number              X              Y              Z
 -------------------------------------------------------------------
      1        8          -0.000098514    0.000042969   -0.000008980
      2        1          -0.000122003    0.000079123   -0.000153744
      3        5           0.000008736   -0.000007083    0.000017952
      4        8           0.000127021   -0.000065082    0.000065321
      5        1           0.000084761   -0.000049926    0.000079451
 -------------------------------------------------------------------
 Cartesian Forces:  Max     0.000153744 RMS     0.000080618

 GradGradGradGradGradGradGradGradGradGradGradGradGradGradGradGradGradGrad
 Berny optimization.
 Using GEDIIS/GDIIS optimizer.
 FormGI is forming the generalized inverse of G from B-inverse, IUseBI=4.
 Internal  Forces:  Max     0.000000087 RMS     0.000000045
 Search for a local minimum.
 Step number   2 out of a maximum of   20
 All quantities printed in internal units (Hartrees-Bohrs-Radians)
 Mixed Optimization -- En-DIIS/RFO-DIIS
 Swapping is turned off.
 Update second derivatives using D2CorX and points    1    2
 DE= -2.64D-09 DEPred=-2.64D-09 R= 1.00D+00
 Trust test= 1.00D+00 RLast= 6.29D-04 DXMaxT set to 3.00D-01
 The second derivative matrix:
                          R1        R2        R3        R4        A1
           R1           0.48305
           R2           0.01196   0.69351
           R3          -0.01181   0.04489   0.69323
           R4           0.00264  -0.01009   0.01297   0.48329
           A1           0.02161   0.06734  -0.00581   0.00208   0.05994
           A2           0.00215  -0.01107   0.06350   0.01958  -0.00146
           A3          -0.00091  -0.00817   0.00430   0.00119  -0.00388
           A4          -0.00156   0.00240   0.00392   0.00052   0.00430
           D1           0.00095  -0.00091  -0.00154  -0.00064  -0.00090
                          A2        A3        A4        D1
           A2           0.06645
           A3          -0.00102   0.08293
           A4          -0.00006   0.00116   0.00908
           D1           0.00230  -0.00730  -0.00028   0.00494
 ITU=  0  0
     Eigenvalues ---    0.00414   0.00862   0.05193   0.05887   0.08386
     Eigenvalues ---    0.47748   0.48695   0.66143   0.74315
 En-DIIS/RFO-DIIS/Sim-DIIS IScMMF=       -3 using points:     2    1
 RFO step:  Lambda=-3.11210994D-14.
 DidBck=F Rises=F RFO-DIIS coefs:    0.99940    0.00060
 Iteration  1 RMS(Cart)=  0.00000028 RMS(Int)=  0.00000000
 Variable       Old X    -DE/DX   Delta X   Delta X   Delta X     New X
                                 (Linear)    (Quad)   (Total)
    R1        1.84623   0.00000   0.00000   0.00000   0.00000   1.84623
    R2        2.38553   0.00000   0.00000   0.00000   0.00000   2.38553
    R3        2.38515   0.00000   0.00000   0.00000   0.00000   2.38515
    R4        1.84598   0.00000   0.00000   0.00000   0.00000   1.84598
    A1        2.19902   0.00000   0.00000   0.00000   0.00000   2.19902
    A2        2.20268   0.00000   0.00000   0.00000   0.00000   2.20268
    A3        3.22009   0.00000   0.00000   0.00000   0.00000   3.22009
    A4        2.84665   0.00000   0.00000   0.00000   0.00000   2.84665
    D1       -1.64663   0.00000   0.00000   0.00000   0.00000  -1.64663
         Item               Value     Threshold  Converged?
 Maximum Force            0.000000     0.000015     YES
 RMS     Force            0.000000     0.000010     YES
 Maximum Displacement     0.000000     0.000060     YES
 RMS     Displacement     0.000000     0.000040     YES
 Predicted change in Energy=-2.001090D-14
 Optimization completed.
    -- Stationary point found.
                           ----------------------------
                           !   Optimized Parameters   !
                           ! (Angstroms and Degrees)  !
 --------------------------                            --------------------------
 ! Name  Definition              Value          Derivative Info.                !
 --------------------------------------------------------------------------------
 ! R1    R(1,2)                  0.977          -DE/DX =    0.0                 !
 ! R2    R(1,3)                  1.2624         -DE/DX =    0.0                 !
 ! R3    R(3,4)                  1.2622         -DE/DX =    0.0                 !
 ! R4    R(4,5)                  0.9769         -DE/DX =    0.0                 !
 ! A1    A(2,1,3)              125.9947         -DE/DX =    0.0                 !
 ! A2    A(3,4,5)              126.2042         -DE/DX =    0.0                 !
 ! A3    L(1,3,4,2,-1)         184.4975         -DE/DX =    0.0                 !
 ! A4    L(1,3,4,2,-2)         163.1008         -DE/DX =    0.0                 !
 ! D1    D(2,1,4,5)            -94.3449         -DE/DX =    0.0                 !
 --------------------------------------------------------------------------------
 GradGradGradGradGradGradGradGradGradGradGradGradGradGradGradGradGradGrad

                          Input orientation:                          
 ---------------------------------------------------------------------
 Center     Atomic      Atomic             Coordinates (Angstroms)
 Number     Number       Type             X           Y           Z
 ---------------------------------------------------------------------
      1          8           0        8.678985    7.416666    5.660597
      2          1           0        9.642548    7.506769    5.526722
      3          5           0        8.090060    6.420987    6.165938
      4          8           0        7.415374    5.535162    6.760227
      5          1           0        6.998180    4.754088    6.347782
 ---------------------------------------------------------------------
                    Distance matrix (angstroms):
                    1          2          3          4          5
     1  O    0.000000
     2  H    0.976983   0.000000
     3  B    1.262370   1.999434   0.000000
     4  O    2.519118   3.220104   1.262167   0.000000
     5  H    3.222832   3.904366   2.000955   0.976851   0.000000
 Symmetry turned off by external request.
 Stoichiometry    BH2O2(1+)
 Framework group  C1[X(BH2O2)]
 Deg. of freedom     9
 Full point group                 C1      NOp   1
 Rotational constants (GHZ):         466.0805569           8.6519350           8.6488129

 **********************************************************************

            Population analysis using the SCF Density.

 **********************************************************************

 Alpha  occ. eigenvalues --  -19.78522 -19.78517  -7.27877  -1.30554  -1.30356
 Alpha  occ. eigenvalues --   -0.81167  -0.79722  -0.63466  -0.63320  -0.57038
 Alpha  occ. eigenvalues --   -0.57014
 Alpha virt. eigenvalues --   -0.05621  -0.01888  -0.01809  -0.00330   0.01902
 Alpha virt. eigenvalues --    0.02341   0.08473   0.10102   0.12029   0.15022
 Alpha virt. eigenvalues --    0.17007   0.18519   0.19966   0.20095   0.21874
 Alpha virt. eigenvalues --    0.24460   0.28669   0.36381   0.36871   0.48297
 Alpha virt. eigenvalues --    0.48514   0.49641   0.62379   0.72126   0.72426
 Alpha virt. eigenvalues --    0.76877   0.85037   0.93024   0.95398   0.97952
 Alpha virt. eigenvalues --    0.99117   1.04484   1.10537   1.13930   1.24233
 Alpha virt. eigenvalues --    1.38598   1.42874   1.51130   1.60735   1.64859
 Alpha virt. eigenvalues --    1.78191   1.79192   1.98065   1.99917   2.06156
 Alpha virt. eigenvalues --    2.24864   2.44715   2.52448   2.90284   2.92097
 Alpha virt. eigenvalues --    3.01524   3.04410   3.32020   3.32146   3.39034
 Alpha virt. eigenvalues --    3.52994   3.72308   3.81752   4.94720   4.95122
 Alpha virt. eigenvalues --    5.11849   5.16251   5.56367   5.71724  15.04683
 Alpha virt. eigenvalues --   49.88329  49.91185
          Condensed to atoms (all electrons):
               1          2          3          4          5
     1  O    7.708464   0.311417   0.476942  -0.226925   0.000861
     2  H    0.311417   0.286468  -0.007320   0.000895  -0.000057
     3  B    0.476942  -0.007320   3.336791   0.477162  -0.007616
     4  O   -0.226925   0.000895   0.477162   7.707954   0.311766
     5  H    0.000861  -0.000057  -0.007616   0.311766   0.286072
 Mulliken charges:
               1
     1  O   -0.270760
     2  H    0.408596
     3  B    0.724042
     4  O   -0.270852
     5  H    0.408975
 Sum of Mulliken charges =   1.00000
 Mulliken charges with hydrogens summed into heavy atoms:
               1
     1  O    0.137836
     3  B    0.724042
     4  O    0.138122
 Electronic spatial extent (au):  <R**2>=          11534.4342
 Charge=              1.0000 electrons
 Dipole moment (field-independent basis, Debye):
    X=             40.1554    Y=             29.1963    Z=             28.3164  Tot=             57.1550
 Quadrupole moment (field-independent basis, Debye-Ang):
   XX=            328.1564   YY=            168.0731   ZZ=            151.5473
   XY=            250.6559   XZ=            235.7816   YZ=            171.7645
 Traceless Quadrupole moment (field-independent basis, Debye-Ang):
   XX=            112.2308   YY=            -47.8525   ZZ=            -64.3783
   XY=            250.6559   XZ=            235.7816   YZ=            171.7645
 Octapole moment (field-independent basis, Debye-Ang**2):
  XXX=           2631.4462  YYY=            886.6910  ZZZ=            697.8295  XYY=           1488.6450
  XXY=           2099.9980  XXZ=           1913.0103  XZZ=           1261.4634  YZZ=            912.3714
  YYZ=            982.7696  XYZ=           1468.1921
 Hexadecapole moment (field-independent basis, Debye-Ang**3):
 XXXX=          20737.0002 YYYY=           3893.3097 ZZZZ=           2217.4694 XXXY=          17257.4035
 XXXZ=          15183.7362 YYYX=           8207.3058 YYYZ=           5128.3235 ZZZX=           5852.9587
 ZZZY=           4137.0840 XXYY=          12803.7403 XXZZ=          10154.8328 YYZZ=           5101.0933
 XXYZ=          12211.1484 YYXZ=           8664.4785 ZZXY=           7808.3499
 N-N= 6.105734116685D+01 E-N=-5.310508057712D+02  KE= 1.757435982987D+02
 Unable to Open any file for archive entry.
 1\1\GINC-CN010\FOpt\RM062X\6-311+G(d,p)\B1H2O2(1+)\TAHMINAAFROZ\02-Jun
 -2025\0\\# opt=(calcfc,tight) freq 6-311+g(d,p) scrf=(smd,solvent=thf)
  nosymm scf=(qc,fermi,xqc) geom=connectivity int=ultrafine m062x guess
 =read\\boh2-cation-opt-freq-thf\\1,1\O,8.6789845707,7.4166659195,5.660
 5971844\H,9.642547774,7.5067687979,5.5267219323\B,8.0900604899,6.42098
 68625,6.1659383558\O,7.4153738411,5.5351616733,6.7602265488\H,6.998180
 3243,4.7540877469,6.3477819787\\Version=AS64L-G16RevC.01\HF=-176.36445
 12\RMSD=8.518e-09\RMSF=8.062e-05\Dipole=0.5288968,-0.6716739,-0.532304
 9\Quadrupole=83.4408392,-35.5771651,-47.8636741,186.3565052,175.297842
 9,127.7027158\PG=C01 [X(B1H2O2)]\\@
 The archive entry for this job was punched.


 REFRAIN FROM ILLUSIONS, INSIST ON WORK AND NOT WORDS,
 PATIENTLY SEEK DIVINE AND SCIENTIFIC TRUTH.
 LAST WORDS OF MARIA MENDELEEVA TO HER SON DMITRI, C. 1850
 Job cpu time:       0 days  0 hours  2 minutes 45.7 seconds.
 Elapsed time:       0 days  0 hours  0 minutes  6.9 seconds.
 File lengths (MBytes):  RWF=     16 Int=      0 D2E=      0 Chk=     67 Scr=      1
 Normal termination of Gaussian 16 at Mon Jun  2 03:18:57 2025.
 Link1:  Proceeding to internal job step number  2.
 ----------------------------------------------------------------------
 #N Geom=AllCheck Guess=TCheck SCRF=Check GenChk RM062X/6-311+G(d,p) Fr
 eq
 ----------------------------------------------------------------------
 1/7=10,10=4,29=7,30=1,38=1,40=1/1,3;
 2/12=2,15=1,40=1/2;
 3/5=4,6=6,7=111,11=2,14=-4,25=1,30=1,70=2,71=2,74=-55,75=-5,116=1,140=1/1,2,3;
 4/5=101/1;
 5/5=2,22=13,38=6,98=1/2;
 8/6=4,10=90,11=11/1;
 11/6=1,8=1,9=11,15=111,16=1,31=1/1,2,10;
 10/6=1,31=1/2;
 6/7=2,8=2,9=2,10=2,28=1/1;
 7/8=1,10=1,25=1,30=1/1,2,3,16;
 1/7=10,10=4,30=1/3;
 99//99;
 Structure from the checkpoint file:  "boh2-cation-opt-freq-thf-2.chk"
 ------------------------
 boh2-cation-opt-freq-thf
 ------------------------
 Charge =  1 Multiplicity = 1
 Redundant internal coordinates found in file.  (old form).
 O,0,8.6789845707,7.4166659195,5.6605971844
 H,0,9.642547774,7.5067687979,5.5267219323
 B,0,8.0900604899,6.4209868625,6.1659383558
 O,0,7.4153738411,5.5351616733,6.7602265488
 H,0,6.9981803243,4.7540877469,6.3477819787
 Recover connectivity data from disk.

 GradGradGradGradGradGradGradGradGradGradGradGradGradGradGradGradGradGrad
 Berny optimization.
 Initialization pass.
                           ----------------------------
                           !    Initial Parameters    !
                           ! (Angstroms and Degrees)  !
 --------------------------                            --------------------------
 ! Name  Definition              Value          Derivative Info.                !
 --------------------------------------------------------------------------------
 ! R1    R(1,2)                  0.977          calculate D2E/DX2 analytically  !
 ! R2    R(1,3)                  1.2624         calculate D2E/DX2 analytically  !
 ! R3    R(3,4)                  1.2622         calculate D2E/DX2 analytically  !
 ! R4    R(4,5)                  0.9769         calculate D2E/DX2 analytically  !
 ! A1    A(2,1,3)              125.9947         calculate D2E/DX2 analytically  !
 ! A2    A(3,4,5)              126.2042         calculate D2E/DX2 analytically  !
 ! A3    L(1,3,4,2,-1)         184.4975         calculate D2E/DX2 analytically  !
 ! A4    L(1,3,4,2,-2)         163.1008         calculate D2E/DX2 analytically  !
 ! D1    D(2,1,4,5)            -94.3449         calculate D2E/DX2 analytically  !
 --------------------------------------------------------------------------------
 Trust Radius=3.00D-01 FncErr=1.00D-07 GrdErr=1.00D-07 EigMax=2.50D+02 EigMin=1.00D-04
 Number of steps in this run=      2 maximum allowed number of steps=      2.
 GradGradGradGradGradGradGradGradGradGradGradGradGradGradGradGradGradGrad

                          Input orientation:                          
 ---------------------------------------------------------------------
 Center     Atomic      Atomic             Coordinates (Angstroms)
 Number     Number       Type             X           Y           Z
 ---------------------------------------------------------------------
      1          8           0        8.678985    7.416666    5.660597
      2          1           0        9.642548    7.506769    5.526722
      3          5           0        8.090060    6.420987    6.165938
      4          8           0        7.415374    5.535162    6.760227
      5          1           0        6.998180    4.754088    6.347782
 ---------------------------------------------------------------------
                    Distance matrix (angstroms):
                    1          2          3          4          5
     1  O    0.000000
     2  H    0.976983   0.000000
     3  B    1.262370   1.999434   0.000000
     4  O    2.519118   3.220104   1.262167   0.000000
     5  H    3.222832   3.904366   2.000955   0.976851   0.000000
 Symmetry turned off by external request.
 Stoichiometry    BH2O2(1+)
 Framework group  C1[X(BH2O2)]
 Deg. of freedom     9
 Full point group                 C1      NOp   1
 Rotational constants (GHZ):         466.0805569           8.6519350           8.6488129
 Standard basis: 6-311+G(d,p) (5D, 7F)
    78 basis functions,   124 primitive gaussians,    81 cartesian basis functions
    11 alpha electrons       11 beta electrons
       nuclear repulsion energy        61.0586048844 Hartrees.
 NAtoms=    5 NActive=    5 NUniq=    5 SFac= 1.00D+00 NAtFMM=   60 NAOKFM=F Big=F
 Integral buffers will be    131072 words long.
 Raffenetti 2 integral format.
 Two-electron integral symmetry is turned off.
 Force inversion solution in PCM.
 ------------------------------------------------------------------------------
 Polarizable Continuum Model (PCM)
 =================================
 Model                : PCM.
 Atomic radii         : SMD-Coulomb.
 Polarization charges : Total charges.
 Charge compensation  : None.
 Solution method      : Matrix inversion.
 Cavity type          : VdW (van der Waals Surface) (Alpha=1.000).
 Cavity algorithm     : GePol (No added spheres)
                        Default sphere list used, NSphG=    5.
                        Lebedev-Laikov grids with approx.  5.0 points / Ang**2.
                        Smoothing algorithm: York/Karplus (Gamma=1.0000).
                        Polarization charges: spherical gaussians, with
                                              point-specific exponents (IZeta= 3).
                        Self-potential: point-specific (ISelfS= 7).
                        Self-field    : sphere-specific E.n sum rule (ISelfD= 2).
 1st derivatives      : Analytical E(r).r(x)/FMM algorithm (CHGder, D1EAlg=3).
                        Cavity 1st derivative terms included.
 2nd derivatives      : Analytical E(r).r(xy)/FMM algorithm (CHGder, D2EAlg=3).
                        Cavity 2nd derivative terms included.
 Solvent              : TetraHydroFuran, Eps=   7.425700 Eps(inf)=   1.974025
 ------------------------------------------------------------------------------
 Spheres list:
 ISph  on   Nord     Re0    Alpha      Xe            Ye            Ze
    1   O      1    2.2940  1.000      8.678985      7.416666      5.660597
    2   H      2    1.2000  1.000      9.642548      7.506769      5.526722
    3   B      3    1.8000  1.000      8.090060      6.420987      6.165938
    4   O      4    2.2940  1.000      7.415374      5.535162      6.760227
    5   H      5    1.2000  1.000      6.998180      4.754088      6.347782
 ------------------------------------------------------------------------------
 ------------------------------------------------------------------------------
 Atomic radii for non-electrostatic terms: SMD-CDS.
 ------------------------------------------------------------------------------
 Nuclear repulsion after PCM non-electrostatic terms =       61.0573411669 Hartrees.
 One-electron integrals computed using PRISM.
 NBasis=    78 RedAO= T EigKep=  3.72D-04  NBF=    78
 NBsUse=    78 1.00D-06 EigRej= -1.00D+00 NBFU=    78
 Initial guess from the checkpoint file:  "boh2-cation-opt-freq-thf-2.chk"
 B after Tr=     0.000000    0.000000    0.000000
         Rot=    1.000000    0.000000    0.000000    0.000000 Ang=   0.00 deg.
 Keep R1 ints in memory in canonical form, NReq=33757602.
 Requested convergence on RMS density matrix=1.00D-08 within 128 cycles.
 Requested convergence on MAX density matrix=1.00D-06.
 Requested convergence on             energy=1.00D-06.
 Level shift goal  0.100 maximum shift  0.100.
 No special actions if energy rises.
 Dynamic level shift is on during FON iterations.
 Inv3:  Mode=1 IEnd=     1491075.
 Iteration    1 A*A^-1 deviation from unit magnitude is 2.66D-15 for    697.
 Iteration    1 A*A^-1 deviation from orthogonality  is 1.29D-15 for    697    530.
 Iteration    1 A^-1*A deviation from unit magnitude is 2.66D-15 for    697.
 Iteration    1 A^-1*A deviation from orthogonality  is 1.10D-15 for    699      4.
 Error on total polarization charges =  0.00227
 SCF Done:  E(RM062X) =  -176.364451200     A.U. after    1 cycles
            NFock=  1  Conv=0.14D-08     -V/T= 2.0035
 SMD-CDS (non-electrostatic) energy       (kcal/mol) =      -0.79
 (included in total energy above)
 DoSCS=F DFT=T ScalE2(SS,OS)=  1.000000  1.000000
 Range of M.O.s used for correlation:     1    78
 NBasis=    78 NAE=    11 NBE=    11 NFC=     0 NFV=     0
 NROrb=     78 NOA=    11 NOB=    11 NVA=    67 NVB=    67

 **** Warning!!: The largest alpha MO coefficient is  0.18537032D+02

 Symmetrizing basis deriv contribution to polar:
 IMax=3 JMax=2 DiffMx= 0.00D+00
 G2DrvN: will do     6 centers at a time, making    1 passes.
 Calling FoFCou, ICntrl=  3107 FMM=F I1Cent=   0 AccDes= 0.00D+00.
 NEqPCM:  Using equilibrium solvation (IEInf=0, Eps=   7.4257, EpsInf=   1.9740)
 G2PCM: DoFxE=T DoFxN=T DoGrad=T DoDP/DQ/DG/TGxP=FFFF NFrqRd=   0 IEInf=0 SqF1=F DoCFld=F IF1Alg=4.
 End of G2Drv F.D. properties file   721 does not exist.
 End of G2Drv F.D. properties file   722 does not exist.
 End of G2Drv F.D. properties file   788 does not exist.
          IDoAtm=11111
 NEqPCM:  Using equilibrium solvation (IEInf=0, Eps=   7.4257, EpsInf=   1.9740)
          Differentiating once with respect to electric field.
                with respect to dipole field.
          Differentiating once with respect to nuclear coordinates.
 Keep R1 ints in memory in canonical form, NReq=33650071.
          There are    18 degrees of freedom in the 1st order CPHF.  IDoFFX=6 NUNeed=     3.
     15 vectors produced by pass  0 Test12= 4.09D-15 5.56D-09 XBig12= 5.66D+00 9.35D-01.
 AX will form    15 AO Fock derivatives at one time.
     15 vectors produced by pass  1 Test12= 4.09D-15 5.56D-09 XBig12= 4.57D-01 1.43D-01.
     15 vectors produced by pass  2 Test12= 4.09D-15 5.56D-09 XBig12= 7.33D-03 1.54D-02.
     15 vectors produced by pass  3 Test12= 4.09D-15 5.56D-09 XBig12= 6.81D-05 1.72D-03.
     15 vectors produced by pass  4 Test12= 4.09D-15 5.56D-09 XBig12= 4.80D-07 9.65D-05.
     15 vectors produced by pass  5 Test12= 4.09D-15 5.56D-09 XBig12= 2.26D-09 8.79D-06.
      8 vectors produced by pass  6 Test12= 4.09D-15 5.56D-09 XBig12= 5.46D-12 3.32D-07.
      3 vectors produced by pass  7 Test12= 4.09D-15 5.56D-09 XBig12= 1.05D-14 1.57D-08.
 InvSVY:  IOpt=1 It=  1 EMax= 9.99D-16
 Solved reduced A of dimension   101 with    15 vectors.
 Isotropic polarizability for W=    0.000000       16.77 Bohr**3.
 End of Minotr F.D. properties file   721 does not exist.
 End of Minotr F.D. properties file   722 does not exist.
 End of Minotr F.D. properties file   788 does not exist.

 **********************************************************************

            Population analysis using the SCF Density.

 **********************************************************************

 Alpha  occ. eigenvalues --  -19.78522 -19.78517  -7.27877  -1.30554  -1.30356
 Alpha  occ. eigenvalues --   -0.81167  -0.79722  -0.63466  -0.63320  -0.57038
 Alpha  occ. eigenvalues --   -0.57014
 Alpha virt. eigenvalues --   -0.05621  -0.01888  -0.01809  -0.00330   0.01902
 Alpha virt. eigenvalues --    0.02341   0.08473   0.10102   0.12029   0.15022
 Alpha virt. eigenvalues --    0.17007   0.18519   0.19966   0.20095   0.21874
 Alpha virt. eigenvalues --    0.24460   0.28669   0.36381   0.36871   0.48297
 Alpha virt. eigenvalues --    0.48514   0.49641   0.62379   0.72126   0.72426
 Alpha virt. eigenvalues --    0.76877   0.85037   0.93024   0.95398   0.97952
 Alpha virt. eigenvalues --    0.99117   1.04484   1.10537   1.13930   1.24233
 Alpha virt. eigenvalues --    1.38598   1.42874   1.51130   1.60735   1.64859
 Alpha virt. eigenvalues --    1.78191   1.79192   1.98065   1.99917   2.06156
 Alpha virt. eigenvalues --    2.24864   2.44715   2.52448   2.90284   2.92097
 Alpha virt. eigenvalues --    3.01524   3.04410   3.32020   3.32146   3.39034
 Alpha virt. eigenvalues --    3.52994   3.72308   3.81752   4.94720   4.95122
 Alpha virt. eigenvalues --    5.11849   5.16251   5.56367   5.71724  15.04683
 Alpha virt. eigenvalues --   49.88329  49.91185
          Condensed to atoms (all electrons):
               1          2          3          4          5
     1  O    7.708464   0.311417   0.476942  -0.226925   0.000861
     2  H    0.311417   0.286468  -0.007320   0.000895  -0.000057
     3  B    0.476942  -0.007320   3.336791   0.477162  -0.007616
     4  O   -0.226925   0.000895   0.477162   7.707954   0.311766
     5  H    0.000861  -0.000057  -0.007616   0.311766   0.286072
 Mulliken charges:
               1
     1  O   -0.270760
     2  H    0.408596
     3  B    0.724042
     4  O   -0.270852
     5  H    0.408975
 Sum of Mulliken charges =   1.00000
 Mulliken charges with hydrogens summed into heavy atoms:
               1
     1  O    0.137836
     3  B    0.724042
     4  O    0.138123
 APT charges:
               1
     1  O   -0.952406
     2  H    0.588899
     3  B    1.727272
     4  O   -0.953656
     5  H    0.589890
 Sum of APT charges =   1.00000
 APT charges with hydrogens summed into heavy atoms:
               1
     1  O   -0.363506
     3  B    1.727272
     4  O   -0.363766
 Electronic spatial extent (au):  <R**2>=          11534.4342
 Charge=              1.0000 electrons
 Dipole moment (field-independent basis, Debye):
    X=             40.1554    Y=             29.1963    Z=             28.3164  Tot=             57.1550
 Quadrupole moment (field-independent basis, Debye-Ang):
   XX=            328.1564   YY=            168.0731   ZZ=            151.5473
   XY=            250.6559   XZ=            235.7816   YZ=            171.7645
 Traceless Quadrupole moment (field-independent basis, Debye-Ang):
   XX=            112.2308   YY=            -47.8525   ZZ=            -64.3783
   XY=            250.6559   XZ=            235.7816   YZ=            171.7645
 Octapole moment (field-independent basis, Debye-Ang**2):
  XXX=           2631.4462  YYY=            886.6910  ZZZ=            697.8294  XYY=           1488.6450
  XXY=           2099.9980  XXZ=           1913.0103  XZZ=           1261.4634  YZZ=            912.3714
  YYZ=            982.7696  XYZ=           1468.1921
 Hexadecapole moment (field-independent basis, Debye-Ang**3):
 XXXX=          20737.0004 YYYY=           3893.3098 ZZZZ=           2217.4692 XXXY=          17257.4036
 XXXZ=          15183.7360 YYYX=           8207.3059 YYYZ=           5128.3233 ZZZX=           5852.9584
 ZZZY=           4137.0838 XXYY=          12803.7403 XXZZ=          10154.8326 YYZZ=           5101.0931
 XXYZ=          12211.1483 YYXZ=           8664.4784 ZZXY=           7808.3496
 N-N= 6.105734116685D+01 E-N=-5.310508059807D+02  KE= 1.757435983148D+02
  Exact polarizability:      16.492       6.064      19.915      -3.038      -3.994      13.888
 Approx polarizability:      15.900       5.685      19.689      -3.050      -4.221      14.054
 D2PCM: PCM CHGder 2nd derivatives, FixD1E=F FixD2E=F DoIter=F DoCFld=F I1PDM=0
 Calling FoFJK, ICntrl=    100127 FMM=F ISym2X=0 I1Cent= 0 IOpClX= 0 NMat=1 NMatS=1 NMatT=0.
 Full mass-weighted force constant matrix:
 Low frequencies ---  -94.8408   -0.0007   -0.0001    0.0002   72.3465  159.9071
 Low frequencies ---  333.3244  391.7750  399.6802
 Diagonal vibrational polarizability:
       31.8514619      56.8989520      36.2086212
 Harmonic frequencies (cm**-1), IR intensities (KM/Mole), Raman scattering
 activities (A**4/AMU), depolarization ratios for plane and unpolarized
 incident light, reduced masses (AMU), force constants (mDyne/A),
 and normal coordinates:
                      1                      2                      3
                      A                      A                      A
 Frequencies --    332.7673               391.7681               399.4585
 Red. masses --      1.1835                 3.2214                 3.0737
 Frc consts  --      0.0772                 0.2913                 0.2890
 IR Inten    --    267.1360                71.5347                16.1862
  Atom  AN      X      Y      Z        X      Y      Z        X      Y      Z
     1   8    -0.01  -0.03  -0.07    -0.05  -0.04  -0.11    -0.09   0.03   0.05
     2   1     0.07   0.25   0.65    -0.12   0.12  -0.50    -0.18   0.71  -0.08
     3   5    -0.02   0.04   0.03     0.19   0.08   0.37     0.30  -0.26  -0.09
     4   8     0.06  -0.04   0.01    -0.08  -0.04  -0.07    -0.08   0.10   0.01
     5   1    -0.57   0.38  -0.15     0.11   0.18  -0.69    -0.42   0.18   0.22
                      4                      5                      6
                      A                      A                      A
 Frequencies --    714.5751               738.9057              1073.8641
 Red. masses --      1.3903                 1.3524                 8.7947
 Frc consts  --      0.4183                 0.4350                 5.9754
 IR Inten    --    574.4245               132.8601                 1.0623
  Atom  AN      X      Y      Z        X      Y      Z        X      Y      Z
     1   8     0.04  -0.06   0.04     0.05  -0.06   0.01     0.25   0.39  -0.20
     2   1    -0.08   0.64  -0.24    -0.08   0.63  -0.30     0.29   0.35  -0.19
     3   5    -0.08   0.02  -0.10    -0.07   0.08   0.06     0.03  -0.04  -0.03
     4   8     0.00   0.00   0.09     0.02  -0.02  -0.07    -0.27  -0.36   0.23
     5   1     0.28   0.20  -0.61    -0.23  -0.23   0.62    -0.27  -0.37   0.16
                      7                      8                      9
                      A                      A                      A
 Frequencies --   2034.2612              3652.0296              3681.0362
 Red. masses --      9.4789                 1.0660                 1.0701
 Frc consts  --     23.1112                 8.3764                 8.5432
 IR Inten    --    769.1747              1223.7175               225.0977
  Atom  AN      X      Y      Z        X      Y      Z        X      Y      Z
     1   8    -0.14  -0.19   0.10    -0.04  -0.01   0.01    -0.04  -0.01   0.01
     2   1    -0.12  -0.28   0.13     0.68   0.08  -0.10     0.70   0.08  -0.10
     3   5     0.43   0.60  -0.32     0.00   0.00   0.00     0.00   0.00   0.00
     4   8    -0.14  -0.19   0.10    -0.02  -0.04  -0.02     0.02   0.04   0.02
     5   1    -0.18  -0.21   0.19     0.31   0.58   0.29    -0.30  -0.56  -0.28

 -------------------
 - Thermochemistry -
 -------------------
 Temperature   298.150 Kelvin.  Pressure   1.00000 Atm.
 Atom     1 has atomic number  8 and mass  15.99491
 Atom     2 has atomic number  1 and mass   1.00783
 Atom     3 has atomic number  5 and mass  11.00931
 Atom     4 has atomic number  8 and mass  15.99491
 Atom     5 has atomic number  1 and mass   1.00783
 Molecular mass:    45.01478 amu.
 Principal axes and moments of inertia in atomic units:
                           1         2         3
     Eigenvalues --     3.87217 208.59394 208.66924
           X            0.52652   0.70757  -0.47130
           Y            0.74505  -0.11702   0.65667
           Z           -0.40949   0.69689   0.58878
 This molecule is an asymmetric top.
 Rotational symmetry number  1.
 Rotational temperatures (Kelvin)     22.36834     0.41523     0.41508
 Rotational constants (GHZ):         466.08056     8.65193     8.64881
 Zero-point vibrational energy      77868.9 (Joules/Mol)
                                   18.61112 (Kcal/Mol)
 Warning -- explicit consideration of   3 degrees of freedom as
           vibrations may cause significant error
 Vibrational temperatures:    478.78   563.67   574.73  1028.11  1063.12
          (Kelvin)           1545.05  2926.85  5254.46  5296.19
 
 Zero-point correction=                           0.029659 (Hartree/Particle)
 Thermal correction to Energy=                    0.033732
 Thermal correction to Enthalpy=                  0.034677
 Thermal correction to Gibbs Free Energy=         0.005728
 Sum of electronic and zero-point Energies=           -176.334792
 Sum of electronic and thermal Energies=              -176.330719
 Sum of electronic and thermal Enthalpies=            -176.329775
 Sum of electronic and thermal Free Energies=         -176.358723
 
                     E (Thermal)             CV                S
                      KCal/Mol        Cal/Mol-Kelvin    Cal/Mol-Kelvin
 Total                   21.167             12.402             60.927
 Electronic               0.000              0.000              0.000
 Translational            0.889              2.981             37.339
 Rotational               0.889              2.981             19.761
 Vibrational             19.390              6.441              3.828
 Vibration     1          0.715              1.610              1.247
 Vibration     2          0.759              1.488              0.993
 Vibration     3          0.766              1.471              0.965
                       Q            Log10(Q)             Ln(Q)
 Total Bot       0.231888D-02         -2.634722         -6.066672
 Total V=0       0.101700D+12         11.007322         25.345296
 Vib (Bot)       0.420328D-13        -13.376411        -30.800326
 Vib (Bot)    1  0.560533D+00         -0.251399         -0.578867
 Vib (Bot)    2  0.457677D+00         -0.339441         -0.781591
 Vib (Bot)    3  0.446371D+00         -0.350304         -0.806605
 Vib (V=0)       0.184346D+01          0.265633          0.611642
 Vib (V=0)    1  0.125113D+01          0.097303          0.224048
 Vib (V=0)    2  0.117784D+01          0.071087          0.163683
 Vib (V=0)    3  0.117026D+01          0.068282          0.157225
 Electronic      0.100000D+01          0.000000          0.000000
 Translational   0.118710D+08          7.074487         16.289607
 Rotational      0.464732D+04          3.667203          8.444046
 -------------------------------------------------------------------
 Center     Atomic                   Forces (Hartrees/Bohr)
 Number     Number              X              Y              Z
 -------------------------------------------------------------------
      1        8          -0.000098504    0.000042972   -0.000008987
      2        1          -0.000122010    0.000079125   -0.000153742
      3        5           0.000008738   -0.000007084    0.000017956
      4        8           0.000127016   -0.000065090    0.000065312
      5        1           0.000084760   -0.000049922    0.000079460
 -------------------------------------------------------------------
 Cartesian Forces:  Max     0.000153742 RMS     0.000080618
 FormGI is forming the generalized inverse of G from B-inverse, IUseBI=4.

 GradGradGradGradGradGradGradGradGradGradGradGradGradGradGradGradGradGrad
 Berny optimization.
 Internal  Forces:  Max     0.000000086 RMS     0.000000045
 Search for a local minimum.
 Step number   1 out of a maximum of    2
 All quantities printed in internal units (Hartrees-Bohrs-Radians)
 Second derivative matrix not updated -- analytic derivatives used.
 The second derivative matrix:
                          R1        R2        R3        R4        A1
           R1           0.48300
           R2           0.01179   0.69314
           R3          -0.01177   0.04496   0.69376
           R4           0.00269  -0.00999   0.01313   0.48334
           A1           0.02161   0.06734  -0.00584   0.00207   0.05994
           A2           0.00220  -0.01097   0.06341   0.01952  -0.00146
           A3          -0.00085  -0.00803   0.00426   0.00116  -0.00389
           A4          -0.00152   0.00247   0.00383   0.00047   0.00429
           D1           0.00094  -0.00094  -0.00155  -0.00064  -0.00089
                          A2        A3        A4        D1
           A2           0.06641
           A3          -0.00105   0.08288
           A4          -0.00007   0.00112   0.00908
           D1           0.00231  -0.00729  -0.00028   0.00494
 ITU=  0
     Eigenvalues ---    0.00413   0.00862   0.05191   0.05886   0.08382
     Eigenvalues ---    0.47746   0.48700   0.66140   0.74330
 Angle between quadratic step and forces=  90.00 degrees.
 Linear search not attempted -- first point.
 Iteration  1 RMS(Cart)=  0.00000018 RMS(Int)=  0.00000000
 Variable       Old X    -DE/DX   Delta X   Delta X   Delta X     New X
                                 (Linear)    (Quad)   (Total)
    R1        1.84623   0.00000   0.00000   0.00000   0.00000   1.84623
    R2        2.38553   0.00000   0.00000   0.00000   0.00000   2.38553
    R3        2.38515   0.00000   0.00000   0.00000   0.00000   2.38515
    R4        1.84598   0.00000   0.00000   0.00000   0.00000   1.84598
    A1        2.19902   0.00000   0.00000   0.00000   0.00000   2.19902
    A2        2.20268   0.00000   0.00000   0.00000   0.00000   2.20268
    A3        3.22009   0.00000   0.00000   0.00000   0.00000   3.22009
    A4        2.84665   0.00000   0.00000   0.00000   0.00000   2.84665
    D1       -1.64663   0.00000   0.00000   0.00000   0.00000  -1.64663
         Item               Value     Threshold  Converged?
 Maximum Force            0.000000     0.000015     YES
 RMS     Force            0.000000     0.000010     YES
 Maximum Displacement     0.000000     0.000060     YES
 RMS     Displacement     0.000000     0.000040     YES
 Predicted change in Energy=-1.847913D-14
 Optimization completed.
    -- Stationary point found.
                           ----------------------------
                           !   Optimized Parameters   !
                           ! (Angstroms and Degrees)  !
 --------------------------                            --------------------------
 ! Name  Definition              Value          Derivative Info.                !
 --------------------------------------------------------------------------------
 ! R1    R(1,2)                  0.977          -DE/DX =    0.0                 !
 ! R2    R(1,3)                  1.2624         -DE/DX =    0.0                 !
 ! R3    R(3,4)                  1.2622         -DE/DX =    0.0                 !
 ! R4    R(4,5)                  0.9769         -DE/DX =    0.0                 !
 ! A1    A(2,1,3)              125.9947         -DE/DX =    0.0                 !
 ! A2    A(3,4,5)              126.2042         -DE/DX =    0.0                 !
 ! A3    L(1,3,4,2,-1)         184.4975         -DE/DX =    0.0                 !
 ! A4    L(1,3,4,2,-2)         163.1008         -DE/DX =    0.0                 !
 ! D1    D(2,1,4,5)            -94.3449         -DE/DX =    0.0                 !
 --------------------------------------------------------------------------------
 GradGradGradGradGradGradGradGradGradGradGradGradGradGradGradGradGradGrad


 ----------------------------------------------------------------------

 Electric dipole moment (input orientation):
 (Debye = 10**-18 statcoulomb cm , SI units = C m)
                  (au)            (Debye)         (10**-30 SI)
   Tot        0.224865D+02      0.571550D+02      0.190649D+03
   x          0.157984D+02      0.401554D+02      0.133944D+03
   y          0.114867D+02      0.291963D+02      0.973882D+02
   z          0.111405D+02      0.283164D+02      0.944532D+02

 Dipole polarizability, Alpha (input orientation).
 (esu units = cm**3 , SI units = C**2 m**2 J**-1)
 Alpha(0;0):
               (au)            (10**-24 esu)      (10**-40 SI)
   iso        0.167650D+02      0.248432D+01      0.276418D+01
   aniso      0.146041D+02      0.216410D+01      0.240789D+01
   xx         0.164923D+02      0.244391D+01      0.271921D+01
   yx         0.606407D+01      0.898603D+00      0.999830D+00
   yy         0.199149D+02      0.295108D+01      0.328352D+01
   zx        -0.303834D+01     -0.450235D+00     -0.500954D+00
   zy        -0.399401D+01     -0.591851D+00     -0.658523D+00
   zz         0.138880D+02      0.205799D+01      0.228982D+01

 ----------------------------------------------------------------------

 Dipole orientation:
     8          0.10838436          2.16948602         23.98186612
     1          1.46510802          2.00228339         25.22279653
     5         -0.85654301          0.39551717         22.71193689
     8         -2.09795624         -1.25404917         21.51746258
     1         -1.72429185         -1.88516350         19.82343974

 Electric dipole moment (dipole orientation):
 (Debye = 10**-18 statcoulomb cm , SI units = C m)
                  (au)            (Debye)         (10**-30 SI)
   Tot        0.224865D+02      0.571550D+02      0.190649D+03
   x          0.000000D+00      0.000000D+00      0.000000D+00
   y          0.000000D+00      0.000000D+00      0.000000D+00
   z          0.224865D+02      0.571550D+02      0.190649D+03

 Dipole polarizability, Alpha (dipole orientation).
 (esu units = cm**3 , SI units = C**2 m**2 J**-1)
 Alpha(0;0):
               (au)            (10**-24 esu)      (10**-40 SI)
   iso        0.167650D+02      0.248432D+01      0.276418D+01
   aniso      0.146041D+02      0.216410D+01      0.240789D+01
   xx         0.149672D+02      0.221791D+01      0.246776D+01
   yx         0.444439D+01      0.658591D+00      0.732781D+00
   yy         0.183658D+02      0.272153D+01      0.302811D+01
   zx         0.393927D+01      0.583739D+00      0.649498D+00
   zy         0.573638D+01      0.850043D+00      0.945801D+00
   zz         0.169621D+02      0.251352D+01      0.279667D+01

 ----------------------------------------------------------------------
 Unable to Open any file for archive entry.
 1\1\GINC-CN010\Freq\RM062X\6-311+G(d,p)\B1H2O2(1+)\TAHMINAAFROZ\02-Jun
 -2025\0\\#N Geom=AllCheck Guess=TCheck SCRF=Check GenChk RM062X/6-311+
 G(d,p) Freq\\boh2-cation-opt-freq-thf\\1,1\O,8.6789845707,7.4166659195
 ,5.6605971844\H,9.642547774,7.5067687979,5.5267219323\B,8.0900604899,6
 .4209868625,6.1659383558\O,7.4153738411,5.5351616733,6.7602265488\H,6.
 9981803243,4.7540877469,6.3477819787\\Version=AS64L-G16RevC.01\HF=-176
 .3644512\RMSD=1.357e-09\RMSF=8.062e-05\ZeroPoint=0.0296587\Thermal=0.0
 337324\ETot=-176.3307188\HTot=-176.3297746\GTot=-176.3587231\Dipole=0.
 5288968,-0.6716739,-0.532305\DipoleDeriv=-1.0101205,-0.4646542,0.25005
 44,-0.5309075,-1.1199144,0.3004893,0.2665656,0.280315,-0.7271821,0.741
 7012,0.1811721,-0.1043469,0.116068,0.5225884,-0.0320562,-0.0768574,-0.
 0429671,0.5024082,1.619893,0.6341755,-0.3214062,0.7216763,2.1142847,-0
 .4964724,-0.4317429,-0.584439,1.4476386,-0.9297626,-0.5094096,0.175216
 5,-0.4809949,-1.2586806,0.2433053,0.2068852,0.3022179,-0.6725251,0.578
 2889,0.1587162,0.0004822,0.1741581,0.7417219,-0.015266,0.0351494,0.044
 8733,0.4496604\Polar=16.4922968,6.0640721,19.914852,-3.0383368,-3.9940
 088,13.887979\Quadrupole=83.4408403,-35.5771648,-47.8636755,186.356504
 8,175.2978409,127.7027136\PG=C01 [X(B1H2O2)]\NImag=0\\0.64412213,0.280
 23243,0.39507968,-0.19227161,-0.19791573,0.13138053,-0.45733547,-0.049
 61981,0.06731712,0.46673423,-0.02375447,-0.00048415,0.00201776,0.05200
 809,0.02098835,0.05517001,0.00463914,-0.00840675,-0.06879542,-0.013524
 71,0.01499660,-0.18730942,-0.20596014,0.10853425,-0.01516300,-0.031980
 14,0.01439637,0.41907220,-0.22984666,-0.37408006,0.17524527,-0.0097538
 6,-0.02363632,0.00971312,0.48655432,0.75227469,0.11647018,0.17033263,-
 0.10958563,0.00651734,0.01278291,-0.00976044,-0.26642838,-0.36860336,0
 .26748320,-0.00582671,-0.03036382,0.01703783,0.00721197,0.00463189,0.0
 0015638,-0.20003163,-0.22599887,0.14143772,0.28228815,-0.03226953,-0.0
 2936604,0.02643917,0.00978156,0.00359364,-0.00248216,-0.23356036,-0.32
 644762,0.18183754,0.41009355,0.64852304,0.01934479,0.02179697,-0.01233
 584,-0.00461923,-0.00079754,0.00325454,0.12893799,0.16065512,-0.144243
 66,-0.06423080,-0.03078649,0.23963371,0.00634948,0.00571133,-0.0006176
 0,-0.00144774,-0.00090538,-0.00092734,-0.01656816,-0.02095493,0.002003
 14,-0.08364177,-0.15404523,-0.07943274,0.09530819,0.00563823,0.0088505
 7,-0.00578647,-0.00241598,-0.00046152,0.00165462,-0.01505368,-0.028110
 69,0.00365028,-0.15836276,-0.29630302,-0.15086806,0.17019420,0.3160246
 6,0.00128663,0.00114700,-0.00105230,-0.00041981,-0.00047841,-0.0000839
 5,0.01455977,0.02298985,-0.00389346,-0.09440113,-0.17500806,-0.0863087
 4,0.07897454,0.15134963,0.09133846\\0.00009850,-0.00004297,0.00000899,
 0.00012201,-0.00007912,0.00015374,-0.00000874,0.00000708,-0.00001796,-
 0.00012702,0.00006509,-0.00006531,-0.00008476,0.00004992,-0.00007946\\
 \@
 The archive entry for this job was punched.


 Human beings, who are almost unique in having the
 ability to learn from the experience of others, are
 also remarkable for their apparent disinclination to do so.
                               -- Douglas Adams,
                                Last Chance to See
 Job cpu time:       0 days  0 hours  2 minutes 20.9 seconds.
 Elapsed time:       0 days  0 hours  0 minutes  5.5 seconds.
 File lengths (MBytes):  RWF=     16 Int=      0 D2E=      0 Chk=     67 Scr=      1
 Normal termination of Gaussian 16 at Mon Jun  2 03:19:03 2025.
