/home/tahminaafroz
cn013.cluster.local
tahminaafroz
Fri May 30 05:16:27 CDT 2025
 Entering Gaussian System, Link 0=g16
 Initial command:
 /home/apps/g16/l1.exe "/tmp/2-br-ph-anion-opt-freq-thf/Gau-1757584.inp" -scrdir="/tmp/2-br-ph-anion-opt-freq-thf/"
 Entering Link 1 = /home/apps/g16/l1.exe PID=   1757585.
  
 Copyright (c) 1988-2019, Gaussian, Inc.  All Rights Reserved.
  
 This is part of the Gaussian(R) 16 program.  It is based on
 the Gaussian(R) 09 system (copyright 2009, Gaussian, Inc.),
 the Gaussian(R) 03 system (copyright 2003, Gaussian, Inc.),
 the Gaussian(R) 98 system (copyright 1998, Gaussian, Inc.),
 the Gaussian(R) 94 system (copyright 1995, Gaussian, Inc.),
 the Gaussian 92(TM) system (copyright 1992, Gaussian, Inc.),
 the Gaussian 90(TM) system (copyright 1990, Gaussian, Inc.),
 the Gaussian 88(TM) system (copyright 1988, Gaussian, Inc.),
 the Gaussian 86(TM) system (copyright 1986, Carnegie Mellon
 University), and the Gaussian 82(TM) system (copyright 1983,
 Carnegie Mellon University). Gaussian is a federally registered
 trademark of Gaussian, Inc.
  
 This software contains proprietary and confidential information,
 including trade secrets, belonging to Gaussian, Inc.
  
 This software is provided under written license and may be
 used, copied, transmitted, or stored only in accord with that
 written license.
  
 The following legend is applicable only to US Government
 contracts under FAR:
  
                    RESTRICTED RIGHTS LEGEND
  
 Use, reproduction and disclosure by the US Government is
 subject to restrictions as set forth in subparagraphs (a)
 and (c) of the Commercial Computer Software - Restricted
 Rights clause in FAR 52.227-19.
  
 Gaussian, Inc.
 340 Quinnipiac St., Bldg. 40, Wallingford CT 06492
  
  
 ---------------------------------------------------------------
 Warning -- This program may not be used in any manner that
 competes with the business of Gaussian, Inc. or will provide
 assistance to any competitor of Gaussian, Inc.  The licensee
 of this program is prohibited from giving any competitor of
 Gaussian, Inc. access to this program.  By using this program,
 the user acknowledges that Gaussian, Inc. is engaged in the
 business of creating and licensing software in the field of
 computational chemistry and represents and warrants to the
 licensee that it is not a competitor of Gaussian, Inc. and that
 it will not use this program in any manner prohibited above.
 ---------------------------------------------------------------
  

 Cite this work as:
 Gaussian 16, Revision C.01,
 M. J. Frisch, G. W. Trucks, H. B. Schlegel, G. E. Scuseria, 
 M. A. Robb, J. R. Cheeseman, G. Scalmani, V. Barone, 
 G. A. Petersson, H. Nakatsuji, X. Li, M. Caricato, A. V. Marenich, 
 J. Bloino, B. G. Janesko, R. Gomperts, B. Mennucci, H. P. Hratchian, 
 J. V. Ortiz, A. F. Izmaylov, J. L. Sonnenberg, D. Williams-Young, 
 F. Ding, F. Lipparini, F. Egidi, J. Goings, B. Peng, A. Petrone, 
 T. Henderson, D. Ranasinghe, V. G. Zakrzewski, J. Gao, N. Rega, 
 G. Zheng, W. Liang, M. Hada, M. Ehara, K. Toyota, R. Fukuda, 
 J. Hasegawa, M. Ishida, T. Nakajima, Y. Honda, O. Kitao, H. Nakai, 
 T. Vreven, K. Throssell, J. A. Montgomery, Jr., J. E. Peralta, 
 F. Ogliaro, M. J. Bearpark, J. J. Heyd, E. N. Brothers, K. N. Kudin, 
 V. N. Staroverov, T. A. Keith, R. Kobayashi, J. Normand, 
 K. Raghavachari, A. P. Rendell, J. C. Burant, S. S. Iyengar, 
 J. Tomasi, M. Cossi, J. M. Millam, M. Klene, C. Adamo, R. Cammi, 
 J. W. Ochterski, R. L. Martin, K. Morokuma, O. Farkas, 
 J. B. Foresman, and D. J. Fox, Gaussian, Inc., Wallingford CT, 2019.
 
 ******************************************
 Gaussian 16:  AS64L-G16RevC.01  3-Jul-2019
                30-May-2025 
 ******************************************
 %mem=20GB
 %nprocshared=32
 Will use up to   32 processors via shared memory.
 %chk=2-br-ph-anion-opt-freq-thf.chk
 ----------------------------------------------------------------------
 # opt=(calcfc,tight) freq 6-311+g(d,p) scrf=(smd,solvent=thf) nosymm s
 cf=(qc,fermi,xqc) geom=connectivity int=ultrafine m062x
 ----------------------------------------------------------------------
 1/7=10,10=4,18=20,19=15,26=6,38=1,57=2/1,3;
 2/9=110,12=2,15=1,17=6,18=5,40=1/2;
 3/5=4,6=6,7=111,11=2,25=1,30=1,70=32201,71=2,72=20,74=-55,75=-5,140=1/1,2,3;
 4//1;
 5/5=2,22=13,38=5,53=20/2;
 8/6=4,10=90,11=11/1;
 11/6=1,8=1,9=11,15=111,16=1,31=1/1,2,10;
 10/6=1,13=1,31=1/2;
 6/7=2,8=2,9=2,10=2,28=1/1;
 7/10=1,25=1,30=1/1,2,3,16;
 1/7=10,10=4,18=20,19=15,26=6/3(2);
 2/9=110,15=1/2;
 99//99;
 2/9=110,15=1/2;
 3/5=4,6=6,7=111,11=2,25=1,30=1,70=32205,71=1,72=20,74=-55,75=-5/1,2,3;
 4/5=5,16=3,69=1/1;
 5/5=2,22=13,38=5,53=20/2;
 7/30=1/1,2,3,16;
 1/7=10,18=20,19=15,26=6/3(-5);
 2/9=110,15=1/2;
 6/7=2,8=2,9=2,10=2,19=2,28=1/1;
 99/9=1/99;
 --------------------------
 2-br-ph-anion-opt-freq-thf
 --------------------------
 Symbolic Z-matrix:
 Charge = -1 Multiplicity = 1
 C                     6.16109   7.0629    5.14875 
 C                     5.46891   6.026     4.57472 
 H                     5.85268   5.01219   4.57069 
 C                     4.23693   6.34001   3.99142 
 H                     3.65016   5.55728   3.52474 
 C                     3.76618   7.65132   4.00951 
 C                     4.50341   8.67336   4.60375 
 H                     4.13319   9.69184   4.61496 
 C                     5.73068   8.3597    5.18572 
 H                     2.81118   7.88734   3.5554 
 Br                    6.79392   9.70097   6.01949 
 

 GradGradGradGradGradGradGradGradGradGradGradGradGradGradGradGradGradGrad
 Berny optimization.
 Initialization pass.
                           ----------------------------
                           !    Initial Parameters    !
                           ! (Angstroms and Degrees)  !
 --------------------------                            --------------------------
 ! Name  Definition              Value          Derivative Info.                !
 --------------------------------------------------------------------------------
 ! R1    R(1,2)                  1.3725         calculate D2E/DX2 analytically  !
 ! R2    R(1,9)                  1.3669         calculate D2E/DX2 analytically  !
 ! R3    R(2,3)                  1.084          calculate D2E/DX2 analytically  !
 ! R4    R(2,4)                  1.3988         calculate D2E/DX2 analytically  !
 ! R5    R(4,5)                  1.0839         calculate D2E/DX2 analytically  !
 ! R6    R(4,6)                  1.3934         calculate D2E/DX2 analytically  !
 ! R7    R(6,7)                  1.3933         calculate D2E/DX2 analytically  !
 ! R8    R(6,10)                 1.0835         calculate D2E/DX2 analytically  !
 ! R9    R(7,8)                  1.0837         calculate D2E/DX2 analytically  !
 ! R10   R(7,9)                  1.394          calculate D2E/DX2 analytically  !
 ! R11   R(9,11)                 1.9039         calculate D2E/DX2 analytically  !
 ! A1    A(2,1,9)              124.6984         calculate D2E/DX2 analytically  !
 ! A2    A(1,2,3)              121.9753         calculate D2E/DX2 analytically  !
 ! A3    A(1,2,4)              116.6791         calculate D2E/DX2 analytically  !
 ! A4    A(3,2,4)              121.3456         calculate D2E/DX2 analytically  !
 ! A5    A(2,4,5)              119.6202         calculate D2E/DX2 analytically  !
 ! A6    A(2,4,6)              120.226          calculate D2E/DX2 analytically  !
 ! A7    A(5,4,6)              120.1538         calculate D2E/DX2 analytically  !
 ! A8    A(4,6,7)              121.1396         calculate D2E/DX2 analytically  !
 ! A9    A(4,6,10)             119.825          calculate D2E/DX2 analytically  !
 ! A10   A(7,6,10)             119.0355         calculate D2E/DX2 analytically  !
 ! A11   A(6,7,8)              120.8663         calculate D2E/DX2 analytically  !
 ! A12   A(6,7,9)              118.6102         calculate D2E/DX2 analytically  !
 ! A13   A(8,7,9)              120.5235         calculate D2E/DX2 analytically  !
 ! A14   A(1,9,7)              118.6467         calculate D2E/DX2 analytically  !
 ! A15   A(1,9,11)             120.2905         calculate D2E/DX2 analytically  !
 ! A16   A(7,9,11)             121.0628         calculate D2E/DX2 analytically  !
 ! D1    D(9,1,2,3)           -179.9983         calculate D2E/DX2 analytically  !
 ! D2    D(9,1,2,4)             -0.0101         calculate D2E/DX2 analytically  !
 ! D3    D(2,1,9,7)             -0.0332         calculate D2E/DX2 analytically  !
 ! D4    D(2,1,9,11)           179.908          calculate D2E/DX2 analytically  !
 ! D5    D(1,2,4,5)           -179.979          calculate D2E/DX2 analytically  !
 ! D6    D(1,2,4,6)              0.0358         calculate D2E/DX2 analytically  !
 ! D7    D(3,2,4,5)              0.0093         calculate D2E/DX2 analytically  !
 ! D8    D(3,2,4,6)           -179.9759         calculate D2E/DX2 analytically  !
 ! D9    D(2,4,6,7)             -0.0187         calculate D2E/DX2 analytically  !
 ! D10   D(2,4,6,10)           179.9765         calculate D2E/DX2 analytically  !
 ! D11   D(5,4,6,7)            179.9962         calculate D2E/DX2 analytically  !
 ! D12   D(5,4,6,10)            -0.0086         calculate D2E/DX2 analytically  !
 ! D13   D(4,6,7,8)            179.977          calculate D2E/DX2 analytically  !
 ! D14   D(4,6,7,9)             -0.025          calculate D2E/DX2 analytically  !
 ! D15   D(10,6,7,8)            -0.0182         calculate D2E/DX2 analytically  !
 ! D16   D(10,6,7,9)           179.9798         calculate D2E/DX2 analytically  !
 ! D17   D(6,7,9,1)              0.0497         calculate D2E/DX2 analytically  !
 ! D18   D(6,7,9,11)          -179.891          calculate D2E/DX2 analytically  !
 ! D19   D(8,7,9,1)           -179.9523         calculate D2E/DX2 analytically  !
 ! D20   D(8,7,9,11)             0.107          calculate D2E/DX2 analytically  !
 --------------------------------------------------------------------------------
 Trust Radius=3.00D-01 FncErr=5.00D-06 GrdErr=5.00D-06 EigMax=2.50D+02 EigMin=1.00D-04
 Number of steps in this run=     57 maximum allowed number of steps=    100.
 GradGradGradGradGradGradGradGradGradGradGradGradGradGradGradGradGradGrad

                          Input orientation:                          
 ---------------------------------------------------------------------
 Center     Atomic      Atomic             Coordinates (Angstroms)
 Number     Number       Type             X           Y           Z
 ---------------------------------------------------------------------
      1          6           0        6.161091    7.062895    5.148753
      2          6           0        5.468906    6.026001    4.574719
      3          1           0        5.852675    5.012189    4.570691
      4          6           0        4.236934    6.340007    3.991417
      5          1           0        3.650156    5.557276    3.524735
      6          6           0        3.766183    7.651318    4.009508
      7          6           0        4.503410    8.673357    4.603754
      8          1           0        4.133191    9.691838    4.614964
      9          6           0        5.730681    8.359695    5.185722
     10          1           0        2.811177    7.887340    3.555403
     11         35           0        6.793919    9.700968    6.019485
 ---------------------------------------------------------------------
                    Distance matrix (angstroms):
                    1          2          3          4          5
     1  C    0.000000
     2  C    1.372510   0.000000
     3  H    2.152829   1.084025   0.000000
     4  C    2.358893   1.398784   2.170087   0.000000
     5  H    3.348002   2.151748   2.498446   1.083867   0.000000
     6  C    2.716561   2.420823   3.410774   1.393367   2.152552
     7  C    2.374556   2.818070   3.902020   2.427033   3.406213
     8  H    3.362834   3.901809   4.985750   3.410915   4.303083
     9  C    1.366861   2.426516   3.405722   2.781508   3.865361
    10  H    3.800052   3.401046   4.306740   2.148751   2.476696
    11  Br   2.849224   4.165140   4.996958   4.684794   5.768640
                    6          7          8          9         10
     6  C    0.000000
     7  C    1.393268   0.000000
     8  H    2.159860   1.083740   0.000000
     9  C    2.396775   1.394010   2.156929   0.000000
    10  H    1.083492   2.140214   2.475198   3.377064   0.000000
    11  Br   4.172320   2.882136   3.008693   1.903851   5.022268
                   11
    11  Br   0.000000
 Symmetry turned off by external request.
 Stoichiometry    C6H4Br(1-)
 Framework group  C1[X(C6H4Br)]
 Deg. of freedom    27
 Full point group                 C1      NOp   1
 Rotational constants (GHZ):           6.0789968           0.9844032           0.8472103
 Standard basis: 6-311+G(d,p) (5D, 7F)
   204 basis functions,   342 primitive gaussians,   213 cartesian basis functions
    38 alpha electrons       38 beta electrons
       nuclear repulsion energy       415.6902767533 Hartrees.
 NAtoms=   11 NActive=   11 NUniq=   11 SFac= 1.00D+00 NAtFMM=   60 NAOKFM=F Big=F
 Integral buffers will be    131072 words long.
 Raffenetti 2 integral format.
 Two-electron integral symmetry is turned off.
 Force inversion solution in PCM.
 ------------------------------------------------------------------------------
 Polarizable Continuum Model (PCM)
 =================================
 Model                : PCM.
 Atomic radii         : SMD-Coulomb.
 Polarization charges : Total charges.
 Charge compensation  : None.
 Solution method      : Matrix inversion.
 Cavity type          : VdW (van der Waals Surface) (Alpha=1.000).
 Cavity algorithm     : GePol (No added spheres)
                        Default sphere list used, NSphG=   11.
                        Lebedev-Laikov grids with approx.  5.0 points / Ang**2.
                        Smoothing algorithm: York/Karplus (Gamma=1.0000).
                        Polarization charges: spherical gaussians, with
                                              point-specific exponents (IZeta= 3).
                        Self-potential: point-specific (ISelfS= 7).
                        Self-field    : sphere-specific E.n sum rule (ISelfD= 2).
 1st derivatives      : Analytical E(r).r(x)/FMM algorithm (CHGder, D1EAlg=3).
                        Cavity 1st derivative terms included.
 2nd derivatives      : Analytical E(r).r(xy)/FMM algorithm (CHGder, D2EAlg=3).
                        Cavity 2nd derivative terms included.
 Solvent              : TetraHydroFuran, Eps=   7.425700 Eps(inf)=   1.974025
 ------------------------------------------------------------------------------
 Spheres list:
 ISph  on   Nord     Re0    Alpha      Xe            Ye            Ze
    1   C      1    1.8500  1.000      6.161091      7.062895      5.148753
    2   C      2    1.8500  1.000      5.468906      6.026001      4.574719
    3   H      3    1.2000  1.000      5.852675      5.012189      4.570691
    4   C      4    1.8500  1.000      4.236934      6.340007      3.991417
    5   H      5    1.2000  1.000      3.650156      5.557276      3.524735
    6   C      6    1.8500  1.000      3.766183      7.651318      4.009508
    7   C      7    1.8500  1.000      4.503410      8.673357      4.603754
    8   H      8    1.2000  1.000      4.133191      9.691838      4.614964
    9   C      9    1.8500  1.000      5.730681      8.359695      5.185722
   10   H     10    1.2000  1.000      2.811177      7.887340      3.555403
   11  Br     11    3.0600  1.000      6.793919      9.700968      6.019485
 ------------------------------------------------------------------------------
 ------------------------------------------------------------------------------
 Atomic radii for non-electrostatic terms: SMD-CDS.
 ------------------------------------------------------------------------------
 Nuclear repulsion after PCM non-electrostatic terms =      415.6854033495 Hartrees.
 One-electron integrals computed using PRISM.
 NBasis=   204 RedAO= T EigKep=  3.48D-06  NBF=   204
 NBsUse=   204 1.00D-06 EigRej= -1.00D+00 NBFU=   204
 ExpMin= 3.50D-02 ExpMax= 4.40D+05 ExpMxC= 1.51D+04 IAcc=3 IRadAn=         5 AccDes= 0.00D+00
 Harris functional with IExCor= 1009 and IRadAn=       5 diagonalized for initial guess.
 HarFok:  IExCor= 1009 AccDes= 0.00D+00 IRadAn=         5 IDoV= 1 UseB2=F ITyADJ=14
 ICtDFT=  3500011 ScaDFX=  1.000000  1.000000  1.000000  1.000000
 FoFCou: FMM=F IPFlag=           0 FMFlag=      100000 FMFlg1=           0
         NFxFlg=           0 DoJE=T BraDBF=F KetDBF=T FulRan=T
         wScrn=  0.000000 ICntrl=       500 IOpCl=  0 I1Cent=   200000004 NGrid=           0
         NMat0=    1 NMatS0=      1 NMatT0=    0 NMatD0=    1 NMtDS0=    0 NMtDT0=    0
 Symmetry not used in FoFCou.
 Keep R1 ints in memory in canonical form, NReq=252016846.
 Requested convergence on RMS density matrix=1.00D-08 within 128 cycles.
 Requested convergence on MAX density matrix=1.00D-06.
 Requested convergence on             energy=1.00D-06.
 Level shift goal  0.100 maximum shift  0.100.
 No special actions if energy rises.
 Dynamic level shift is on during FON iterations.
 Inv3:  Mode=1 IEnd=     4620243.
 Iteration    1 A*A^-1 deviation from unit magnitude is 3.33D-15 for   1239.
 Iteration    1 A*A^-1 deviation from orthogonality  is 1.78D-15 for   1227    944.
 Iteration    1 A^-1*A deviation from unit magnitude is 3.11D-15 for   1239.
 Iteration    1 A^-1*A deviation from orthogonality  is 1.68D-15 for   1227    944.
 Error on total polarization charges =  0.03337
 SCF Done:  E(RM062X) =  -2805.21597642     A.U. after   17 cycles
            NFock= 17  Conv=0.78D-08     -V/T= 2.0014
 SMD-CDS (non-electrostatic) energy       (kcal/mol) =      -3.06
 (included in total energy above)
 DoSCS=F DFT=T ScalE2(SS,OS)=  1.000000  1.000000
 Range of M.O.s used for correlation:     1   204
 NBasis=   204 NAE=    38 NBE=    38 NFC=     0 NFV=     0
 NROrb=    204 NOA=    38 NOB=    38 NVA=   166 NVB=   166

 **** Warning!!: The largest alpha MO coefficient is  0.16285912D+03

 Symmetrizing basis deriv contribution to polar:
 IMax=3 JMax=2 DiffMx= 0.00D+00
 G2DrvN: will do    12 centers at a time, making    1 passes.
 Calling FoFCou, ICntrl=  3107 FMM=F I1Cent=   0 AccDes= 0.00D+00.
 NEqPCM:  Using equilibrium solvation (IEInf=0, Eps=   7.4257, EpsInf=   1.9740)
 G2PCM: DoFxE=T DoFxN=T DoGrad=T DoDP/DQ/DG/TGxP=FFFF NFrqRd=   0 IEInf=0 SqF1=F DoCFld=F IF1Alg=4.
 End of G2Drv F.D. properties file   721 does not exist.
 End of G2Drv F.D. properties file   722 does not exist.
 End of G2Drv F.D. properties file   788 does not exist.
          IDoAtm=11111111111
 NEqPCM:  Using equilibrium solvation (IEInf=0, Eps=   7.4257, EpsInf=   1.9740)
          Differentiating once with respect to nuclear coordinates.
 Keep R1 ints in memory in canonical form, NReq=251915771.
          There are    36 degrees of freedom in the 1st order CPHF.  IDoFFX=6 NUNeed=     0.
     30 vectors produced by pass  0 Test12= 1.75D-14 2.78D-09 XBig12= 1.38D-01 1.29D-01.
 AX will form    30 AO Fock derivatives at one time.
     30 vectors produced by pass  1 Test12= 1.75D-14 2.78D-09 XBig12= 2.36D-02 4.10D-02.
     30 vectors produced by pass  2 Test12= 1.75D-14 2.78D-09 XBig12= 5.88D-04 7.42D-03.
     30 vectors produced by pass  3 Test12= 1.75D-14 2.78D-09 XBig12= 5.69D-06 4.78D-04.
     30 vectors produced by pass  4 Test12= 1.75D-14 2.78D-09 XBig12= 4.43D-08 3.18D-05.
     30 vectors produced by pass  5 Test12= 1.75D-14 2.78D-09 XBig12= 2.80D-10 2.65D-06.
     29 vectors produced by pass  6 Test12= 1.75D-14 2.78D-09 XBig12= 1.64D-12 2.04D-07.
     13 vectors produced by pass  7 Test12= 1.75D-14 2.78D-09 XBig12= 8.21D-15 1.21D-08.
 InvSVY:  IOpt=1 It=  1 EMax= 1.67D-15
 Solved reduced A of dimension   222 with    30 vectors.
 End of Minotr F.D. properties file   721 does not exist.
 End of Minotr F.D. properties file   722 does not exist.
 End of Minotr F.D. properties file   788 does not exist.

 **********************************************************************

            Population analysis using the SCF Density.

 **********************************************************************

 Alpha  occ. eigenvalues -- -485.28593 -63.27816 -57.10532 -57.10320 -57.10310
 Alpha  occ. eigenvalues --  -10.54110 -10.51351 -10.50713 -10.50475 -10.49415
 Alpha  occ. eigenvalues --  -10.44027  -8.96550  -6.79256  -6.78379  -6.78346
 Alpha  occ. eigenvalues --   -2.82419  -2.82115  -2.82079  -2.81309  -2.81309
 Alpha  occ. eigenvalues --   -0.92482  -0.85224  -0.79395  -0.76141  -0.63860
 Alpha  occ. eigenvalues --   -0.61922  -0.53677  -0.47667  -0.47231  -0.43964
 Alpha  occ. eigenvalues --   -0.41217  -0.40596  -0.36502  -0.33535  -0.30443
 Alpha  occ. eigenvalues --   -0.26764  -0.24721  -0.17531
 Alpha virt. eigenvalues --    0.03047   0.04292   0.04424   0.05265   0.05876
 Alpha virt. eigenvalues --    0.06352   0.07174   0.07300   0.08019   0.09666
 Alpha virt. eigenvalues --    0.09923   0.10092   0.11712   0.12671   0.13253
 Alpha virt. eigenvalues --    0.14350   0.15603   0.16824   0.17375   0.17433
 Alpha virt. eigenvalues --    0.18105   0.19257   0.19992   0.20433   0.21128
 Alpha virt. eigenvalues --    0.22910   0.23544   0.24385   0.24956   0.26099
 Alpha virt. eigenvalues --    0.26475   0.26713   0.27709   0.28756   0.29519
 Alpha virt. eigenvalues --    0.30591   0.37332   0.38745   0.39870   0.43117
 Alpha virt. eigenvalues --    0.46994   0.47875   0.49235   0.53505   0.57745
 Alpha virt. eigenvalues --    0.59069   0.59733   0.60661   0.61619   0.62852
 Alpha virt. eigenvalues --    0.63733   0.66300   0.67021   0.68690   0.68863
 Alpha virt. eigenvalues --    0.69342   0.72756   0.73121   0.74237   0.74607
 Alpha virt. eigenvalues --    0.76835   0.79503   0.80046   0.82460   0.83418
 Alpha virt. eigenvalues --    0.83458   0.86339   0.88523   0.89294   0.90820
 Alpha virt. eigenvalues --    0.93952   0.95224   0.96608   1.00464   1.02114
 Alpha virt. eigenvalues --    1.06611   1.07406   1.11064   1.13226   1.18346
 Alpha virt. eigenvalues --    1.19376   1.22132   1.27957   1.33762   1.36382
 Alpha virt. eigenvalues --    1.41033   1.55908   1.59033   1.60687   1.63920
 Alpha virt. eigenvalues --    1.64377   1.67060   1.72292   1.73721   1.79027
 Alpha virt. eigenvalues --    1.81268   1.81388   1.86003   1.90013   1.96155
 Alpha virt. eigenvalues --    1.99077   2.00050   2.01011   2.03137   2.04029
 Alpha virt. eigenvalues --    2.08136   2.09546   2.10309   2.12552   2.13013
 Alpha virt. eigenvalues --    2.20576   2.33248   2.33286   2.40930   2.43009
 Alpha virt. eigenvalues --    2.43395   2.47004   2.53845   2.60842   2.64447
 Alpha virt. eigenvalues --    2.72529   2.75989   2.76465   2.77518   2.79355
 Alpha virt. eigenvalues --    2.82507   2.87596   2.89264   2.89706   2.91761
 Alpha virt. eigenvalues --    2.99342   3.00318   3.16961   3.19165   3.23253
 Alpha virt. eigenvalues --    3.25346   3.44778   3.48488   3.58293   3.64578
 Alpha virt. eigenvalues --    3.79266   3.95460   4.10854   4.15697   4.22526
 Alpha virt. eigenvalues --    4.33420   4.37415   4.42083   4.57132   4.75187
 Alpha virt. eigenvalues --    4.90175   6.91910   7.68745   7.80074   7.84919
 Alpha virt. eigenvalues --   23.60758  24.04644  24.09594  24.19805  24.24215
 Alpha virt. eigenvalues --   24.34137  48.44279 290.83801 290.95905 291.03229
 Alpha virt. eigenvalues -- 1021.00619
          Condensed to atoms (all electrons):
               1          2          3          4          5          6
     1  C    9.302224  -0.400714  -0.157336   0.939039  -0.044031  -0.624674
     2  C   -0.400714   5.830780   0.504285  -0.329461   0.070664   0.253201
     3  H   -0.157336   0.504285   0.552245  -0.147399  -0.000809   0.017654
     4  C    0.939039  -0.329461  -0.147399   6.125269   0.282060   0.234257
     5  H   -0.044031   0.070664  -0.000809   0.282060   0.503859   0.032764
     6  C   -0.624674   0.253201   0.017654   0.234257   0.032764   5.342976
     7  C    0.360748  -0.549486  -0.026129   0.407369  -0.038375   0.191612
     8  H   -0.068036   0.018876   0.000165  -0.029038   0.000009   0.053944
     9  C   -1.972788   0.826105   0.096539  -1.162670   0.038582   0.282377
    10  H    0.009872  -0.020420  -0.000154   0.014158  -0.005493   0.360972
    11  Br  -0.377014   0.039984   0.003626  -0.020828   0.000431   0.065528
               7          8          9         10         11
     1  C    0.360748  -0.068036  -1.972788   0.009872  -0.377014
     2  C   -0.549486   0.018876   0.826105  -0.020420   0.039984
     3  H   -0.026129   0.000165   0.096539  -0.000154   0.003626
     4  C    0.407369  -0.029038  -1.162670   0.014158  -0.020828
     5  H   -0.038375   0.000009   0.038582  -0.005493   0.000431
     6  C    0.191612   0.053944   0.282377   0.360972   0.065528
     7  C    6.199958   0.303862  -0.455964  -0.000084   0.046633
     8  H    0.303862   0.501137   0.057696  -0.005476   0.000017
     9  C   -0.455964   0.057696   7.439801  -0.009490   0.119228
    10  H   -0.000084  -0.005476  -0.009490   0.484254   0.000298
    11  Br   0.046633   0.000017   0.119228   0.000298  35.344119
 Mulliken charges:
               1
     1  C   -0.967289
     2  C   -0.243816
     3  H    0.157311
     4  C   -0.312757
     5  H    0.160340
     6  C   -0.210611
     7  C   -0.440145
     8  H    0.166842
     9  C    0.740584
    10  H    0.171562
    11  Br  -0.222022
 Sum of Mulliken charges =  -1.00000
 Mulliken charges with hydrogens summed into heavy atoms:
               1
     1  C   -0.967289
     2  C   -0.086505
     4  C   -0.152417
     6  C   -0.039048
     7  C   -0.273302
     9  C    0.740584
    11  Br  -0.222022
 APT charges:
               1
     1  C   -1.985350
     2  C    0.373420
     3  H   -0.024637
     4  C   -0.936895
     5  H   -1.038822
     6  C   -0.086798
     7  C   -1.615722
     8  H    1.405662
     9  C    3.350074
    10  H   -0.236105
    11  Br  -0.204827
 Sum of APT charges =  -1.00000
 APT charges with hydrogens summed into heavy atoms:
               1
     1  C   -1.985350
     2  C    0.348784
     4  C   -1.975717
     6  C   -0.322903
     7  C   -0.210060
     9  C    3.350074
    11  Br  -0.204827
 Electronic spatial extent (au):  <R**2>=          37004.8260
 Charge=             -1.0000 electrons
 Dipole moment (field-independent basis, Debye):
    X=            -31.3510    Y=            -36.5223    Z=            -26.1884  Tot=             54.7960
 Quadrupole moment (field-independent basis, Debye-Ang):
   XX=           -265.1704   YY=           -340.7163   ZZ=           -204.4540
   XY=           -239.3000   XZ=           -170.4795   YZ=           -199.8755
 Traceless Quadrupole moment (field-independent basis, Debye-Ang):
   XX=              4.9431   YY=            -70.6027   ZZ=             65.6596
   XY=           -239.3000   XZ=           -170.4795   YZ=           -199.8755
 Octapole moment (field-independent basis, Debye-Ang**2):
  XXX=          -2362.2474  YYY=          -3651.2798  ZZZ=          -1713.9011  XYY=          -2187.8224
  XXY=          -2052.1295  XXZ=          -1423.3474  XZZ=          -1274.9053  YZZ=          -1592.6357
  YYZ=          -1851.9149  XYZ=          -1305.5307
 Hexadecapole moment (field-independent basis, Debye-Ang**3):
 XXXX=         -20870.9607 YYYY=         -41899.1996 ZZZZ=         -14021.0874 XXXY=         -18623.9167
 XXXZ=         -12678.8660 YYYX=         -22913.6632 YYYZ=         -19755.4748 ZZZX=         -10474.1357
 ZZZY=         -13703.7335 XXYY=         -18180.9154 XXZZ=          -9741.1469 YYZZ=         -14288.9496
 XXYZ=         -11077.9659 YYXZ=         -11913.9367 ZZXY=          -9979.9586
 N-N= 4.156854033495D+02 E-N=-7.535226404897D+03  KE= 2.801378627807D+03
  Exact polarizability:       0.000       0.000       0.000       0.000       0.000       0.000
 Approx polarizability:     127.444       5.125     151.495      25.585      17.065      97.702
 D2PCM: PCM CHGder 2nd derivatives, FixD1E=F FixD2E=F DoIter=F DoCFld=F I1PDM=0
 Calling FoFJK, ICntrl=    100127 FMM=F ISym2X=0 I1Cent= 0 IOpClX= 0 NMat=1 NMatS=1 NMatT=0.
 -------------------------------------------------------------------
 Center     Atomic                   Forces (Hartrees/Bohr)
 Number     Number              X              Y              Z
 -------------------------------------------------------------------
      1        6           0.061847676   -0.002233887    0.031932415
      2        6          -0.026035913    0.017771622   -0.010100651
      3        1          -0.001015809   -0.003135568   -0.001178490
      4        6          -0.002907873   -0.010406818   -0.003641766
      5        1          -0.004814089   -0.000150601   -0.002542892
      6        6          -0.003458033   -0.001250982   -0.002113926
      7        6           0.004038477    0.014623835    0.005153799
      8        1          -0.004211896    0.001847131   -0.001823852
      9        6          -0.028042573   -0.036107254   -0.022105677
     10        1          -0.000929852    0.000390898   -0.000405067
     11       35           0.005529886    0.018651624    0.006826106
 -------------------------------------------------------------------
 Cartesian Forces:  Max     0.061847676 RMS     0.016896908
 FormGI is forming the generalized inverse of G from B-inverse, IUseBI=4.

 GradGradGradGradGradGradGradGradGradGradGradGradGradGradGradGradGradGrad
 Berny optimization.
 Internal  Forces:  Max     0.045444122 RMS     0.011052890
 Search for a local minimum.
 Step number   1 out of a maximum of   57
 All quantities printed in internal units (Hartrees-Bohrs-Radians)
 Mixed Optimization -- RFO/linear search
 Second derivative matrix not updated -- analytic derivatives used.
 ITU=  0
     Eigenvalues ---    0.00841   0.01803   0.02215   0.02635   0.02697
     Eigenvalues ---    0.02935   0.03731   0.04430   0.10454   0.11293
     Eigenvalues ---    0.11728   0.12027   0.12850   0.16892   0.18862
     Eigenvalues ---    0.20868   0.22072   0.29040   0.35347   0.36125
     Eigenvalues ---    0.36199   0.36431   0.42525   0.43409   0.47197
     Eigenvalues ---    0.50158   0.53097
 RFO step:  Lambda=-2.51419413D-02 EMin= 8.40679038D-03
 Linear search not attempted -- first point.
 Maximum step size (   0.300) exceeded in Quadratic search.
    -- Step size scaled by   0.869
 Iteration  1 RMS(Cart)=  0.04903873 RMS(Int)=  0.00265572
 Iteration  2 RMS(Cart)=  0.00373204 RMS(Int)=  0.00076371
 Iteration  3 RMS(Cart)=  0.00000248 RMS(Int)=  0.00076370
 Iteration  4 RMS(Cart)=  0.00000000 RMS(Int)=  0.00076370
 Variable       Old X    -DE/DX   Delta X   Delta X   Delta X     New X
                                 (Linear)    (Quad)   (Total)
    R1        2.59367   0.02664   0.00000   0.05832   0.05918   2.65285
    R2        2.58299   0.01040   0.00000   0.02213   0.02323   2.60622
    R3        2.04851   0.00258   0.00000   0.00823   0.00823   2.05674
    R4        2.64332   0.00782   0.00000  -0.00401  -0.00424   2.63908
    R5        2.04821   0.00381   0.00000   0.00395   0.00395   2.05216
    R6        2.63308  -0.00395   0.00000  -0.00210  -0.00323   2.62986
    R7        2.63289  -0.00078   0.00000  -0.00219  -0.00308   2.62982
    R8        2.04750   0.00108   0.00000   0.00217   0.00217   2.04967
    R9        2.04797   0.00315   0.00000   0.00105   0.00105   2.04902
   R10        2.63430   0.00639   0.00000  -0.00008   0.00020   2.63449
   R11        3.59776   0.01922   0.00000   0.08868   0.08868   3.68643
    A1        2.17640  -0.04544   0.00000  -0.18523  -0.18229   1.99410
    A2        2.12887  -0.01003   0.00000  -0.04588  -0.04613   2.08274
    A3        2.03643   0.02501   0.00000   0.10814   0.10864   2.14508
    A4        2.11788  -0.01498   0.00000  -0.06226  -0.06251   2.05537
    A5        2.08777   0.00490   0.00000   0.00921   0.00998   2.09775
    A6        2.09834  -0.00175   0.00000  -0.00525  -0.00680   2.09154
    A7        2.09708  -0.00315   0.00000  -0.00396  -0.00318   2.09390
    A8        2.11428  -0.00450   0.00000  -0.02747  -0.02969   2.08459
    A9        2.09134   0.00245   0.00000   0.01470   0.01581   2.10715
   A10        2.07756   0.00204   0.00000   0.01277   0.01388   2.09144
   A11        2.10951  -0.00474   0.00000  -0.00575  -0.00533   2.10418
   A12        2.07014   0.00177   0.00000  -0.00970  -0.01054   2.05960
   A13        2.10353   0.00298   0.00000   0.01545   0.01587   2.11940
   A14        2.07078   0.02492   0.00000   0.11950   0.12068   2.19146
   A15        2.09946   0.00087   0.00000  -0.02040  -0.02099   2.07847
   A16        2.11294  -0.02579   0.00000  -0.09910  -0.09969   2.01325
    D1       -3.14156   0.00004   0.00000   0.00148   0.00143  -3.14013
    D2       -0.00018   0.00001   0.00000   0.00086   0.00082   0.00064
    D3       -0.00058  -0.00003   0.00000  -0.00161  -0.00160  -0.00218
    D4        3.13999  -0.00008   0.00000  -0.00163  -0.00157   3.13842
    D5       -3.14123   0.00003   0.00000   0.00042   0.00041  -3.14082
    D6        0.00062   0.00002   0.00000   0.00041   0.00036   0.00099
    D7        0.00016   0.00000   0.00000  -0.00019  -0.00020  -0.00004
    D8       -3.14117  -0.00001   0.00000  -0.00020  -0.00024  -3.14141
    D9       -0.00033  -0.00003   0.00000  -0.00090  -0.00090  -0.00122
   D10        3.14118   0.00000   0.00000  -0.00044  -0.00040   3.14078
   D11        3.14153  -0.00004   0.00000  -0.00091  -0.00094   3.14058
   D12       -0.00015  -0.00001   0.00000  -0.00046  -0.00045  -0.00060
   D13        3.14119   0.00003   0.00000   0.00032   0.00038   3.14157
   D14       -0.00044   0.00002   0.00000   0.00022   0.00028  -0.00016
   D15       -0.00032   0.00000   0.00000  -0.00013  -0.00011  -0.00042
   D16        3.14124  -0.00001   0.00000  -0.00023  -0.00021   3.14103
   D17        0.00087   0.00002   0.00000   0.00105   0.00112   0.00199
   D18       -3.13969   0.00006   0.00000   0.00102   0.00105  -3.13864
   D19       -3.14076   0.00001   0.00000   0.00095   0.00102  -3.13974
   D20        0.00187   0.00005   0.00000   0.00092   0.00094   0.00281
         Item               Value     Threshold  Converged?
 Maximum Force            0.045444     0.000015     NO 
 RMS     Force            0.011053     0.000010     NO 
 Maximum Displacement     0.201046     0.000060     NO 
 RMS     Displacement     0.049245     0.000040     NO 
 Predicted change in Energy=-1.348348D-02
 GradGradGradGradGradGradGradGradGradGradGradGradGradGradGradGradGradGrad

                          Input orientation:                          
 ---------------------------------------------------------------------
 Center     Atomic      Atomic             Coordinates (Angstroms)
 Number     Number       Type             X           Y           Z
 ---------------------------------------------------------------------
      1          6           0        6.267480    7.026577    5.195751
      2          6           0        5.465116    6.054360    4.577900
      3          1           0        5.806601    5.021356    4.548500
      4          6           0        4.232522    6.349018    3.991204
      5          1           0        3.647214    5.561724    3.525499
      6          6           0        3.754386    7.655900    4.003977
      7          6           0        4.513024    8.655922    4.604878
      8          1           0        4.157987    9.680240    4.625235
      9          6           0        5.734062    8.298224    5.174682
     10          1           0        2.799407    7.901143    3.551968
     11         35           0        6.730525    9.758419    5.999557
 ---------------------------------------------------------------------
                    Distance matrix (angstroms):
                    1          2          3          4          5
     1  C    0.000000
     2  C    1.403828   0.000000
     3  H    2.156909   1.088382   0.000000
     4  C    2.459893   1.396540   2.133305   0.000000
     5  H    3.435307   2.157547   2.449792   1.085956   0.000000
     6  C    2.851669   2.412657   3.383624   1.391660   2.150814
     7  C    2.466173   2.770438   3.858314   2.403556   3.389506
     8  H    3.437641   3.854586   4.942572   3.391841   4.293307
     9  C    1.379154   2.337393   3.336949   2.730319   3.816172
    10  H    3.936295   3.401345   4.281292   2.157739   2.488445
    11  Br   2.885043   4.164423   5.039739   4.679478   5.765416
                    6          7          8          9         10
     6  C    0.000000
     7  C    1.391639   0.000000
     8  H    2.155646   1.084294   0.000000
     9  C    2.387938   1.394115   2.166996   0.000000
    10  H    1.084638   2.148207   2.482504   3.376843   0.000000
    11  Br   4.154555   2.842171   2.917675   1.950776   4.989374
                   11
    11  Br   0.000000
 Symmetry turned off by external request.
 Stoichiometry    C6H4Br(1-)
 Framework group  C1[X(C6H4Br)]
 Deg. of freedom    27
 Full point group                 C1      NOp   1
 Rotational constants (GHZ):           5.9297072           0.9883224           0.8471295
 Standard basis: 6-311+G(d,p) (5D, 7F)
   204 basis functions,   342 primitive gaussians,   213 cartesian basis functions
    38 alpha electrons       38 beta electrons
       nuclear repulsion energy       413.9901185953 Hartrees.
 NAtoms=   11 NActive=   11 NUniq=   11 SFac= 1.00D+00 NAtFMM=   60 NAOKFM=F Big=F
 Integral buffers will be    131072 words long.
 Raffenetti 2 integral format.
 Two-electron integral symmetry is turned off.
 ------------------------------------------------------------------------------
 Polarizable Continuum Model (PCM)
 =================================
 Model                : PCM.
 Atomic radii         : SMD-Coulomb.
 Polarization charges : Total charges.
 Charge compensation  : None.
 Solution method      : Matrix inversion.
 Cavity type          : VdW (van der Waals Surface) (Alpha=1.000).
 Cavity algorithm     : GePol (No added spheres)
                        Default sphere list used, NSphG=   11.
                        Lebedev-Laikov grids with approx.  5.0 points / Ang**2.
                        Smoothing algorithm: York/Karplus (Gamma=1.0000).
                        Polarization charges: spherical gaussians, with
                                              point-specific exponents (IZeta= 3).
                        Self-potential: point-specific (ISelfS= 7).
                        Self-field    : sphere-specific E.n sum rule (ISelfD= 2).
 1st derivatives      : Analytical E(r).r(x)/FMM algorithm (CHGder, D1EAlg=3).
                        Cavity 1st derivative terms included.
 Solvent              : TetraHydroFuran, Eps=   7.425700 Eps(inf)=   1.974025
 ------------------------------------------------------------------------------
 Spheres list:
 ISph  on   Nord     Re0    Alpha      Xe            Ye            Ze
    1   C      1    1.8500  1.000      6.267480      7.026577      5.195751
    2   C      2    1.8500  1.000      5.465116      6.054360      4.577900
    3   H      3    1.2000  1.000      5.806601      5.021356      4.548500
    4   C      4    1.8500  1.000      4.232522      6.349018      3.991204
    5   H      5    1.2000  1.000      3.647214      5.561724      3.525499
    6   C      6    1.8500  1.000      3.754386      7.655900      4.003977
    7   C      7    1.8500  1.000      4.513024      8.655922      4.604878
    8   H      8    1.2000  1.000      4.157987      9.680240      4.625235
    9   C      9    1.8500  1.000      5.734062      8.298224      5.174682
   10   H     10    1.2000  1.000      2.799407      7.901143      3.551968
   11  Br     11    3.0600  1.000      6.730525      9.758419      5.999557
 ------------------------------------------------------------------------------
 ------------------------------------------------------------------------------
 Atomic radii for non-electrostatic terms: SMD-CDS.
 ------------------------------------------------------------------------------
 Nuclear repulsion after PCM non-electrostatic terms =      413.9853177030 Hartrees.
 One-electron integrals computed using PRISM.
 NBasis=   204 RedAO= T EigKep=  4.56D-06  NBF=   204
 NBsUse=   204 1.00D-06 EigRej= -1.00D+00 NBFU=   204
 Initial guess from the checkpoint file:  "2-br-ph-anion-opt-freq-thf.chk"
 B after Tr=     0.265877   -0.225930    0.084904
         Rot=    0.999953    0.004252    0.001811   -0.008467 Ang=   1.11 deg.
 ExpMin= 3.50D-02 ExpMax= 4.40D+05 ExpMxC= 1.51D+04 IAcc=3 IRadAn=         5 AccDes= 0.00D+00
 Harris functional with IExCor= 1009 and IRadAn=       5 diagonalized for initial guess.
 HarFok:  IExCor= 1009 AccDes= 0.00D+00 IRadAn=         5 IDoV= 1 UseB2=F ITyADJ=14
 ICtDFT=  3500011 ScaDFX=  1.000000  1.000000  1.000000  1.000000
 FoFCou: FMM=F IPFlag=           0 FMFlag=      100000 FMFlg1=           0
         NFxFlg=           0 DoJE=T BraDBF=F KetDBF=T FulRan=T
         wScrn=  0.000000 ICntrl=       500 IOpCl=  0 I1Cent=   200000004 NGrid=           0
         NMat0=    1 NMatS0=      1 NMatT0=    0 NMatD0=    1 NMtDS0=    0 NMtDT0=    0
 Symmetry not used in FoFCou.
 Keep R1 ints in memory in canonical form, NReq=252016846.
 Requested convergence on RMS density matrix=1.00D-08 within 128 cycles.
 Requested convergence on MAX density matrix=1.00D-06.
 Requested convergence on             energy=1.00D-06.
 Level shift goal  0.100 maximum shift  0.100.
 No special actions if energy rises.
 Dynamic level shift is on during FON iterations.
 Inv3:  Mode=1 IEnd=     4680003.
 Iteration    1 A*A^-1 deviation from unit magnitude is 3.77D-15 for   1235.
 Iteration    1 A*A^-1 deviation from orthogonality  is 1.68D-15 for    626    502.
 Iteration    1 A^-1*A deviation from unit magnitude is 4.22D-15 for   1235.
 Iteration    1 A^-1*A deviation from orthogonality  is 3.03D-15 for    564    526.
 Error on total polarization charges =  0.03233
 SCF Done:  E(RM062X) =  -2805.22965071     A.U. after   14 cycles
            NFock= 14  Conv=0.44D-08     -V/T= 2.0014
 SMD-CDS (non-electrostatic) energy       (kcal/mol) =      -3.01
 (included in total energy above)
 D1PCM: PCM CHGder 1st derivatives, ID1Alg=3 FixD1E=F DoIter=F DoCFld=F I1PDM=0.
 Calling FoFJK, ICntrl=      2127 FMM=F ISym2X=0 I1Cent= 0 IOpClX= 0 NMat=1 NMatS=1 NMatT=0.
 -------------------------------------------------------------------
 Center     Atomic                   Forces (Hartrees/Bohr)
 Number     Number              X              Y              Z
 -------------------------------------------------------------------
      1        6           0.014969485   -0.000262002    0.007848244
      2        6          -0.005803563    0.003984549   -0.002257821
      3        1          -0.000376444   -0.001276963   -0.000488926
      4        6          -0.000917010   -0.003819576   -0.001250497
      5        1          -0.001154478   -0.000021519   -0.000610373
      6        6          -0.001827950    0.000279715   -0.000922737
      7        6           0.001187535    0.004607985    0.001575230
      8        1          -0.000824680    0.000378869   -0.000343341
      9        6          -0.007337314   -0.012264012   -0.006355018
     10        1          -0.000166442    0.000247765   -0.000040660
     11       35           0.002250861    0.008145188    0.002845899
 -------------------------------------------------------------------
 Cartesian Forces:  Max     0.014969485 RMS     0.004656967

 GradGradGradGradGradGradGradGradGradGradGradGradGradGradGradGradGradGrad
 Berny optimization.
 Using GEDIIS/GDIIS optimizer.
 FormGI is forming the generalized inverse of G from B-inverse, IUseBI=4.
 Internal  Forces:  Max     0.010283494 RMS     0.003040061
 Search for a local minimum.
 Step number   2 out of a maximum of   57
 All quantities printed in internal units (Hartrees-Bohrs-Radians)
 Mixed Optimization -- RFO/linear search
 Update second derivatives using D2CorX and points    1    2
 DE= -1.37D-02 DEPred=-1.35D-02 R= 1.01D+00
 TightC=F SS=  1.41D+00  RLast= 3.00D-01 DXNew= 5.0454D-01 8.9967D-01
 Trust test= 1.01D+00 RLast= 3.00D-01 DXMaxT set to 5.05D-01
 ITU=  1  0
 Use linear search instead of GDIIS.
     Eigenvalues ---    0.00840   0.01803   0.02214   0.02631   0.02691
     Eigenvalues ---    0.02931   0.03721   0.04422   0.10454   0.11304
     Eigenvalues ---    0.11645   0.12024   0.12534   0.17549   0.18877
     Eigenvalues ---    0.20409   0.22074   0.29010   0.35345   0.36102
     Eigenvalues ---    0.36196   0.36431   0.42489   0.43059   0.47190
     Eigenvalues ---    0.50187   0.52367
 RFO step:  Lambda=-2.63557009D-04 EMin= 8.39896190D-03
 Quartic linear search produced a step of  0.37302.
 Iteration  1 RMS(Cart)=  0.02099243 RMS(Int)=  0.00052128
 Iteration  2 RMS(Cart)=  0.00059104 RMS(Int)=  0.00035415
 Iteration  3 RMS(Cart)=  0.00000017 RMS(Int)=  0.00035415
 Variable       Old X    -DE/DX   Delta X   Delta X   Delta X     New X
                                 (Linear)    (Quad)   (Total)
    R1        2.65285   0.00820   0.02208   0.00181   0.02424   2.67709
    R2        2.60622   0.00343   0.00867  -0.00807   0.00111   2.60734
    R3        2.05674   0.00111   0.00307   0.00138   0.00446   2.06120
    R4        2.63908   0.00282  -0.00158   0.00238   0.00065   2.63973
    R5        2.05216   0.00090   0.00147  -0.00029   0.00118   2.05334
    R6        2.62986   0.00041  -0.00120   0.00560   0.00386   2.63372
    R7        2.62982   0.00052  -0.00115   0.00221   0.00068   2.63050
    R8        2.04967   0.00022   0.00081  -0.00028   0.00053   2.05020
    R9        2.04902   0.00062   0.00039  -0.00092  -0.00053   2.04849
   R10        2.63449   0.00173   0.00007   0.00046   0.00070   2.63520
   R11        3.68643   0.00844   0.03308   0.03365   0.06672   3.75316
    A1        1.99410  -0.01028  -0.06800   0.00837  -0.05827   1.93584
    A2        2.08274  -0.00185  -0.01721   0.00783  -0.00946   2.07328
    A3        2.14508   0.00567   0.04053  -0.00765   0.03304   2.17812
    A4        2.05537  -0.00382  -0.02332  -0.00018  -0.02358   2.03179
    A5        2.09775   0.00141   0.00372   0.00015   0.00426   2.10201
    A6        2.09154  -0.00074  -0.00254   0.00090  -0.00241   2.08913
    A7        2.09390  -0.00067  -0.00119  -0.00105  -0.00185   2.09205
    A8        2.08459  -0.00133  -0.01108   0.00106  -0.01103   2.07356
    A9        2.10715   0.00094   0.00590   0.00114   0.00754   2.11470
   A10        2.09144   0.00039   0.00518  -0.00220   0.00349   2.09493
   A11        2.10418  -0.00100  -0.00199   0.00341   0.00159   2.10577
   A12        2.05960   0.00060  -0.00393  -0.00249  -0.00675   2.05285
   A13        2.11940   0.00040   0.00592  -0.00092   0.00516   2.12457
   A14        2.19146   0.00607   0.04502  -0.00018   0.04542   2.23688
   A15        2.07847   0.00205  -0.00783   0.01286   0.00474   2.08321
   A16        2.01325  -0.00812  -0.03719  -0.01268  -0.05016   1.96309
    D1       -3.14013  -0.00002   0.00053  -0.00096  -0.00045  -3.14058
    D2        0.00064  -0.00002   0.00030  -0.00067  -0.00038   0.00026
    D3       -0.00218   0.00001  -0.00060   0.00052  -0.00008  -0.00225
    D4        3.13842   0.00003  -0.00058   0.00144   0.00089   3.13931
    D5       -3.14082   0.00001   0.00015   0.00022   0.00037  -3.14045
    D6        0.00099   0.00001   0.00014   0.00035   0.00047   0.00146
    D7       -0.00004   0.00001  -0.00007   0.00051   0.00044   0.00040
    D8       -3.14141   0.00001  -0.00009   0.00064   0.00054  -3.14088
    D9       -0.00122   0.00000  -0.00033   0.00018  -0.00014  -0.00137
   D10        3.14078   0.00000  -0.00015  -0.00007  -0.00020   3.14058
   D11        3.14058   0.00000  -0.00035   0.00031  -0.00005   3.14054
   D12       -0.00060   0.00000  -0.00017   0.00006  -0.00010  -0.00070
   D13        3.14157   0.00000   0.00014  -0.00043  -0.00026   3.14132
   D14       -0.00016   0.00000   0.00010  -0.00033  -0.00019  -0.00035
   D15       -0.00042   0.00000  -0.00004  -0.00018  -0.00020  -0.00063
   D16        3.14103   0.00000  -0.00008  -0.00008  -0.00014   3.14089
   D17        0.00199   0.00000   0.00042  -0.00005   0.00039   0.00238
   D18       -3.13864  -0.00002   0.00039  -0.00094  -0.00054  -3.13918
   D19       -3.13974   0.00001   0.00038   0.00005   0.00046  -3.13929
   D20        0.00281  -0.00002   0.00035  -0.00084  -0.00047   0.00234
         Item               Value     Threshold  Converged?
 Maximum Force            0.010283     0.000015     NO 
 RMS     Force            0.003040     0.000010     NO 
 Maximum Displacement     0.074850     0.000060     NO 
 RMS     Displacement     0.021220     0.000040     NO 
 Predicted change in Energy=-1.140142D-03
 GradGradGradGradGradGradGradGradGradGradGradGradGradGradGradGradGradGrad

                          Input orientation:                          
 ---------------------------------------------------------------------
 Center     Atomic      Atomic             Coordinates (Angstroms)
 Number     Number       Type             X           Y           Z
 ---------------------------------------------------------------------
      1          6           0        6.301781    7.011465    5.211128
      2          6           0        5.464329    6.059899    4.578580
      3          1           0        5.788691    5.019291    4.538101
      4          6           0        4.230824    6.349611    3.990514
      5          1           0        3.644768    5.562251    3.524405
      6          6           0        3.750498    7.657877    4.002385
      7          6           0        4.518774    8.648998    4.606618
      8          1           0        4.174098    9.676422    4.632756
      9          6           0        5.736343    8.269368    5.170534
     10          1           0        2.796179    7.909675    3.551915
     11         35           0        6.702039    9.798028    5.992217
 ---------------------------------------------------------------------
                    Distance matrix (angstroms):
                    1          2          3          4          5
     1  C    0.000000
     2  C    1.416657   0.000000
     3  H    2.164482   1.090740   0.000000
     4  C    2.493353   1.396886   2.120507   0.000000
     5  H    3.464819   2.160959   2.432856   1.086580   0.000000
     6  C    2.896196   2.413038   3.376885   1.393704   2.152044
     7  C    2.495207   2.756500   3.846057   2.397848   3.385717
     8  H    3.458836   3.840165   4.929983   3.388710   4.293604
     9  C    1.379743   2.303510   3.311452   2.710074   3.796434
    10  H    3.981082   3.405105   4.275746   2.164341   2.496249
    11  Br   2.921514   4.183767   5.077892   4.690980   5.777440
                    6          7          8          9         10
     6  C    0.000000
     7  C    1.392001   0.000000
     8  H    2.156694   1.084013   0.000000
     9  C    2.383710   1.394487   2.170164   0.000000
    10  H    1.084920   2.150891   2.487624   3.375481   0.000000
    11  Br   4.153465   2.829629   2.872874   1.986085   4.977619
                   11
    11  Br   0.000000
 Symmetry turned off by external request.
 Stoichiometry    C6H4Br(1-)
 Framework group  C1[X(C6H4Br)]
 Deg. of freedom    27
 Full point group                 C1      NOp   1
 Rotational constants (GHZ):           5.8687310           0.9831160           0.8420571
 Standard basis: 6-311+G(d,p) (5D, 7F)
   204 basis functions,   342 primitive gaussians,   213 cartesian basis functions
    38 alpha electrons       38 beta electrons
       nuclear repulsion energy       412.3335101534 Hartrees.
 NAtoms=   11 NActive=   11 NUniq=   11 SFac= 1.00D+00 NAtFMM=   60 NAOKFM=F Big=F
 Integral buffers will be    131072 words long.
 Raffenetti 2 integral format.
 Two-electron integral symmetry is turned off.
 ------------------------------------------------------------------------------
 Polarizable Continuum Model (PCM)
 =================================
 Model                : PCM.
 Atomic radii         : SMD-Coulomb.
 Polarization charges : Total charges.
 Charge compensation  : None.
 Solution method      : Matrix inversion.
 Cavity type          : VdW (van der Waals Surface) (Alpha=1.000).
 Cavity algorithm     : GePol (No added spheres)
                        Default sphere list used, NSphG=   11.
                        Lebedev-Laikov grids with approx.  5.0 points / Ang**2.
                        Smoothing algorithm: York/Karplus (Gamma=1.0000).
                        Polarization charges: spherical gaussians, with
                                              point-specific exponents (IZeta= 3).
                        Self-potential: point-specific (ISelfS= 7).
                        Self-field    : sphere-specific E.n sum rule (ISelfD= 2).
 1st derivatives      : Analytical E(r).r(x)/FMM algorithm (CHGder, D1EAlg=3).
                        Cavity 1st derivative terms included.
 Solvent              : TetraHydroFuran, Eps=   7.425700 Eps(inf)=   1.974025
 ------------------------------------------------------------------------------
 Spheres list:
 ISph  on   Nord     Re0    Alpha      Xe            Ye            Ze
    1   C      1    1.8500  1.000      6.301781      7.011465      5.211128
    2   C      2    1.8500  1.000      5.464329      6.059899      4.578580
    3   H      3    1.2000  1.000      5.788691      5.019291      4.538101
    4   C      4    1.8500  1.000      4.230824      6.349611      3.990514
    5   H      5    1.2000  1.000      3.644768      5.562251      3.524405
    6   C      6    1.8500  1.000      3.750498      7.657877      4.002385
    7   C      7    1.8500  1.000      4.518774      8.648998      4.606618
    8   H      8    1.2000  1.000      4.174098      9.676422      4.632756
    9   C      9    1.8500  1.000      5.736343      8.269368      5.170534
   10   H     10    1.2000  1.000      2.796179      7.909675      3.551915
   11  Br     11    3.0600  1.000      6.702039      9.798028      5.992217
 ------------------------------------------------------------------------------
 ------------------------------------------------------------------------------
 Atomic radii for non-electrostatic terms: SMD-CDS.
 ------------------------------------------------------------------------------
 Nuclear repulsion after PCM non-electrostatic terms =      412.3287351306 Hartrees.
 One-electron integrals computed using PRISM.
 NBasis=   204 RedAO= T EigKep=  5.02D-06  NBF=   204
 NBsUse=   204 1.00D-06 EigRej= -1.00D+00 NBFU=   204
 Initial guess from the checkpoint file:  "2-br-ph-anion-opt-freq-thf.chk"
 B after Tr=     0.140306   -0.114613    0.052798
         Rot=    0.999987    0.002401    0.000898   -0.004441 Ang=   0.59 deg.
 ExpMin= 3.50D-02 ExpMax= 4.40D+05 ExpMxC= 1.51D+04 IAcc=3 IRadAn=         5 AccDes= 0.00D+00
 Harris functional with IExCor= 1009 and IRadAn=       5 diagonalized for initial guess.
 HarFok:  IExCor= 1009 AccDes= 0.00D+00 IRadAn=         5 IDoV= 1 UseB2=F ITyADJ=14
 ICtDFT=  3500011 ScaDFX=  1.000000  1.000000  1.000000  1.000000
 FoFCou: FMM=F IPFlag=           0 FMFlag=      100000 FMFlg1=           0
         NFxFlg=           0 DoJE=T BraDBF=F KetDBF=T FulRan=T
         wScrn=  0.000000 ICntrl=       500 IOpCl=  0 I1Cent=   200000004 NGrid=           0
         NMat0=    1 NMatS0=      1 NMatT0=    0 NMatD0=    1 NMtDS0=    0 NMtDT0=    0
 Symmetry not used in FoFCou.
 Keep R1 ints in memory in canonical form, NReq=252016846.
 Requested convergence on RMS density matrix=1.00D-08 within 128 cycles.
 Requested convergence on MAX density matrix=1.00D-06.
 Requested convergence on             energy=1.00D-06.
 Level shift goal  0.100 maximum shift  0.100.
 No special actions if energy rises.
 Dynamic level shift is on during FON iterations.
 Inv3:  Mode=1 IEnd=     4680003.
 Iteration    1 A*A^-1 deviation from unit magnitude is 3.33D-15 for   1239.
 Iteration    1 A*A^-1 deviation from orthogonality  is 1.57D-15 for    335    198.
 Iteration    1 A^-1*A deviation from unit magnitude is 3.55D-15 for   1239.
 Iteration    1 A^-1*A deviation from orthogonality  is 1.77D-15 for    560    522.
 Error on total polarization charges =  0.03191
 SCF Done:  E(RM062X) =  -2805.23082012     A.U. after   13 cycles
            NFock= 13  Conv=0.90D-08     -V/T= 2.0014
 SMD-CDS (non-electrostatic) energy       (kcal/mol) =      -3.00
 (included in total energy above)
 D1PCM: PCM CHGder 1st derivatives, ID1Alg=3 FixD1E=F DoIter=F DoCFld=F I1PDM=0.
 Calling FoFJK, ICntrl=      2127 FMM=F ISym2X=0 I1Cent= 0 IOpClX= 0 NMat=1 NMatS=1 NMatT=0.
 -------------------------------------------------------------------
 Center     Atomic                   Forces (Hartrees/Bohr)
 Number     Number              X              Y              Z
 -------------------------------------------------------------------
      1        6          -0.000610451    0.001077591    0.000063564
      2        6          -0.000027430   -0.001451023   -0.000239780
      3        1           0.000156503   -0.000075990    0.000060144
      4        6          -0.000375947   -0.000088962   -0.000232675
      5        1           0.000028543   -0.000071064   -0.000013954
      6        6          -0.000163259    0.000051809   -0.000075913
      7        6          -0.000346935   -0.000022176   -0.000181497
      8        1          -0.000092069   -0.000055681   -0.000044218
      9        6          -0.000737185   -0.001422067   -0.000701321
     10        1           0.000023516   -0.000034506    0.000000793
     11       35           0.002144715    0.002092068    0.001364858
 -------------------------------------------------------------------
 Cartesian Forces:  Max     0.002144715 RMS     0.000739494

 GradGradGradGradGradGradGradGradGradGradGradGradGradGradGradGradGradGrad
 Berny optimization.
 Using GEDIIS/GDIIS optimizer.
 FormGI is forming the generalized inverse of G from B-inverse, IUseBI=4.
 Internal  Forces:  Max     0.003221637 RMS     0.000640032
 Search for a local minimum.
 Step number   3 out of a maximum of   57
 All quantities printed in internal units (Hartrees-Bohrs-Radians)
 Mixed Optimization -- En-DIIS/RFO-DIIS
 Update second derivatives using D2CorX and points    1    2    3
 DE= -1.17D-03 DEPred=-1.14D-03 R= 1.03D+00
 TightC=F SS=  1.41D+00  RLast= 1.23D-01 DXNew= 8.4853D-01 3.6875D-01
 Trust test= 1.03D+00 RLast= 1.23D-01 DXMaxT set to 5.05D-01
 ITU=  1  1  0
 Use linear search instead of GDIIS.
     Eigenvalues ---    0.00839   0.01803   0.02213   0.02628   0.02687
     Eigenvalues ---    0.02928   0.03713   0.04414   0.10237   0.10617
     Eigenvalues ---    0.11361   0.11950   0.12147   0.17534   0.18874
     Eigenvalues ---    0.21304   0.23888   0.29180   0.35359   0.36139
     Eigenvalues ---    0.36200   0.36431   0.42402   0.43241   0.47136
     Eigenvalues ---    0.50173   0.51724
 RFO step:  Lambda=-1.02218059D-04 EMin= 8.39217618D-03
 Quartic linear search produced a step of -0.00127.
 Iteration  1 RMS(Cart)=  0.00596824 RMS(Int)=  0.00001723
 Iteration  2 RMS(Cart)=  0.00002513 RMS(Int)=  0.00000207
 Iteration  3 RMS(Cart)=  0.00000000 RMS(Int)=  0.00000207
 Variable       Old X    -DE/DX   Delta X   Delta X   Delta X     New X
                                 (Linear)    (Quad)   (Total)
    R1        2.67709   0.00082  -0.00003   0.00234   0.00231   2.67940
    R2        2.60734  -0.00024   0.00000  -0.00425  -0.00425   2.60309
    R3        2.06120   0.00011  -0.00001   0.00025   0.00024   2.06144
    R4        2.63973   0.00024   0.00000   0.00065   0.00065   2.64038
    R5        2.05334   0.00004   0.00000   0.00023   0.00023   2.05357
    R6        2.63372   0.00050   0.00000   0.00139   0.00139   2.63510
    R7        2.63050   0.00073   0.00000   0.00130   0.00130   2.63180
    R8        2.05020  -0.00003   0.00000  -0.00001  -0.00001   2.05019
    R9        2.04849  -0.00002   0.00000   0.00004   0.00004   2.04853
   R10        2.63520   0.00070   0.00000   0.00103   0.00103   2.63623
   R11        3.75316   0.00322  -0.00008   0.02303   0.02295   3.77610
    A1        1.93584   0.00125   0.00007   0.00380   0.00387   1.93971
    A2        2.07328   0.00014   0.00001   0.00028   0.00030   2.07358
    A3        2.17812  -0.00064  -0.00004  -0.00308  -0.00312   2.17499
    A4        2.03179   0.00050   0.00003   0.00280   0.00283   2.03462
    A5        2.10201   0.00000  -0.00001   0.00062   0.00061   2.10262
    A6        2.08913  -0.00018   0.00000  -0.00070  -0.00070   2.08843
    A7        2.09205   0.00018   0.00000   0.00008   0.00009   2.09214
    A8        2.07356   0.00043   0.00001   0.00223   0.00224   2.07579
    A9        2.11470  -0.00027  -0.00001  -0.00125  -0.00126   2.11343
   A10        2.09493  -0.00016   0.00000  -0.00097  -0.00098   2.09396
   A11        2.10577  -0.00016   0.00000  -0.00133  -0.00133   2.10444
   A12        2.05285   0.00004   0.00001  -0.00193  -0.00193   2.05092
   A13        2.12457   0.00012  -0.00001   0.00326   0.00326   2.12782
   A14        2.23688  -0.00090  -0.00006  -0.00030  -0.00036   2.23652
   A15        2.08321  -0.00075  -0.00001  -0.00285  -0.00285   2.08035
   A16        1.96309   0.00165   0.00006   0.00315   0.00322   1.96631
    D1       -3.14058  -0.00006   0.00000  -0.00035  -0.00034  -3.14092
    D2        0.00026  -0.00001   0.00000   0.00088   0.00088   0.00114
    D3       -0.00225   0.00006   0.00000   0.00495   0.00495   0.00270
    D4        3.13931   0.00016   0.00000   0.00720   0.00720  -3.13668
    D5       -3.14045  -0.00004   0.00000  -0.00424  -0.00424   3.13849
    D6        0.00146  -0.00004   0.00000  -0.00485  -0.00485  -0.00339
    D7        0.00040   0.00001   0.00000  -0.00304  -0.00304  -0.00264
    D8       -3.14088   0.00001   0.00000  -0.00365  -0.00365   3.13866
    D9       -0.00137   0.00005   0.00000   0.00329   0.00329   0.00193
   D10        3.14058   0.00001   0.00000   0.00290   0.00290  -3.13970
   D11        3.14054   0.00005   0.00000   0.00269   0.00269  -3.13996
   D12       -0.00070   0.00001   0.00000   0.00230   0.00230   0.00160
   D13        3.14132  -0.00004   0.00000   0.00101   0.00102  -3.14085
   D14       -0.00035   0.00000   0.00000   0.00178   0.00178   0.00143
   D15       -0.00063   0.00000   0.00000   0.00140   0.00140   0.00077
   D16        3.14089   0.00003   0.00000   0.00216   0.00217  -3.14013
   D17        0.00238  -0.00006   0.00000  -0.00645  -0.00645  -0.00407
   D18       -3.13918  -0.00014   0.00000  -0.00858  -0.00858   3.13543
   D19       -3.13929  -0.00002   0.00000  -0.00568  -0.00567   3.13822
   D20        0.00234  -0.00011   0.00000  -0.00780  -0.00780  -0.00546
         Item               Value     Threshold  Converged?
 Maximum Force            0.003222     0.000015     NO 
 RMS     Force            0.000640     0.000010     NO 
 Maximum Displacement     0.028109     0.000060     NO 
 RMS     Displacement     0.005978     0.000040     NO 
 Predicted change in Energy=-5.117575D-05
 GradGradGradGradGradGradGradGradGradGradGradGradGradGradGradGradGradGrad

                          Input orientation:                          
 ---------------------------------------------------------------------
 Center     Atomic      Atomic             Coordinates (Angstroms)
 Number     Number       Type             X           Y           Z
 ---------------------------------------------------------------------
      1          6           0        6.297293    7.012678    5.213339
      2          6           0        5.462715    6.057515    4.579682
      3          1           0        5.789011    5.017281    4.541753
      4          6           0        4.231030    6.348261    3.987509
      5          1           0        3.646639    5.562217    3.516828
      6          6           0        3.750200    7.657094    4.002170
      7          6           0        4.516038    8.649505    4.608957
      8          1           0        4.167505    9.675621    4.636231
      9          6           0        5.734808    8.269394    5.171303
     10          1           0        2.796169    7.908554    3.550911
     11         35           0        6.716913    9.804762    5.990467
 ---------------------------------------------------------------------
                    Distance matrix (angstroms):
                    1          2          3          4          5
     1  C    0.000000
     2  C    1.417878   0.000000
     3  H    2.165868   1.090869   0.000000
     4  C    2.492699   1.397229   2.122734   0.000000
     5  H    3.465250   2.161738   2.436635   1.086701   0.000000
     6  C    2.893075   2.413478   3.378833   1.394437   2.152856
     7  C    2.493461   2.759613   3.849419   2.400656   3.388207
     8  H    3.458369   3.843365   4.933390   3.390604   4.294701
     9  C    1.377495   2.305745   3.312931   2.711728   3.798230
    10  H    3.977955   3.405169   4.277655   2.164245   2.495948
    11  Br   2.928437   4.195853   5.087214   4.705194   5.791775
                    6          7          8          9         10
     6  C    0.000000
     7  C    1.392687   0.000000
     8  H    2.156532   1.084036   0.000000
     9  C    2.383370   1.395033   2.172605   0.000000
    10  H    1.084916   2.150911   2.486163   3.375126   0.000000
    11  Br   4.167396   2.843772   2.889656   1.998228   4.991920
                   11
    11  Br   0.000000
 Symmetry turned off by external request.
 Stoichiometry    C6H4Br(1-)
 Framework group  C1[X(C6H4Br)]
 Deg. of freedom    27
 Full point group                 C1      NOp   1
 Rotational constants (GHZ):           5.8707437           0.9764742           0.8372226
 Standard basis: 6-311+G(d,p) (5D, 7F)
   204 basis functions,   342 primitive gaussians,   213 cartesian basis functions
    38 alpha electrons       38 beta electrons
       nuclear repulsion energy       411.3716927826 Hartrees.
 NAtoms=   11 NActive=   11 NUniq=   11 SFac= 1.00D+00 NAtFMM=   60 NAOKFM=F Big=F
 Integral buffers will be    131072 words long.
 Raffenetti 2 integral format.
 Two-electron integral symmetry is turned off.
 ------------------------------------------------------------------------------
 Polarizable Continuum Model (PCM)
 =================================
 Model                : PCM.
 Atomic radii         : SMD-Coulomb.
 Polarization charges : Total charges.
 Charge compensation  : None.
 Solution method      : Matrix inversion.
 Cavity type          : VdW (van der Waals Surface) (Alpha=1.000).
 Cavity algorithm     : GePol (No added spheres)
                        Default sphere list used, NSphG=   11.
                        Lebedev-Laikov grids with approx.  5.0 points / Ang**2.
                        Smoothing algorithm: York/Karplus (Gamma=1.0000).
                        Polarization charges: spherical gaussians, with
                                              point-specific exponents (IZeta= 3).
                        Self-potential: point-specific (ISelfS= 7).
                        Self-field    : sphere-specific E.n sum rule (ISelfD= 2).
 1st derivatives      : Analytical E(r).r(x)/FMM algorithm (CHGder, D1EAlg=3).
                        Cavity 1st derivative terms included.
 Solvent              : TetraHydroFuran, Eps=   7.425700 Eps(inf)=   1.974025
 ------------------------------------------------------------------------------
 Spheres list:
 ISph  on   Nord     Re0    Alpha      Xe            Ye            Ze
    1   C      1    1.8500  1.000      6.297293      7.012678      5.213339
    2   C      2    1.8500  1.000      5.462715      6.057515      4.579682
    3   H      3    1.2000  1.000      5.789011      5.017281      4.541753
    4   C      4    1.8500  1.000      4.231030      6.348261      3.987509
    5   H      5    1.2000  1.000      3.646639      5.562217      3.516828
    6   C      6    1.8500  1.000      3.750200      7.657094      4.002170
    7   C      7    1.8500  1.000      4.516038      8.649505      4.608957
    8   H      8    1.2000  1.000      4.167505      9.675621      4.636231
    9   C      9    1.8500  1.000      5.734808      8.269394      5.171303
   10   H     10    1.2000  1.000      2.796169      7.908554      3.550911
   11  Br     11    3.0600  1.000      6.716913      9.804762      5.990467
 ------------------------------------------------------------------------------
 ------------------------------------------------------------------------------
 Atomic radii for non-electrostatic terms: SMD-CDS.
 ------------------------------------------------------------------------------
 Nuclear repulsion after PCM non-electrostatic terms =      411.3669098260 Hartrees.
 One-electron integrals computed using PRISM.
 NBasis=   204 RedAO= T EigKep=  5.02D-06  NBF=   204
 NBsUse=   204 1.00D-06 EigRej= -1.00D+00 NBFU=   204
 Initial guess from the checkpoint file:  "2-br-ph-anion-opt-freq-thf.chk"
 B after Tr=    -0.031369    0.011971    0.035567
         Rot=    0.999999    0.000640   -0.000743    0.000880 Ang=   0.15 deg.
 ExpMin= 3.50D-02 ExpMax= 4.40D+05 ExpMxC= 1.51D+04 IAcc=3 IRadAn=         5 AccDes= 0.00D+00
 Harris functional with IExCor= 1009 and IRadAn=       5 diagonalized for initial guess.
 HarFok:  IExCor= 1009 AccDes= 0.00D+00 IRadAn=         5 IDoV= 1 UseB2=F ITyADJ=14
 ICtDFT=  3500011 ScaDFX=  1.000000  1.000000  1.000000  1.000000
 FoFCou: FMM=F IPFlag=           0 FMFlag=      100000 FMFlg1=           0
         NFxFlg=           0 DoJE=T BraDBF=F KetDBF=T FulRan=T
         wScrn=  0.000000 ICntrl=       500 IOpCl=  0 I1Cent=   200000004 NGrid=           0
         NMat0=    1 NMatS0=      1 NMatT0=    0 NMatD0=    1 NMtDS0=    0 NMtDT0=    0
 Symmetry not used in FoFCou.
 Keep R1 ints in memory in canonical form, NReq=252016846.
 Requested convergence on RMS density matrix=1.00D-08 within 128 cycles.
 Requested convergence on MAX density matrix=1.00D-06.
 Requested convergence on             energy=1.00D-06.
 Level shift goal  0.100 maximum shift  0.100.
 No special actions if energy rises.
 Dynamic level shift is on during FON iterations.
 Inv3:  Mode=1 IEnd=     4665027.
 Iteration    1 A*A^-1 deviation from unit magnitude is 3.77D-15 for   1230.
 Iteration    1 A*A^-1 deviation from orthogonality  is 2.58D-15 for   1222    332.
 Iteration    1 A^-1*A deviation from unit magnitude is 3.55D-15 for   1230.
 Iteration    1 A^-1*A deviation from orthogonality  is 1.61D-15 for   1247   1129.
 Error on total polarization charges =  0.03182
 SCF Done:  E(RM062X) =  -2805.23087659     A.U. after   12 cycles
            NFock= 12  Conv=0.58D-08     -V/T= 2.0014
 SMD-CDS (non-electrostatic) energy       (kcal/mol) =      -3.00
 (included in total energy above)
 D1PCM: PCM CHGder 1st derivatives, ID1Alg=3 FixD1E=F DoIter=F DoCFld=F I1PDM=0.
 Calling FoFJK, ICntrl=      2127 FMM=F ISym2X=0 I1Cent= 0 IOpClX= 0 NMat=1 NMatS=1 NMatT=0.
 -------------------------------------------------------------------
 Center     Atomic                   Forces (Hartrees/Bohr)
 Number     Number              X              Y              Z
 -------------------------------------------------------------------
      1        6          -0.000162440    0.000180820   -0.000147660
      2        6          -0.000048232   -0.000318017   -0.000055442
      3        1           0.000018028    0.000093619    0.000008252
      4        6           0.000041107    0.000201291    0.000121875
      5        1           0.000030408    0.000009275    0.000081588
      6        6           0.000143276    0.000000440    0.000087698
      7        6           0.000102830   -0.000118873   -0.000049564
      8        1           0.000130301    0.000003504   -0.000006100
      9        6          -0.000577494   -0.000518010   -0.000381293
     10        1           0.000022330    0.000014662    0.000015118
     11       35           0.000299886    0.000451288    0.000325527
 -------------------------------------------------------------------
 Cartesian Forces:  Max     0.000577494 RMS     0.000211877

 GradGradGradGradGradGradGradGradGradGradGradGradGradGradGradGradGradGrad
 Berny optimization.
 Using GEDIIS/GDIIS optimizer.
 FormGI is forming the generalized inverse of G from B-inverse, IUseBI=4.
 Internal  Forces:  Max     0.000629177 RMS     0.000129386
 Search for a local minimum.
 Step number   4 out of a maximum of   57
 All quantities printed in internal units (Hartrees-Bohrs-Radians)
 Mixed Optimization -- En-DIIS/RFO-DIIS
 Swapping is turned off.
 Update second derivatives using D2CorX and points    1    2    3    4
 DE= -5.65D-05 DEPred=-5.12D-05 R= 1.10D+00
 TightC=F SS=  1.41D+00  RLast= 3.20D-02 DXNew= 8.4853D-01 9.5969D-02
 Trust test= 1.10D+00 RLast= 3.20D-02 DXMaxT set to 5.05D-01
 ITU=  1  1  1  0
     Eigenvalues ---    0.00902   0.01804   0.02219   0.02639   0.02707
     Eigenvalues ---    0.02928   0.03727   0.04430   0.08201   0.10544
     Eigenvalues ---    0.11440   0.11920   0.12114   0.17581   0.18889
     Eigenvalues ---    0.21324   0.22983   0.29308   0.35393   0.36128
     Eigenvalues ---    0.36203   0.36432   0.42446   0.43328   0.47416
     Eigenvalues ---    0.50174   0.53366
 En-DIIS/RFO-DIIS/Sim-DIIS IScMMF=       -3 using points:     4    3
 RFO step:  Lambda=-1.09318712D-05.
 DidBck=T Rises=F RFO-DIIS coefs:    0.78948    0.21052
 Iteration  1 RMS(Cart)=  0.00462197 RMS(Int)=  0.00000994
 Iteration  2 RMS(Cart)=  0.00001292 RMS(Int)=  0.00000177
 Iteration  3 RMS(Cart)=  0.00000000 RMS(Int)=  0.00000177
 Variable       Old X    -DE/DX   Delta X   Delta X   Delta X     New X
                                 (Linear)    (Quad)   (Total)
    R1        2.67940  -0.00008  -0.00049   0.00085   0.00037   2.67977
    R2        2.60309  -0.00014   0.00089  -0.00265  -0.00176   2.60133
    R3        2.06144  -0.00009  -0.00005  -0.00022  -0.00027   2.06118
    R4        2.64038  -0.00014  -0.00014  -0.00009  -0.00022   2.64016
    R5        2.05357  -0.00006  -0.00005  -0.00003  -0.00008   2.05349
    R6        2.63510  -0.00006  -0.00029   0.00034   0.00005   2.63516
    R7        2.63180  -0.00017  -0.00027   0.00010  -0.00017   2.63162
    R8        2.05019  -0.00002   0.00000  -0.00006  -0.00006   2.05014
    R9        2.04853  -0.00004  -0.00001  -0.00015  -0.00016   2.04837
   R10        2.63623  -0.00035  -0.00022  -0.00059  -0.00081   2.63542
   R11        3.77610   0.00063  -0.00483   0.01311   0.00828   3.78438
    A1        1.93971   0.00012  -0.00081   0.00138   0.00056   1.94027
    A2        2.07358   0.00005  -0.00006   0.00020   0.00014   2.07372
    A3        2.17499  -0.00022   0.00066  -0.00207  -0.00142   2.17357
    A4        2.03462   0.00016  -0.00060   0.00187   0.00128   2.03589
    A5        2.10262  -0.00008  -0.00013  -0.00033  -0.00046   2.10216
    A6        2.08843   0.00007   0.00015   0.00036   0.00050   2.08893
    A7        2.09214   0.00001  -0.00002  -0.00003  -0.00004   2.09210
    A8        2.07579   0.00003  -0.00047   0.00082   0.00034   2.07614
    A9        2.11343  -0.00001   0.00027  -0.00051  -0.00024   2.11319
   A10        2.09396  -0.00003   0.00021  -0.00031  -0.00010   2.09385
   A11        2.10444   0.00012   0.00028   0.00082   0.00110   2.10554
   A12        2.05092  -0.00005   0.00041  -0.00152  -0.00111   2.04981
   A13        2.12782  -0.00007  -0.00069   0.00069   0.00001   2.12783
   A14        2.23652   0.00005   0.00008   0.00106   0.00113   2.23765
   A15        2.08035  -0.00005   0.00060  -0.00095  -0.00034   2.08001
   A16        1.96631   0.00000  -0.00068  -0.00011  -0.00079   1.96552
    D1       -3.14092   0.00000   0.00007  -0.00244  -0.00237   3.13989
    D2        0.00114   0.00000  -0.00019  -0.00194  -0.00213  -0.00099
    D3        0.00270  -0.00005  -0.00104  -0.00377  -0.00481  -0.00211
    D4       -3.13668  -0.00010  -0.00152  -0.00453  -0.00604   3.14047
    D5        3.13849   0.00003   0.00089   0.00386   0.00475  -3.13994
    D6       -0.00339   0.00004   0.00102   0.00494   0.00596   0.00256
    D7       -0.00264   0.00002   0.00064   0.00436   0.00499   0.00236
    D8        3.13866   0.00004   0.00077   0.00543   0.00620  -3.13833
    D9        0.00193  -0.00003  -0.00069  -0.00238  -0.00307  -0.00114
   D10       -3.13970  -0.00002  -0.00061  -0.00280  -0.00342   3.14007
   D11       -3.13996  -0.00002  -0.00057  -0.00130  -0.00187   3.14135
   D12        0.00160   0.00000  -0.00048  -0.00173  -0.00222  -0.00062
   D13       -3.14085   0.00002  -0.00021  -0.00190  -0.00212   3.14022
   D14        0.00143  -0.00002  -0.00038  -0.00261  -0.00299  -0.00156
   D15        0.00077   0.00000  -0.00029  -0.00148  -0.00178  -0.00100
   D16       -3.14013  -0.00003  -0.00046  -0.00219  -0.00265   3.14041
   D17       -0.00407   0.00006   0.00136   0.00616   0.00751   0.00345
   D18        3.13543   0.00011   0.00181   0.00687   0.00868  -3.13908
   D19        3.13822   0.00003   0.00119   0.00544   0.00663  -3.13833
   D20       -0.00546   0.00008   0.00164   0.00615   0.00779   0.00233
         Item               Value     Threshold  Converged?
 Maximum Force            0.000629     0.000015     NO 
 RMS     Force            0.000129     0.000010     NO 
 Maximum Displacement     0.017769     0.000060     NO 
 RMS     Displacement     0.004625     0.000040     NO 
 Predicted change in Energy=-5.467417D-06
 GradGradGradGradGradGradGradGradGradGradGradGradGradGradGradGradGradGrad

                          Input orientation:                          
 ---------------------------------------------------------------------
 Center     Atomic      Atomic             Coordinates (Angstroms)
 Number     Number       Type             X           Y           Z
 ---------------------------------------------------------------------
      1          6           0        6.297557    7.013237    5.210662
      2          6           0        5.463324    6.056946    4.577814
      3          1           0        5.791891    5.017681    4.537095
      4          6           0        4.229605    6.347575    3.990116
      5          1           0        3.642982    5.560808    3.523536
      6          6           0        3.750083    7.656941    4.002480
      7          6           0        4.517335    8.650212    4.605850
      8          1           0        4.171470    9.677221    4.629963
      9          6           0        5.734240    8.268609    5.170162
     10          1           0        2.795835    7.908132    3.551603
     11         35           0        6.714001    9.805521    5.999870
 ---------------------------------------------------------------------
                    Distance matrix (angstroms):
                    1          2          3          4          5
     1  C    0.000000
     2  C    1.418073   0.000000
     3  H    2.166018   1.090727   0.000000
     4  C    2.491839   1.397111   2.123333   0.000000
     5  H    3.464493   2.161319   2.437231   1.086658   0.000000
     6  C    2.892003   2.413750   3.379422   1.394465   2.152820
     7  C    2.492925   2.760564   3.850260   2.400845   3.388262
     8  H    3.457495   3.844217   4.934137   3.391066   4.295154
     9  C    1.376563   2.305586   3.312496   2.710499   3.796963
    10  H    3.976854   3.405216   4.278113   2.164100   2.495672
    11  Br   2.931404   4.199792   5.090522   4.708368   5.794910
                    6          7          8          9         10
     6  C    0.000000
     7  C    1.392595   0.000000
     8  H    2.157043   1.083952   0.000000
     9  C    2.382121   1.394606   2.172154   0.000000
    10  H    1.084885   2.150740   2.486948   3.374004   0.000000
    11  Br   4.170225   2.846642   2.890946   2.002610   4.994609
                   11
    11  Br   0.000000
 Symmetry turned off by external request.
 Stoichiometry    C6H4Br(1-)
[...]
    A5        2.10203   0.00000   0.00000   0.00000   0.00000   2.10203
    A6        2.08905   0.00000   0.00000   0.00000   0.00000   2.08905
    A7        2.09211   0.00000   0.00000   0.00000   0.00000   2.09210
    A8        2.07601   0.00000   0.00000   0.00000   0.00000   2.07601
    A9        2.11327   0.00000   0.00000   0.00000   0.00000   2.11327
   A10        2.09390   0.00000   0.00000   0.00000   0.00000   2.09390
   A11        2.10572   0.00000   0.00000   0.00000   0.00000   2.10572
   A12        2.04973   0.00000   0.00000  -0.00001  -0.00001   2.04972
   A13        2.12774   0.00000   0.00000   0.00001   0.00001   2.12775
   A14        2.23790   0.00000   0.00000   0.00000   0.00000   2.23790
   A15        2.08006   0.00000   0.00000   0.00000   0.00000   2.08006
   A16        1.96523   0.00000   0.00000  -0.00001  -0.00001   1.96522
    D1       -3.14156   0.00000   0.00000   0.00001   0.00001  -3.14155
    D2        0.00047   0.00000   0.00000   0.00001   0.00001   0.00047
    D3       -0.00004   0.00000   0.00000  -0.00001  -0.00001  -0.00005
    D4       -3.14016   0.00000   0.00000  -0.00002  -0.00002  -3.14018
    D5        3.14075   0.00000   0.00000   0.00000   0.00000   3.14075
    D6       -0.00058   0.00000   0.00000   0.00000   0.00000  -0.00058
    D7       -0.00042   0.00000   0.00000   0.00000   0.00000  -0.00042
    D8        3.14144   0.00000   0.00000   0.00000   0.00000   3.14144
    D9        0.00023   0.00000   0.00000  -0.00001  -0.00001   0.00022
   D10       -3.14145   0.00000   0.00000   0.00000   0.00000  -3.14145
   D11       -3.14110   0.00000   0.00000  -0.00001  -0.00001  -3.14111
   D12        0.00041   0.00000   0.00000   0.00000   0.00000   0.00041
   D13        3.14143   0.00000   0.00000   0.00000   0.00000   3.14144
   D14        0.00016   0.00000   0.00000   0.00000   0.00000   0.00016
   D15       -0.00008   0.00000   0.00000   0.00000   0.00000  -0.00008
   D16       -3.14135   0.00000   0.00000   0.00000   0.00000  -3.14135
   D17       -0.00026   0.00000   0.00000   0.00001   0.00001  -0.00025
   D18        3.13994   0.00000   0.00000   0.00001   0.00001   3.13995
   D19       -3.14153   0.00000   0.00000   0.00000   0.00000  -3.14153
   D20       -0.00133   0.00000   0.00000   0.00001   0.00001  -0.00132
         Item               Value     Threshold  Converged?
 Maximum Force            0.000012     0.000015     YES
 RMS     Force            0.000002     0.000010     YES
 Maximum Displacement     0.000025     0.000060     YES
 RMS     Displacement     0.000008     0.000040     YES
 Predicted change in Energy=-2.945787D-10
 Optimization completed.
    -- Stationary point found.
                           ----------------------------
                           !   Optimized Parameters   !
                           ! (Angstroms and Degrees)  !
 --------------------------                            --------------------------
 ! Name  Definition              Value          Derivative Info.                !
 --------------------------------------------------------------------------------
 ! R1    R(1,2)                  1.4179         -DE/DX =    0.0                 !
 ! R2    R(1,9)                  1.3766         -DE/DX =    0.0                 !
 ! R3    R(2,3)                  1.0907         -DE/DX =    0.0                 !
 ! R4    R(2,4)                  1.3971         -DE/DX =    0.0                 !
 ! R5    R(4,5)                  1.0866         -DE/DX =    0.0                 !
 ! R6    R(4,6)                  1.3944         -DE/DX =    0.0                 !
 ! R7    R(6,7)                  1.3925         -DE/DX =    0.0                 !
 ! R8    R(6,10)                 1.0849         -DE/DX =    0.0                 !
 ! R9    R(7,8)                  1.0839         -DE/DX =    0.0                 !
 ! R10   R(7,9)                  1.3945         -DE/DX =    0.0                 !
 ! R11   R(9,11)                 2.0025         -DE/DX =    0.0                 !
 ! A1    A(2,1,9)              111.1564         -DE/DX =    0.0                 !
 ! A2    A(1,2,3)              118.8213         -DE/DX =    0.0                 !
 ! A3    A(1,2,4)              124.5402         -DE/DX =    0.0                 !
 ! A4    A(3,2,4)              116.6385         -DE/DX =    0.0                 !
 ! A5    A(2,4,5)              120.4375         -DE/DX =    0.0                 !
 ! A6    A(2,4,6)              119.6937         -DE/DX =    0.0                 !
 ! A7    A(5,4,6)              119.8688         -DE/DX =    0.0                 !
 ! A8    A(4,6,7)              118.9469         -DE/DX =    0.0                 !
 ! A9    A(4,6,10)             121.0815         -DE/DX =    0.0                 !
 ! A10   A(7,6,10)             119.9717         -DE/DX =    0.0                 !
 ! A11   A(6,7,8)              120.6487         -DE/DX =    0.0                 !
 ! A12   A(6,7,9)              117.4408         -DE/DX =    0.0                 !
 ! A13   A(8,7,9)              121.9105         -DE/DX =    0.0                 !
 ! A14   A(1,9,7)              128.222          -DE/DX =    0.0                 !
 ! A15   A(1,9,11)             119.1786         -DE/DX =    0.0                 !
 ! A16   A(7,9,11)             112.5994         -DE/DX =    0.0                 !
 ! D1    D(9,1,2,3)           -179.9981         -DE/DX =    0.0                 !
 ! D2    D(9,1,2,4)              0.0267         -DE/DX =    0.0                 !
 ! D3    D(2,1,9,7)             -0.0024         -DE/DX =    0.0                 !
 ! D4    D(2,1,9,11)          -179.9179         -DE/DX =    0.0                 !
 ! D5    D(1,2,4,5)            179.9517         -DE/DX =    0.0                 !
 ! D6    D(1,2,4,6)             -0.0331         -DE/DX =    0.0                 !
 ! D7    D(3,2,4,5)             -0.024          -DE/DX =    0.0                 !
 ! D8    D(3,2,4,6)            179.9912         -DE/DX =    0.0                 !
 ! D9    D(2,4,6,7)              0.0129         -DE/DX =    0.0                 !
 ! D10   D(2,4,6,10)          -179.9918         -DE/DX =    0.0                 !
 ! D11   D(5,4,6,7)           -179.972          -DE/DX =    0.0                 !
 ! D12   D(5,4,6,10)             0.0233         -DE/DX =    0.0                 !
 ! D13   D(4,6,7,8)            179.9909         -DE/DX =    0.0                 !
 ! D14   D(4,6,7,9)              0.0091         -DE/DX =    0.0                 !
 ! D15   D(10,6,7,8)            -0.0045         -DE/DX =    0.0                 !
 ! D16   D(10,6,7,9)          -179.9862         -DE/DX =    0.0                 !
 ! D17   D(6,7,9,1)             -0.015          -DE/DX =    0.0                 !
 ! D18   D(6,7,9,11)           179.9051         -DE/DX =    0.0                 !
 ! D19   D(8,7,9,1)           -179.9965         -DE/DX =    0.0                 !
 ! D20   D(8,7,9,11)            -0.0764         -DE/DX =    0.0                 !
 --------------------------------------------------------------------------------
 GradGradGradGradGradGradGradGradGradGradGradGradGradGradGradGradGradGrad


 ----------------------------------------------------------------------

 Electric dipole moment (input orientation):
 (Debye = 10**-18 statcoulomb cm , SI units = C m)
                  (au)            (Debye)         (10**-30 SI)
   Tot        0.218955D+02      0.556529D+02      0.185638D+03
   x         -0.125611D+02     -0.319271D+02     -0.106497D+03
   y         -0.145672D+02     -0.370261D+02     -0.123506D+03
   z         -0.104609D+02     -0.265890D+02     -0.886914D+02

 Dipole polarizability, Alpha (input orientation).
 (esu units = cm**3 , SI units = C**2 m**2 J**-1)
 Alpha(0;0):
               (au)            (10**-24 esu)      (10**-40 SI)
   iso        0.133680D+03      0.198094D+02      0.220409D+02
   aniso      0.823977D+02      0.122101D+02      0.135855D+02
   xx         0.138899D+03      0.205828D+02      0.229014D+02
   yx         0.539827D+01      0.799941D+00      0.890054D+00
   yy         0.160521D+03      0.237867D+02      0.264663D+02
   zx         0.314182D+02      0.465569D+01      0.518016D+01
   zy         0.189518D+02      0.280836D+01      0.312472D+01
   zz         0.101621D+03      0.150587D+02      0.167551D+02

 ----------------------------------------------------------------------

 Dipole orientation:
     6          0.17721466          0.34242942        -20.34887128
     6          0.10456587          0.40518500        -17.67117819
     1          1.13505192          1.89224792        -16.68381951
     6         -1.20872050         -1.32315682        -16.16845280
     1         -1.17706808         -1.15693267        -14.12199768
     6         -2.56748809         -3.27340976        -17.30577748
     6         -2.58233025         -3.45289175        -19.93113973
     1         -3.62093304         -4.94827757        -20.86968498
     6         -1.21802751         -1.64609045        -21.27960414
     1         -3.60259930         -4.63876069        -16.17998994
    35         -1.42184894         -2.16468741        -25.02243799

 Electric dipole moment (dipole orientation):
 (Debye = 10**-18 statcoulomb cm , SI units = C m)
                  (au)            (Debye)         (10**-30 SI)
   Tot        0.218955D+02      0.556529D+02      0.185638D+03
   x          0.000000D+00      0.000000D+00      0.000000D+00
   y          0.000000D+00      0.000000D+00      0.000000D+00
   z          0.218955D+02      0.556529D+02      0.185638D+03

 Dipole polarizability, Alpha (dipole orientation).
 (esu units = cm**3 , SI units = C**2 m**2 J**-1)
 Alpha(0;0):
               (au)            (10**-24 esu)      (10**-40 SI)
   iso        0.133680D+03      0.198094D+02      0.220409D+02
   aniso      0.823977D+02      0.122101D+02      0.135855D+02
   xx         0.103502D+03      0.153374D+02      0.170651D+02
   yx         0.307919D+02      0.456289D+01      0.507690D+01
   yy         0.124188D+03      0.184027D+02      0.204758D+02
   zx        -0.249513D+00     -0.369740D-01     -0.411391D-01
   zy         0.525252D+01      0.778343D+00      0.866024D+00
   zz         0.173352D+03      0.256881D+02      0.285818D+02

 ----------------------------------------------------------------------
 Unable to Open any file for archive entry.
 1\1\GINC-CN013\Freq\RM062X\6-311+G(d,p)\C6H4Br1(1-)\TAHMINAAFROZ\30-Ma
 y-2025\0\\#N Geom=AllCheck Guess=TCheck SCRF=Check GenChk RM062X/6-311
 +G(d,p) Freq\\2-br-ph-anion-opt-freq-thf\\-1,1\C,6.2971975954,7.012943
 2777,5.2114111399\C,5.4629992637,6.0568926868,4.5785786496\H,5.7903649
 973,5.0172216996,4.5396580391\C,4.2303952404,6.3479836765,3.9888568569
 \H,3.6448710849,5.5615603969,3.5203793248\C,3.7502196253,7.6570128428,
 4.0022795711\C,4.516590679,8.6498649893,4.6073470079\H,4.1699300381,9.
 676544993,4.6334603719\C,5.7340718995,8.2684087481,5.1702033357\H,2.79
 60781326,7.9082388094,3.5512036614\Br,6.7156044438,9.8062118799,5.9957
 730417\\Version=AS64L-G16RevC.01\HF=-2805.230881\RMSD=3.521e-09\RMSF=1
 .085e-05\ZeroPoint=0.0768206\Thermal=0.0825988\ETot=-2805.1482822\HTot
 =-2805.147338\GTot=-2805.1850489\Dipole=-1.691472,1.4410636,-0.5978456
 \DipoleDeriv=-0.5117621,0.2319002,0.1278906,-0.1116809,-1.6170125,-0.2
 431308,0.0627382,-0.0741575,-0.6527173,-0.031992,0.0312365,0.0824338,0
 .0059102,0.380596,0.1145419,0.0748673,0.1325622,-0.1068358,0.0544089,0
 .0702628,-0.018136,0.0126667,-0.2568177,-0.0679688,-0.0295308,-0.03770
 61,0.0920127,-0.0821185,-0.1180183,0.0097583,-0.0721409,0.0484912,0.00
 20195,0.0202848,-0.0230179,-0.1482035,0.0005293,-0.120458,-0.1173121,-
 0.1102795,-0.0440998,-0.1027752,-0.1152582,-0.1079094,0.0938547,-0.148
 5811,-0.1075877,0.0303107,0.0337209,-0.0760262,0.0518329,0.0565569,-0.
 0213662,-0.2157454,-0.0878775,-0.0341135,0.0027214,-0.0996988,-0.32324
 35,-0.0967206,-0.0092798,-0.0607422,-0.1244706,0.0807626,0.0681835,-0.
 0352739,0.093786,-0.0936004,-0.0053927,-0.0291268,-0.0210686,0.1536912
 ,0.2122786,0.486785,0.2422895,0.5693572,2.0991114,0.7369772,0.2578659,
 0.6892766,0.2128975,-0.076133,0.0426636,-0.1292106,0.0398173,0.0624369
 ,-0.004294,-0.1290089,-0.003062,0.1180016,-0.4095151,-0.5508542,-0.195
 4718,-0.3614583,-1.1798354,-0.3850895,-0.1601085,-0.472809,-0.4224851\
 Polar=138.8994365,5.3982673,160.5206125,31.4181708,18.9517539,101.6211
 297\Quadrupole=3.9156425,-54.5391738,50.6235314,-183.6821754,-130.5185
 241,-153.1747849\PG=C01 [X(C6H4Br1)]\NImag=0\\0.28091296,-0.00190332,0
 .50546259,0.11035361,0.08649345,0.14268776,-0.14223148,-0.06516019,-0.
 06195491,0.51284336,-0.08702023,-0.18070119,-0.07173335,-0.07228392,0.
 65876297,-0.06656664,-0.06038052,-0.09701798,0.18260697,0.06655142,0.2
 4926614,0.00413810,-0.01835386,-0.00023668,-0.07818498,0.07961306,-0.0
 0410788,0.08113485,-0.00062061,-0.01754736,-0.00338935,0.08508304,-0.2
 8919983,-0.00576905,-0.08629142,0.31408987,0.00339974,-0.01267586,-0.0
 0335151,-0.00303616,-0.00869346,-0.04316754,0.01163060,0.01303299,0.03
 470126,-0.02190171,-0.05642724,-0.03323335,-0.26629244,0.07655556,-0.0
 9021465,-0.00608355,0.00058088,-0.00566425,0.56175289,-0.00961744,0.05
 060973,0.00122652,0.01003024,-0.13490250,-0.00852307,0.02860616,-0.005
 90637,0.01284462,-0.01403480,0.69189509,-0.02371334,-0.02339877,0.0022
 2994,-0.10375494,0.02646316,-0.11531698,0.00003102,-0.00190114,0.00453
 996,0.22245276,0.10605590,0.27283957,-0.00261300,0.00092578,-0.0042978
 2,-0.00823415,-0.02198821,-0.01081454,0.00005901,-0.00006081,0.0020385
 3,-0.13412370,-0.10676776,-0.07283610,0.13565071,0.00117766,0.00140829
 ,-0.00030128,0.00530527,0.00791388,0.00363119,-0.00089473,0.00049549,0
 .00041083,-0.10555078,-0.20312136,-0.08960356,0.11441127,0.21265109,-0
 .00425648,-0.00042829,0.00357767,-0.00524345,-0.01074932,-0.00113755,0
 .00185776,0.00084947,-0.00267489,-0.07260169,-0.09027036,-0.09353700,0
 .08133558,0.09859152,0.08814549,0.00122415,-0.01007712,0.00192933,-0.0
 0926649,0.03103612,-0.00306065,-0.00285472,0.00256482,-0.00515310,-0.1
 3800979,0.10354189,-0.01734635,0.00889125,-0.01798735,-0.00040015,0.61
 551011,-0.00835095,-0.06638962,-0.01657541,0.08254108,0.00594397,0.042
 90296,0.00102909,0.00222531,-0.00061813,0.04248619,-0.31064310,-0.0276
 0131,0.00943816,-0.01524803,0.00132403,-0.06093610,0.64967600,0.002295
 91,-0.01748366,-0.00866909,0.00734321,0.01581245,0.01564890,-0.0054575
 6,0.00019366,0.00508141,-0.02979933,0.00453681,-0.07950864,0.00517187,
 -0.01313050,0.00278039,0.24232381,0.07333871,0.27457241,0.00178177,0.0
 6980336,0.00625090,-0.05395454,-0.00965512,-0.02750631,-0.00091073,-0.
 00102961,0.00003923,0.05209536,-0.04558352,0.01423292,0.00154133,0.003
 68050,-0.00229900,-0.17621458,-0.04610504,-0.06992796,0.53865955,0.029
 17335,0.00250116,0.01237084,-0.01894205,-0.00629264,-0.01011603,-0.000
 83408,0.00027452,-0.00009710,0.00271226,-0.05109050,-0.01046949,0.0029
 6242,-0.00406183,-0.00075623,-0.11229016,-0.23590807,-0.09460203,-0.07
 051605,0.73131397,-0.00202291,0.03375814,0.02269633,-0.02940819,-0.005
 24225,-0.02198765,0.00007338,-0.00020606,-0.00137477,0.02408187,-0.035
 84363,0.01280794,-0.00246390,-0.00038791,0.00598975,-0.08337754,-0.059
 85679,-0.11772854,0.20145535,0.08555079,0.25291569,-0.00364012,0.00219
 573,-0.00419243,-0.00081003,-0.00117316,-0.00057890,-0.00025229,-0.000
 09055,0.00088884,0.00055061,-0.00214583,-0.00472539,0.00038371,-0.0009
 1731,-0.00020423,0.00947868,-0.01713832,-0.00042368,-0.08035642,0.0881
 1891,-0.00518937,0.08003874,0.00269144,0.00104118,0.00056080,-0.000343
 05,0.00083788,0.00002946,-0.00007113,-0.00013612,0.00033891,-0.0028155
 7,-0.00022242,-0.00329847,0.00054450,-0.00078969,0.00004038,0.00882437
 ,-0.01500650,0.00085025,0.09009856,-0.31260494,-0.00856729,-0.09463281
 ,0.33016573,-0.00409206,0.00028764,0.00311584,-0.00040924,-0.00040172,
 -0.00046733,0.00089411,0.00032585,-0.00144310,-0.00486590,-0.00294736,
 0.00554816,0.00009160,-0.00072985,0.00031930,0.00484573,-0.01281750,0.
 00361332,-0.00474675,-0.00960329,-0.04106092,0.01006923,0.01226427,0.0
 3206613,-0.12516807,0.09471774,-0.01976802,0.04266686,-0.00007381,0.02
 461543,0.00336182,-0.00014122,-0.00367693,-0.04326667,0.03900522,-0.01
 031328,-0.00080361,0.00115135,-0.00053952,-0.03484658,-0.06833203,-0.0
 3671155,-0.25321321,0.10145749,-0.08003891,-0.00465157,-0.00213646,-0.
 00407507,0.45285621,0.07306118,-0.23884871,0.00045287,-0.02713059,-0.0
 5865101,-0.02524377,-0.00372574,-0.00290126,-0.00463773,0.03160182,-0.
 03377821,0.01156333,0.00265201,-0.00026374,0.00120651,-0.00212075,0.05
 334087,0.00793403,0.03893607,-0.11833125,0.00889005,0.02516596,-0.0049
 4153,0.01177264,-0.14722437,0.40797754,-0.02381035,0.01181472,-0.06092
 993,0.01906267,-0.01105447,0.00340937,-0.00439275,-0.00276256,0.007403
 37,-0.01182614,0.01544483,-0.01166951,-0.00023336,0.00041468,0.0006172
 1,-0.02333121,-0.02686717,-0.00909076,-0.09279257,0.04149944,-0.102113
 64,0.00149728,-0.00257757,0.00249156,0.14849427,-0.01758505,0.18817910
 ,-0.00032449,-0.00049301,0.00110730,0.00249180,0.00266568,-0.00170352,
 -0.00042053,0.00006406,-0.00034208,-0.00484551,-0.00099830,-0.00436957
 ,-0.00032288,-0.00007758,0.00190312,-0.27188389,0.05962537,-0.11276586
 ,-0.01067424,0.00651481,-0.00592288,-0.00030211,-0.00055471,0.00208048
 ,0.00214818,-0.00167213,-0.00321337,0.28489087,-0.00048329,-0.00056224
 ,0.00016250,0.00132991,-0.00512417,-0.00171780,0.00145042,-0.00047970,
 0.00061503,0.02621931,-0.00041755,0.01308918,-0.00108735,0.00097705,0.
 00043642,0.05976455,-0.07253950,0.02369483,-0.02065298,0.00864913,-0.0
 0974154,0.00023018,0.00075892,0.00118076,-0.00111527,-0.00125133,-0.00
 238696,-0.06454264,0.07081340,0.00110824,0.00016201,-0.00200636,-0.001
 96272,-0.00100357,0.00551798,-0.00005878,-0.00011566,0.00019766,0.0011
 5326,-0.00123547,0.00341716,0.00170468,0.00096553,-0.00287838,-0.11276
 135,0.02363480,-0.08946888,-0.01143854,0.00454460,-0.00199024,0.002242
 01,0.00076793,-0.00313998,-0.00309112,-0.00269151,0.00541991,0.1238626
 4,-0.02452959,0.08516291,0.00782191,-0.01522788,0.00404205,0.00097209,
 0.00232402,-0.00266931,0.00001301,-0.00005858,-0.00012441,0.00012451,-
 0.00203587,0.00034227,-0.00042867,-0.00029831,0.00044805,-0.00202813,0
 .00574255,-0.00204887,-0.01875429,-0.02835691,-0.01718689,-0.00043919,
 -0.00160514,0.00020787,-0.03908336,0.01045654,-0.00945446,-0.00075720,
 -0.00111285,-0.00075831,0.05255933,0.00189221,-0.05697382,-0.00926759,
 -0.00042975,0.00141263,-0.00136480,-0.00052778,-0.00091456,-0.00052012
 ,-0.00132762,-0.00242282,-0.00089884,-0.00103001,0.00003884,-0.0002441
 4,-0.00232029,0.00454865,-0.00114455,-0.00897618,-0.01444954,-0.008353
 52,0.00038719,0.00089749,0.00066858,-0.01730865,-0.00235137,-0.0059399
 1,-0.00053155,-0.00082402,-0.00049908,0.03017242,0.07103852,0.00730427
 ,-0.01814888,-0.00233265,-0.00324324,0.00005110,0.00525264,-0.00023321
 ,-0.00025816,0.00008815,0.00051742,-0.00128881,-0.00135060,0.00030347,
 0.00013935,-0.00120198,-0.00366853,0.00313581,0.00276947,-0.01326728,-
 0.01832151,-0.00815395,0.00061666,-0.00040867,-0.00104299,-0.01489530,
 0.00833864,-0.02371668,-0.00063627,-0.00080284,-0.00023179,0.02720201,
 0.02756397,0.02992038\\0.00000615,0.00002036,0.00000691,0.00000512,-0.
 00000484,-0.00001181,0.00002003,0.00000768,-0.00001199,0.00001016,-0.0
 0000167,-0.00000826,0.00001848,-0.00000408,-0.00001411,-0.00000010,-0.
 00000537,-0.00000121,-0.00001016,-0.00000457,0.00000582,-0.00001826,-0
 .00000608,0.00001144,-0.00000674,0.00000465,0.00000823,-0.00000108,-0.
 00001130,-0.00000279,-0.00002361,0.00000520,0.00001777\\\@
 The archive entry for this job was punched.


 A warm smile is the universal language of kindness.
                             -- William Arthur Ward
 Job cpu time:       0 days  0 hours 19 minutes 33.7 seconds.
 Elapsed time:       0 days  0 hours  0 minutes 39.2 seconds.
 File lengths (MBytes):  RWF=     87 Int=      0 D2E=      0 Chk=     11 Scr=      1
 Normal termination of Gaussian 16 at Fri May 30 05:18:39 2025.
