/home/tahminaafroz
cn013.cluster.local
tahminaafroz
Sun May 11 04:10:13 CDT 2025
 Entering Gaussian System, Link 0=g16
 Initial command:
 /home/apps/g16/l1.exe "/tmp/2-br-ph-opt-freq-thf/Gau-542314.inp" -scrdir="/tmp/2-br-ph-opt-freq-thf/"
 Entering Link 1 = /home/apps/g16/l1.exe PID=    542315.
  
 Copyright (c) 1988-2019, Gaussian, Inc.  All Rights Reserved.
  
 This is part of the Gaussian(R) 16 program.  It is based on
 the Gaussian(R) 09 system (copyright 2009, Gaussian, Inc.),
 the Gaussian(R) 03 system (copyright 2003, Gaussian, Inc.),
 the Gaussian(R) 98 system (copyright 1998, Gaussian, Inc.),
 the Gaussian(R) 94 system (copyright 1995, Gaussian, Inc.),
 the Gaussian 92(TM) system (copyright 1992, Gaussian, Inc.),
 the Gaussian 90(TM) system (copyright 1990, Gaussian, Inc.),
 the Gaussian 88(TM) system (copyright 1988, Gaussian, Inc.),
 the Gaussian 86(TM) system (copyright 1986, Carnegie Mellon
 University), and the Gaussian 82(TM) system (copyright 1983,
 Carnegie Mellon University). Gaussian is a federally registered
 trademark of Gaussian, Inc.
  
 This software contains proprietary and confidential information,
 including trade secrets, belonging to Gaussian, Inc.
  
 This software is provided under written license and may be
 used, copied, transmitted, or stored only in accord with that
 written license.
  
 The following legend is applicable only to US Government
 contracts under FAR:
  
                    RESTRICTED RIGHTS LEGEND
  
 Use, reproduction and disclosure by the US Government is
 subject to restrictions as set forth in subparagraphs (a)
 and (c) of the Commercial Computer Software - Restricted
 Rights clause in FAR 52.227-19.
  
 Gaussian, Inc.
 340 Quinnipiac St., Bldg. 40, Wallingford CT 06492
  
  
 ---------------------------------------------------------------
 Warning -- This program may not be used in any manner that
 competes with the business of Gaussian, Inc. or will provide
 assistance to any competitor of Gaussian, Inc.  The licensee
 of this program is prohibited from giving any competitor of
 Gaussian, Inc. access to this program.  By using this program,
 the user acknowledges that Gaussian, Inc. is engaged in the
 business of creating and licensing software in the field of
 computational chemistry and represents and warrants to the
 licensee that it is not a competitor of Gaussian, Inc. and that
 it will not use this program in any manner prohibited above.
 ---------------------------------------------------------------
  

 Cite this work as:
 Gaussian 16, Revision C.01,
 M. J. Frisch, G. W. Trucks, H. B. Schlegel, G. E. Scuseria, 
 M. A. Robb, J. R. Cheeseman, G. Scalmani, V. Barone, 
 G. A. Petersson, H. Nakatsuji, X. Li, M. Caricato, A. V. Marenich, 
 J. Bloino, B. G. Janesko, R. Gomperts, B. Mennucci, H. P. Hratchian, 
 J. V. Ortiz, A. F. Izmaylov, J. L. Sonnenberg, D. Williams-Young, 
 F. Ding, F. Lipparini, F. Egidi, J. Goings, B. Peng, A. Petrone, 
 T. Henderson, D. Ranasinghe, V. G. Zakrzewski, J. Gao, N. Rega, 
 G. Zheng, W. Liang, M. Hada, M. Ehara, K. Toyota, R. Fukuda, 
 J. Hasegawa, M. Ishida, T. Nakajima, Y. Honda, O. Kitao, H. Nakai, 
 T. Vreven, K. Throssell, J. A. Montgomery, Jr., J. E. Peralta, 
 F. Ogliaro, M. J. Bearpark, J. J. Heyd, E. N. Brothers, K. N. Kudin, 
 V. N. Staroverov, T. A. Keith, R. Kobayashi, J. Normand, 
 K. Raghavachari, A. P. Rendell, J. C. Burant, S. S. Iyengar, 
 J. Tomasi, M. Cossi, J. M. Millam, M. Klene, C. Adamo, R. Cammi, 
 J. W. Ochterski, R. L. Martin, K. Morokuma, O. Farkas, 
 J. B. Foresman, and D. J. Fox, Gaussian, Inc., Wallingford CT, 2019.
 
 ******************************************
 Gaussian 16:  AS64L-G16RevC.01  3-Jul-2019
                11-May-2025 
 ******************************************
 %mem=20GB
 %nprocshared=32
 Will use up to   32 processors via shared memory.
 %chk=2-br-ph-opt-freq-thf.chk
 ----------------------------------------------------------------------
 # opt=(calcfc,tight) freq 6-311+g(d,p) scrf=(smd,solvent=thf) nosymm s
 cf=(qc,fermi,xqc) geom=connectivity int=ultrafine m062x
 ----------------------------------------------------------------------
 1/7=10,10=4,18=20,19=15,26=6,38=1,57=2/1,3;
 2/9=110,12=2,15=1,17=6,18=5,40=1/2;
 3/5=4,6=6,7=111,11=2,25=1,30=1,70=32201,71=2,72=20,74=-55,75=-5,140=1/1,2,3;
 4//1;
 5/5=2,22=13,38=5,53=20/2;
 8/6=4,10=90,11=11/1;
 11/6=1,8=1,9=11,15=111,16=1,31=1/1,2,10;
 10/6=1,13=1,31=1/2;
 6/7=2,8=2,9=2,10=2,28=1/1;
 7/10=1,25=1,30=1/1,2,3,16;
 1/7=10,10=4,18=20,19=15,26=6/3(2);
 2/9=110,15=1/2;
 99//99;
 2/9=110,15=1/2;
 3/5=4,6=6,7=111,11=2,25=1,30=1,70=32205,71=1,72=20,74=-55,75=-5/1,2,3;
 4/5=5,16=3,69=1/1;
 5/5=2,22=13,38=5,53=20/2;
 7/30=1/1,2,3,16;
 1/7=10,18=20,19=15,26=6/3(-5);
 2/9=110,15=1/2;
 6/7=2,8=2,9=2,10=2,19=2,28=1/1;
 99/9=1/99;
 --------------------
 2-br-ph-opt-freq-thf
 --------------------
 Symbolic Z-matrix:
 Charge =  0 Multiplicity = 2
 C                     6.25893   7.01203   5.18808 
 C                     5.45209   6.04055   4.56886 
 H                     5.81109   5.01849   4.55024 
 C                     4.22848   6.34454   3.98834 
 H                     3.64045   5.56321   3.52186 
 C                     3.76419   7.65466   4.00912 
 C                     4.52591   8.64938   4.61044 
 H                     4.17283   9.67249   4.63169 
 C                     5.74618   8.31284   5.18321 
 H                     2.81167   7.91162   3.56048 
 Br                    6.69649   9.78309   5.98686 
 

 GradGradGradGradGradGradGradGradGradGradGradGradGradGradGradGradGradGrad
 Berny optimization.
 Initialization pass.
                           ----------------------------
                           !    Initial Parameters    !
                           ! (Angstroms and Degrees)  !
 --------------------------                            --------------------------
 ! Name  Definition              Value          Derivative Info.                !
 --------------------------------------------------------------------------------
 ! R1    R(1,2)                  1.4065         calculate D2E/DX2 analytically  !
 ! R2    R(1,9)                  1.3982         calculate D2E/DX2 analytically  !
 ! R3    R(2,3)                  1.0834         calculate D2E/DX2 analytically  !
 ! R4    R(2,4)                  1.388          calculate D2E/DX2 analytically  !
 ! R5    R(4,5)                  1.0835         calculate D2E/DX2 analytically  !
 ! R6    R(4,6)                  1.3901         calculate D2E/DX2 analytically  !
 ! R7    R(6,7)                  1.3897         calculate D2E/DX2 analytically  !
 ! R8    R(6,10)                 1.0838         calculate D2E/DX2 analytically  !
 ! R9    R(7,8)                  1.0825         calculate D2E/DX2 analytically  !
 ! R10   R(7,9)                  1.3894         calculate D2E/DX2 analytically  !
 ! R11   R(9,11)                 1.9263         calculate D2E/DX2 analytically  !
 ! A1    A(2,1,9)              115.5115         calculate D2E/DX2 analytically  !
 ! A2    A(1,2,3)              117.9741         calculate D2E/DX2 analytically  !
 ! A3    A(1,2,4)              122.5857         calculate D2E/DX2 analytically  !
 ! A4    A(3,2,4)              119.4402         calculate D2E/DX2 analytically  !
 ! A5    A(2,4,5)              120.0385         calculate D2E/DX2 analytically  !
 ! A6    A(2,4,6)              119.6426         calculate D2E/DX2 analytically  !
 ! A7    A(5,4,6)              120.3189         calculate D2E/DX2 analytically  !
 ! A8    A(4,6,7)              119.8668         calculate D2E/DX2 analytically  !
 ! A9    A(4,6,10)             120.7177         calculate D2E/DX2 analytically  !
 ! A10   A(7,6,10)             119.4155         calculate D2E/DX2 analytically  !
 ! A11   A(6,7,8)              120.4115         calculate D2E/DX2 analytically  !
 ! A12   A(6,7,9)              119.1044         calculate D2E/DX2 analytically  !
 ! A13   A(8,7,9)              120.4841         calculate D2E/DX2 analytically  !
 ! A14   A(1,9,7)              123.2889         calculate D2E/DX2 analytically  !
 ! A15   A(1,9,11)             121.8511         calculate D2E/DX2 analytically  !
 ! A16   A(7,9,11)             114.8599         calculate D2E/DX2 analytically  !
 ! D1    D(9,1,2,3)           -179.9725         calculate D2E/DX2 analytically  !
 ! D2    D(9,1,2,4)              0.0657         calculate D2E/DX2 analytically  !
 ! D3    D(2,1,9,7)             -0.092          calculate D2E/DX2 analytically  !
 ! D4    D(2,1,9,11)           179.7477         calculate D2E/DX2 analytically  !
 ! D5    D(1,2,4,5)            179.9788         calculate D2E/DX2 analytically  !
 ! D6    D(1,2,4,6)             -0.0006         calculate D2E/DX2 analytically  !
 ! D7    D(3,2,4,5)              0.0176         calculate D2E/DX2 analytically  !
 ! D8    D(3,2,4,6)           -179.9618         calculate D2E/DX2 analytically  !
 ! D9    D(2,4,6,7)             -0.0437         calculate D2E/DX2 analytically  !
 ! D10   D(2,4,6,10)           179.9548         calculate D2E/DX2 analytically  !
 ! D11   D(5,4,6,7)            179.9769         calculate D2E/DX2 analytically  !
 ! D12   D(5,4,6,10)            -0.0246         calculate D2E/DX2 analytically  !
 ! D13   D(4,6,7,8)           -179.9984         calculate D2E/DX2 analytically  !
 ! D14   D(4,6,7,9)              0.0192         calculate D2E/DX2 analytically  !
 ! D15   D(10,6,7,8)             0.003          calculate D2E/DX2 analytically  !
 ! D16   D(10,6,7,9)          -179.9793         calculate D2E/DX2 analytically  !
 ! D17   D(6,7,9,1)              0.052          calculate D2E/DX2 analytically  !
 ! D18   D(6,7,9,11)          -179.7979         calculate D2E/DX2 analytically  !
 ! D19   D(8,7,9,1)           -179.9303         calculate D2E/DX2 analytically  !
 ! D20   D(8,7,9,11)             0.2198         calculate D2E/DX2 analytically  !
 --------------------------------------------------------------------------------
 Trust Radius=3.00D-01 FncErr=5.00D-06 GrdErr=5.00D-06 EigMax=2.50D+02 EigMin=1.00D-04
 Number of steps in this run=     57 maximum allowed number of steps=    100.
 GradGradGradGradGradGradGradGradGradGradGradGradGradGradGradGradGradGrad

                          Input orientation:                          
 ---------------------------------------------------------------------
 Center     Atomic      Atomic             Coordinates (Angstroms)
 Number     Number       Type             X           Y           Z
 ---------------------------------------------------------------------
      1          6           0        6.258931    7.012027    5.188075
      2          6           0        5.452095    6.040548    4.568855
      3          1           0        5.811092    5.018489    4.550236
      4          6           0        4.228484    6.344538    3.988339
      5          1           0        3.640450    5.563207    3.521856
      6          6           0        3.764186    7.654660    4.009121
      7          6           0        4.525911    8.649380    4.610437
      8          1           0        4.172830    9.672486    4.631688
      9          6           0        5.746181    8.312838    5.183208
     10          1           0        2.811674    7.911621    3.560479
     11         35           0        6.696489    9.783089    5.986858
 ---------------------------------------------------------------------
                    Distance matrix (angstroms):
                    1          2          3          4          5
     1  C    0.000000
     2  C    1.406481   0.000000
     3  H    2.140465   1.083434   0.000000
     4  C    2.451045   1.388032   2.139809   0.000000
     5  H    3.425173   2.146187   2.462919   1.083452   0.000000
     6  C    2.833136   2.401603   3.381128   1.390117   2.151026
     7  C    2.453151   2.768673   3.852101   2.405778   3.390208
     8  H    3.426285   3.851161   4.934595   3.390020   4.289677
     9  C    1.398229   2.372176   3.355235   2.757775   3.841180
    10  H    3.916876   3.389625   4.283263   2.155496   2.490665
    11  Br   2.916898   4.191165   5.054624   4.680679   5.763941
                    6          7          8          9         10
     6  C    0.000000
     7  C    1.389703   0.000000
     8  H    2.150861   1.082527   0.000000
     9  C    2.395826   1.389383   2.151337   0.000000
    10  H    1.083784   2.141333   2.469996   3.377211   0.000000
    11  Br   4.127960   2.809135   2.866631   1.926286   4.947878
                   11
    11  Br   0.000000
 Symmetry turned off by external request.
 Stoichiometry    C6H4Br(2)
 Framework group  C1[X(C6H4Br)]
 Deg. of freedom    27
 Full point group                 C1      NOp   1
 Rotational constants (GHZ):           5.9864355           0.9881850           0.8481769
 Standard basis: 6-311+G(d,p) (5D, 7F)
   204 basis functions,   342 primitive gaussians,   213 cartesian basis functions
    38 alpha electrons       37 beta electrons
       nuclear repulsion energy       414.8320162209 Hartrees.
 NAtoms=   11 NActive=   11 NUniq=   11 SFac= 1.00D+00 NAtFMM=   60 NAOKFM=F Big=F
 Integral buffers will be    131072 words long.
 Raffenetti 2 integral format.
 Two-electron integral symmetry is turned off.
 Force inversion solution in PCM.
 ------------------------------------------------------------------------------
 Polarizable Continuum Model (PCM)
 =================================
 Model                : PCM.
 Atomic radii         : SMD-Coulomb.
 Polarization charges : Total charges.
 Charge compensation  : None.
 Solution method      : Matrix inversion.
 Cavity type          : VdW (van der Waals Surface) (Alpha=1.000).
 Cavity algorithm     : GePol (No added spheres)
                        Default sphere list used, NSphG=   11.
                        Lebedev-Laikov grids with approx.  5.0 points / Ang**2.
                        Smoothing algorithm: York/Karplus (Gamma=1.0000).
                        Polarization charges: spherical gaussians, with
                                              point-specific exponents (IZeta= 3).
                        Self-potential: point-specific (ISelfS= 7).
                        Self-field    : sphere-specific E.n sum rule (ISelfD= 2).
 1st derivatives      : Analytical E(r).r(x)/FMM algorithm (CHGder, D1EAlg=3).
                        Cavity 1st derivative terms included.
 2nd derivatives      : Analytical E(r).r(xy)/FMM algorithm (CHGder, D2EAlg=3).
                        Cavity 2nd derivative terms included.
 Solvent              : TetraHydroFuran, Eps=   7.425700 Eps(inf)=   1.974025
 ------------------------------------------------------------------------------
 Spheres list:
 ISph  on   Nord     Re0    Alpha      Xe            Ye            Ze
    1   C      1    1.8500  1.000      6.258931      7.012027      5.188075
    2   C      2    1.8500  1.000      5.452095      6.040548      4.568855
    3   H      3    1.2000  1.000      5.811092      5.018489      4.550236
    4   C      4    1.8500  1.000      4.228484      6.344538      3.988339
    5   H      5    1.2000  1.000      3.640450      5.563207      3.521856
    6   C      6    1.8500  1.000      3.764186      7.654660      4.009121
    7   C      7    1.8500  1.000      4.525911      8.649380      4.610437
    8   H      8    1.2000  1.000      4.172830      9.672486      4.631688
    9   C      9    1.8500  1.000      5.746181      8.312838      5.183208
   10   H     10    1.2000  1.000      2.811674      7.911621      3.560479
   11  Br     11    3.0600  1.000      6.696489      9.783089      5.986858
 ------------------------------------------------------------------------------
 ------------------------------------------------------------------------------
 Atomic radii for non-electrostatic terms: SMD-CDS.
 ------------------------------------------------------------------------------
 Nuclear repulsion after PCM non-electrostatic terms =      414.8272380541 Hartrees.
 One-electron integrals computed using PRISM.
 NBasis=   204 RedAO= T EigKep=  4.33D-06  NBF=   204
 NBsUse=   204 1.00D-06 EigRej= -1.00D+00 NBFU=   204
 ExpMin= 3.50D-02 ExpMax= 4.40D+05 ExpMxC= 1.51D+04 IAcc=3 IRadAn=         5 AccDes= 0.00D+00
 Harris functional with IExCor= 1009 and IRadAn=       5 diagonalized for initial guess.
 HarFok:  IExCor= 1009 AccDes= 0.00D+00 IRadAn=         5 IDoV= 1 UseB2=F ITyADJ=14
 ICtDFT=  3500011 ScaDFX=  1.000000  1.000000  1.000000  1.000000
 FoFCou: FMM=F IPFlag=           0 FMFlag=      100000 FMFlg1=           0
         NFxFlg=           0 DoJE=T BraDBF=F KetDBF=T FulRan=T
         wScrn=  0.000000 ICntrl=       500 IOpCl=  0 I1Cent=   200000004 NGrid=           0
         NMat0=    1 NMatS0=      1 NMatT0=    0 NMatD0=    1 NMtDS0=    0 NMtDT0=    0
 Symmetry not used in FoFCou.
 Initial guess <Sx>= 0.0000 <Sy>= 0.0000 <Sz>= 0.5000 <S**2>= 0.7500 S= 0.5000
 Keep R1 and R2 ints in memory in canonical form, NReq=470641351.
 Requested convergence on RMS density matrix=1.00D-08 within 128 cycles.
 Requested convergence on MAX density matrix=1.00D-06.
 Requested convergence on             energy=1.00D-06.
 Level shift goal  0.100 maximum shift  0.100.
 No special actions if energy rises.
 Dynamic level shift is on during FON iterations.
 Inv3:  Mode=1 IEnd=     4687500.
 Iteration    1 A*A^-1 deviation from unit magnitude is 3.77D-15 for   1250.
 Iteration    1 A*A^-1 deviation from orthogonality  is 2.03D-15 for    587    179.
 Iteration    1 A^-1*A deviation from unit magnitude is 3.89D-15 for   1237.
 Iteration    1 A^-1*A deviation from orthogonality  is 1.20D-15 for   1232   1154.
 Error on total polarization charges =  0.02101
 SCF Done:  E(UM062X) =  -2805.08632790     A.U. after   17 cycles
            NFock= 17  Conv=0.71D-08     -V/T= 2.0015
 <Sx>= 0.0000 <Sy>= 0.0000 <Sz>= 0.5000 <S**2>= 0.7643 S= 0.5071
 <L.S>=  0.00000000000    
 SMD-CDS (non-electrostatic) energy       (kcal/mol) =      -3.00
 (included in total energy above)
 Annihilation of the first spin contaminant:
 S**2 before annihilation     0.7643,   after     0.7501
 DoSCS=F DFT=T ScalE2(SS,OS)=  1.000000  1.000000
 Range of M.O.s used for correlation:     1   204
 NBasis=   204 NAE=    38 NBE=    37 NFC=     0 NFV=     0
 NROrb=    204 NOA=    38 NOB=    37 NVA=   166 NVB=   167

 **** Warning!!: The largest alpha MO coefficient is  0.13753672D+03


 **** Warning!!: The largest beta MO coefficient is  0.14282013D+03

 Symmetrizing basis deriv contribution to polar:
 IMax=3 JMax=2 DiffMx= 0.00D+00
 G2DrvN: will do    12 centers at a time, making    1 passes.
 Calling FoFCou, ICntrl=  3107 FMM=F I1Cent=   0 AccDes= 0.00D+00.
 NEqPCM:  Using equilibrium solvation (IEInf=0, Eps=   7.4257, EpsInf=   1.9740)
 G2PCM: DoFxE=T DoFxN=T DoGrad=T DoDP/DQ/DG/TGxP=FFFF NFrqRd=   0 IEInf=0 SqF1=F DoCFld=F IF1Alg=4.
 End of G2Drv F.D. properties file   721 does not exist.
 End of G2Drv F.D. properties file   722 does not exist.
 End of G2Drv F.D. properties file   788 does not exist.
          IDoAtm=11111111111
 NEqPCM:  Using equilibrium solvation (IEInf=0, Eps=   7.4257, EpsInf=   1.9740)
          Differentiating once with respect to nuclear coordinates.
 Keep R1 and R2 ints in memory in canonical form, NReq=470540480.
          There are    36 degrees of freedom in the 1st order CPHF.  IDoFFX=6 NUNeed=     0.
     30 vectors produced by pass  0 Test12= 3.47D-14 2.78D-09 XBig12= 2.72D-01 1.33D-01.
 AX will form    30 AO Fock derivatives at one time.
     30 vectors produced by pass  1 Test12= 3.47D-14 2.78D-09 XBig12= 4.17D-02 6.06D-02.
     30 vectors produced by pass  2 Test12= 3.47D-14 2.78D-09 XBig12= 1.19D-03 9.91D-03.
     30 vectors produced by pass  3 Test12= 3.47D-14 2.78D-09 XBig12= 2.94D-05 1.29D-03.
     30 vectors produced by pass  4 Test12= 3.47D-14 2.78D-09 XBig12= 7.12D-07 1.29D-04.
     30 vectors produced by pass  5 Test12= 3.47D-14 2.78D-09 XBig12= 1.12D-08 1.45D-05.
     30 vectors produced by pass  6 Test12= 3.47D-14 2.78D-09 XBig12= 1.04D-10 1.29D-06.
     23 vectors produced by pass  7 Test12= 3.47D-14 2.78D-09 XBig12= 6.61D-13 7.31D-08.
      3 vectors produced by pass  8 Test12= 3.47D-14 2.78D-09 XBig12= 3.75D-15 6.81D-09.
 InvSVY:  IOpt=1 It=  1 EMax= 2.66D-15
 Solved reduced A of dimension   236 with    30 vectors.
 End of Minotr F.D. properties file   721 does not exist.
 End of Minotr F.D. properties file   722 does not exist.
 End of Minotr F.D. properties file   788 does not exist.

 **********************************************************************

            Population analysis using the SCF Density.

 **********************************************************************

 Alpha  occ. eigenvalues -- -485.33828 -63.33010 -57.15767 -57.15496 -57.15494
 Alpha  occ. eigenvalues --  -10.61831 -10.60109 -10.56520 -10.56383 -10.55811
 Alpha  occ. eigenvalues --  -10.55645  -9.01722  -6.84534  -6.83475  -6.83473
 Alpha  occ. eigenvalues --   -2.87675  -2.87314  -2.87304  -2.86377  -2.86377
 Alpha  occ. eigenvalues --   -0.99156  -0.90588  -0.86197  -0.82454  -0.70526
 Alpha  occ. eigenvalues --   -0.68352  -0.59370  -0.54507  -0.52584  -0.49068
 Alpha  occ. eigenvalues --   -0.47262  -0.46668  -0.41569  -0.38162  -0.35363
 Alpha  occ. eigenvalues --   -0.34810  -0.33164  -0.30676
 Alpha virt. eigenvalues --   -0.00198   0.00292   0.01052   0.01748   0.03362
 Alpha virt. eigenvalues --    0.03643   0.04944   0.05392   0.06186   0.06362
 Alpha virt. eigenvalues --    0.07913   0.08248   0.09222   0.09414   0.11066
 Alpha virt. eigenvalues --    0.11999   0.13787   0.13878   0.14661   0.15006
 Alpha virt. eigenvalues --    0.15790   0.16201   0.17555   0.18353   0.18852
 Alpha virt. eigenvalues --    0.20859   0.21021   0.21314   0.21756   0.22601
 Alpha virt. eigenvalues --    0.23608   0.24733   0.25678   0.26414   0.26510
 Alpha virt. eigenvalues --    0.28403   0.32303   0.34199   0.35004   0.35795
 Alpha virt. eigenvalues --    0.43236   0.44549   0.44809   0.48707   0.52292
 Alpha virt. eigenvalues --    0.53620   0.55392   0.57038   0.57585   0.57666
 Alpha virt. eigenvalues --    0.59201   0.59619   0.62378   0.62701   0.63788
 Alpha virt. eigenvalues --    0.63871   0.64736   0.67272   0.68834   0.69638
 Alpha virt. eigenvalues --    0.72989   0.75474   0.75574   0.77325   0.77520
 Alpha virt. eigenvalues --    0.78254   0.81813   0.85344   0.86055   0.86355
 Alpha virt. eigenvalues --    0.87916   0.89522   0.92509   0.93289   0.96125
 Alpha virt. eigenvalues --    1.01732   1.02756   1.04189   1.07811   1.13317
 Alpha virt. eigenvalues --    1.13628   1.16483   1.21184   1.22343   1.30433
 Alpha virt. eigenvalues --    1.37772   1.50355   1.51011   1.53444   1.56687
 Alpha virt. eigenvalues --    1.60625   1.61273   1.68760   1.68821   1.73397
 Alpha virt. eigenvalues --    1.73818   1.77295   1.78814   1.85003   1.90336
 Alpha virt. eigenvalues --    1.92375   1.93246   1.95823   1.95856   1.97580
 Alpha virt. eigenvalues --    2.01606   2.03222   2.03342   2.04301   2.07270
 Alpha virt. eigenvalues --    2.14228   2.27215   2.27958   2.30783   2.34689
 Alpha virt. eigenvalues --    2.36113   2.42535   2.46333   2.54008   2.58306
 Alpha virt. eigenvalues --    2.66042   2.69384   2.71263   2.73316   2.76183
 Alpha virt. eigenvalues --    2.77507   2.82212   2.82733   2.83286   2.84393
 Alpha virt. eigenvalues --    2.92660   2.93392   3.05431   3.11321   3.15307
 Alpha virt. eigenvalues --    3.17470   3.38403   3.41011   3.54155   3.55694
 Alpha virt. eigenvalues --    3.70369   3.87107   4.06640   4.10144   4.14823
 Alpha virt. eigenvalues --    4.28384   4.32944   4.36352   4.50895   4.69305
 Alpha virt. eigenvalues --    4.80258   6.86728   7.63808   7.74049   7.78266
 Alpha virt. eigenvalues --   23.53456  23.96136  23.98258  24.09769  24.15229
 Alpha virt. eigenvalues --   24.23841  48.39143 290.78350 290.89349 290.96358
 Alpha virt. eigenvalues -- 1020.95476
  Beta  occ. eigenvalues -- -485.33815 -63.33004 -57.15744 -57.15497 -57.15488
  Beta  occ. eigenvalues --  -10.61846 -10.59006 -10.56522 -10.56327 -10.55753
  Beta  occ. eigenvalues --  -10.55663  -9.01706  -6.84485  -6.83477  -6.83459
  Beta  occ. eigenvalues --   -2.87649  -2.87296  -2.87279  -2.86374  -2.86374
  Beta  occ. eigenvalues --   -0.98437  -0.90395  -0.85048  -0.81773  -0.69592
  Beta  occ. eigenvalues --   -0.67380  -0.58500  -0.53641  -0.51954  -0.48745
  Beta  occ. eigenvalues --   -0.46646  -0.45007  -0.41038  -0.38234  -0.35224
  Beta  occ. eigenvalues --   -0.32062  -0.30272
  Beta virt. eigenvalues --   -0.08641   0.00222   0.00873   0.01030   0.01918
  Beta virt. eigenvalues --    0.03455   0.03723   0.04903   0.05406   0.06119
  Beta virt. eigenvalues --    0.06428   0.07999   0.08425   0.09161   0.09579
  Beta virt. eigenvalues --    0.11101   0.11872   0.13449   0.13809   0.14609
  Beta virt. eigenvalues --    0.14767   0.15801   0.16114   0.17230   0.17945
  Beta virt. eigenvalues --    0.18977   0.20814   0.21367   0.21572   0.21952
  Beta virt. eigenvalues --    0.22472   0.23599   0.24652   0.25225   0.26403
  Beta virt. eigenvalues --    0.26774   0.28039   0.32425   0.34588   0.36011
  Beta virt. eigenvalues --    0.36342   0.43289   0.43536   0.44551   0.47792
  Beta virt. eigenvalues --    0.51548   0.52812   0.55485   0.56985   0.57590
  Beta virt. eigenvalues --    0.57612   0.58198   0.59415   0.62763   0.62852
  Beta virt. eigenvalues --    0.63750   0.63795   0.64633   0.68477   0.68784
  Beta virt. eigenvalues --    0.69618   0.72955   0.75009   0.75513   0.77271
  Beta virt. eigenvalues --    0.77289   0.78459   0.81993   0.85324   0.85563
  Beta virt. eigenvalues --    0.86407   0.88646   0.89813   0.91268   0.93138
  Beta virt. eigenvalues --    0.96327   1.01845   1.02959   1.04671   1.08068
  Beta virt. eigenvalues --    1.12517   1.13821   1.16958   1.21632   1.23047
  Beta virt. eigenvalues --    1.30860   1.37887   1.51278   1.52875   1.53868
  Beta virt. eigenvalues --    1.56929   1.60802   1.61499   1.68841   1.69023
  Beta virt. eigenvalues --    1.74130   1.74543   1.77285   1.79160   1.85346
  Beta virt. eigenvalues --    1.90585   1.92778   1.93873   1.96070   1.96345
  Beta virt. eigenvalues --    1.97834   2.02246   2.03366   2.03770   2.04513
  Beta virt. eigenvalues --    2.07287   2.14179   2.27545   2.28040   2.31691
  Beta virt. eigenvalues --    2.34933   2.36577   2.42625   2.46796   2.54035
  Beta virt. eigenvalues --    2.58536   2.66508   2.69677   2.71361   2.73442
  Beta virt. eigenvalues --    2.76242   2.77556   2.82467   2.82919   2.83193
  Beta virt. eigenvalues --    2.84607   2.92798   2.93385   3.07528   3.11360
  Beta virt. eigenvalues --    3.15300   3.17978   3.38772   3.41257   3.54220
  Beta virt. eigenvalues --    3.55933   3.71348   3.87497   4.06627   4.10120
  Beta virt. eigenvalues --    4.15115   4.28431   4.32988   4.36533   4.51103
  Beta virt. eigenvalues --    4.69508   4.80563   6.86691   7.63796   7.74010
  Beta virt. eigenvalues --    7.78295  23.53695  23.96295  23.98753  24.10005
  Beta virt. eigenvalues --   24.15218  24.23845  48.39137 290.78348 290.89362
  Beta virt. eigenvalues --  290.964051020.95489
          Condensed to atoms (all electrons):
               1          2          3          4          5          6
     1  C    7.049418  -0.307356  -0.022982   0.536764  -0.029655  -0.882624
     2  C   -0.307356   5.956538   0.382906   0.062633   0.026201   0.430955
     3  H   -0.022982   0.382906   0.448636  -0.011785  -0.005471  -0.010191
     4  C    0.536764   0.062633  -0.011785   5.453004   0.351939   0.126572
     5  H   -0.029655   0.026201  -0.005471   0.351939   0.445448   0.023128
     6  C   -0.882624   0.430955  -0.010191   0.126572   0.023128   5.770840
     7  C   -0.036067  -0.823263  -0.001087   0.356916  -0.030450  -0.116717
     8  H   -0.026461   0.013876   0.000036  -0.018969  -0.000137   0.046227
     9  C   -0.449413   0.537025   0.007850  -0.702581   0.019294   0.396787
    10  H    0.002933  -0.014635  -0.000136   0.011069  -0.004639   0.376800
    11  Br   0.177501  -0.010881   0.000465   0.074075  -0.000236  -0.021019
               7          8          9         10         11
     1  C   -0.036067  -0.026461  -0.449413   0.002933   0.177501
     2  C   -0.823263   0.013876   0.537025  -0.014635  -0.010881
     3  H   -0.001087   0.000036   0.007850  -0.000136   0.000465
     4  C    0.356916  -0.018969  -0.702581   0.011069   0.074075
     5  H   -0.030450  -0.000137   0.019294  -0.004639  -0.000236
     6  C   -0.116717   0.046227   0.396787   0.376800  -0.021019
     7  C    6.992934   0.333490  -0.468079  -0.006330   0.246924
     8  H    0.333490   0.439837   0.015360  -0.004773  -0.013755
     9  C   -0.468079   0.015360   6.578194  -0.010195  -0.366114
    10  H   -0.006330  -0.004773  -0.010195   0.444738   0.000184
    11  Br   0.246924  -0.013755  -0.366114   0.000184  35.096595
          Atomic-Atomic Spin Densities.
               1          2          3          4          5          6
     1  C    1.391929  -0.452995   0.026016   0.204153   0.005715  -0.289430
     2  C   -0.452995   0.372837  -0.023496  -0.230739  -0.009051   0.265645
     3  H    0.026016  -0.023496   0.024282   0.009062   0.000906  -0.011188
     4  C    0.204153  -0.230739   0.009062   0.185017   0.006744  -0.152617
     5  H    0.005715  -0.009051   0.000906   0.006744   0.002707  -0.005618
     6  C   -0.289430   0.265645  -0.011188  -0.152617  -0.005618   0.180219
     7  C    0.242903  -0.244147   0.010275   0.159843   0.004409  -0.257547
     8  H    0.005867  -0.002727   0.000008   0.001693   0.000026  -0.009427
     9  C   -0.334851   0.393200  -0.020016  -0.161921  -0.002923   0.237090
    10  H   -0.001115   0.000648  -0.000010  -0.002981  -0.000357   0.008661
    11  Br   0.017452  -0.011651   0.000020   0.004206   0.000028  -0.011642
               7          8          9         10         11
     1  C    0.242903   0.005867  -0.334851  -0.001115   0.017452
     2  C   -0.244147  -0.002727   0.393200   0.000648  -0.011651
     3  H    0.010275   0.000008  -0.020016  -0.000010   0.000020
     4  C    0.159843   0.001693  -0.161921  -0.002981   0.004206
     5  H    0.004409   0.000026  -0.002923  -0.000357   0.000028
     6  C   -0.257547  -0.009427   0.237090   0.008661  -0.011642
     7  C    0.471768   0.003822  -0.352937  -0.004008  -0.003167
     8  H    0.003822   0.005906   0.000077  -0.000494  -0.000335
     9  C   -0.352937   0.000077   0.310232  -0.000788  -0.001358
    10  H   -0.004008  -0.000494  -0.000788   0.004182  -0.000103
    11  Br  -0.003167  -0.000335  -0.001358  -0.000103   0.033265
 Mulliken charges and spin densities:
               1          2
     1  C   -0.012059   0.815644
     2  C   -0.253999   0.057524
     3  H    0.211759   0.015859
     4  C   -0.239638   0.022461
     5  H    0.204579   0.002587
     6  C   -0.140759  -0.045855
     7  C   -0.448271   0.031213
     8  H    0.215270   0.004414
     9  C    0.441872   0.065805
    10  H    0.204984   0.003634
    11  Br  -0.183738   0.026715
 Sum of Mulliken charges =   0.00000   1.00000
 Mulliken charges and spin densities with hydrogens summed into heavy atoms:
               1          2
     1  C   -0.012059   0.815644
     2  C   -0.042240   0.073382
     4  C   -0.035059   0.025048
     6  C    0.064225  -0.042221
     7  C   -0.233001   0.035627
     9  C    0.441872   0.065805
    11  Br  -0.183738   0.026715
 APT charges:
               1
     1  C    1.084908
     2  C   -0.922441
     3  H   -0.311452
     4  C   -0.523141
     5  H   -1.150264
     6  C   -0.537207
     7  C   -1.091665
     8  H    1.520664
     9  C    1.647718
    10  H   -0.207932
    11  Br   0.490812
 Sum of APT charges =   0.00000
 APT charges with hydrogens summed into heavy atoms:
               1
     1  C    1.084908
     2  C   -1.233894
     4  C   -1.673404
     6  C   -0.745139
     7  C    0.428999
     9  C    1.647718
    11  Br   0.490812
 Electronic spatial extent (au):  <R**2>=          36556.2044
 Charge=              0.0000 electrons
 Dipole moment (field-independent basis, Debye):
    X=             -2.4015    Y=             -1.6476    Z=             -1.5965  Tot=              3.3212
 Quadrupole moment (field-independent basis, Debye-Ang):
   XX=            -77.4022   YY=            -74.6742   ZZ=            -71.4876
   XY=            -29.2916   XZ=            -17.5429   YZ=            -19.6700
 Traceless Quadrupole moment (field-independent basis, Debye-Ang):
   XX=             -2.8809   YY=             -0.1529   ZZ=              3.0337
   XY=            -29.2916   XZ=            -17.5429   YZ=            -19.6700
 Octapole moment (field-independent basis, Debye-Ang**2):
  XXX=          -1081.1756  YYY=          -1518.7324  ZZZ=           -961.4383  XYY=           -587.5297
  XXY=           -690.3262  XXZ=           -411.6121  XZZ=           -427.8401  YZZ=           -609.9866
  YYZ=           -462.9714  XYZ=           -185.8095
 Hexadecapole moment (field-independent basis, Debye-Ang**3):
 XXXX=         -11785.7652 YYYY=         -23980.2977 ZZZZ=          -9583.1815 XXXY=          -9323.3432
 XXXZ=          -5687.8387 YYYX=         -10078.5473 YYYZ=          -8487.7276 ZZZX=          -5584.8070
 ZZZY=          -8097.5388 XXYY=          -7816.1679 XXZZ=          -4050.8170 YYZZ=          -6645.7084
 XXYZ=          -3673.8048 YYXZ=          -3290.8237 ZZXY=          -3722.3413
 N-N= 4.148272380541D+02 E-N=-7.518748047463D+03  KE= 2.801007662959D+03
  Exact polarizability:       0.000       0.000       0.000       0.000       0.000       0.000
 Approx polarizability:     111.221       5.518     129.130      25.104      15.831      81.995
                          Isotropic Fermi Contact Couplings
        Atom                 a.u.       MegaHertz       Gauss      10(-4) cm-1
     1  C(13)              0.58914     662.30457     236.32674     220.92103
     2  C(13)              0.01687      18.96529       6.76729       6.32614
     3  H(1)               0.01009      45.08207      16.08640      15.03776
     4  C(13)              0.03632      40.83578      14.57122      13.62135
     5  H(1)               0.00158       7.07313       2.52387       2.35934
     6  C(13)             -0.00874      -9.82463      -3.50567      -3.27714
     7  C(13)              0.02683      30.16613      10.76403      10.06234
     8  H(1)               0.00307      13.73306       4.90030       4.58086
     9  C(13)             -0.00071      -0.79595      -0.28402      -0.26550
    10  H(1)               0.00128       5.71938       2.04082       1.90778
    11  Br(79)             0.02509      28.19652      10.06122       9.40535
 --------------------------------------------------------
       Center         ----  Spin Dipole Couplings  ----
                      3XX-RR        3YY-RR        3ZZ-RR
 --------------------------------------------------------
     1   Atom        0.602199     -0.453893     -0.148306
     2   Atom        0.040894      0.011503     -0.052397
     3   Atom       -0.007763      0.016065     -0.008303
     4   Atom        0.036865     -0.037411      0.000546
     5   Atom        0.001960     -0.000138     -0.001822
     6   Atom        0.014373      0.020725     -0.035097
     7   Atom        0.024837     -0.023487     -0.001350
     8   Atom       -0.001094      0.005483     -0.004389
     9   Atom       -0.017042      0.109708     -0.092666
    10   Atom        0.000055      0.001454     -0.001509
    11   Atom       -0.141528      0.315674     -0.174146
 --------------------------------------------------------
                        XY            XZ            YZ
 --------------------------------------------------------
     1   Atom       -0.272038      0.444786     -0.164233
     2   Atom        0.033040      0.082342      0.040590
     3   Atom        0.010412      0.004963      0.011367
     4   Atom       -0.009093      0.021904     -0.010517
     5   Atom        0.005263      0.004751      0.003766
     6   Atom       -0.009059      0.034903      0.010606
     7   Atom       -0.020972      0.011170     -0.014943
     8   Atom       -0.005494      0.000734     -0.000841
     9   Atom       -0.075147      0.034720      0.006006
    10   Atom       -0.000037      0.001220      0.000739
    11   Atom        0.079480      0.069350      0.155633
 --------------------------------------------------------


 ---------------------------------------------------------------------------------
              Anisotropic Spin Dipole Couplings in Principal Axis System
 ---------------------------------------------------------------------------------

       Atom             a.u.   MegaHertz   Gauss  10(-4) cm-1        Axes

              Baa    -0.5347   -71.754   -25.604   -23.935  0.1271  0.9571  0.2605
     1 C(13)  Bbb    -0.3488   -46.811   -16.703   -15.614 -0.4579 -0.1763  0.8713
              Bcc     0.8836   118.565    42.307    39.549  0.8798 -0.2300  0.4159
 
              Baa    -0.1037   -13.915    -4.965    -4.642 -0.4564 -0.1764  0.8721
     2 C(13)  Bbb    -0.0092    -1.238    -0.442    -0.413 -0.4694  0.8804 -0.0675
              Bcc     0.1129    15.153     5.407     5.054  0.7559  0.4402  0.4846
 
              Baa    -0.0132    -7.045    -2.514    -2.350 -0.4606 -0.1742  0.8704
     3 H(1)   Bbb    -0.0114    -6.099    -2.176    -2.034  0.8220 -0.4536  0.3442
              Bcc     0.0246    13.143     4.690     4.384  0.3348  0.8740  0.3521
 
              Baa    -0.0403    -5.408    -1.930    -1.804  0.0514  0.9734  0.2231
     4 C(13)  Bbb    -0.0087    -1.172    -0.418    -0.391 -0.4545 -0.1761  0.8731
              Bcc     0.0490     6.580     2.348     2.195  0.8892 -0.1463  0.4334
 
              Baa    -0.0051    -2.708    -0.966    -0.903 -0.4513 -0.1848  0.8730
     5 H(1)   Bbb    -0.0044    -2.370    -0.846    -0.791 -0.5731  0.8099 -0.1249
              Bcc     0.0095     5.078     1.812     1.694  0.6840  0.5567  0.4714
 
              Baa    -0.0556    -7.456    -2.660    -2.487 -0.4577 -0.1755  0.8716
     6 C(13)  Bbb     0.0222     2.977     1.062     0.993  0.1817  0.9412  0.2850
              Bcc     0.0334     4.479     1.598     1.494  0.8703 -0.2888  0.3989
 
              Baa    -0.0347    -4.662    -1.664    -1.555  0.2605  0.9108  0.3204
     7 C(13)  Bbb    -0.0043    -0.571    -0.204    -0.191 -0.4601 -0.1746  0.8705
              Bcc     0.0390     5.233     1.867     1.746  0.8488 -0.3742  0.3735
 
              Baa    -0.0046    -2.458    -0.877    -0.820 -0.4616 -0.1789  0.8689
     8 H(1)   Bbb    -0.0041    -2.178    -0.777    -0.727  0.7377  0.4666  0.4880
              Bcc     0.0087     4.636     1.654     1.546 -0.4927  0.8662 -0.0834
 
              Baa    -0.1122   -15.057    -5.373    -5.022 -0.4588 -0.1789  0.8703
     9 C(13)  Bbb    -0.0328    -4.401    -1.570    -1.468  0.7790  0.3901  0.4909
              Bcc     0.1450    19.458     6.943     6.490 -0.4274  0.9032 -0.0396
 
              Baa    -0.0023    -1.225    -0.437    -0.409 -0.4556 -0.1764  0.8725
    10 H(1)   Bbb     0.0006     0.330     0.118     0.110  0.8677 -0.3067  0.3911
              Bcc     0.0017     0.895     0.319     0.299  0.1986  0.9353  0.2928
 
              Baa    -0.2424   -32.516   -11.602   -10.846 -0.4587 -0.1775  0.8707
    11 Br(79) Bbb    -0.1362   -18.276    -6.521    -6.096  0.8697 -0.2904  0.3990
              Bcc     0.3787    50.792    18.124    16.942  0.1820  0.9403  0.2876
 

 ---------------------------------------------------------------------------------

 D2PCM: PCM CHGder 2nd derivatives, FixD1E=F FixD2E=F DoIter=F DoCFld=F I1PDM=0
 Calling FoFJK, ICntrl=    100127 FMM=F ISym2X=0 I1Cent= 0 IOpClX= 1 NMat=1 NMatS=1 NMatT=0.
 -------------------------------------------------------------------
 Center     Atomic                   Forces (Hartrees/Bohr)
 Number     Number              X              Y              Z
 -------------------------------------------------------------------
      1        6          -0.050448786    0.017288621   -0.022836466
      2        6           0.030100597   -0.007680218    0.014124189
      3        1          -0.000589548   -0.002483938   -0.000793920
      4        6          -0.001939480    0.005962049    0.000185371
      5        1           0.001360645   -0.000903085    0.000525767
      6        6          -0.000307434    0.001186994    0.000055405
      7        6          -0.004336391   -0.007100760   -0.003807597
      8        1           0.001185006    0.000306890    0.000663065
      9        6           0.021440754    0.000369839    0.011502799
     10        1           0.000122337   -0.000390343   -0.000016521
     11       35           0.003412299   -0.006556048    0.000397907
 -------------------------------------------------------------------
 Cartesian Forces:  Max     0.050448786 RMS     0.012689430
 FormGI is forming the generalized inverse of G from B-inverse, IUseBI=4.

 GradGradGradGradGradGradGradGradGradGradGradGradGradGradGradGradGradGrad
 Berny optimization.
 Internal  Forces:  Max     0.032772881 RMS     0.008415311
 Search for a local minimum.
 Step number   1 out of a maximum of   57
 All quantities printed in internal units (Hartrees-Bohrs-Radians)
 Mixed Optimization -- RFO/linear search
 Second derivative matrix not updated -- analytic derivatives used.
 ITU=  0
     Eigenvalues ---    0.01741   0.01767   0.01954   0.02432   0.02654
     Eigenvalues ---    0.02849   0.03151   0.03535   0.10587   0.11184
     Eigenvalues ---    0.11854   0.11977   0.13629   0.16368   0.18131
     Eigenvalues ---    0.19655   0.23547   0.25551   0.36129   0.36484
     Eigenvalues ---    0.36659   0.36875   0.38807   0.41821   0.46328
     Eigenvalues ---    0.47934   0.51511
 RFO step:  Lambda=-1.36069023D-02 EMin= 1.74069701D-02
 Linear search not attempted -- first point.
 Iteration  1 RMS(Cart)=  0.04960856 RMS(Int)=  0.00244490
 Iteration  2 RMS(Cart)=  0.00331914 RMS(Int)=  0.00056648
 Iteration  3 RMS(Cart)=  0.00000155 RMS(Int)=  0.00056647
 Iteration  4 RMS(Cart)=  0.00000000 RMS(Int)=  0.00056647
 Variable       Old X    -DE/DX   Delta X   Delta X   Delta X     New X
                                 (Linear)    (Quad)   (Total)
    R1        2.65786  -0.02300   0.00000  -0.06673  -0.06592   2.59194
    R2        2.64227  -0.02400   0.00000  -0.06210  -0.06131   2.58096
    R3        2.04739   0.00216   0.00000   0.00117   0.00117   2.04857
    R4        2.62300   0.00222   0.00000   0.01672   0.01673   2.63973
    R5        2.04743  -0.00031   0.00000   0.00044   0.00044   2.04787
    R6        2.62694   0.00481   0.00000   0.00566   0.00488   2.63182
    R7        2.62616   0.00339   0.00000   0.00554   0.00475   2.63091
    R8        2.04805  -0.00019   0.00000  -0.00053  -0.00053   2.04752
    R9        2.04568  -0.00008   0.00000   0.00194   0.00194   2.04762
   R10        2.62555   0.00173   0.00000   0.00558   0.00558   2.63113
   R11        3.64015  -0.00315   0.00000  -0.04429  -0.04429   3.59586
    A1        2.01606   0.03277   0.00000   0.14432   0.14644   2.16249
    A2        2.05904   0.01034   0.00000   0.06264   0.06228   2.12132
    A3        2.13952  -0.01746   0.00000  -0.09428  -0.09356   2.04596
    A4        2.08462   0.00712   0.00000   0.03164   0.03128   2.11590
    A5        2.09507  -0.00170   0.00000  -0.00809  -0.00766   2.08741
    A6        2.08816  -0.00005   0.00000   0.01049   0.00962   2.09778
    A7        2.09996   0.00175   0.00000  -0.00240  -0.00196   2.09800
    A8        2.09207   0.00154   0.00000   0.01971   0.01803   2.11010
    A9        2.10692  -0.00114   0.00000  -0.01408  -0.01323   2.09369
   A10        2.08419  -0.00040   0.00000  -0.00564  -0.00480   2.07940
   A11        2.10158   0.00264   0.00000   0.00972   0.01019   2.11176
   A12        2.07876  -0.00243   0.00000  -0.00746  -0.00839   2.07038
   A13        2.10284  -0.00021   0.00000  -0.00226  -0.00180   2.10105
   A14        2.15180  -0.01437   0.00000  -0.07279  -0.07213   2.07966
   A15        2.12670  -0.00501   0.00000  -0.02215  -0.02248   2.10422
   A16        2.00468   0.01938   0.00000   0.09494   0.09462   2.09930
    D1       -3.14111   0.00001   0.00000  -0.00028  -0.00030  -3.14142
    D2        0.00115  -0.00002   0.00000  -0.00117  -0.00119  -0.00004
    D3       -0.00160  -0.00001   0.00000   0.00065   0.00068  -0.00092
    D4        3.13719   0.00009   0.00000   0.00157   0.00158   3.13877
    D5        3.14122   0.00003   0.00000   0.00086   0.00082  -3.14114
    D6       -0.00001   0.00003   0.00000   0.00085   0.00081   0.00080
    D7        0.00031   0.00000   0.00000  -0.00006  -0.00007   0.00024
    D8       -3.14093   0.00001   0.00000  -0.00007  -0.00008  -3.14101
    D9       -0.00076   0.00001   0.00000   0.00019   0.00017  -0.00060
   D10        3.14080  -0.00001   0.00000   0.00013   0.00012   3.14092
   D11        3.14119   0.00002   0.00000   0.00019   0.00015   3.14134
   D12       -0.00043   0.00000   0.00000   0.00012   0.00011  -0.00032
   D13       -3.14157  -0.00003   0.00000  -0.00053  -0.00052   3.14110
   D14        0.00034  -0.00003   0.00000  -0.00071  -0.00071  -0.00037
   D15        0.00005  -0.00002   0.00000  -0.00047  -0.00047  -0.00042
   D16       -3.14123  -0.00002   0.00000  -0.00064  -0.00066   3.14130
   D17        0.00091   0.00001   0.00000   0.00017   0.00020   0.00110
   D18       -3.13807  -0.00005   0.00000  -0.00054  -0.00053  -3.13859
   D19       -3.14038   0.00001   0.00000  -0.00001   0.00001  -3.14037
   D20        0.00384  -0.00005   0.00000  -0.00071  -0.00072   0.00312
         Item               Value     Threshold  Converged?
 Maximum Force            0.032773     0.000015     NO 
 RMS     Force            0.008415     0.000010     NO 
 Maximum Displacement     0.172393     0.000060     NO 
 RMS     Displacement     0.049872     0.000040     NO 
 Predicted change in Energy=-7.218422D-03
 GradGradGradGradGradGradGradGradGradGradGradGradGradGradGradGradGradGrad

                          Input orientation:                          
 ---------------------------------------------------------------------
 Center     Atomic      Atomic             Coordinates (Angstroms)
 Number     Number       Type             X           Y           Z
 ---------------------------------------------------------------------
      1          6           0        6.167705    7.058331    5.150673
      2          6           0        5.467293    6.029453    4.574381
      3          1           0        5.850233    5.015297    4.569847
      4          6           0        4.236638    6.341588    3.991852
      5          1           0        3.650836    5.557918    3.525939
      6          6           0        3.765675    7.652123    4.009441
      7          6           0        4.506169    8.670034    4.604246
      8          1           0        4.141438    9.690257    4.618416
      9          6           0        5.731435    8.352132    5.184124
     10          1           0        2.810867    7.890092    3.555914
     11         35           0        6.780035    9.705659    6.014320
 ---------------------------------------------------------------------
                    Distance matrix (angstroms):
                    1          2          3          4          5
     1  C    0.000000
     2  C    1.371597   0.000000
     3  H    2.147588   1.084055   0.000000
     4  C    2.363389   1.396883   2.167214   0.000000
     5  H    3.350467   2.149673   2.494300   1.083687   0.000000
     6  C    2.724839   2.418206   3.407681   1.392701   2.152360
     7  C    2.378418   2.810218   3.894201   2.422671   3.402882
     8  H    3.363940   3.893754   4.977710   3.408113   4.302374
     9  C    1.365786   2.415863   3.394984   2.774566   3.858251
    10  H    3.808339   3.399391   4.304678   2.149588   2.479008
    11  Br   2.851172   4.160674   4.995050   4.677202   5.760875
                    6          7          8          9         10
     6  C    0.000000
     7  C    1.392217   0.000000
     8  H    2.160102   1.083552   0.000000
     9  C    2.394599   1.392335   2.153763   0.000000
    10  H    1.083501   2.140411   2.477888   3.375539   0.000000
    11  Br   4.162082   2.869024   2.985127   1.902846   5.009426
                   11
    11  Br   0.000000
 Symmetry turned off by external request.
 Stoichiometry    C6H4Br(2)
 Framework group  C1[X(C6H4Br)]
 Deg. of freedom    27
 Full point group                 C1      NOp   1
 Rotational constants (GHZ):           6.0831314           0.9879976           0.8499523
 Standard basis: 6-311+G(d,p) (5D, 7F)
   204 basis functions,   342 primitive gaussians,   213 cartesian basis functions
    38 alpha electrons       37 beta electrons
       nuclear repulsion energy       416.2077727409 Hartrees.
 NAtoms=   11 NActive=   11 NUniq=   11 SFac= 1.00D+00 NAtFMM=   60 NAOKFM=F Big=F
 Integral buffers will be    131072 words long.
 Raffenetti 2 integral format.
 Two-electron integral symmetry is turned off.
 ------------------------------------------------------------------------------
 Polarizable Continuum Model (PCM)
 =================================
 Model                : PCM.
 Atomic radii         : SMD-Coulomb.
 Polarization charges : Total charges.
 Charge compensation  : None.
 Solution method      : Matrix inversion.
 Cavity type          : VdW (van der Waals Surface) (Alpha=1.000).
 Cavity algorithm     : GePol (No added spheres)
                        Default sphere list used, NSphG=   11.
                        Lebedev-Laikov grids with approx.  5.0 points / Ang**2.
                        Smoothing algorithm: York/Karplus (Gamma=1.0000).
                        Polarization charges: spherical gaussians, with
                                              point-specific exponents (IZeta= 3).
                        Self-potential: point-specific (ISelfS= 7).
                        Self-field    : sphere-specific E.n sum rule (ISelfD= 2).
 1st derivatives      : Analytical E(r).r(x)/FMM algorithm (CHGder, D1EAlg=3).
                        Cavity 1st derivative terms included.
 Solvent              : TetraHydroFuran, Eps=   7.425700 Eps(inf)=   1.974025
 ------------------------------------------------------------------------------
 Spheres list:
 ISph  on   Nord     Re0    Alpha      Xe            Ye            Ze
    1   C      1    1.8500  1.000      6.167705      7.058331      5.150673
    2   C      2    1.8500  1.000      5.467293      6.029453      4.574381
    3   H      3    1.2000  1.000      5.850233      5.015297      4.569847
    4   C      4    1.8500  1.000      4.236638      6.341588      3.991852
    5   H      5    1.2000  1.000      3.650836      5.557918      3.525939
    6   C      6    1.8500  1.000      3.765675      7.652123      4.009441
    7   C      7    1.8500  1.000      4.506169      8.670034      4.604246
    8   H      8    1.2000  1.000      4.141438      9.690257      4.618416
    9   C      9    1.8500  1.000      5.731435      8.352132      5.184124
   10   H     10    1.2000  1.000      2.810867      7.890092      3.555914
   11  Br     11    3.0600  1.000      6.780035      9.705659      6.014320
 ------------------------------------------------------------------------------
 ------------------------------------------------------------------------------
 Atomic radii for non-electrostatic terms: SMD-CDS.
 ------------------------------------------------------------------------------
 Nuclear repulsion after PCM non-electrostatic terms =      416.2028982154 Hartrees.
 One-electron integrals computed using PRISM.
 NBasis=   204 RedAO= T EigKep=  3.50D-06  NBF=   204
 NBsUse=   204 1.00D-06 EigRej= -1.00D+00 NBFU=   204
 Initial guess from the checkpoint file:  "2-br-ph-opt-freq-thf.chk"
 B after Tr=    -0.324787    0.292592   -0.107901
         Rot=    0.999924   -0.005578   -0.002229    0.010729 Ang=  -1.41 deg.
 Initial guess <Sx>= 0.0000 <Sy>= 0.0000 <Sz>= 0.5000 <S**2>= 0.7639 S= 0.5069
 ExpMin= 3.50D-02 ExpMax= 4.40D+05 ExpMxC= 1.51D+04 IAcc=3 IRadAn=         5 AccDes= 0.00D+00
 Harris functional with IExCor= 1009 and IRadAn=       5 diagonalized for initial guess.
 HarFok:  IExCor= 1009 AccDes= 0.00D+00 IRadAn=         5 IDoV= 1 UseB2=F ITyADJ=14
 ICtDFT=  3500011 ScaDFX=  1.000000  1.000000  1.000000  1.000000
 FoFCou: FMM=F IPFlag=           0 FMFlag=      100000 FMFlg1=           0
         NFxFlg=           0 DoJE=T BraDBF=F KetDBF=T FulRan=T
         wScrn=  0.000000 ICntrl=       500 IOpCl=  0 I1Cent=   200000004 NGrid=           0
         NMat0=    1 NMatS0=      1 NMatT0=    0 NMatD0=    1 NMtDS0=    0 NMtDT0=    0
 Symmetry not used in FoFCou.
 Keep R1 and R2 ints in memory in canonical form, NReq=470641351.
 Requested convergence on RMS density matrix=1.00D-08 within 128 cycles.
 Requested convergence on MAX density matrix=1.00D-06.
 Requested convergence on             energy=1.00D-06.
 Level shift goal  0.100 maximum shift  0.100.
 No special actions if energy rises.
 Dynamic level shift is on during FON iterations.
 Inv3:  Mode=1 IEnd=     4627692.
 Iteration    1 A*A^-1 deviation from unit magnitude is 4.88D-15 for   1237.
 Iteration    1 A*A^-1 deviation from orthogonality  is 2.15D-15 for   1232   1111.
 Iteration    1 A^-1*A deviation from unit magnitude is 4.66D-15 for   1237.
 Iteration    1 A^-1*A deviation from orthogonality  is 1.41D-15 for   1232   1111.
 Error on total polarization charges =  0.02107
 SCF Done:  E(UM062X) =  -2805.09355404     A.U. after   16 cycles
            NFock= 16  Conv=0.68D-08     -V/T= 2.0014
 <Sx>= 0.0000 <Sy>= 0.0000 <Sz>= 0.5000 <S**2>= 0.7623 S= 0.5061
 <L.S>=  0.00000000000    
 SMD-CDS (non-electrostatic) energy       (kcal/mol) =      -3.06
 (included in total energy above)
 Annihilation of the first spin contaminant:
 S**2 before annihilation     0.7623,   after     0.7501
 D1PCM: PCM CHGder 1st derivatives, ID1Alg=3 FixD1E=F DoIter=F DoCFld=F I1PDM=0.
 Calling FoFJK, ICntrl=      2127 FMM=F ISym2X=0 I1Cent= 0 IOpClX= 1 NMat=1 NMatS=1 NMatT=0.
 -------------------------------------------------------------------
 Center     Atomic                   Forces (Hartrees/Bohr)
 Number     Number              X              Y              Z
 -------------------------------------------------------------------
      1        6          -0.001701504    0.000805416   -0.000698586
      2        6           0.001913411   -0.003199868    0.000352359
      3        1          -0.000242230   -0.000298679   -0.000174267
      4        6          -0.000900958    0.000078096   -0.000473151
      5        1          -0.000007469   -0.000084946   -0.000036846
      6        6          -0.000303706    0.000054640   -0.000168686
      7        6          -0.001028070   -0.000115996   -0.000594868
      8        1          -0.000154738   -0.000016792   -0.000072809
      9        6           0.001255177    0.002650208    0.001257852
     10        1           0.000018679   -0.000062654   -0.000020976
     11       35           0.001151409    0.000190576    0.000629978
 -------------------------------------------------------------------
 Cartesian Forces:  Max     0.003199868 RMS     0.000997075

 GradGradGradGradGradGradGradGradGradGradGradGradGradGradGradGradGradGrad
 Berny optimization.
 Using GEDIIS/GDIIS optimizer.
 FormGI is forming the generalized inverse of G from B-inverse, IUseBI=4.
 Internal  Forces:  Max     0.002604480 RMS     0.000838773
 Search for a local minimum.
 Step number   2 out of a maximum of   57
 All quantities printed in internal units (Hartrees-Bohrs-Radians)
 Mixed Optimization -- En-DIIS/RFO-DIIS
 Update second derivatives using D2CorX and points    1    2
 DE= -7.23D-03 DEPred=-7.22D-03 R= 1.00D+00
 TightC=F SS=  1.41D+00  RLast= 2.47D-01 DXNew= 5.0454D-01 7.4100D-01
 Trust test= 1.00D+00 RLast= 2.47D-01 DXMaxT set to 5.05D-01
 ITU=  1  0
 Use linear search instead of GDIIS.
     Eigenvalues ---    0.01739   0.01766   0.01952   0.02430   0.02653
     Eigenvalues ---    0.02848   0.03147   0.03526   0.10588   0.11187
     Eigenvalues ---    0.11850   0.11973   0.13681   0.16221   0.18122
     Eigenvalues ---    0.19598   0.23011   0.25362   0.36231   0.36488
     Eigenvalues ---    0.36666   0.36873   0.39901   0.41815   0.46324
     Eigenvalues ---    0.47940   0.51821
 RFO step:  Lambda=-7.72520568D-05 EMin= 1.73938968D-02
 Quartic linear search produced a step of  0.06649.
 Iteration  1 RMS(Cart)=  0.00566512 RMS(Int)=  0.00004863
 Iteration  2 RMS(Cart)=  0.00003053 RMS(Int)=  0.00004135
 Iteration  3 RMS(Cart)=  0.00000000 RMS(Int)=  0.00004135
 Variable       Old X    -DE/DX   Delta X   Delta X   Delta X     New X
                                 (Linear)    (Quad)   (Total)
    R1        2.59194   0.00144  -0.00438   0.00675   0.00243   2.59437
    R2        2.58096   0.00128  -0.00408   0.00659   0.00257   2.58353
    R3        2.04857   0.00019   0.00008  -0.00022  -0.00015   2.04842
    R4        2.63973   0.00109   0.00111   0.00217   0.00328   2.64301
    R5        2.04787   0.00008   0.00003   0.00031   0.00034   2.04821
    R6        2.63182   0.00099   0.00032   0.00086   0.00112   2.63295
    R7        2.63091   0.00116   0.00032   0.00149   0.00175   2.63266
    R8        2.04752  -0.00002  -0.00004   0.00001  -0.00002   2.04750
    R9        2.04762   0.00004   0.00013   0.00026   0.00038   2.04800
   R10        2.63113   0.00153   0.00037   0.00230   0.00267   2.63380
   R11        3.59586   0.00104  -0.00295   0.00392   0.00097   3.59683
    A1        2.16249   0.00260   0.00974   0.00342   0.01331   2.17580
    A2        2.12132   0.00123   0.00414   0.00313   0.00725   2.12857
    A3        2.04596  -0.00168  -0.00622  -0.00339  -0.00956   2.03640
    A4        2.11590   0.00045   0.00208   0.00026   0.00232   2.11822
    A5        2.08741  -0.00007  -0.00051   0.00056   0.00008   2.08749
    A6        2.09778   0.00006   0.00064   0.00035   0.00093   2.09870
    A7        2.09800   0.00001  -0.00013  -0.00091  -0.00101   2.09699
    A8        2.11010   0.00085   0.00120   0.00292   0.00400   2.11410
    A9        2.09369  -0.00049  -0.00088  -0.00153  -0.00235   2.09134
   A10        2.07940  -0.00036  -0.00032  -0.00139  -0.00165   2.07775
   A11        2.11176  -0.00021   0.00068  -0.00251  -0.00180   2.10996
   A12        2.07038   0.00008  -0.00056   0.00057  -0.00006   2.07032
   A13        2.10105   0.00013  -0.00012   0.00194   0.00186   2.10290
   A14        2.07966  -0.00192  -0.00480  -0.00386  -0.00861   2.07105
   A15        2.10422  -0.00052  -0.00149  -0.00222  -0.00374   2.10048
   A16        2.09930   0.00244   0.00629   0.00608   0.01235   2.11165
    D1       -3.14142   0.00000  -0.00002  -0.00009  -0.00011  -3.14153
    D2       -0.00004   0.00000  -0.00008  -0.00003  -0.00012  -0.00016
    D3       -0.00092   0.00000   0.00005   0.00032   0.00037  -0.00056
    D4        3.13877   0.00003   0.00010   0.00115   0.00125   3.14002
    D5       -3.14114   0.00000   0.00005  -0.00016  -0.00010  -3.14124
    D6        0.00080   0.00000   0.00005  -0.00025  -0.00020   0.00060
    D7        0.00024   0.00000   0.00000  -0.00011  -0.00011   0.00013
    D8       -3.14101   0.00000  -0.00001  -0.00020  -0.00020  -3.14121
    D9       -0.00060   0.00000   0.00001   0.00024   0.00025  -0.00034
   D10        3.14092   0.00000   0.00001   0.00023   0.00023   3.14116
   D11        3.14134   0.00000   0.00001   0.00015   0.00016   3.14150
   D12       -0.00032   0.00000   0.00001   0.00013   0.00014  -0.00018
   D13        3.14110   0.00000  -0.00003   0.00021   0.00018   3.14128
   D14       -0.00037   0.00000  -0.00005   0.00004  -0.00001  -0.00038
   D15       -0.00042   0.00000  -0.00003   0.00023   0.00020  -0.00022
   D16        3.14130   0.00000  -0.00004   0.00006   0.00001   3.14131
   D17        0.00110   0.00000   0.00001  -0.00032  -0.00030   0.00080
   D18       -3.13859  -0.00003  -0.00004  -0.00113  -0.00117  -3.13976
   D19       -3.14037   0.00000   0.00000  -0.00049  -0.00049  -3.14086
   D20        0.00312  -0.00003  -0.00005  -0.00131  -0.00136   0.00176
         Item               Value     Threshold  Converged?
 Maximum Force            0.002604     0.000015     NO 
 RMS     Force            0.000839     0.000010     NO 
 Maximum Displacement     0.022961     0.000060     NO 
 RMS     Displacement     0.005659     0.000040     NO 
 Predicted change in Energy=-6.692384D-05
 GradGradGradGradGradGradGradGradGradGradGradGradGradGradGradGradGradGrad

                          Input orientation:                          
 ---------------------------------------------------------------------
 Center     Atomic      Atomic             Coordinates (Angstroms)
 Number     Number       Type             X           Y           Z
 ---------------------------------------------------------------------
      1          6           0        6.161516    7.062435    5.148883
      2          6           0        5.468739    6.025603    4.574562
      3          1           0        5.852390    5.011798    4.570519
      4          6           0        4.236997    6.340158    3.991465
      5          1           0        3.650104    5.557545    3.524734
      6          6           0        3.766352    7.651432    4.009602
      7          6           0        4.503752    8.673137    4.603916
      8          1           0        4.134116    9.691841    4.615575
      9          6           0        5.730794    8.359436    5.185720
     10          1           0        2.811377    7.887532    3.555481
     11         35           0        6.792186    9.701966    6.018694
 ---------------------------------------------------------------------
                    Distance matrix (angstroms):
                    1          2          3          4          5
     1  C    0.000000
     2  C    1.372882   0.000000
     3  H    2.152946   1.083977   0.000000
     4  C    2.359041   1.398619   2.170102   0.000000
     5  H    3.348095   2.151430   2.498314   1.083866   0.000000
     6  C    2.716926   2.420871   3.410843   1.393296   2.152434
     7  C    2.374770   2.818066   3.901967   2.426735   3.405916
     8  H    3.362818   3.901820   4.985710   3.410846   4.303092
     9  C    1.367146   2.426718   3.405868   2.781215   3.865067
    10  H    3.800414   3.401011   4.306729   2.148683   2.476540
    11  Br   2.849814   4.165654   4.997810   4.684058   5.767906
                    6          7          8          9         10
     6  C    0.000000
     7  C    1.393143   0.000000
     8  H    2.160028   1.083755   0.000000
     9  C    2.396571   1.393750   2.156328   0.000000
    10  H    1.083489   2.140216   2.475675   3.376888   0.000000
    11  Br   4.170948   2.880454   3.005691   1.903361   5.020600
                   11
    11  Br   0.000000
 Symmetry turned off by external request.
 Stoichiometry    C6H4Br(2)
 Framework group  C1[X(C6H4Br)]
 Deg. of freedom    27
 Full point group                 C1      NOp   1
 Rotational constants (GHZ):           6.0791383           0.9846938           0.8474283
 Standard basis: 6-311+G(d,p) (5D, 7F)
   204 basis functions,   342 primitive gaussians,   213 cartesian basis functions
    38 alpha electrons       37 beta electrons
       nuclear repulsion energy       415.7355953031 Hartrees.
 NAtoms=   11 NActive=   11 NUniq=   11 SFac= 1.00D+00 NAtFMM=   60 NAOKFM=F Big=F
 Integral buffers will be    131072 words long.
 Raffenetti 2 integral format.
 Two-electron integral symmetry is turned off.
 ------------------------------------------------------------------------------
 Polarizable Continuum Model (PCM)
 =================================
 Model                : PCM.
 Atomic radii         : SMD-Coulomb.
 Polarization charges : Total charges.
 Charge compensation  : None.
 Solution method      : Matrix inversion.
 Cavity type          : VdW (van der Waals Surface) (Alpha=1.000).
 Cavity algorithm     : GePol (No added spheres)
                        Default sphere list used, NSphG=   11.
                        Lebedev-Laikov grids with approx.  5.0 points / Ang**2.
                        Smoothing algorithm: York/Karplus (Gamma=1.0000).
                        Polarization charges: spherical gaussians, with
                                              point-specific exponents (IZeta= 3).
                        Self-potential: point-specific (ISelfS= 7).
                        Self-field    : sphere-specific E.n sum rule (ISelfD= 2).
 1st derivatives      : Analytical E(r).r(x)/FMM algorithm (CHGder, D1EAlg=3).
                        Cavity 1st derivative terms included.
 Solvent              : TetraHydroFuran, Eps=   7.425700 Eps(inf)=   1.974025
 ------------------------------------------------------------------------------
 Spheres list:
 ISph  on   Nord     Re0    Alpha      Xe            Ye            Ze
    1   C      1    1.8500  1.000      6.161516      7.062435      5.148883
    2   C      2    1.8500  1.000      5.468739      6.025603      4.574562
    3   H      3    1.2000  1.000      5.852390      5.011798      4.570519
    4   C      4    1.8500  1.000      4.236997      6.340158      3.991465
    5   H      5    1.2000  1.000      3.650104      5.557545      3.524734
    6   C      6    1.8500  1.000      3.766352      7.651432      4.009602
    7   C      7    1.8500  1.000      4.503752      8.673137      4.603916
    8   H      8    1.2000  1.000      4.134116      9.691841      4.615575
    9   C      9    1.8500  1.000      5.730794      8.359436      5.185720
   10   H     10    1.2000  1.000      2.811377      7.887532      3.555481
   11  Br     11    3.0600  1.000      6.792186      9.701966      6.018694
 ------------------------------------------------------------------------------
 ------------------------------------------------------------------------------
 Atomic radii for non-electrostatic terms: SMD-CDS.
 ------------------------------------------------------------------------------
 Nuclear repulsion after PCM non-electrostatic terms =      415.7307228566 Hartrees.
 One-electron integrals computed using PRISM.
 NBasis=   204 RedAO= T EigKep=  3.48D-06  NBF=   204
 NBsUse=   204 1.00D-06 EigRej= -1.00D+00 NBFU=   204
 Initial guess from the checkpoint file:  "2-br-ph-opt-freq-thf.chk"
 B after Tr=    -0.030598    0.030355   -0.004179
         Rot=    0.999999   -0.000446   -0.000291    0.001081 Ang=  -0.14 deg.
 Initial guess <Sx>= 0.0000 <Sy>= 0.0000 <Sz>= 0.5000 <S**2>= 0.7623 S= 0.5061
 ExpMin= 3.50D-02 ExpMax= 4.40D+05 ExpMxC= 1.51D+04 IAcc=3 IRadAn=         5 AccDes= 0.00D+00
 Harris functional with IExCor= 1009 and IRadAn=       5 diagonalized for initial guess.
 HarFok:  IExCor= 1009 AccDes= 0.00D+00 IRadAn=         5 IDoV= 1 UseB2=F ITyADJ=14
 ICtDFT=  3500011 ScaDFX=  1.000000  1.000000  1.000000  1.000000
 FoFCou: FMM=F IPFlag=           0 FMFlag=      100000 FMFlg1=           0
         NFxFlg=           0 DoJE=T BraDBF=F KetDBF=T FulRan=T
         wScrn=  0.000000 ICntrl=       500 IOpCl=  0 I1Cent=   200000004 NGrid=           0
         NMat0=    1 NMatS0=      1 NMatT0=    0 NMatD0=    1 NMtDS0=    0 NMtDT0=    0
 Symmetry not used in FoFCou.
 Keep R1 and R2 ints in memory in canonical form, NReq=470641351.
 Requested convergence on RMS density matrix=1.00D-08 within 128 cycles.
 Requested convergence on MAX density matrix=1.00D-06.
 Requested convergence on             energy=1.00D-06.
 Level shift goal  0.100 maximum shift  0.100.
 No special actions if energy rises.
 Dynamic level shift is on during FON iterations.
 Inv3:  Mode=1 IEnd=     4627692.
 Iteration    1 A*A^-1 deviation from unit magnitude is 4.22D-15 for   1240.
 Iteration    1 A*A^-1 deviation from orthogonality  is 1.59D-15 for   1241   1080.
 Iteration    1 A^-1*A deviation from unit magnitude is 4.00D-15 for   1240.
 Iteration    1 A^-1*A deviation from orthogonality  is 2.42D-15 for    264     88.
 Error on total polarization charges =  0.02111
 SCF Done:  E(UM062X) =  -2805.09362349     A.U. after   13 cycles
            NFock= 13  Conv=0.33D-08     -V/T= 2.0014
 <Sx>= 0.0000 <Sy>= 0.0000 <Sz>= 0.5000 <S**2>= 0.7623 S= 0.5061
 <L.S>=  0.00000000000    
 SMD-CDS (non-electrostatic) energy       (kcal/mol) =      -3.06
 (included in total energy above)
 Annihilation of the first spin contaminant:
 S**2 before annihilation     0.7623,   after     0.7501
 D1PCM: PCM CHGder 1st derivatives, ID1Alg=3 FixD1E=F DoIter=F DoCFld=F I1PDM=0.
 Calling FoFJK, ICntrl=      2127 FMM=F ISym2X=0 I1Cent= 0 IOpClX= 1 NMat=1 NMatS=1 NMatT=0.
 -------------------------------------------------------------------
 Center     Atomic                   Forces (Hartrees/Bohr)
 Number     Number              X              Y              Z
 -------------------------------------------------------------------
      1        6          -0.000256449    0.000025379   -0.000115258
      2        6           0.000276158    0.000279077    0.000210741
      3        1          -0.000012991   -0.000032486   -0.000002588
      4        6          -0.000091309   -0.000106628   -0.000077073
      5        1          -0.000005024    0.000001624   -0.000015615
      6        6          -0.000048381    0.000003181   -0.000036681
      7        6          -0.000150714    0.000064187   -0.000069936
      8        1          -0.000041108   -0.000027782   -0.000039705
      9        6           0.000146381   -0.000267643    0.000034124
     10        1           0.000008315    0.000002814   -0.000015627
     11       35           0.000175122    0.000058278    0.000127619
 -------------------------------------------------------------------
 Cartesian Forces:  Max     0.000279077 RMS     0.000121825

 GradGradGradGradGradGradGradGradGradGradGradGradGradGradGradGradGradGrad
 Berny optimization.
 Using GEDIIS/GDIIS optimizer.
 FormGI is forming the generalized inverse of G from B-inverse, IUseBI=4.
 Internal  Forces:  Max     0.000277825 RMS     0.000092080
 Search for a local minimum.
 Step number   3 out of a maximum of   57
 All quantities printed in internal units (Hartrees-Bohrs-Radians)
 Mixed Optimization -- En-DIIS/RFO-DIIS
 Swapping is turned off.
 Update second derivatives using D2CorX and points    1    2    3
 DE= -6.94D-05 DEPred=-6.69D-05 R= 1.04D+00
 TightC=F SS=  1.41D+00  RLast= 2.53D-02 DXNew= 8.4853D-01 7.5981D-02
 Trust test= 1.04D+00 RLast= 2.53D-02 DXMaxT set to 5.05D-01
 ITU=  1  1  0
     Eigenvalues ---    0.01739   0.01766   0.01951   0.02430   0.02653
     Eigenvalues ---    0.02848   0.03146   0.03523   0.10582   0.11187
     Eigenvalues ---    0.11757   0.11949   0.13756   0.15926   0.18450
     Eigenvalues ---    0.19498   0.22109   0.25172   0.36199   0.36488
     Eigenvalues ---    0.36666   0.36867   0.40543   0.41719   0.46293
     Eigenvalues ---    0.48137   0.51727
 En-DIIS/RFO-DIIS/Sim-DIIS IScMMF=       -3 using points:     3    2
 RFO step:  Lambda=-1.44821047D-06.
 DidBck=F Rises=F RFO-DIIS coefs:    1.05329   -0.05329
 Iteration  1 RMS(Cart)=  0.00072448 RMS(Int)=  0.00000041
 Iteration  2 RMS(Cart)=  0.00000047 RMS(Int)=  0.00000019
 Variable       Old X    -DE/DX   Delta X   Delta X   Delta X     New X
                                 (Linear)    (Quad)   (Total)
    R1        2.59437  -0.00028   0.00013  -0.00096  -0.00083   2.59354
    R2        2.58353  -0.00023   0.00014  -0.00074  -0.00061   2.58293
    R3        2.04842   0.00003  -0.00001   0.00011   0.00010   2.04852
    R4        2.64301   0.00011   0.00017   0.00017   0.00035   2.64336
    R5        2.04821   0.00001   0.00002  -0.00001   0.00001   2.04821
    R6        2.63295   0.00004   0.00006   0.00008   0.00014   2.63309
    R7        2.63266   0.00008   0.00009   0.00016   0.00025   2.63291
    R8        2.04750   0.00000   0.00000   0.00001   0.00000   2.04750
    R9        2.04800  -0.00001   0.00002  -0.00004  -0.00002   2.04798
   R10        2.63380   0.00027   0.00014   0.00034   0.00048   2.63429
   R11        3.59683   0.00019   0.00005   0.00092   0.00097   3.59780
    A1        2.17580   0.00014   0.00071  -0.00004   0.00067   2.17647
    A2        2.12857   0.00000   0.00039  -0.00003   0.00036   2.12892
    A3        2.03640   0.00006  -0.00051   0.00051   0.00001   2.03640
    A4        2.11822  -0.00005   0.00012  -0.00049  -0.00036   2.11786
    A5        2.08749   0.00005   0.00000   0.00029   0.00029   2.08778
    A6        2.09870  -0.00007   0.00005  -0.00042  -0.00037   2.09833
    A7        2.09699   0.00003  -0.00005   0.00013   0.00008   2.09707
    A8        2.11410  -0.00003   0.00021  -0.00003   0.00018   2.11428
    A9        2.09134   0.00002  -0.00013   0.00012   0.00000   2.09134
   A10        2.07775   0.00001  -0.00009  -0.00009  -0.00018   2.07757
   A11        2.10996  -0.00004  -0.00010  -0.00031  -0.00041   2.10955
   A12        2.07032  -0.00003   0.00000  -0.00020  -0.00020   2.07011
   A13        2.10290   0.00008   0.00010   0.00051   0.00061   2.10352
   A14        2.07105  -0.00007  -0.00046   0.00018  -0.00028   2.07077
   A15        2.10048  -0.00017  -0.00020  -0.00074  -0.00094   2.09955
   A16        2.11165   0.00024   0.00066   0.00056   0.00122   2.11287
    D1       -3.14153   0.00000  -0.00001  -0.00002  -0.00003  -3.14155
    D2       -0.00016   0.00000  -0.00001  -0.00001  -0.00002  -0.00017
    D3       -0.00056   0.00000   0.00002  -0.00005  -0.00003  -0.00058
    D4        3.14002   0.00000   0.00007  -0.00011  -0.00004   3.13997
    D5       -3.14124   0.00000  -0.00001   0.00003   0.00002  -3.14122
    D6        0.00060   0.00000  -0.00001   0.00003   0.00002   0.00062
    D7        0.00013   0.00000  -0.00001   0.00004   0.00003   0.00016
    D8       -3.14121   0.00000  -0.00001   0.00005   0.00003  -3.14118
    D9       -0.00034   0.00000   0.00001   0.00000   0.00001  -0.00033
   D10        3.14116   0.00000   0.00001   0.00002   0.00003   3.14119
   D11        3.14150   0.00000   0.00001   0.00001   0.00002   3.14152
   D12       -0.00018   0.00000   0.00001   0.00003   0.00003  -0.00015
   D13        3.14128   0.00000   0.00001  -0.00009  -0.00008   3.14120
   D14       -0.00038   0.00000   0.00000  -0.00006  -0.00006  -0.00043
   D15       -0.00022   0.00000   0.00001  -0.00011  -0.00010  -0.00031
   D16        3.14131   0.00000   0.00000  -0.00007  -0.00007   3.14123
   D17        0.00080   0.00000  -0.00002   0.00008   0.00006   0.00087
   D18       -3.13976   0.00000  -0.00006   0.00014   0.00008  -3.13968
   D19       -3.14086   0.00000  -0.00003   0.00011   0.00009  -3.14077
   D20        0.00176   0.00000  -0.00007   0.00018   0.00010   0.00187
         Item               Value     Threshold  Converged?
 Maximum Force            0.000278     0.000015     NO 
 RMS     Force            0.000092     0.000010     NO 
 Maximum Displacement     0.003188     0.000060     NO 
 RMS     Displacement     0.000725     0.000040     NO 
 Predicted change in Energy=-7.241100D-07
 GradGradGradGradGradGradGradGradGradGradGradGradGradGradGradGradGradGrad

                          Input orientation:                          
 ---------------------------------------------------------------------
 Center     Atomic      Atomic             Coordinates (Angstroms)
 Number     Number       Type             X           Y           Z
 ---------------------------------------------------------------------
      1          6           0        6.161041    7.062881    5.148717
      2          6           0        5.468927    6.026004    4.574730
      3          1           0        5.852683    5.012181    4.570701
      4          6           0        4.236937    6.340004    3.991416
      5          1           0        3.650150    5.557276    3.524737
      6          6           0        3.766186    7.651319    4.009506
      7          6           0        4.503424    8.673361    4.603756
      8          1           0        4.133240    9.691857    4.614998
      9          6           0        5.730685    8.359661    5.185710
     10          1           0        2.811177    7.887336    3.555405
     11         35           0        6.793872    9.701003    6.019478
 ---------------------------------------------------------------------
                    Distance matrix (angstroms):
                    1          2          3          4          5
     1  C    0.000000
     2  C    1.372442   0.000000
     3  H    2.152803   1.084031   0.000000
     4  C    2.358829   1.398804   2.170097   0.000000
     5  H    3.347944   2.151777   2.498464   1.083869   0.000000
     6  C    2.716504   2.420838   3.410786   1.393370   2.152553
     7  C    2.374515   2.818073   3.902029   2.427041   3.406221
     8  H    3.362789   3.901815   4.985761   3.410942   4.303115
     9  C    1.366825   2.426472   3.405692   2.781481   3.865335
    10  H    3.799994   3.401061   4.306751   2.148751   2.476690
    11  Br   2.849278   4.165140   4.996984   4.684791   5.768639
                    6          7          8          9         10
     6  C    0.000000
     7  C    1.393277   0.000000
     8  H    2.159894   1.083742   0.000000
     9  C    2.396760   1.394004   2.156917   0.000000
    10  H    1.083491   2.140228   2.475254   3.377057   0.000000
    11  Br   4.172298   2.882095   3.008590   1.903874   5.022241
                   11
    11  Br   0.000000
 Symmetry turned off by external request.
 Stoichiometry    C6H4Br(2)
 Framework group  C1[X(C6H4Br)]
 Deg. of freedom    27
 Full point group                 C1      NOp   1
 Rotational constants (GHZ):           6.0790678           0.9844051           0.8472130
 Standard basis: 6-311+G(d,p) (5D, 7F)
   204 basis functions,   342 primitive gaussians,   213 cartesian basis functions
    38 alpha electrons       37 beta electrons
       nuclear repulsion energy       415.6912095644 Hartrees.
 NAtoms=   11 NActive=   11 NUniq=   11 SFac= 1.00D+00 NAtFMM=   60 NAOKFM=F Big=F
 Integral buffers will be    131072 words long.
 Raffenetti 2 integral format.
 Two-electron integral symmetry is turned off.
 ------------------------------------------------------------------------------
 Polarizable Continuum Model (PCM)
 =================================
 Model                : PCM.
 Atomic radii         : SMD-Coulomb.
 Polarization charges : Total charges.
 Charge compensation  : None.
 Solution method      : Matrix inversion.
 Cavity type          : VdW (van der Waals Surface) (Alpha=1.000).
 Cavity algorithm     : GePol (No added spheres)
                        Default sphere list used, NSphG=   11.
                        Lebedev-Laikov grids with approx.  5.0 points / Ang**2.
                        Smoothing algorithm: York/Karplus (Gamma=1.0000).
                        Polarization charges: spherical gaussians, with
                                              point-specific exponents (IZeta= 3).
                        Self-potential: point-specific (ISelfS= 7).
                        Self-field    : sphere-specific E.n sum rule (ISelfD= 2).
 1st derivatives      : Analytical E(r).r(x)/FMM algorithm (CHGder, D1EAlg=3).
                        Cavity 1st derivative terms included.
 Solvent              : TetraHydroFuran, Eps=   7.425700 Eps(inf)=   1.974025
 ------------------------------------------------------------------------------
 Spheres list:
 ISph  on   Nord     Re0    Alpha      Xe            Ye            Ze
    1   C      1    1.8500  1.000      6.161041      7.062881      5.148717
    2   C      2    1.8500  1.000      5.468927      6.026004      4.574730
    3   H      3    1.2000  1.000      5.852683      5.012181      4.570701
    4   C      4    1.8500  1.000      4.236937      6.340004      3.991416
    5   H      5    1.2000  1.000      3.650150      5.557276      3.524737
[...]
    A5        2.08777   0.00000   0.00000   0.00000   0.00000   2.08777
    A6        2.09834   0.00000   0.00000   0.00000   0.00000   2.09834
    A7        2.09708   0.00000   0.00000   0.00000   0.00000   2.09708
    A8        2.11428   0.00000   0.00000   0.00000   0.00000   2.11428
    A9        2.09134   0.00000   0.00000   0.00000   0.00000   2.09134
   A10        2.07756   0.00000   0.00000   0.00000   0.00000   2.07756
   A11        2.10952   0.00000   0.00000   0.00000   0.00000   2.10951
   A12        2.07014   0.00000   0.00000   0.00000   0.00000   2.07014
   A13        2.10353   0.00000   0.00000   0.00000   0.00000   2.10353
   A14        2.07078   0.00000   0.00000   0.00000   0.00000   2.07078
   A15        2.09946   0.00000   0.00000  -0.00001  -0.00001   2.09946
   A16        2.11295   0.00000   0.00000   0.00001   0.00001   2.11295
    D1       -3.14156   0.00000   0.00000   0.00000   0.00000  -3.14156
    D2       -0.00018   0.00000   0.00000   0.00000   0.00000  -0.00018
    D3       -0.00058   0.00000   0.00000   0.00000   0.00000  -0.00058
    D4        3.13999   0.00000   0.00000   0.00000   0.00000   3.13999
    D5       -3.14123   0.00000   0.00000   0.00000   0.00000  -3.14123
    D6        0.00062   0.00000   0.00000   0.00000   0.00000   0.00062
    D7        0.00016   0.00000   0.00000   0.00000   0.00000   0.00016
    D8       -3.14117   0.00000   0.00000   0.00000   0.00000  -3.14117
    D9       -0.00033   0.00000   0.00000   0.00000   0.00000  -0.00033
   D10        3.14118   0.00000   0.00000   0.00000   0.00000   3.14118
   D11        3.14153   0.00000   0.00000   0.00000   0.00000   3.14153
   D12       -0.00015   0.00000   0.00000   0.00000   0.00000  -0.00015
   D13        3.14119   0.00000   0.00000   0.00000   0.00000   3.14119
   D14       -0.00044   0.00000   0.00000   0.00000   0.00000  -0.00044
   D15       -0.00032   0.00000   0.00000   0.00000   0.00000  -0.00032
   D16        3.14124   0.00000   0.00000   0.00000   0.00000   3.14124
   D17        0.00087   0.00000   0.00000   0.00000   0.00000   0.00087
   D18       -3.13969   0.00000   0.00000   0.00000   0.00000  -3.13969
   D19       -3.14076   0.00000   0.00000   0.00000   0.00000  -3.14076
   D20        0.00187   0.00000   0.00000   0.00000   0.00000   0.00187
         Item               Value     Threshold  Converged?
 Maximum Force            0.000003     0.000015     YES
 RMS     Force            0.000001     0.000010     YES
 Maximum Displacement     0.000012     0.000060     YES
 RMS     Displacement     0.000004     0.000040     YES
 Predicted change in Energy=-5.367099D-11
 Optimization completed.
    -- Stationary point found.
                           ----------------------------
                           !   Optimized Parameters   !
                           ! (Angstroms and Degrees)  !
 --------------------------                            --------------------------
 ! Name  Definition              Value          Derivative Info.                !
 --------------------------------------------------------------------------------
 ! R1    R(1,2)                  1.3725         -DE/DX =    0.0                 !
 ! R2    R(1,9)                  1.3669         -DE/DX =    0.0                 !
 ! R3    R(2,3)                  1.084          -DE/DX =    0.0                 !
 ! R4    R(2,4)                  1.3988         -DE/DX =    0.0                 !
 ! R5    R(4,5)                  1.0839         -DE/DX =    0.0                 !
 ! R6    R(4,6)                  1.3934         -DE/DX =    0.0                 !
 ! R7    R(6,7)                  1.3933         -DE/DX =    0.0                 !
 ! R8    R(6,10)                 1.0835         -DE/DX =    0.0                 !
 ! R9    R(7,8)                  1.0837         -DE/DX =    0.0                 !
 ! R10   R(7,9)                  1.394          -DE/DX =    0.0                 !
 ! R11   R(9,11)                 1.9039         -DE/DX =    0.0                 !
 ! A1    A(2,1,9)              124.6984         -DE/DX =    0.0                 !
 ! A2    A(1,2,3)              121.9753         -DE/DX =    0.0                 !
 ! A3    A(1,2,4)              116.6791         -DE/DX =    0.0                 !
 ! A4    A(3,2,4)              121.3456         -DE/DX =    0.0                 !
 ! A5    A(2,4,5)              119.6202         -DE/DX =    0.0                 !
 ! A6    A(2,4,6)              120.226          -DE/DX =    0.0                 !
 ! A7    A(5,4,6)              120.1538         -DE/DX =    0.0                 !
 ! A8    A(4,6,7)              121.1396         -DE/DX =    0.0                 !
 ! A9    A(4,6,10)             119.825          -DE/DX =    0.0                 !
 ! A10   A(7,6,10)             119.0354         -DE/DX =    0.0                 !
 ! A11   A(6,7,8)              120.8663         -DE/DX =    0.0                 !
 ! A12   A(6,7,9)              118.6102         -DE/DX =    0.0                 !
 ! A13   A(8,7,9)              120.5234         -DE/DX =    0.0                 !
 ! A14   A(1,9,7)              118.6467         -DE/DX =    0.0                 !
 ! A15   A(1,9,11)             120.2905         -DE/DX =    0.0                 !
 ! A16   A(7,9,11)             121.0628         -DE/DX =    0.0                 !
 ! D1    D(9,1,2,3)           -179.9983         -DE/DX =    0.0                 !
 ! D2    D(9,1,2,4)             -0.0101         -DE/DX =    0.0                 !
 ! D3    D(2,1,9,7)             -0.0332         -DE/DX =    0.0                 !
 ! D4    D(2,1,9,11)           179.908          -DE/DX =    0.0                 !
 ! D5    D(1,2,4,5)           -179.979          -DE/DX =    0.0                 !
 ! D6    D(1,2,4,6)              0.0358         -DE/DX =    0.0                 !
 ! D7    D(3,2,4,5)              0.0093         -DE/DX =    0.0                 !
 ! D8    D(3,2,4,6)           -179.9759         -DE/DX =    0.0                 !
 ! D9    D(2,4,6,7)             -0.0187         -DE/DX =    0.0                 !
 ! D10   D(2,4,6,10)           179.9764         -DE/DX =    0.0                 !
 ! D11   D(5,4,6,7)            179.9962         -DE/DX =    0.0                 !
 ! D12   D(5,4,6,10)            -0.0087         -DE/DX =    0.0                 !
 ! D13   D(4,6,7,8)            179.977          -DE/DX =    0.0                 !
 ! D14   D(4,6,7,9)             -0.025          -DE/DX =    0.0                 !
 ! D15   D(10,6,7,8)            -0.0181         -DE/DX =    0.0                 !
 ! D16   D(10,6,7,9)           179.9798         -DE/DX =    0.0                 !
 ! D17   D(6,7,9,1)              0.0498         -DE/DX =    0.0                 !
 ! D18   D(6,7,9,11)          -179.891          -DE/DX =    0.0                 !
 ! D19   D(8,7,9,1)           -179.9523         -DE/DX =    0.0                 !
 ! D20   D(8,7,9,11)             0.1069         -DE/DX =    0.0                 !
 --------------------------------------------------------------------------------
 GradGradGradGradGradGradGradGradGradGradGradGradGradGradGradGradGradGrad


 ----------------------------------------------------------------------

 Electric dipole moment (input orientation):
 (Debye = 10**-18 statcoulomb cm , SI units = C m)
                  (au)            (Debye)         (10**-30 SI)
   Tot        0.122467D+01      0.311280D+01      0.103832D+02
   x         -0.899604D+00     -0.228657D+01     -0.762716D+01
   y         -0.583304D+00     -0.148261D+01     -0.494546D+01
   z         -0.591847D+00     -0.150433D+01     -0.501789D+01

 Dipole polarizability, Alpha (input orientation).
 (esu units = cm**3 , SI units = C**2 m**2 J**-1)
 Alpha(0;0):
               (au)            (10**-24 esu)      (10**-40 SI)
   iso        0.107550D+03      0.159373D+02      0.177326D+02
   aniso      0.744140D+02      0.110270D+02      0.122692D+02
   xx         0.110212D+03      0.163317D+02      0.181715D+02
   yx         0.102203D+02      0.151450D+01      0.168510D+01
   yy         0.131422D+03      0.194747D+02      0.216685D+02
   zx         0.269670D+02      0.399610D+01      0.444627D+01
   zy         0.193299D+02      0.286440D+01      0.318707D+01
   zz         0.810165D+02      0.120054D+02      0.133578D+02

 ----------------------------------------------------------------------

 Dipole orientation:
     6         -2.88810619         -3.92509387        -19.61160682
     6         -2.46127421         -3.09054169        -17.19324920
     1         -1.54238451         -1.30029191        -16.80979389
     6         -3.27270518         -4.66733023        -15.23303283
     1         -2.98145632         -4.09600944        -13.28779761
     6         -4.44830007         -6.95990357        -15.77635748
     6         -4.84241518         -7.73240899        -18.26232736
     1         -5.75706459         -9.51762909        -18.67535433
     6         -4.03493773         -6.15946657        -20.21511084
     1         -5.07132347         -8.17212021        -14.24840566
    35         -4.51187788         -7.08206940        -23.65969829

 Electric dipole moment (dipole orientation):
 (Debye = 10**-18 statcoulomb cm , SI units = C m)
                  (au)            (Debye)         (10**-30 SI)
   Tot        0.122467D+01      0.311280D+01      0.103832D+02
   x          0.000000D+00      0.000000D+00      0.000000D+00
   y          0.000000D+00      0.000000D+00      0.000000D+00
   z          0.122467D+01      0.311280D+01      0.103832D+02

 Dipole polarizability, Alpha (dipole orientation).
 (esu units = cm**3 , SI units = C**2 m**2 J**-1)
 Alpha(0;0):
               (au)            (10**-24 esu)      (10**-40 SI)
   iso        0.107550D+03      0.159373D+02      0.177326D+02
   aniso      0.744140D+02      0.110270D+02      0.122692D+02
   xx         0.740637D+02      0.109751D+02      0.122114D+02
   yx         0.217310D+02      0.322020D+01      0.358295D+01
   yy         0.105185D+03      0.155868D+02      0.173427D+02
   zx         0.591875D+01      0.877068D+00      0.975870D+00
   zy         0.115071D+02      0.170517D+01      0.189726D+01
   zz         0.143402D+03      0.212499D+02      0.236437D+02

 ----------------------------------------------------------------------
 Unable to Open any file for archive entry.
 1\1\GINC-CN013\Freq\UM062X\6-311+G(d,p)\C6H4Br1(2)\TAHMINAAFROZ\11-May
 -2025\0\\#N Geom=AllCheck Guess=TCheck SCRF=Check GenChk UM062X/6-311+
 G(d,p) Freq\\2-br-ph-opt-freq-thf\\0,2\C,6.1610911132,7.0628947403,5.1
 487532968\C,5.4689059134,6.026000674,4.5747194799\H,5.8526751585,5.012
 1890707,4.5706909374\C,4.2369340627,6.3400065867,3.9914172719\H,3.6501
 558532,5.5572757836,3.5247353424\C,3.7661828781,7.6513176496,4.0095078
 89\C,4.5034097038,8.6733572438,4.6037535514\H,4.133190865,9.6918384303
 ,4.6149640649\C,5.7306811532,8.3596953906,5.1857223097\H,2.8111773879,
 7.8873395201,3.5554025026\Br,6.7939189109,9.7009679105,6.019485354\\Ve
 rsion=AS64L-G16RevC.01\HF=-2805.0936242\S2=0.762313\S2-1=0.\S2A=0.7500
 72\RMSD=1.711e-09\RMSF=7.014e-06\ZeroPoint=0.0779646\Thermal=0.0836482
 \ETot=-2805.009976\HTot=-2805.0090318\GTot=-2805.0471792\Dipole=-0.899
 604,-0.5833045,-0.5918474\DipoleDeriv=-0.1717358,-0.0076634,-0.044883,
 -0.0812729,-0.1920607,-0.0645985,-0.0614715,-0.0249998,-0.1250455,-0.1
 085138,0.0129387,0.0002247,-0.0221812,-0.0076338,0.0071312,-0.0073409,
 0.0246969,-0.0996229,0.1311638,0.0353658,-0.0309642,0.0439011,0.025025
 7,-0.0130873,-0.0289428,-0.0184253,0.1843268,0.0087177,-0.0503978,0.09
 70083,-0.0531602,0.0312148,0.0181904,0.0981562,0.0204946,-0.1441343,0.
 0713564,-0.0640123,-0.0712807,-0.0421143,0.0335805,-0.0516761,-0.06714
 85,-0.0639161,0.1346452,-0.0127272,-0.0778835,0.0579942,0.016119,-0.09
 40722,0.0202458,0.074167,-0.0279341,-0.1175704,-0.1241435,-0.062546,0.
 005625,-0.1439371,-0.1282085,-0.06938,-0.0091771,-0.0280387,-0.1705606
 ,0.1264719,0.0108522,-0.0238141,0.0277517,0.0162897,-0.0177283,-0.0198
 43,-0.0273189,0.1599148,0.3589351,0.4255509,0.2761123,0.5069019,0.6903
 889,0.4078098,0.2947435,0.3664195,0.2247097,0.0060377,0.0279402,-0.092
 181,0.0239119,0.0901847,-0.008188,-0.0918723,-0.0060548,0.1431198,-0.2
 855624,-0.2501449,-0.1738415,-0.2759198,-0.4647091,-0.228719,-0.181270
 8,-0.2149233,-0.1897825\Polar=110.2118821,10.2203214,131.4219204,26.96
 70496,19.3299183,81.0164886\Quadrupole=-2.6675783,0.9926258,1.6749524,
 -20.2510687,-12.3124777,-13.2915731\PG=C01 [X(C6H4Br1)]\NImag=0\\0.294
 67904,0.01526945,0.64489442,0.12040931,0.12448609,0.15955666,-0.148688
 00,-0.07688934,-0.06703289,0.51387952,-0.11243195,-0.25225502,-0.09988
 965,-0.06366921,0.73075876,-0.07424287,-0.08123660,-0.10591275,0.19063
 962,0.08890201,0.24403683,0.00781547,-0.01464935,0.00149367,-0.0860236
 3,0.09513809,-0.00675711,0.08532009,0.00465557,-0.01773903,-0.00100287
 ,0.10006113,-0.30664495,-0.00207460,-0.10389661,0.32466216,0.00540896,
 -0.01119521,-0.00010715,-0.00576117,-0.00463048,-0.04020567,0.01127393
 ,0.00628515,0.03075785,-0.03204899,-0.07370452,-0.03815696,-0.26370555
 ,0.08451987,-0.08908380,-0.00374756,-0.00028537,-0.00524403,0.56537745
 ,-0.01400760,0.05458516,0.00124864,0.00918739,-0.13050812,-0.00914150,
 0.02627613,-0.00096532,0.01236739,-0.00497251,0.69054219,-0.02610315,-
 0.03012588,-0.00763297,-0.10434963,0.03043489,-0.11019642,0.00014950,-
 0.00158724,0.00585761,0.22634002,0.11012932,0.27412251,-0.00295371,0.0
 0069451,-0.00504643,-0.01048988,-0.01905406,-0.01172139,0.00033115,-0.
 00031001,0.00229913,-0.13783345,-0.11215197,-0.07505996,0.14016298,0.0
 0205171,0.00179047,0.00003387,0.00704552,0.00802406,0.00441613,-0.0010
 2936,0.00034413,0.00037830,-0.11143706,-0.20814427,-0.09290032,0.11776
 911,0.21647967,-0.00476635,-0.00067435,0.00427194,-0.00642236,-0.00931
 356,-0.00078137,0.00215026,0.00075415,-0.00288275,-0.07493067,-0.09328
 457,-0.09661879,0.08393213,0.10042976,0.09041273,-0.00462235,-0.008097
 53,-0.00170313,-0.00943858,0.03041379,-0.00188794,-0.00265813,0.001181
 74,-0.00476919,-0.13930548,0.10214368,-0.01919475,0.00955135,-0.016823
 33,-0.00031401,0.62125506,-0.00699360,-0.07950075,-0.01885542,0.080098
 70,0.01407235,0.04375865,0.00092266,0.00197684,-0.00051590,0.03872075,
 -0.31299318,-0.03003949,0.00955179,-0.01456391,0.00134164,-0.06024017,
 0.65509869,-0.00148765,-0.01941332,-0.00918606,0.00813845,0.01764669,0
 .01375251,-0.00481490,-0.00037582,0.00426360,-0.03206815,0.00327804,-0
 .07965582,0.00502100,-0.01252680,0.00377717,0.24226144,0.07304152,0.27
 890899,-0.00678667,0.08820178,0.00824461,-0.05290675,-0.02041684,-0.03
 125321,-0.00100359,-0.00072281,-0.00041595,0.05568130,-0.04529219,0.01
 792594,0.00146525,0.00310831,-0.00221285,-0.17151662,-0.04142491,-0.06
 595430,0.54373250,0.03036477,0.00294795,0.01421437,-0.02096792,-0.0043
 5314,-0.01164317,-0.00032995,0.00022589,-0.00002818,0.00328669,-0.0517
 6389,-0.00960679,0.00280000,-0.00373268,-0.00066757,-0.10873744,-0.241
 79916,-0.09350042,-0.07463295,0.72953770,-0.00345631,0.04467880,0.0187
 3400,-0.03135569,-0.01137080,-0.02007433,-0.00034746,-0.00024009,-0.00
 070465,0.02775585,-0.03511704,0.01168779,-0.00227624,-0.00052707,0.005
 56865,-0.07957657,-0.05820651,-0.11531456,0.20276788,0.08206185,0.2522
 8162,-0.00300293,0.00248493,-0.00429948,-0.00043492,-0.00123992,0.0001
 6615,-0.00005476,0.00001691,0.00028232,0.00012244,-0.00209567,-0.00401
 923,0.00040547,-0.00089523,-0.00001691,0.00994943,-0.01662415,-0.00035
 505,-0.08564281,0.09490981,-0.00627579,0.08588586,0.00162441,0.0009737
 8,-0.00019289,-0.00055580,0.00038713,0.00003057,0.00003977,-0.00006628
 ,0.00012556,-0.00235008,-0.00078549,-0.00280169,0.00050222,-0.00068840
 ,0.00010628,0.00897215,-0.01414691,0.00099880,0.09601419,-0.31244470,-
 0.00501090,-0.10137188,0.32706616,-0.00448360,0.00026247,0.00383024,0.
 00029608,-0.00033195,-0.00113474,0.00028555,0.00011389,-0.00040958,-0.
 00405919,-0.00267449,0.00427946,0.00026644,-0.00063001,0.00010505,0.00
 483015,-0.01246051,0.00426002,-0.00608400,-0.00554881,-0.04153545,0.01
 147361,0.00742956,0.03243889,-0.10721314,0.07662973,-0.01369312,0.0549
 5636,0.00280437,0.02721017,0.00046449,-0.00056639,-0.00303610,-0.04021
 413,0.04295984,-0.01101961,-0.00015561,0.00067471,0.00049145,-0.032550
 39,-0.06696502,-0.03372479,-0.25822958,0.09454353,-0.08583646,-0.00725
 122,-0.00163611,-0.00579127,0.45047876,0.09582434,-0.32485977,-0.00533
 764,-0.03997908,-0.05318463,-0.03263339,-0.00289532,-0.00129602,-0.002
 99132,0.04148230,-0.03789942,0.01467178,0.00135488,-0.00049462,0.00077
 673,-0.00620677,0.06040730,0.00778920,0.02118089,-0.12174109,-0.001667
 28,0.02461010,-0.00220932,0.01181642,-0.09858389,0.56069186,-0.0097354
 1,-0.01540314,-0.05984310,0.01856237,-0.01020100,0.01198510,-0.0035114
 5,-0.00178756,0.00383260,-0.01129067,0.01545999,-0.00555039,0.00063577
 ,0.00042693,-0.00042317,-0.02148121,-0.02409936,-0.01029580,-0.1007590
 2,0.03689586,-0.10403629,-0.00048875,-0.00195655,0.00251178,0.16184507
 ,0.04138228,0.19894208,0.00029080,-0.00039445,0.00064506,0.00226637,0.
 00217532,-0.00184119,-0.00032977,-0.00011416,-0.00008627,-0.00409952,-
 0.00027844,-0.00428954,-0.00038323,-0.00030636,0.00187699,-0.27907053,
 0.05744845,-0.11501325,-0.00956097,0.00517308,-0.00596643,-0.00031191,
 -0.00034201,0.00199024,0.00163286,-0.00154558,-0.00310125,0.29011369,-
 0.00054312,-0.00142785,-0.00035232,0.00255321,-0.00464072,-0.00094227,
 0.00116087,-0.00016153,0.00061662,0.02591768,-0.00139132,0.01254303,-0
 .00089827,0.00093501,0.00054351,0.05750125,-0.07076927,0.02355471,-0.0
 2123700,0.00783473,-0.01033392,0.00013642,0.00071085,0.00107406,-0.001
 86594,-0.00155727,-0.00270195,-0.06163514,0.07093238,0.00061779,-0.000
 26944,-0.00081634,-0.00177680,-0.00113997,0.00545070,0.00017268,-0.000
 05073,-0.00012745,0.00102044,-0.00124360,0.00423492,0.00175876,0.00085
 431,-0.00297307,-0.11502955,0.02356589,-0.09364594,-0.01129867,0.00351
 308,-0.00143303,0.00208706,0.00082136,-0.00296756,-0.00315938,-0.00253
 470,0.00476436,0.12606880,-0.02334618,0.08787133,0.00253048,-0.0095452
 1,-0.00086063,0.00058507,0.00176055,-0.00122843,-0.00011377,-0.0000199
 9,0.00004835,-0.00022652,-0.00176867,-0.00037958,-0.00010032,-0.000158
 01,0.00021231,-0.00159377,0.00550549,-0.00200278,-0.01523206,-0.026409
 62,-0.01543279,0.00033535,-0.00089685,0.00127599,-0.06191841,-0.035241
 87,-0.03067545,-0.00054780,-0.00108995,-0.00046113,0.07628175,-0.01581
 397,-0.02940936,-0.01435218,0.00311541,-0.00165571,0.00056418,-0.00073
 694,-0.00033590,-0.00041196,-0.00117775,-0.00067634,-0.00071761,-0.000
 25819,0.00005053,-0.00001203,-0.00010737,0.00221800,-0.00049259,-0.004
 77846,-0.00471161,-0.00426704,0.00006868,0.00120317,0.00094937,-0.0479
 9482,-0.07785703,-0.03801549,-0.00018071,-0.00046501,-0.00017003,0.067
 86412,0.11163927,-0.00216072,-0.01110942,-0.00289447,-0.00093799,-0.00
 010619,0.00308013,-0.00009466,-0.00003428,-0.00027442,-0.00028282,-0.0
 0102218,-0.00052790,0.00019078,0.00004490,-0.00045638,-0.00313525,0.00
 246949,0.00313589,-0.01096043,-0.01569022,-0.00517376,0.00144609,0.000
 44989,-0.00137812,-0.03328597,-0.03127210,-0.04188717,-0.00028317,-0.0
 0065528,-0.00035793,0.04950414,0.05692538,0.04673413\\0.00000522,0.000
 00627,-0.00001143,0.00000471,-0.00000253,-0.00000564,0.00000299,0.0000
 0063,-0.00001054,-0.00000559,-0.00000162,0.00000327,-0.00000663,-0.000
 00103,0.00000937,-0.00000593,-0.00000068,0.00000893,-0.00000063,0.0000
 0113,0.00000390,-0.00000186,-0.00000062,0.00000731,0.00000697,-0.00000
 148,-0.00000674,-0.00000909,-0.00000203,0.00001802,0.00000984,0.000001
 94,-0.00001645\\\@
 The archive entry for this job was punched.


 THERE IS MORE TO LIFE THAN INCREASING ITS SPEED.

                                       -- GANDHI
 Job cpu time:       0 days  0 hours 31 minutes 16.1 seconds.
 Elapsed time:       0 days  0 hours  1 minutes  2.0 seconds.
 File lengths (MBytes):  RWF=    137 Int=      0 D2E=      0 Chk=     12 Scr=      1
 Normal termination of Gaussian 16 at Sun May 11 04:13:11 2025.
