/home/tahminaafroz
cn015.cluster.local
tahminaafroz
Sun May 11 04:05:43 CDT 2025
 Entering Gaussian System, Link 0=g16
 Initial command:
 /home/apps/g16/l1.exe "/tmp/4-CN-ph-opt-freq-2-thf/Gau-4185649.inp" -scrdir="/tmp/4-CN-ph-opt-freq-2-thf/"
 Entering Link 1 = /home/apps/g16/l1.exe PID=   4185650.
  
 Copyright (c) 1988-2019, Gaussian, Inc.  All Rights Reserved.
  
 This is part of the Gaussian(R) 16 program.  It is based on
 the Gaussian(R) 09 system (copyright 2009, Gaussian, Inc.),
 the Gaussian(R) 03 system (copyright 2003, Gaussian, Inc.),
 the Gaussian(R) 98 system (copyright 1998, Gaussian, Inc.),
 the Gaussian(R) 94 system (copyright 1995, Gaussian, Inc.),
 the Gaussian 92(TM) system (copyright 1992, Gaussian, Inc.),
 the Gaussian 90(TM) system (copyright 1990, Gaussian, Inc.),
 the Gaussian 88(TM) system (copyright 1988, Gaussian, Inc.),
 the Gaussian 86(TM) system (copyright 1986, Carnegie Mellon
 University), and the Gaussian 82(TM) system (copyright 1983,
 Carnegie Mellon University). Gaussian is a federally registered
 trademark of Gaussian, Inc.
  
 This software contains proprietary and confidential information,
 including trade secrets, belonging to Gaussian, Inc.
  
 This software is provided under written license and may be
 used, copied, transmitted, or stored only in accord with that
 written license.
  
 The following legend is applicable only to US Government
 contracts under FAR:
  
                    RESTRICTED RIGHTS LEGEND
  
 Use, reproduction and disclosure by the US Government is
 subject to restrictions as set forth in subparagraphs (a)
 and (c) of the Commercial Computer Software - Restricted
 Rights clause in FAR 52.227-19.
  
 Gaussian, Inc.
 340 Quinnipiac St., Bldg. 40, Wallingford CT 06492
  
  
 ---------------------------------------------------------------
 Warning -- This program may not be used in any manner that
 competes with the business of Gaussian, Inc. or will provide
 assistance to any competitor of Gaussian, Inc.  The licensee
 of this program is prohibited from giving any competitor of
 Gaussian, Inc. access to this program.  By using this program,
 the user acknowledges that Gaussian, Inc. is engaged in the
 business of creating and licensing software in the field of
 computational chemistry and represents and warrants to the
 licensee that it is not a competitor of Gaussian, Inc. and that
 it will not use this program in any manner prohibited above.
 ---------------------------------------------------------------
  

 Cite this work as:
 Gaussian 16, Revision C.01,
 M. J. Frisch, G. W. Trucks, H. B. Schlegel, G. E. Scuseria, 
 M. A. Robb, J. R. Cheeseman, G. Scalmani, V. Barone, 
 G. A. Petersson, H. Nakatsuji, X. Li, M. Caricato, A. V. Marenich, 
 J. Bloino, B. G. Janesko, R. Gomperts, B. Mennucci, H. P. Hratchian, 
 J. V. Ortiz, A. F. Izmaylov, J. L. Sonnenberg, D. Williams-Young, 
 F. Ding, F. Lipparini, F. Egidi, J. Goings, B. Peng, A. Petrone, 
 T. Henderson, D. Ranasinghe, V. G. Zakrzewski, J. Gao, N. Rega, 
 G. Zheng, W. Liang, M. Hada, M. Ehara, K. Toyota, R. Fukuda, 
 J. Hasegawa, M. Ishida, T. Nakajima, Y. Honda, O. Kitao, H. Nakai, 
 T. Vreven, K. Throssell, J. A. Montgomery, Jr., J. E. Peralta, 
 F. Ogliaro, M. J. Bearpark, J. J. Heyd, E. N. Brothers, K. N. Kudin, 
 V. N. Staroverov, T. A. Keith, R. Kobayashi, J. Normand, 
 K. Raghavachari, A. P. Rendell, J. C. Burant, S. S. Iyengar, 
 J. Tomasi, M. Cossi, J. M. Millam, M. Klene, C. Adamo, R. Cammi, 
 J. W. Ochterski, R. L. Martin, K. Morokuma, O. Farkas, 
 J. B. Foresman, and D. J. Fox, Gaussian, Inc., Wallingford CT, 2019.
 
 ******************************************
 Gaussian 16:  AS64L-G16RevC.01  3-Jul-2019
                11-May-2025 
 ******************************************
 %mem=20GB
 %nprocshared=32
 Will use up to   32 processors via shared memory.
 %chk=4-CN-ph-opt-freq-2-thf.chk
 ----------------------------------------------------------------------
 # opt=(calcfc,tight) freq 6-311+g(d,p) scrf=(smd,solvent=thf) nosymm s
 cf=(qc,fermi,xqc) geom=connectivity int=ultrafine m062x
 ----------------------------------------------------------------------
 1/7=10,10=4,18=20,19=15,26=6,38=1,57=2/1,3;
 2/9=110,12=2,15=1,17=6,18=5,40=1/2;
 3/5=4,6=6,7=111,11=2,25=1,30=1,70=32201,71=2,72=20,74=-55,75=-5,140=1/1,2,3;
 4//1;
 5/5=2,22=13,38=5,53=20/2;
 8/6=4,10=90,11=11/1;
 11/6=1,8=1,9=11,15=111,16=1,31=1/1,2,10;
 10/6=1,13=1,31=1/2;
 6/7=2,8=2,9=2,10=2,28=1/1;
 7/10=1,25=1,30=1/1,2,3,16;
 1/7=10,10=4,18=20,19=15,26=6/3(2);
 2/9=110,15=1/2;
 99//99;
 2/9=110,15=1/2;
 3/5=4,6=6,7=111,11=2,25=1,30=1,70=32205,71=1,72=20,74=-55,75=-5/1,2,3;
 4/5=5,16=3,69=1/1;
 5/5=2,22=13,38=5,53=20/2;
 7/30=1/1,2,3,16;
 1/7=10,18=20,19=15,26=6/3(-5);
 2/9=110,15=1/2;
 6/7=2,8=2,9=2,10=2,19=2,28=1/1;
 99/9=1/99;
 ----------------------
 4-CN-ph-opt-freq-2-thf
 ----------------------
 Symbolic Z-matrix:
 Charge =  0 Multiplicity = 2
 C                     6.27252   7.02949   5.18662 
 C                     5.10854   6.26186   5.31139 
 H                     5.12444   5.3002    5.81503 
 C                     3.89657   6.69968   4.79604 
 H                     2.9998    6.10063   4.89597 
 C                     3.84345   7.93169   4.14013 
 C                     4.98977   8.71843   3.9997 
 H                     4.93166   9.67123   3.4878 
 C                     6.19014   8.26034   4.52263 
 H                     7.08168   8.86736   4.41537 
 C                     2.59399   8.39516   3.60315 
 N                     1.59326   8.76613   3.17346 
 

 GradGradGradGradGradGradGradGradGradGradGradGradGradGradGradGradGradGrad
 Berny optimization.
 Initialization pass.
                           ----------------------------
                           !    Initial Parameters    !
                           ! (Angstroms and Degrees)  !
 --------------------------                            --------------------------
 ! Name  Definition              Value          Derivative Info.                !
 --------------------------------------------------------------------------------
 ! R1    R(1,2)                  1.3999         calculate D2E/DX2 analytically  !
 ! R2    R(1,9)                  1.4009         calculate D2E/DX2 analytically  !
 ! R3    R(2,3)                  1.0857         calculate D2E/DX2 analytically  !
 ! R4    R(2,4)                  1.3879         calculate D2E/DX2 analytically  !
 ! R5    R(4,5)                  1.0831         calculate D2E/DX2 analytically  !
 ! R6    R(4,6)                  1.3967         calculate D2E/DX2 analytically  !
 ! R7    R(6,7)                  1.3974         calculate D2E/DX2 analytically  !
 ! R8    R(6,11)                 1.4368         calculate D2E/DX2 analytically  !
 ! R9    R(7,8)                  1.0832         calculate D2E/DX2 analytically  !
 ! R10   R(7,9)                  1.3871         calculate D2E/DX2 analytically  !
 ! R11   R(9,10)                 1.0839         calculate D2E/DX2 analytically  !
 ! R12   R(11,12)                1.1505         calculate D2E/DX2 analytically  !
 ! A1    A(2,1,9)              118.3672         calculate D2E/DX2 analytically  !
 ! A2    A(1,2,3)              120.9894         calculate D2E/DX2 analytically  !
 ! A3    A(1,2,4)              121.3339         calculate D2E/DX2 analytically  !
 ! A4    A(3,2,4)              117.6766         calculate D2E/DX2 analytically  !
 ! A5    A(2,4,5)              120.9515         calculate D2E/DX2 analytically  !
 ! A6    A(2,4,6)              119.068          calculate D2E/DX2 analytically  !
 ! A7    A(5,4,6)              119.9805         calculate D2E/DX2 analytically  !
 ! A8    A(4,6,7)              120.8368         calculate D2E/DX2 analytically  !
 ! A9    A(4,6,11)             119.5458         calculate D2E/DX2 analytically  !
 ! A10   A(7,6,11)             119.6174         calculate D2E/DX2 analytically  !
 ! A11   A(6,7,8)              119.9158         calculate D2E/DX2 analytically  !
 ! A12   A(6,7,9)              119.0819         calculate D2E/DX2 analytically  !
 ! A13   A(8,7,9)              121.0023         calculate D2E/DX2 analytically  !
 ! A14   A(1,9,7)              121.3122         calculate D2E/DX2 analytically  !
 ! A15   A(1,9,10)             119.3779         calculate D2E/DX2 analytically  !
 ! A16   A(7,9,10)             119.3099         calculate D2E/DX2 analytically  !
 ! A17   L(6,11,12,5,-1)       179.9833         calculate D2E/DX2 analytically  !
 ! A18   L(6,11,12,5,-2)       179.9858         calculate D2E/DX2 analytically  !
 ! D1    D(9,1,2,3)            179.8077         calculate D2E/DX2 analytically  !
 ! D2    D(9,1,2,4)             -0.0999         calculate D2E/DX2 analytically  !
 ! D3    D(2,1,9,7)              0.1113         calculate D2E/DX2 analytically  !
 ! D4    D(2,1,9,10)          -179.9095         calculate D2E/DX2 analytically  !
 ! D5    D(1,2,4,5)            179.9899         calculate D2E/DX2 analytically  !
 ! D6    D(1,2,4,6)              0.0297         calculate D2E/DX2 analytically  !
 ! D7    D(3,2,4,5)              0.0794         calculate D2E/DX2 analytically  !
 ! D8    D(3,2,4,6)           -179.8808         calculate D2E/DX2 analytically  !
 ! D9    D(2,4,6,7)              0.0322         calculate D2E/DX2 analytically  !
 ! D10   D(2,4,6,11)          -179.9746         calculate D2E/DX2 analytically  !
 ! D11   D(5,4,6,7)           -179.9284         calculate D2E/DX2 analytically  !
 ! D12   D(5,4,6,11)             0.0648         calculate D2E/DX2 analytically  !
 ! D13   D(4,6,7,8)            179.9668         calculate D2E/DX2 analytically  !
 ! D14   D(4,6,7,9)             -0.0212         calculate D2E/DX2 analytically  !
 ! D15   D(11,6,7,8)            -0.0263         calculate D2E/DX2 analytically  !
 ! D16   D(11,6,7,9)           179.9857         calculate D2E/DX2 analytically  !
 ! D17   D(6,7,9,1)             -0.0521         calculate D2E/DX2 analytically  !
 ! D18   D(6,7,9,10)           179.9687         calculate D2E/DX2 analytically  !
 ! D19   D(8,7,9,1)            179.9601         calculate D2E/DX2 analytically  !
 ! D20   D(8,7,9,10)            -0.0192         calculate D2E/DX2 analytically  !
 --------------------------------------------------------------------------------
 Trust Radius=3.00D-01 FncErr=5.00D-06 GrdErr=5.00D-06 EigMax=2.50D+02 EigMin=1.00D-04
 Number of steps in this run=     60 maximum allowed number of steps=    100.
 GradGradGradGradGradGradGradGradGradGradGradGradGradGradGradGradGradGrad

                          Input orientation:                          
 ---------------------------------------------------------------------
 Center     Atomic      Atomic             Coordinates (Angstroms)
 Number     Number       Type             X           Y           Z
 ---------------------------------------------------------------------
      1          6           0        6.272524    7.029495    5.186620
      2          6           0        5.108538    6.261860    5.311392
      3          1           0        5.124445    5.300200    5.815025
      4          6           0        3.896569    6.699680    4.796043
      5          1           0        2.999801    6.100631    4.895968
      6          6           0        3.843449    7.931687    4.140127
      7          6           0        4.989768    8.718431    3.999704
      8          1           0        4.931662    9.671226    3.487796
      9          6           0        6.190138    8.260344    4.522631
     10          1           0        7.081683    8.867361    4.415367
     11          6           0        2.593993    8.395161    3.603151
     12          7           0        1.593263    8.766125    3.173463
 ---------------------------------------------------------------------
                    Distance matrix (angstroms):
                    1          2          3          4          5
     1  C    0.000000
     2  C    1.399891   0.000000
     3  H    2.168741   1.085675   0.000000
     4  C    2.430327   1.387854   2.122392   0.000000
     5  H    3.414379   2.155306   2.449381   1.083069   0.000000
     6  C    2.794549   2.400132   3.372085   1.396742   2.153092
     7  C    2.430378   2.787359   3.872703   2.429937   3.408245
     8  H    3.415063   3.870473   4.955707   3.407787   4.296997
     9  C    1.400949   2.405398   3.401240   2.787631   3.870658
    10  H    2.151121   3.388923   4.302843   3.871525   4.954547
    11  C    4.231313   3.713758   4.568846   2.448336   2.664756
    12  N    5.381837   4.816559   5.608898   3.494021   3.471344
                    6          7          8          9         10
     6  C    0.000000
     7  C    1.397402   0.000000
     8  H    2.153077   1.083164   0.000000
     9  C    2.400265   1.387150   2.155280   0.000000
    10  H    3.381923   2.138005   2.475718   1.083895   0.000000
    11  C    1.436764   2.449795   2.665773   3.714280   4.584979
    12  N    2.587289   3.495883   3.473172   4.817399   5.628084
                   11         12
    11  C    0.000000
    12  N    1.150524   0.000000
 Symmetry turned off by external request.
 Stoichiometry    C7H4N(2)
 Framework group  C1[X(C7H4N)]
 Deg. of freedom    30
 Full point group                 C1      NOp   1
 Rotational constants (GHZ):           5.6926793           1.6075123           1.2535361
 Standard basis: 6-311+G(d,p) (5D, 7F)
   200 basis functions,   320 primitive gaussians,   208 cartesian basis functions
    27 alpha electrons       26 beta electrons
       nuclear repulsion energy       289.6955709012 Hartrees.
 NAtoms=   12 NActive=   12 NUniq=   12 SFac= 1.00D+00 NAtFMM=   60 NAOKFM=F Big=F
 Integral buffers will be    131072 words long.
 Raffenetti 2 integral format.
 Two-electron integral symmetry is turned off.
 Force inversion solution in PCM.
 ------------------------------------------------------------------------------
 Polarizable Continuum Model (PCM)
 =================================
 Model                : PCM.
 Atomic radii         : SMD-Coulomb.
 Polarization charges : Total charges.
 Charge compensation  : None.
 Solution method      : Matrix inversion.
 Cavity type          : VdW (van der Waals Surface) (Alpha=1.000).
 Cavity algorithm     : GePol (No added spheres)
                        Default sphere list used, NSphG=   12.
                        Lebedev-Laikov grids with approx.  5.0 points / Ang**2.
                        Smoothing algorithm: York/Karplus (Gamma=1.0000).
                        Polarization charges: spherical gaussians, with
                                              point-specific exponents (IZeta= 3).
                        Self-potential: point-specific (ISelfS= 7).
                        Self-field    : sphere-specific E.n sum rule (ISelfD= 2).
 1st derivatives      : Analytical E(r).r(x)/FMM algorithm (CHGder, D1EAlg=3).
                        Cavity 1st derivative terms included.
 2nd derivatives      : Analytical E(r).r(xy)/FMM algorithm (CHGder, D2EAlg=3).
                        Cavity 2nd derivative terms included.
 Solvent              : TetraHydroFuran, Eps=   7.425700 Eps(inf)=   1.974025
 ------------------------------------------------------------------------------
 Spheres list:
 ISph  on   Nord     Re0    Alpha      Xe            Ye            Ze
    1   C      1    1.8500  1.000      6.272524      7.029495      5.186620
    2   C      2    1.8500  1.000      5.108538      6.261860      5.311392
    3   H      3    1.2000  1.000      5.124445      5.300200      5.815025
    4   C      4    1.8500  1.000      3.896569      6.699680      4.796043
    5   H      5    1.2000  1.000      2.999801      6.100631      4.895968
    6   C      6    1.8500  1.000      3.843449      7.931687      4.140127
    7   C      7    1.8500  1.000      4.989768      8.718431      3.999704
    8   H      8    1.2000  1.000      4.931662      9.671226      3.487796
    9   C      9    1.8500  1.000      6.190138      8.260344      4.522631
   10   H     10    1.2000  1.000      7.081683      8.867361      4.415367
   11   C     11    1.8500  1.000      2.593993      8.395161      3.603151
   12   N     12    1.8900  1.000      1.593263      8.766125      3.173463
 ------------------------------------------------------------------------------
 ------------------------------------------------------------------------------
 Atomic radii for non-electrostatic terms: SMD-CDS.
 ------------------------------------------------------------------------------
 Nuclear repulsion after PCM non-electrostatic terms =      289.6948780942 Hartrees.
 One-electron integrals computed using PRISM.
 NBasis=   200 RedAO= T EigKep=  3.42D-06  NBF=   200
 NBsUse=   200 1.00D-06 EigRej= -1.00D+00 NBFU=   200
 ExpMin= 4.38D-02 ExpMax= 6.29D+03 ExpMxC= 9.49D+02 IAcc=3 IRadAn=         5 AccDes= 0.00D+00
 Harris functional with IExCor= 1009 and IRadAn=       5 diagonalized for initial guess.
 HarFok:  IExCor= 1009 AccDes= 0.00D+00 IRadAn=         5 IDoV= 1 UseB2=F ITyADJ=14
 ICtDFT=  3500011 ScaDFX=  1.000000  1.000000  1.000000  1.000000
 FoFCou: FMM=F IPFlag=           0 FMFlag=      100000 FMFlg1=           0
         NFxFlg=           0 DoJE=T BraDBF=F KetDBF=T FulRan=T
         wScrn=  0.000000 ICntrl=       500 IOpCl=  0 I1Cent=   200000004 NGrid=           0
         NMat0=    1 NMatS0=      1 NMatT0=    0 NMatD0=    1 NMtDS0=    0 NMtDT0=    0
 Symmetry not used in FoFCou.
 Initial guess <Sx>= 0.0000 <Sy>= 0.0000 <Sz>= 0.5000 <S**2>= 0.7500 S= 0.5000
 Keep R1 and R2 ints in memory in canonical form, NReq=437285944.
 Requested convergence on RMS density matrix=1.00D-08 within 128 cycles.
 Requested convergence on MAX density matrix=1.00D-06.
 Requested convergence on             energy=1.00D-06.
 Level shift goal  0.100 maximum shift  0.100.
 No special actions if energy rises.
 Dynamic level shift is on during FON iterations.
 Inv3:  Mode=1 IEnd=     4494528.
 Iteration    1 A*A^-1 deviation from unit magnitude is 5.11D-15 for   1220.
 Iteration    1 A*A^-1 deviation from orthogonality  is 1.46D-15 for    339     92.
 Iteration    1 A^-1*A deviation from unit magnitude is 5.33D-15 for   1220.
 Iteration    1 A^-1*A deviation from orthogonality  is 2.09D-15 for    997    484.
 Error on total polarization charges =  0.03267
 SCF Done:  E(UM062X) =  -323.757808568     A.U. after   19 cycles
            NFock= 19  Conv=0.20D-08     -V/T= 2.0042
 <Sx>= 0.0000 <Sy>= 0.0000 <Sz>= 0.5000 <S**2>= 0.7653 S= 0.5076
 <L.S>=  0.00000000000    
 SMD-CDS (non-electrostatic) energy       (kcal/mol) =      -0.43
 (included in total energy above)
 Annihilation of the first spin contaminant:
 S**2 before annihilation     0.7653,   after     0.7501
 DoSCS=F DFT=T ScalE2(SS,OS)=  1.000000  1.000000
 Range of M.O.s used for correlation:     1   200
 NBasis=   200 NAE=    27 NBE=    26 NFC=     0 NFV=     0
 NROrb=    200 NOA=    27 NOB=    26 NVA=   173 NVB=   174

 **** Warning!!: The largest alpha MO coefficient is  0.14461728D+03


 **** Warning!!: The largest beta MO coefficient is  0.14269539D+03

 Symmetrizing basis deriv contribution to polar:
 IMax=3 JMax=2 DiffMx= 0.00D+00
 G2DrvN: will do    13 centers at a time, making    1 passes.
 Calling FoFCou, ICntrl=  3107 FMM=F I1Cent=   0 AccDes= 0.00D+00.
 NEqPCM:  Using equilibrium solvation (IEInf=0, Eps=   7.4257, EpsInf=   1.9740)
 G2PCM: DoFxE=T DoFxN=T DoGrad=T DoDP/DQ/DG/TGxP=FFFF NFrqRd=   0 IEInf=0 SqF1=F DoCFld=F IF1Alg=4.
 End of G2Drv F.D. properties file   721 does not exist.
 End of G2Drv F.D. properties file   722 does not exist.
 End of G2Drv F.D. properties file   788 does not exist.
          IDoAtm=111111111111
 NEqPCM:  Using equilibrium solvation (IEInf=0, Eps=   7.4257, EpsInf=   1.9740)
          Differentiating once with respect to nuclear coordinates.
 Keep R1 and R2 ints in memory in canonical form, NReq=437186196.
          There are    39 degrees of freedom in the 1st order CPHF.  IDoFFX=6 NUNeed=     0.
     33 vectors produced by pass  0 Test12= 2.36D-14 2.56D-09 XBig12= 3.12D-01 1.13D-01.
 AX will form    33 AO Fock derivatives at one time.
     33 vectors produced by pass  1 Test12= 2.36D-14 2.56D-09 XBig12= 2.71D-02 5.40D-02.
     33 vectors produced by pass  2 Test12= 2.36D-14 2.56D-09 XBig12= 6.66D-04 7.79D-03.
     33 vectors produced by pass  3 Test12= 2.36D-14 2.56D-09 XBig12= 1.77D-05 1.40D-03.
     33 vectors produced by pass  4 Test12= 2.36D-14 2.56D-09 XBig12= 3.12D-07 1.20D-04.
     33 vectors produced by pass  5 Test12= 2.36D-14 2.56D-09 XBig12= 5.77D-09 1.41D-05.
     33 vectors produced by pass  6 Test12= 2.36D-14 2.56D-09 XBig12= 4.95D-11 8.73D-07.
     25 vectors produced by pass  7 Test12= 2.36D-14 2.56D-09 XBig12= 3.24D-13 6.58D-08.
      5 vectors produced by pass  8 Test12= 2.36D-14 2.56D-09 XBig12= 1.54D-15 4.69D-09.
 InvSVY:  IOpt=1 It=  1 EMax= 2.00D-15
 Solved reduced A of dimension   261 with    33 vectors.
 End of Minotr F.D. properties file   721 does not exist.
 End of Minotr F.D. properties file   722 does not exist.
 End of Minotr F.D. properties file   788 does not exist.

 **********************************************************************

            Population analysis using the SCF Density.

 **********************************************************************

 Alpha  occ. eigenvalues --  -14.76400 -10.59943 -10.59568 -10.59490 -10.57522
 Alpha  occ. eigenvalues --  -10.57489 -10.56806 -10.56804  -1.03679  -0.99168
 Alpha  occ. eigenvalues --   -0.88408  -0.87181  -0.73328  -0.71540  -0.64515
 Alpha  occ. eigenvalues --   -0.55491  -0.54773  -0.51691  -0.51136  -0.48702
 Alpha  occ. eigenvalues --   -0.46114  -0.43944  -0.43182  -0.41135  -0.34314
 Alpha  occ. eigenvalues --   -0.33265  -0.33251
 Alpha virt. eigenvalues --   -0.03244   0.00035   0.01314   0.03165   0.03190
 Alpha virt. eigenvalues --    0.05037   0.05474   0.05687   0.06243   0.06944
 Alpha virt. eigenvalues --    0.08253   0.08569   0.09018   0.09236   0.10098
 Alpha virt. eigenvalues --    0.10551   0.13960   0.14012   0.14097   0.15119
 Alpha virt. eigenvalues --    0.15255   0.15500   0.16179   0.17399   0.19104
 Alpha virt. eigenvalues --    0.19470   0.20164   0.21617   0.22221   0.22556
 Alpha virt. eigenvalues --    0.22804   0.23039   0.25288   0.25357   0.25585
 Alpha virt. eigenvalues --    0.25854   0.25914   0.26727   0.27491   0.29507
 Alpha virt. eigenvalues --    0.30844   0.31102   0.34515   0.34835   0.36970
 Alpha virt. eigenvalues --    0.40438   0.47622   0.51097   0.53482   0.55175
 Alpha virt. eigenvalues --    0.55487   0.56514   0.56799   0.58934   0.60860
 Alpha virt. eigenvalues --    0.62731   0.64007   0.64524   0.64620   0.66308
 Alpha virt. eigenvalues --    0.67475   0.68289   0.71469   0.71532   0.72425
 Alpha virt. eigenvalues --    0.74426   0.75429   0.79163   0.79507   0.82613
 Alpha virt. eigenvalues --    0.86313   0.86944   0.88651   0.89614   0.90859
 Alpha virt. eigenvalues --    0.92558   0.93631   0.94914   0.97331   1.02418
 Alpha virt. eigenvalues --    1.02433   1.04332   1.04416   1.05858   1.11584
 Alpha virt. eigenvalues --    1.12892   1.15535   1.16822   1.22337   1.22891
 Alpha virt. eigenvalues --    1.31667   1.34948   1.43051   1.48924   1.51763
 Alpha virt. eigenvalues --    1.52491   1.57217   1.59467   1.59640   1.63970
 Alpha virt. eigenvalues --    1.66398   1.67641   1.69515   1.74183   1.76566
 Alpha virt. eigenvalues --    1.76813   1.79940   1.80955   1.88928   1.89775
 Alpha virt. eigenvalues --    1.93217   1.94024   1.94921   1.95926   1.99197
 Alpha virt. eigenvalues --    2.01864   2.07403   2.09107   2.10210   2.13062
 Alpha virt. eigenvalues --    2.15083   2.25068   2.30800   2.35480   2.38905
 Alpha virt. eigenvalues --    2.40357   2.44465   2.53762   2.62001   2.65540
 Alpha virt. eigenvalues --    2.65820   2.66966   2.71132   2.71820   2.72237
 Alpha virt. eigenvalues --    2.74035   2.76559   2.81165   2.83455   2.86577
 Alpha virt. eigenvalues --    2.90935   2.93619   2.93629   2.99794   3.00435
 Alpha virt. eigenvalues --    3.02357   3.10888   3.11144   3.11811   3.20124
 Alpha virt. eigenvalues --    3.25568   3.37423   3.43962   3.52632   3.57380
 Alpha virt. eigenvalues --    3.64166   3.76076   4.00815   4.05371   4.08963
 Alpha virt. eigenvalues --    4.11188   4.16151   4.17276   4.67122   4.80928
 Alpha virt. eigenvalues --   23.60513  23.95007  24.00117  24.08886  24.15749
 Alpha virt. eigenvalues --   24.21422  24.50568  35.97565
  Beta  occ. eigenvalues --  -14.76417 -10.59601 -10.59482 -10.58855 -10.57445
  Beta  occ. eigenvalues --  -10.57411 -10.56803 -10.56800  -1.03712  -0.98580
  Beta  occ. eigenvalues --   -0.87155  -0.86823  -0.71597  -0.71050  -0.64331
  Beta  occ. eigenvalues --   -0.54605  -0.53425  -0.50789  -0.50291  -0.48554
  Beta  occ. eigenvalues --   -0.45857  -0.43505  -0.42688  -0.40939  -0.33340
  Beta  occ. eigenvalues --   -0.31943
  Beta virt. eigenvalues --   -0.07510  -0.02064  -0.00010   0.01284   0.03227
  Beta virt. eigenvalues --    0.03402   0.05006   0.05447   0.06249   0.06605
  Beta virt. eigenvalues --    0.06980   0.08631   0.08760   0.09047   0.09297
  Beta virt. eigenvalues --    0.10073   0.10926   0.14004   0.14310   0.14459
  Beta virt. eigenvalues --    0.14595   0.15474   0.15600   0.16121   0.17281
  Beta virt. eigenvalues --    0.19265   0.19716   0.20651   0.21817   0.22289
  Beta virt. eigenvalues --    0.22713   0.22992   0.23175   0.24405   0.25438
  Beta virt. eigenvalues --    0.25593   0.25932   0.26012   0.27418   0.27541
  Beta virt. eigenvalues --    0.29311   0.31002   0.31250   0.34831   0.36131
  Beta virt. eigenvalues --    0.37550   0.40465   0.46274   0.49358   0.53540
  Beta virt. eigenvalues --    0.55104   0.55705   0.56868   0.56991   0.58360
  Beta virt. eigenvalues --    0.58958   0.63018   0.64008   0.64432   0.65154
  Beta virt. eigenvalues --    0.66361   0.67293   0.68940   0.71335   0.72066
  Beta virt. eigenvalues --    0.72527   0.74369   0.75051   0.79084   0.79617
  Beta virt. eigenvalues --    0.82507   0.85134   0.87568   0.88137   0.90199
  Beta virt. eigenvalues --    0.90474   0.92506   0.93587   0.94660   0.98134
  Beta virt. eigenvalues --    1.02343   1.02852   1.04044   1.04872   1.05776
  Beta virt. eigenvalues --    1.11613   1.12981   1.16162   1.17320   1.22478
  Beta virt. eigenvalues --    1.24064   1.31716   1.34925   1.43531   1.49235
  Beta virt. eigenvalues --    1.52654   1.53189   1.57230   1.60069   1.60580
  Beta virt. eigenvalues --    1.64092   1.67260   1.68221   1.69485   1.74817
  Beta virt. eigenvalues --    1.76632   1.76865   1.79945   1.80993   1.89540
  Beta virt. eigenvalues --    1.89967   1.93848   1.94066   1.95803   1.96253
  Beta virt. eigenvalues --    1.99700   2.02291   2.07347   2.09117   2.10259
  Beta virt. eigenvalues --    2.13036   2.15040   2.25311   2.31571   2.35745
  Beta virt. eigenvalues --    2.39210   2.40859   2.44686   2.53616   2.62099
  Beta virt. eigenvalues --    2.65832   2.66060   2.67003   2.71412   2.72015
  Beta virt. eigenvalues --    2.72258   2.74620   2.76581   2.81310   2.83322
  Beta virt. eigenvalues --    2.87462   2.90984   2.93505   2.93693   2.99817
  Beta virt. eigenvalues --    3.02122   3.02173   3.10920   3.11749   3.11816
  Beta virt. eigenvalues --    3.20619   3.25570   3.37862   3.44178   3.52798
  Beta virt. eigenvalues --    3.58115   3.64423   3.76661   4.00901   4.05283
  Beta virt. eigenvalues --    4.08920   4.11164   4.16599   4.17224   4.67111
  Beta virt. eigenvalues --    4.81262  23.60743  23.95620  24.00132  24.09149
  Beta virt. eigenvalues --   24.15731  24.21510  24.50559  35.97574
          Condensed to atoms (all electrons):
               1          2          3          4          5          6
     1  C    5.441029  -0.242731   0.022445   0.624798  -0.003834  -0.929348
     2  C   -0.242731   6.716757   0.357192  -1.486909   0.012175   1.925573
     3  H    0.022445   0.357192   0.447299  -0.027156  -0.004800  -0.006187
     4  C    0.624798  -1.486909  -0.027156   8.525298   0.359273  -2.024917
     5  H   -0.003834   0.012175  -0.004800   0.359273   0.432829  -0.064759
     6  C   -0.929348   1.925573  -0.006187  -2.024917  -0.064759  12.308321
     7  C    0.620025  -0.585476   0.005113  -0.406944  -0.020820  -2.003690
     8  H   -0.004557  -0.005810   0.000037  -0.021091  -0.000045  -0.063476
     9  C   -0.240576   0.983593  -0.017726  -0.593880  -0.006201   1.922788
    10  H    0.018682  -0.018649  -0.000031   0.005835   0.000037  -0.005886
    11  C    0.468932  -1.373270   0.010418   1.461530   0.081756  -7.401398
    12  N   -0.014317   0.046738  -0.000079  -0.069938  -0.002154   0.595518
               7          8          9         10         11         12
     1  C    0.620025  -0.004557  -0.240576   0.018682   0.468932  -0.014317
     2  C   -0.585476  -0.005810   0.983593  -0.018649  -1.373270   0.046738
     3  H    0.005113   0.000037  -0.017726  -0.000031   0.010418  -0.000079
     4  C   -0.406944  -0.021091  -0.593880   0.005835   1.461530  -0.069938
     5  H   -0.020820  -0.000045  -0.006201   0.000037   0.081756  -0.002154
     6  C   -2.003690  -0.063476   1.922788  -0.005886  -7.401398   0.595518
     7  C    8.500900   0.356697  -1.472960  -0.022766   1.451489  -0.068992
     8  H    0.356697   0.432505   0.014535  -0.004533   0.081108  -0.002151
     9  C   -1.472960   0.014535   6.715804   0.356592  -1.372007   0.046640
    10  H   -0.022766  -0.004533   0.356592   0.446572   0.010107  -0.000074
    11  C    1.451489   0.081108  -1.372007   0.010107  13.926435  -0.169530
    12  N   -0.068992  -0.002151   0.046640  -0.000074  -0.169530   6.946336
          Atomic-Atomic Spin Densities.
               1          2          3          4          5          6
     1  C    1.153715  -0.227724   0.011178   0.202072   0.001837  -0.150270
     2  C   -0.227724   0.289961  -0.013244  -0.315055  -0.005089   0.193916
     3  H    0.011178  -0.013244   0.022639   0.016036   0.000677  -0.014706
     4  C    0.202072  -0.315055   0.016036   0.450529   0.006274  -0.180934
     5  H    0.001837  -0.005089   0.000677   0.006274   0.001820  -0.001979
     6  C   -0.150270   0.193916  -0.014706  -0.180934  -0.001979   0.163253
     7  C    0.198941  -0.222300   0.009649   0.197104   0.001284  -0.178776
     8  H    0.001891  -0.001290   0.000004   0.001362   0.000016  -0.002036
     9  C   -0.226258   0.260463  -0.013368  -0.223991  -0.001236   0.193246
    10  H    0.010847  -0.013755   0.000126   0.009914   0.000004  -0.014665
    11  C   -0.121641   0.118726  -0.004229  -0.156720  -0.001619  -0.048904
    12  N    0.004198  -0.005435   0.000053   0.010241   0.000172   0.004954
               7          8          9         10         11         12
     1  C    0.198941   0.001891  -0.226258   0.010847  -0.121641   0.004198
     2  C   -0.222300  -0.001290   0.260463  -0.013755   0.118726  -0.005435
     3  H    0.009649   0.000004  -0.013368   0.000126  -0.004229   0.000053
     4  C    0.197104   0.001362  -0.223991   0.009914  -0.156720   0.010241
     5  H    0.001284   0.000016  -0.001236   0.000004  -0.001619   0.000172
     6  C   -0.178776  -0.002036   0.193246  -0.014665  -0.048904   0.004954
     7  C    0.440287   0.006391  -0.308000   0.015507  -0.154024   0.010053
     8  H    0.006391   0.001861  -0.005173   0.000654  -0.001667   0.000176
     9  C   -0.308000  -0.005173   0.286213  -0.012760   0.116857  -0.005326
    10  H    0.015507   0.000654  -0.012760   0.022778  -0.004208   0.000052
    11  C   -0.154024  -0.001667   0.116857  -0.004208   0.286138  -0.020895
    12  N    0.010053   0.000176  -0.005326   0.000052  -0.020895  -0.014385
 Mulliken charges and spin densities:
               1          2
     1  C    0.239453   0.858784
     2  C   -0.329183   0.059175
     3  H    0.213473   0.014815
     4  C   -0.345898   0.016831
     5  H    0.216542   0.002161
     6  C    1.747459  -0.036902
     7  C   -0.352576   0.016117
     8  H    0.216781   0.002188
     9  C   -0.336601   0.060666
    10  H    0.214114   0.014494
    11  C   -1.175569   0.007813
    12  N   -0.307997  -0.016142
 Sum of Mulliken charges =   0.00000   1.00000
 Mulliken charges and spin densities with hydrogens summed into heavy atoms:
               1          2
     1  C    0.239453   0.858784
     2  C   -0.115710   0.073990
     4  C   -0.129355   0.018992
     6  C    1.747459  -0.036902
     7  C   -0.135795   0.018305
     9  C   -0.122487   0.075160
    11  C   -1.175569   0.007813
    12  N   -0.307997  -0.016142
 APT charges:
               1
     1  C    1.188082
     2  C   -0.944220
     3  H   -0.182844
     4  C    0.101990
     5  H   -0.792896
     6  C   -1.052350
     7  C    0.296732
     8  H    1.325942
     9  C   -1.464606
    10  H    1.932043
    11  C    0.216888
    12  N   -0.624761
 Sum of APT charges =   0.00000
 APT charges with hydrogens summed into heavy atoms:
               1
     1  C    1.188082
     2  C   -1.127064
     4  C   -0.690906
     6  C   -1.052350
     7  C    1.622674
     9  C    0.467437
    11  C    0.216888
    12  N   -0.624761
 Electronic spatial extent (au):  <R**2>=          19337.6380
 Charge=              0.0000 electrons
 Dipole moment (field-independent basis, Debye):
    X=              4.0494    Y=             -1.5113    Z=              1.7403  Tot=              4.6595
 Quadrupole moment (field-independent basis, Debye-Ang):
   XX=            -21.4433   YY=            -65.1856   ZZ=            -34.4500
   XY=             33.2906   XZ=             18.9795   YZ=              5.0915
 Traceless Quadrupole moment (field-independent basis, Debye-Ang):
   XX=             18.9163   YY=            -24.8259   ZZ=              5.9097
   XY=             33.2906   XZ=             18.9795   YZ=              5.0915
 Octapole moment (field-independent basis, Debye-Ang**2):
  XXX=           -456.5935  YYY=          -1249.9383  ZZZ=           -545.9541  XYY=            100.0712
  XXY=           -133.9132  XXZ=            -94.8041  XZZ=           -119.1530  YZZ=           -316.3610
  YYZ=           -201.0880  XYZ=            139.0067
 Hexadecapole moment (field-independent basis, Debye-Ang**3):
 XXXX=          -5044.7209 YYYY=         -18359.4432 ZZZZ=          -5226.0706 XXXY=          -3203.9380
 XXXZ=          -2122.0759 YYYX=          -1731.7496 YYYZ=          -4745.5588 ZZZX=          -2421.3522
 ZZZY=          -4435.7392 XXYY=          -1688.1915 XXZZ=          -1475.9177 YYZZ=          -3651.3828
 XXYZ=           -654.2234 YYXZ=            242.5427 ZZXY=          -1019.8675
 N-N= 2.896948780942D+02 E-N=-1.330754133573D+03  KE= 3.224126755448D+02
  Exact polarizability:       0.000       0.000       0.000       0.000       0.000       0.000
 Approx polarizability:     134.550      -6.272     100.973      21.498     -24.215      75.210
                          Isotropic Fermi Contact Couplings
        Atom                 a.u.       MegaHertz       Gauss      10(-4) cm-1
     1  C(13)              0.55905     628.48298     224.25835     209.63935
     2  C(13)              0.02287      25.71110       9.17436       8.57630
     3  H(1)               0.00945      42.26102      15.07978      14.09676
     4  C(13)              0.04094      46.02588      16.42318      15.35258
     5  H(1)               0.00177       7.90841       2.82192       2.63796
     6  C(13)             -0.01080     -12.14259      -4.33278      -4.05033
     7  C(13)              0.04009      45.06892      16.08171      15.03337
     8  H(1)               0.00177       7.92909       2.82930       2.64486
     9  C(13)              0.02284      25.67449       9.16129       8.56409
    10  H(1)               0.00954      42.65393      15.21998      14.22782
    11  C(13)              0.00652       7.32740       2.61460       2.44416
    12  N(14)             -0.00256      -0.82697      -0.29508      -0.27585
 --------------------------------------------------------
       Center         ----  Spin Dipole Couplings  ----
                      3XX-RR        3YY-RR        3ZZ-RR
 --------------------------------------------------------
     1   Atom        0.561688     -0.359039     -0.202649
     2   Atom        0.098087     -0.015771     -0.082316
     3   Atom        0.003646      0.007104     -0.010750
     4   Atom        0.033365     -0.028433     -0.004931
     5   Atom        0.007433     -0.002392     -0.005041
     6   Atom        0.029287      0.007474     -0.036761
     7   Atom        0.020675     -0.019816     -0.000859
     8   Atom       -0.003804      0.005284     -0.001480
     9   Atom       -0.001739      0.052130     -0.050391
    10   Atom       -0.009634      0.016438     -0.006805
    11   Atom       -0.002122     -0.000386      0.002508
    12   Atom        0.016328      0.003685     -0.020013
 --------------------------------------------------------
                        XY            XZ            YZ
 --------------------------------------------------------
     1   Atom       -0.424975      0.439451     -0.100198
     2   Atom        0.050073      0.022382     -0.035017
     3   Atom        0.016911     -0.004879     -0.006405
     4   Atom       -0.023245      0.021611      0.005683
     5   Atom        0.005404      0.000165     -0.000163
     6   Atom        0.003914      0.018761     -0.033706
     7   Atom       -0.031696      0.023060     -0.000615
     8   Atom       -0.002900      0.001829     -0.006123
     9   Atom       -0.024127      0.037201     -0.088325
    10   Atom        0.007693     -0.003185     -0.013730
    11   Atom       -0.000126     -0.001372      0.002262
    12   Atom        0.001725      0.010506     -0.018241
 --------------------------------------------------------


 ---------------------------------------------------------------------------------
              Anisotropic Spin Dipole Couplings in Principal Axis System
 ---------------------------------------------------------------------------------

       Atom             a.u.   MegaHertz   Gauss  10(-4) cm-1        Axes

              Baa    -0.5486   -73.616   -26.268   -24.556  0.4483  0.8313 -0.3287
     1 C(13)  Bbb    -0.3588   -48.144   -17.179   -16.059 -0.2048  0.4534  0.8675
              Bcc     0.9074   121.760    43.447    40.615  0.8701 -0.3215  0.3735
 
              Baa    -0.1059   -14.206    -5.069    -4.739 -0.2062  0.4519  0.8679
     2 C(13)  Bbb    -0.0115    -1.543    -0.551    -0.515 -0.2756  0.8242 -0.4947
              Bcc     0.1174    15.749     5.620     5.253  0.9389  0.3412  0.0454
 
              Baa    -0.0129    -6.894    -2.460    -2.300 -0.2019  0.4489  0.8705
     3 H(1)   Bbb    -0.0113    -6.026    -2.150    -2.010  0.7326 -0.5207  0.4385
              Bcc     0.0242    12.920     4.610     4.310  0.6501  0.7262 -0.2237
 
              Baa    -0.0409    -5.491    -1.959    -1.832  0.3722  0.8560 -0.3587
     4 C(13)  Bbb    -0.0070    -0.946    -0.337    -0.315 -0.2040  0.4524  0.8681
              Bcc     0.0480     6.437     2.297     2.147  0.9055 -0.2500  0.3430
 
              Baa    -0.0052    -2.755    -0.983    -0.919 -0.2040  0.4489  0.8700
     5 H(1)   Bbb    -0.0047    -2.487    -0.887    -0.830 -0.3493  0.7968 -0.4930
              Bcc     0.0098     5.242     1.870     1.748  0.9145  0.4045  0.0057
 
              Baa    -0.0588    -7.891    -2.816    -2.632 -0.2049  0.4533  0.8675
     6 C(13)  Bbb     0.0229     3.071     1.096     1.024  0.4513  0.8302 -0.3272
              Bcc     0.0359     4.820     1.720     1.608  0.8685 -0.3245  0.3747
 
              Baa    -0.0404    -5.425    -1.936    -1.810  0.5251  0.7987 -0.2936
     7 C(13)  Bbb    -0.0066    -0.892    -0.318    -0.297 -0.2054  0.4538  0.8671
              Bcc     0.0471     6.317     2.254     2.107  0.8258 -0.3950  0.4024
 
              Baa    -0.0051    -2.729    -0.974    -0.910 -0.2098  0.4520  0.8670
     8 H(1)   Bbb    -0.0046    -2.480    -0.885    -0.827  0.9466  0.3160  0.0642
              Bcc     0.0098     5.209     1.859     1.737 -0.2450  0.8342 -0.4941
 
              Baa    -0.1055   -14.156    -5.051    -4.722 -0.2052  0.4544  0.8669
     9 C(13)  Bbb    -0.0109    -1.463    -0.522    -0.488  0.9245  0.3808  0.0192
              Bcc     0.1164    15.619     5.573     5.210 -0.3214  0.8053 -0.4982
 
              Baa    -0.0132    -7.066    -2.521    -2.357 -0.2006  0.4537  0.8683
    10 H(1)   Bbb    -0.0116    -6.174    -2.203    -2.059  0.9511 -0.1222  0.2836
              Bcc     0.0248    13.240     4.724     4.416  0.2348  0.8828 -0.4070
 
              Baa    -0.0027    -0.357    -0.127    -0.119  0.8710 -0.3212  0.3717
    11 C(13)  Bbb    -0.0013    -0.181    -0.065    -0.060  0.4471  0.8318 -0.3289
              Bcc     0.0040     0.538     0.192     0.179 -0.2035  0.4527  0.8681
 
              Baa    -0.0320    -1.235    -0.441    -0.412 -0.2047  0.4531  0.8676
    12 N(14)  Bbb     0.0118     0.456     0.163     0.152  0.4480  0.8315 -0.3286
              Bcc     0.0202     0.779     0.278     0.260  0.8703 -0.3214  0.3732
 

 ---------------------------------------------------------------------------------

 D2PCM: PCM CHGder 2nd derivatives, FixD1E=F FixD2E=F DoIter=F DoCFld=F I1PDM=0
 Calling FoFJK, ICntrl=    100127 FMM=F ISym2X=0 I1Cent= 0 IOpClX= 1 NMat=1 NMatS=1 NMatT=0.
 -------------------------------------------------------------------
 Center     Atomic                   Forces (Hartrees/Bohr)
 Number     Number              X              Y              Z
 -------------------------------------------------------------------
      1        6          -0.045911760    0.016280307   -0.019547820
      2        6           0.020614739   -0.011661251    0.010912469
      3        1           0.001533669    0.000267144    0.000334759
      4        6           0.001553294    0.006542916   -0.003046962
      5        1           0.000929668   -0.000969780    0.000721373
      6        6          -0.001156664    0.000580749   -0.000569373
      7        6          -0.004386696   -0.004192019    0.001140924
      8        1           0.001510735    0.000033023    0.000335808
      9        6           0.024672604   -0.008633149    0.010480011
     10        1           0.000122575    0.001772908   -0.000872701
     11        6           0.000544630   -0.000012804    0.000125858
     12        7          -0.000026794   -0.000008043   -0.000014347
 -------------------------------------------------------------------
 Cartesian Forces:  Max     0.045911760 RMS     0.010972570
 FormGI is forming the generalized inverse of G from B-inverse, IUseBI=4.

 GradGradGradGradGradGradGradGradGradGradGradGradGradGradGradGradGradGrad
 Berny optimization.
 Internal  Forces:  Max     0.029089015 RMS     0.006703593
 Search for a local minimum.
 Step number   1 out of a maximum of   60
 All quantities printed in internal units (Hartrees-Bohrs-Radians)
 Mixed Optimization -- RFO/linear search
 Second derivative matrix not updated -- analytic derivatives used.
 ITU=  0
     Eigenvalues ---    0.01725   0.01813   0.02028   0.02482   0.02687
     Eigenvalues ---    0.02826   0.03058   0.03269   0.06676   0.08394
     Eigenvalues ---    0.10826   0.11111   0.11591   0.12330   0.15540
     Eigenvalues ---    0.17711   0.18839   0.20420   0.25391   0.35440
     Eigenvalues ---    0.36025   0.36404   0.36673   0.36894   0.40626
     Eigenvalues ---    0.42081   0.46009   0.47767   0.51696   1.29763
 RFO step:  Lambda=-9.17128025D-03 EMin= 1.72492416D-02
 Linear search not attempted -- first point.
 Iteration  1 RMS(Cart)=  0.02785053 RMS(Int)=  0.00121524
 Iteration  2 RMS(Cart)=  0.00175391 RMS(Int)=  0.00042190
 Iteration  3 RMS(Cart)=  0.00000067 RMS(Int)=  0.00042190
 Variable       Old X    -DE/DX   Delta X   Delta X   Delta X     New X
                                 (Linear)    (Quad)   (Total)
    R1        2.64541  -0.01890   0.00000  -0.05108  -0.05046   2.59495
    R2        2.64741  -0.01863   0.00000  -0.05304  -0.05243   2.59498
    R3        2.05163  -0.00006   0.00000  -0.00397  -0.00397   2.04766
    R4        2.62266   0.00115   0.00000   0.00923   0.00924   2.63190
    R5        2.04670  -0.00017   0.00000   0.00077   0.00077   2.04747
    R6        2.63946   0.00317   0.00000   0.00439   0.00379   2.64325
    R7        2.64071   0.00262   0.00000   0.00317   0.00255   2.64326
    R8        2.71509  -0.00050   0.00000  -0.00113  -0.00113   2.71397
    R9        2.04688  -0.00021   0.00000   0.00056   0.00056   2.04744
   R10        2.62133   0.00072   0.00000   0.01042   0.01041   2.63174
   R11        2.04826   0.00118   0.00000  -0.00056  -0.00056   2.04771
   R12        2.17418   0.00003   0.00000   0.00013   0.00013   2.17431
    A1        2.06590   0.02909   0.00000   0.12778   0.12939   2.19529
    A2        2.11166   0.00587   0.00000   0.02485   0.02458   2.13624
    A3        2.11768  -0.01500   0.00000  -0.07580  -0.07526   2.04241
    A4        2.05384   0.00913   0.00000   0.05096   0.05069   2.10453
    A5        2.11100  -0.00152   0.00000  -0.00606  -0.00572   2.10528
    A6        2.07813  -0.00006   0.00000   0.00540   0.00472   2.08284
    A7        2.09406   0.00158   0.00000   0.00066   0.00100   2.09506
    A8        2.10900   0.00077   0.00000   0.01280   0.01150   2.12050
    A9        2.08647  -0.00015   0.00000  -0.00558  -0.00494   2.08153
   A10        2.08772  -0.00062   0.00000  -0.00721  -0.00657   2.08115
   A11        2.09293   0.00170   0.00000   0.00150   0.00185   2.09478
   A12        2.07837  -0.00026   0.00000   0.00497   0.00427   2.08264
   A13        2.11189  -0.00144   0.00000  -0.00648  -0.00612   2.10576
   A14        2.11730  -0.01454   0.00000  -0.07514  -0.07462   2.04268
   A15        2.08354   0.00889   0.00000   0.04914   0.04888   2.13242
   A16        2.08235   0.00564   0.00000   0.02600   0.02574   2.10809
   A17        3.14130  -0.00003   0.00000   0.00022   0.00022   3.14152
   A18        3.14135   0.00000   0.00000  -0.00002  -0.00002   3.14133
    D1        3.13824   0.00006   0.00000   0.00262   0.00265   3.14088
    D2       -0.00174   0.00003   0.00000   0.00122   0.00124  -0.00050
    D3        0.00194  -0.00003   0.00000  -0.00149  -0.00151   0.00044
    D4       -3.14001  -0.00001   0.00000  -0.00107  -0.00110  -3.14112
    D5        3.14142  -0.00001   0.00000   0.00006   0.00009   3.14150
    D6        0.00052  -0.00002   0.00000  -0.00030  -0.00025   0.00027
    D7        0.00139  -0.00004   0.00000  -0.00128  -0.00127   0.00011
    D8       -3.13951  -0.00005   0.00000  -0.00164  -0.00161  -3.14112
    D9        0.00056  -0.00002   0.00000  -0.00059  -0.00057  -0.00001
   D10       -3.14115   0.00000   0.00000  -0.00009  -0.00010  -3.14125
   D11       -3.14034  -0.00003   0.00000  -0.00094  -0.00091  -3.14125
   D12        0.00113  -0.00001   0.00000  -0.00044  -0.00043   0.00070
   D13        3.14101   0.00002   0.00000   0.00063   0.00059  -3.14158
   D14       -0.00037   0.00001   0.00000   0.00034   0.00031  -0.00006
   D15       -0.00046   0.00000   0.00000   0.00013   0.00012  -0.00034
   D16        3.14134  -0.00001   0.00000  -0.00016  -0.00016   3.14118
   D17       -0.00091   0.00004   0.00000   0.00083   0.00077  -0.00014
   D18        3.14105   0.00001   0.00000   0.00040   0.00037   3.14142
   D19        3.14090   0.00003   0.00000   0.00053   0.00049   3.14138
   D20       -0.00034   0.00000   0.00000   0.00010   0.00009  -0.00025
         Item               Value     Threshold  Converged?
 Maximum Force            0.029089     0.000015     NO 
 RMS     Force            0.006704     0.000010     NO 
 Maximum Displacement     0.143911     0.000060     NO 
 RMS     Displacement     0.027714     0.000040     NO 
 Predicted change in Energy=-4.769310D-03
 GradGradGradGradGradGradGradGradGradGradGradGradGradGradGradGradGradGrad

                          Input orientation:                          
 ---------------------------------------------------------------------
 Center     Atomic      Atomic             Coordinates (Angstroms)
 Number     Number       Type             X           Y           Z
 ---------------------------------------------------------------------
      1          6           0        6.196369    7.054058    5.154388
      2          6           0        5.101922    6.241384    5.319895
      3          1           0        5.158982    5.287631    5.831007
      4          6           0        3.892789    6.694221    4.797720
      5          1           0        2.992301    6.099626    4.895144
      6          6           0        3.848909    7.929159    4.142358
      7          6           0        4.992746    8.721345    3.998857
      8          1           0        4.931502    9.674172    3.486750
      9          6           0        6.203550    8.271816    4.519793
     10          1           0        7.104245    8.866256    4.421940
     11          6           0        2.601135    8.394743    3.604892
     12          7           0        1.601382    8.767790    3.174542
 ---------------------------------------------------------------------
                    Distance matrix (angstroms):
                    1          2          3          4          5
     1  C    0.000000
     2  C    1.373188   0.000000
     3  H    2.157371   1.083576   0.000000
     4  C    2.358638   1.392742   2.156251   0.000000
     5  H    3.353238   2.156620   2.495933   1.083474   0.000000
     6  C    2.701957   2.409402   3.397866   1.398748   2.155842
     7  C    2.358772   2.811986   3.895484   2.440761   3.417385
     8  H    3.353491   3.895317   4.978858   3.417261   4.303656
     9  C    1.373206   2.444667   3.422829   2.811701   3.895050
    10  H    2.155174   3.421340   4.309996   3.895175   4.978579
    11  C    4.138126   3.719157   4.599165   2.446014   2.661827
    12  N    5.288721   4.820689   5.641350   3.490694   3.466154
                    6          7          8          9         10
     6  C    0.000000
     7  C    1.398754   0.000000
     8  H    2.155667   1.083459   0.000000
     9  C    2.409191   1.392659   2.156824   0.000000
    10  H    3.399048   2.158339   2.499624   1.083599   0.000000
    11  C    1.436169   2.445747   2.661110   3.718810   4.600858
    12  N    2.586764   3.490415   3.465357   4.820336   5.643332
                   11         12
    11  C    0.000000
    12  N    1.150596   0.000000
 Symmetry turned off by external request.
 Stoichiometry    C7H4N(2)
 Framework group  C1[X(C7H4N)]
 Deg. of freedom    30
 Full point group                 C1      NOp   1
 Rotational constants (GHZ):           5.5969034           1.6332758           1.2643237
 Standard basis: 6-311+G(d,p) (5D, 7F)
   200 basis functions,   320 primitive gaussians,   208 cartesian basis functions
    27 alpha electrons       26 beta electrons
       nuclear repulsion energy       290.6011462872 Hartrees.
 NAtoms=   12 NActive=   12 NUniq=   12 SFac= 1.00D+00 NAtFMM=   60 NAOKFM=F Big=F
 Integral buffers will be    131072 words long.
 Raffenetti 2 integral format.
 Two-electron integral symmetry is turned off.
 ------------------------------------------------------------------------------
 Polarizable Continuum Model (PCM)
 =================================
 Model                : PCM.
 Atomic radii         : SMD-Coulomb.
 Polarization charges : Total charges.
 Charge compensation  : None.
 Solution method      : Matrix inversion.
 Cavity type          : VdW (van der Waals Surface) (Alpha=1.000).
 Cavity algorithm     : GePol (No added spheres)
                        Default sphere list used, NSphG=   12.
                        Lebedev-Laikov grids with approx.  5.0 points / Ang**2.
                        Smoothing algorithm: York/Karplus (Gamma=1.0000).
                        Polarization charges: spherical gaussians, with
                                              point-specific exponents (IZeta= 3).
                        Self-potential: point-specific (ISelfS= 7).
                        Self-field    : sphere-specific E.n sum rule (ISelfD= 2).
 1st derivatives      : Analytical E(r).r(x)/FMM algorithm (CHGder, D1EAlg=3).
                        Cavity 1st derivative terms included.
 Solvent              : TetraHydroFuran, Eps=   7.425700 Eps(inf)=   1.974025
 ------------------------------------------------------------------------------
 Spheres list:
 ISph  on   Nord     Re0    Alpha      Xe            Ye            Ze
    1   C      1    1.8500  1.000      6.196369      7.054058      5.154388
    2   C      2    1.8500  1.000      5.101922      6.241384      5.319895
    3   H      3    1.2000  1.000      5.158982      5.287631      5.831007
    4   C      4    1.8500  1.000      3.892789      6.694221      4.797720
    5   H      5    1.2000  1.000      2.992301      6.099626      4.895144
    6   C      6    1.8500  1.000      3.848909      7.929159      4.142358
    7   C      7    1.8500  1.000      4.992746      8.721345      3.998857
    8   H      8    1.2000  1.000      4.931502      9.674172      3.486750
    9   C      9    1.8500  1.000      6.203550      8.271816      4.519793
   10   H     10    1.2000  1.000      7.104245      8.866256      4.421940
   11   C     11    1.8500  1.000      2.601135      8.394743      3.604892
   12   N     12    1.8900  1.000      1.601382      8.767790      3.174542
 ------------------------------------------------------------------------------
 ------------------------------------------------------------------------------
 Atomic radii for non-electrostatic terms: SMD-CDS.
 ------------------------------------------------------------------------------
 Nuclear repulsion after PCM non-electrostatic terms =      290.6003853700 Hartrees.
 One-electron integrals computed using PRISM.
 NBasis=   200 RedAO= T EigKep=  3.39D-06  NBF=   200
 NBsUse=   200 1.00D-06 EigRej= -1.00D+00 NBFU=   200
 Initial guess from the checkpoint file:  "4-CN-ph-opt-freq-2-thf.chk"
 B after Tr=    -0.018525    0.012420   -0.012038
         Rot=    1.000000   -0.000168    0.000213    0.000460 Ang=  -0.06 deg.
 Initial guess <Sx>= 0.0000 <Sy>= 0.0000 <Sz>= 0.5000 <S**2>= 0.7649 S= 0.5074
 ExpMin= 4.38D-02 ExpMax= 6.29D+03 ExpMxC= 9.49D+02 IAcc=3 IRadAn=         5 AccDes= 0.00D+00
 Harris functional with IExCor= 1009 and IRadAn=       5 diagonalized for initial guess.
 HarFok:  IExCor= 1009 AccDes= 0.00D+00 IRadAn=         5 IDoV= 1 UseB2=F ITyADJ=14
 ICtDFT=  3500011 ScaDFX=  1.000000  1.000000  1.000000  1.000000
 FoFCou: FMM=F IPFlag=           0 FMFlag=      100000 FMFlg1=           0
         NFxFlg=           0 DoJE=T BraDBF=F KetDBF=T FulRan=T
         wScrn=  0.000000 ICntrl=       500 IOpCl=  0 I1Cent=   200000004 NGrid=           0
         NMat0=    1 NMatS0=      1 NMatT0=    0 NMatD0=    1 NMtDS0=    0 NMtDT0=    0
 Symmetry not used in FoFCou.
 Keep R1 and R2 ints in memory in canonical form, NReq=437285944.
 Requested convergence on RMS density matrix=1.00D-08 within 128 cycles.
 Requested convergence on MAX density matrix=1.00D-06.
 Requested convergence on             energy=1.00D-06.
 Level shift goal  0.100 maximum shift  0.100.
 No special actions if energy rises.
 Dynamic level shift is on during FON iterations.
 Inv3:  Mode=1 IEnd=     4465200.
 Iteration    1 A*A^-1 deviation from unit magnitude is 5.11D-15 for   1201.
 Iteration    1 A*A^-1 deviation from orthogonality  is 1.69D-15 for   1002    601.
 Iteration    1 A^-1*A deviation from unit magnitude is 4.66D-15 for   1201.
 Iteration    1 A^-1*A deviation from orthogonality  is 1.18D-15 for    895    769.
 Error on total polarization charges =  0.03262
 SCF Done:  E(UM062X) =  -323.762577253     A.U. after   16 cycles
            NFock= 16  Conv=0.83D-08     -V/T= 2.0039
 <Sx>= 0.0000 <Sy>= 0.0000 <Sz>= 0.5000 <S**2>= 0.7633 S= 0.5066
 <L.S>=  0.00000000000    
 SMD-CDS (non-electrostatic) energy       (kcal/mol) =      -0.48
 (included in total energy above)
 Annihilation of the first spin contaminant:
 S**2 before annihilation     0.7633,   after     0.7501
 D1PCM: PCM CHGder 1st derivatives, ID1Alg=3 FixD1E=F DoIter=F DoCFld=F I1PDM=0.
 Calling FoFJK, ICntrl=      2127 FMM=F ISym2X=0 I1Cent= 0 IOpClX= 1 NMat=1 NMatS=1 NMatT=0.
 -------------------------------------------------------------------
 Center     Atomic                   Forces (Hartrees/Bohr)
 Number     Number              X              Y              Z
 -------------------------------------------------------------------
      1        6          -0.001196193    0.000298389   -0.000432169
      2        6           0.000208491   -0.002085084    0.001114180
      3        1           0.000082048   -0.000110881    0.000109375
      4        6          -0.000533012    0.000104999   -0.000183695
      5        1          -0.000051300   -0.000037418    0.000004124
      6        6          -0.000395725    0.000167792   -0.000181129
      7        6          -0.000414296    0.000351693   -0.000282126
      8        1           0.000020678    0.000051321   -0.000023596
      9        6           0.002238438    0.000982391    0.000016951
     10        1          -0.000024613    0.000299817   -0.000145553
     11        6           0.000059262   -0.000020709    0.000013894
     12        7           0.000006220   -0.000002311   -0.000010255
 -------------------------------------------------------------------
 Cartesian Forces:  Max     0.002238438 RMS     0.000632260

 GradGradGradGradGradGradGradGradGradGradGradGradGradGradGradGradGradGrad
 Berny optimization.
 Using GEDIIS/GDIIS optimizer.
 FormGI is forming the generalized inverse of G from B-inverse, IUseBI=4.
 Internal  Forces:  Max     0.001532647 RMS     0.000470683
 Search for a local minimum.
 Step number   2 out of a maximum of   60
 All quantities printed in internal units (Hartrees-Bohrs-Radians)
 Mixed Optimization -- En-DIIS/RFO-DIIS
 Update second derivatives using D2CorX and points    1    2
 DE= -4.77D-03 DEPred=-4.77D-03 R= 1.00D+00
 TightC=F SS=  1.41D+00  RLast= 2.00D-01 DXNew= 5.0454D-01 6.0047D-01
 Trust test= 1.00D+00 RLast= 2.00D-01 DXMaxT set to 5.05D-01
 ITU=  1  0
 Use linear search instead of GDIIS.
     Eigenvalues ---    0.01724   0.01812   0.02026   0.02481   0.02687
     Eigenvalues ---    0.02824   0.03054   0.03267   0.06676   0.08394
     Eigenvalues ---    0.10822   0.11107   0.11589   0.12330   0.15539
     Eigenvalues ---    0.17710   0.18728   0.20011   0.25385   0.35502
     Eigenvalues ---    0.36032   0.36403   0.36673   0.36895   0.41348
     Eigenvalues ---    0.42074   0.46006   0.47774   0.52021   1.29763
 RFO step:  Lambda=-2.52738011D-05 EMin= 1.72409635D-02
 Quartic linear search produced a step of  0.04242.
 Iteration  1 RMS(Cart)=  0.00229830 RMS(Int)=  0.00001965
 Iteration  2 RMS(Cart)=  0.00000522 RMS(Int)=  0.00001920
 Iteration  3 RMS(Cart)=  0.00000000 RMS(Int)=  0.00001920
 Variable       Old X    -DE/DX   Delta X   Delta X   Delta X     New X
                                 (Linear)    (Quad)   (Total)
    R1        2.59495   0.00098  -0.00214   0.00398   0.00187   2.59682
    R2        2.59498   0.00107  -0.00222   0.00410   0.00191   2.59689
    R3        2.04766   0.00015  -0.00017   0.00021   0.00004   2.04770
    R4        2.63190   0.00082   0.00039   0.00150   0.00189   2.63379
    R5        2.04747   0.00006   0.00003   0.00022   0.00025   2.04772
    R6        2.64325   0.00084   0.00016   0.00116   0.00130   2.64455
    R7        2.64326   0.00079   0.00011   0.00112   0.00120   2.64446
    R8        2.71397  -0.00007  -0.00005  -0.00014  -0.00019   2.71378
    R9        2.04744   0.00006   0.00002   0.00021   0.00023   2.04767
   R10        2.63174   0.00077   0.00044   0.00158   0.00202   2.63376
   R11        2.04771   0.00016  -0.00002   0.00005   0.00003   2.04773
   R12        2.17431   0.00000   0.00001   0.00002   0.00003   2.17434
    A1        2.19529   0.00153   0.00549   0.00220   0.00776   2.20306
    A2        2.13624   0.00045   0.00104   0.00022   0.00125   2.13749
    A3        2.04241  -0.00108  -0.00319  -0.00209  -0.00526   2.03715
    A4        2.10453   0.00062   0.00215   0.00188   0.00402   2.10855
    A5        2.10528  -0.00004  -0.00024   0.00055   0.00033   2.10561
    A6        2.08284   0.00007   0.00020   0.00027   0.00044   2.08329
    A7        2.09506  -0.00003   0.00004  -0.00083  -0.00077   2.09429
    A8        2.12050   0.00046   0.00049   0.00149   0.00192   2.12242
    A9        2.08153  -0.00022  -0.00021  -0.00070  -0.00088   2.08065
   A10        2.08115  -0.00025  -0.00028  -0.00079  -0.00104   2.08011
   A11        2.09478  -0.00001   0.00008  -0.00070  -0.00061   2.09417
   A12        2.08264   0.00008   0.00018   0.00048   0.00062   2.08326
   A13        2.10576  -0.00006  -0.00026   0.00023  -0.00002   2.10575
   A14        2.04268  -0.00107  -0.00317  -0.00234  -0.00548   2.03719
   A15        2.13242   0.00084   0.00207   0.00261   0.00467   2.13708
   A16        2.10809   0.00023   0.00109  -0.00026   0.00082   2.10891
   A17        3.14152   0.00001   0.00001   0.00016   0.00017   3.14168
   A18        3.14133   0.00000   0.00000  -0.00008  -0.00008   3.14125
    D1        3.14088   0.00001   0.00011   0.00044   0.00055   3.14144
    D2       -0.00050   0.00000   0.00005  -0.00003   0.00002  -0.00048
    D3        0.00044   0.00000  -0.00006   0.00006   0.00000   0.00043
    D4       -3.14112   0.00000  -0.00005  -0.00018  -0.00023  -3.14135
    D5        3.14150   0.00000   0.00000   0.00010   0.00011  -3.14157
    D6        0.00027   0.00000  -0.00001   0.00000  -0.00001   0.00026
    D7        0.00011  -0.00001  -0.00005  -0.00036  -0.00042  -0.00030
    D8       -3.14112  -0.00001  -0.00007  -0.00047  -0.00053   3.14153
    D9       -0.00001   0.00000  -0.00002   0.00000  -0.00002  -0.00003
   D10       -3.14125   0.00000   0.00000   0.00014   0.00014  -3.14111
   D11       -3.14125   0.00000  -0.00004  -0.00010  -0.00014  -3.14138
   D12        0.00070   0.00000  -0.00002   0.00004   0.00002   0.00072
   D13       -3.14158   0.00000   0.00003   0.00010   0.00013  -3.14145
   D14       -0.00006   0.00000   0.00001   0.00002   0.00003  -0.00002
   D15       -0.00034   0.00000   0.00001  -0.00003  -0.00003  -0.00037
   D16        3.14118   0.00000  -0.00001  -0.00011  -0.00012   3.14106
   D17       -0.00014   0.00000   0.00003  -0.00005  -0.00002  -0.00016
   D18        3.14142   0.00001   0.00002   0.00019   0.00020  -3.14156
   D19        3.14138   0.00000   0.00002  -0.00013  -0.00011   3.14127
   D20       -0.00025   0.00000   0.00000   0.00011   0.00011  -0.00014
         Item               Value     Threshold  Converged?
 Maximum Force            0.001533     0.000015     NO 
 RMS     Force            0.000471     0.000010     NO 
 Maximum Displacement     0.006227     0.000060     NO 
 RMS     Displacement     0.002296     0.000040     NO 
 Predicted change in Energy=-2.054107D-05
 GradGradGradGradGradGradGradGradGradGradGradGradGradGradGradGradGradGrad

                          Input orientation:                          
 ---------------------------------------------------------------------
 Center     Atomic      Atomic             Coordinates (Angstroms)
 Number     Number       Type             X           Y           Z
 ---------------------------------------------------------------------
      1          6           0        6.193191    7.054748    5.153159
      2          6           0        5.100859    6.238089    5.321215
      3          1           0        5.160420    5.284920    5.833176
      4          6           0        3.891846    6.693044    4.797932
      5          1           0        2.990175    6.099849    4.894438
      6          6           0        3.849471    7.928786    4.142521
      7          6           0        4.993212    8.722128    3.998464
      8          1           0        4.930446    9.674896    3.486176
      9          6           0        6.205833    8.273906    4.519156
     10          1           0        7.106152    8.868922    4.421186
     11          6           0        2.601909    8.394692    3.605104
     12          7           0        1.602317    8.768221    3.174760
 ---------------------------------------------------------------------
                    Distance matrix (angstroms):
                    1          2          3          4          5
     1  C    0.000000
     2  C    1.374178   0.000000
     3  H    2.159011   1.083597   0.000000
     4  C    2.356524   1.393744   2.159589   0.000000
     5  H    3.352325   2.157832   2.501060   1.083608   0.000000
     6  C    2.697843   2.411171   3.401018   1.399434   2.156103
     7  C    2.356571   2.816328   3.899810   2.443222   3.419250
     8  H    3.352393   3.899751   4.983291   3.419186   4.304511
     9  C    1.374215   2.451289   3.428348   2.816270   3.899721
    10  H    2.158821   3.428197   4.315629   3.899762   4.983273
    11  C    4.133912   3.720313   4.602278   2.445891   2.660722
    12  N    5.284522   4.821684   5.644524   3.490414   3.464629
                    6          7          8          9         10
     6  C    0.000000
     7  C    1.399388   0.000000
     8  H    2.155968   1.083581   0.000000
     9  C    2.411100   1.393726   2.157878   0.000000
    10  H    3.401100   2.159805   2.501507   1.083612   0.000000
    11  C    1.436070   2.445460   2.659915   3.719993   4.602074
    12  N    2.586680   3.489811   3.463449   4.821214   5.644104
                   11         12
    11  C    0.000000
    12  N    1.150610   0.000000
 Symmetry turned off by external request.
 Stoichiometry    C7H4N(2)
 Framework group  C1[X(C7H4N)]
 Deg. of freedom    30
 Full point group                 C1      NOp   1
 Rotational constants (GHZ):           5.5786872           1.6343870           1.2640566
 Standard basis: 6-311+G(d,p) (5D, 7F)
   200 basis functions,   320 primitive gaussians,   208 cartesian basis functions
    27 alpha electrons       26 beta electrons
       nuclear repulsion energy       290.4992328236 Hartrees.
 NAtoms=   12 NActive=   12 NUniq=   12 SFac= 1.00D+00 NAtFMM=   60 NAOKFM=F Big=F
 Integral buffers will be    131072 words long.
 Raffenetti 2 integral format.
 Two-electron integral symmetry is turned off.
 ------------------------------------------------------------------------------
 Polarizable Continuum Model (PCM)
 =================================
 Model                : PCM.
 Atomic radii         : SMD-Coulomb.
 Polarization charges : Total charges.
 Charge compensation  : None.
 Solution method      : Matrix inversion.
 Cavity type          : VdW (van der Waals Surface) (Alpha=1.000).
 Cavity algorithm     : GePol (No added spheres)
                        Default sphere list used, NSphG=   12.
                        Lebedev-Laikov grids with approx.  5.0 points / Ang**2.
                        Smoothing algorithm: York/Karplus (Gamma=1.0000).
                        Polarization charges: spherical gaussians, with
                                              point-specific exponents (IZeta= 3).
                        Self-potential: point-specific (ISelfS= 7).
                        Self-field    : sphere-specific E.n sum rule (ISelfD= 2).
 1st derivatives      : Analytical E(r).r(x)/FMM algorithm (CHGder, D1EAlg=3).
                        Cavity 1st derivative terms included.
 Solvent              : TetraHydroFuran, Eps=   7.425700 Eps(inf)=   1.974025
 ------------------------------------------------------------------------------
 Spheres list:
 ISph  on   Nord     Re0    Alpha      Xe            Ye            Ze
    1   C      1    1.8500  1.000      6.193191      7.054748      5.153159
    2   C      2    1.8500  1.000      5.100859      6.238089      5.321215
    3   H      3    1.2000  1.000      5.160420      5.284920      5.833176
    4   C      4    1.8500  1.000      3.891846      6.693044      4.797932
    5   H      5    1.2000  1.000      2.990175      6.099849      4.894438
    6   C      6    1.8500  1.000      3.849471      7.928786      4.142521
    7   C      7    1.8500  1.000      4.993212      8.722128      3.998464
    8   H      8    1.2000  1.000      4.930446      9.674896      3.486176
    9   C      9    1.8500  1.000      6.205833      8.273906      4.519156
   10   H     10    1.2000  1.000      7.106152      8.868922      4.421186
   11   C     11    1.8500  1.000      2.601909      8.394692      3.605104
   12   N     12    1.8900  1.000      1.602317      8.768221      3.174760
 ------------------------------------------------------------------------------
 ------------------------------------------------------------------------------
 Atomic radii for non-electrostatic terms: SMD-CDS.
 ------------------------------------------------------------------------------
 Nuclear repulsion after PCM non-electrostatic terms =      290.4984777294 Hartrees.
 One-electron integrals computed using PRISM.
 NBasis=   200 RedAO= T EigKep=  3.42D-06  NBF=   200
 NBsUse=   200 1.00D-06 EigRej= -1.00D+00 NBFU=   200
 Initial guess from the checkpoint file:  "4-CN-ph-opt-freq-2-thf.chk"
 B after Tr=    -0.001615    0.001415   -0.001197
         Rot=    1.000000   -0.000030    0.000019    0.000066 Ang=  -0.01 deg.
 Initial guess <Sx>= 0.0000 <Sy>= 0.0000 <Sz>= 0.5000 <S**2>= 0.7633 S= 0.5066
 Keep R1 and R2 ints in memory in canonical form, NReq=437285944.
 Requested convergence on RMS density matrix=1.00D-08 within 128 cycles.
 Requested convergence on MAX density matrix=1.00D-06.
 Requested convergence on             energy=1.00D-06.
 Level shift goal  0.100 maximum shift  0.100.
 No special actions if energy rises.
 Dynamic level shift is on during FON iterations.
 Inv3:  Mode=1 IEnd=     4487187.
 Iteration    1 A*A^-1 deviation from unit magnitude is 5.55D-15 for   1209.
 Iteration    1 A*A^-1 deviation from orthogonality  is 2.09D-15 for   1213   1167.
 Iteration    1 A^-1*A deviation from unit magnitude is 5.55D-15 for   1209.
 Iteration    1 A^-1*A deviation from orthogonality  is 3.37D-15 for   1221    531.
 Error on total polarization charges =  0.03263
 SCF Done:  E(UM062X) =  -323.762597901     A.U. after   11 cycles
            NFock= 11  Conv=0.95D-08     -V/T= 2.0039
 <Sx>= 0.0000 <Sy>= 0.0000 <Sz>= 0.5000 <S**2>= 0.7633 S= 0.5066
 <L.S>=  0.00000000000    
 SMD-CDS (non-electrostatic) energy       (kcal/mol) =      -0.47
 (included in total energy above)
 Annihilation of the first spin contaminant:
 S**2 before annihilation     0.7633,   after     0.7501
 D1PCM: PCM CHGder 1st derivatives, ID1Alg=3 FixD1E=F DoIter=F DoCFld=F I1PDM=0.
 Calling FoFJK, ICntrl=      2127 FMM=F ISym2X=0 I1Cent= 0 IOpClX= 1 NMat=1 NMatS=1 NMatT=0.
 -------------------------------------------------------------------
 Center     Atomic                   Forces (Hartrees/Bohr)
 Number     Number              X              Y              Z
 -------------------------------------------------------------------
      1        6          -0.000144353    0.000070530   -0.000064938
      2        6           0.000180048    0.000077208    0.000009374
      3        1           0.000001356   -0.000014092    0.000015085
      4        6          -0.000062217   -0.000036976    0.000003642
      5        1          -0.000005479    0.000001678   -0.000005435
      6        6          -0.000032730    0.000014856   -0.000018909
      7        6          -0.000006154    0.000066249   -0.000035966
      8        1          -0.000005707    0.000001069   -0.000005403
      9        6           0.000064214   -0.000195520    0.000125461
     10        1           0.000003536    0.000026521   -0.000004971
     11        6           0.000005559   -0.000005461   -0.000005934
     12        7           0.000001927   -0.000006061   -0.000012007
 -------------------------------------------------------------------
 Cartesian Forces:  Max     0.000195520 RMS     0.000062535

 GradGradGradGradGradGradGradGradGradGradGradGradGradGradGradGradGradGrad
 Berny optimization.
 Using GEDIIS/GDIIS optimizer.
 FormGI is forming the generalized inverse of G from B-inverse, IUseBI=4.
 Internal  Forces:  Max     0.000148774 RMS     0.000034801
 Search for a local minimum.
 Step number   3 out of a maximum of   60
 All quantities printed in internal units (Hartrees-Bohrs-Radians)
 Mixed Optimization -- En-DIIS/RFO-DIIS
 Swapping is turned off.
 Update second derivatives using D2CorX and points    1    2    3
 DE= -2.06D-05 DEPred=-2.05D-05 R= 1.01D+00
 TightC=F SS=  1.41D+00  RLast= 1.36D-02 DXNew= 8.4853D-01 4.0740D-02
 Trust test= 1.01D+00 RLast= 1.36D-02 DXMaxT set to 5.05D-01
 ITU=  1  1  0
     Eigenvalues ---    0.01724   0.01812   0.02026   0.02481   0.02687
     Eigenvalues ---    0.02824   0.03054   0.03266   0.06677   0.08394
     Eigenvalues ---    0.10795   0.11112   0.11577   0.12301   0.15539
     Eigenvalues ---    0.17708   0.18793   0.19457   0.25388   0.35380
     Eigenvalues ---    0.36029   0.36402   0.36673   0.36891   0.42072
     Eigenvalues ---    0.42145   0.46006   0.48097   0.51940   1.29763
 En-DIIS/RFO-DIIS/Sim-DIIS IScMMF=       -3 using points:     3    2
 RFO step:  Lambda=-1.76646302D-07.
 DidBck=F Rises=F RFO-DIIS coefs:    1.01789   -0.01789
 Iteration  1 RMS(Cart)=  0.00009155 RMS(Int)=  0.00000002
 Iteration  2 RMS(Cart)=  0.00000001 RMS(Int)=  0.00000002
 Variable       Old X    -DE/DX   Delta X   Delta X   Delta X     New X
                                 (Linear)    (Quad)   (Total)
    R1        2.59682  -0.00013   0.00003  -0.00036  -0.00032   2.59650
    R2        2.59689  -0.00015   0.00003  -0.00044  -0.00041   2.59648
    R3        2.04770   0.00002   0.00000   0.00006   0.00006   2.04776
    R4        2.63379   0.00007   0.00003   0.00013   0.00016   2.63396
    R5        2.04772   0.00000   0.00000   0.00000   0.00000   2.04773
    R6        2.64455   0.00004   0.00002   0.00011   0.00013   2.64468
    R7        2.64446   0.00004   0.00002   0.00008   0.00010   2.64456
    R8        2.71378   0.00000   0.00000  -0.00001  -0.00001   2.71377
    R9        2.04767   0.00000   0.00000   0.00000   0.00000   2.04768
   R10        2.63376   0.00007   0.00004   0.00015   0.00019   2.63395
   R11        2.04773   0.00002   0.00000   0.00006   0.00006   2.04779
   R12        2.17434   0.00000   0.00000   0.00000   0.00000   2.17434
    A1        2.20306   0.00007   0.00014   0.00015   0.00029   2.20334
    A2        2.13749   0.00000   0.00002   0.00003   0.00005   2.13754
    A3        2.03715   0.00000  -0.00009   0.00005  -0.00004   2.03711
    A4        2.10855   0.00000   0.00007  -0.00008  -0.00001   2.10854
    A5        2.10561   0.00002   0.00001   0.00013   0.00014   2.10575
    A6        2.08329  -0.00003   0.00001  -0.00013  -0.00012   2.08317
    A7        2.09429   0.00001  -0.00001   0.00000  -0.00002   2.09427
    A8        2.12242  -0.00002   0.00003  -0.00001   0.00003   2.12245
    A9        2.08065   0.00001  -0.00002   0.00000  -0.00002   2.08064
   A10        2.08011   0.00001  -0.00002   0.00001  -0.00001   2.08010
   A11        2.09417   0.00001  -0.00001   0.00000  -0.00001   2.09417
   A12        2.08326  -0.00003   0.00001  -0.00013  -0.00011   2.08315
   A13        2.10575   0.00002   0.00000   0.00012   0.00012   2.10587
   A14        2.03719   0.00001  -0.00010   0.00006  -0.00004   2.03715
   A15        2.13708   0.00002   0.00008   0.00017   0.00026   2.13734
   A16        2.10891  -0.00002   0.00001  -0.00023  -0.00022   2.10869
   A17        3.14168   0.00000   0.00000   0.00000   0.00000   3.14168
   A18        3.14125   0.00000   0.00000   0.00001   0.00001   3.14126
    D1        3.14144   0.00000   0.00001   0.00000   0.00001   3.14144
    D2       -0.00048   0.00000   0.00000   0.00002   0.00002  -0.00046
    D3        0.00043   0.00000   0.00000  -0.00003  -0.00003   0.00040
    D4       -3.14135   0.00000   0.00000   0.00000   0.00000  -3.14135
    D5       -3.14157   0.00000   0.00000  -0.00001  -0.00001  -3.14158
    D6        0.00026   0.00000   0.00000   0.00000   0.00000   0.00025
    D7       -0.00030   0.00000  -0.00001   0.00002   0.00001  -0.00029
    D8        3.14153   0.00000  -0.00001   0.00002   0.00001   3.14154
    D9       -0.00003   0.00000   0.00000  -0.00001  -0.00001  -0.00004
   D10       -3.14111   0.00000   0.00000  -0.00003  -0.00003  -3.14114
   D11       -3.14138   0.00000   0.00000   0.00000   0.00000  -3.14139
   D12        0.00072   0.00000   0.00000  -0.00002  -0.00002   0.00070
   D13       -3.14145   0.00000   0.00000  -0.00001  -0.00001  -3.14146
   D14       -0.00002   0.00000   0.00000   0.00000   0.00000  -0.00002
   D15       -0.00037   0.00000   0.00000   0.00000   0.00000  -0.00036
   D16        3.14106   0.00000   0.00000   0.00002   0.00002   3.14108
   D17       -0.00016   0.00000   0.00000   0.00002   0.00002  -0.00014
   D18       -3.14156   0.00000   0.00000  -0.00002  -0.00001  -3.14158
   D19        3.14127   0.00000   0.00000   0.00003   0.00003   3.14130
   D20       -0.00014   0.00000   0.00000   0.00000   0.00000  -0.00014
         Item               Value     Threshold  Converged?
 Maximum Force            0.000149     0.000015     NO 
 RMS     Force            0.000035     0.000010     NO 
 Maximum Displacement     0.000335     0.000060     NO 
 RMS     Displacement     0.000092     0.000040     NO 
 Predicted change in Energy=-8.832327D-08
 GradGradGradGradGradGradGradGradGradGradGradGradGradGradGradGradGradGrad

                          Input orientation:                          
 ---------------------------------------------------------------------
 Center     Atomic      Atomic             Coordinates (Angstroms)
 Number     Number       Type             X           Y           Z
 ---------------------------------------------------------------------
      1          6           0        6.193032    7.054790    5.153080
      2          6           0        5.100939    6.238116    5.321219
      3          1           0        5.160597    5.284925    5.833196
      4          6           0        3.891788    6.692996    4.797959
      5          1           0        2.990090    6.099835    4.894446
      6          6           0        3.849448    7.928803    4.142524
      7          6           0        4.993232    8.722174    3.998460
      8          1           0        4.930461    9.674940    3.486161
      9          6           0        6.205871    8.273786    4.519235
     10          1           0        7.106158    8.868893    4.421195
     11          6           0        2.601901    8.394710    3.605090
     12          7           0        1.602316    8.768234    3.174723
 ---------------------------------------------------------------------
                    Distance matrix (angstroms):
                    1          2          3          4          5
     1  C    0.000000
     2  C    1.374006   0.000000
     3  H    2.158912   1.083629   0.000000
     4  C    2.356422   1.393830   2.159689   0.000000
     5  H    3.352263   2.157995   2.501286   1.083610   0.000000
     6  C    2.697685   2.411218   3.401113   1.399502   2.156155
     7  C    2.356446   2.816352   3.899865   2.443346   3.419362
     8  H    3.352296   3.899777   4.983349   3.419304   4.304611
     9  C    1.374000   2.451123   3.428174   2.816303   3.899755
    10  H    2.158802   3.428109   4.315527   3.899827   4.983339
    11  C    4.133749   3.720374   4.602406   2.445930   2.660747
    12  N    5.284360   4.821753   5.644669   3.490443   3.464638
                    6          7          8          9         10
     6  C    0.000000
     7  C    1.399441   0.000000
     8  H    2.156014   1.083583   0.000000
     9  C    2.411152   1.393826   2.158042   0.000000
[...]
   D12        0.00070   0.00000   0.00000   0.00000   0.00000   0.00070
   D13       -3.14146   0.00000   0.00000   0.00000   0.00000  -3.14146
   D14       -0.00002   0.00000   0.00000   0.00000   0.00000  -0.00002
   D15       -0.00036   0.00000   0.00000   0.00000   0.00000  -0.00036
   D16        3.14108   0.00000   0.00000   0.00000   0.00000   3.14108
   D17       -0.00014   0.00000   0.00000   0.00000   0.00000  -0.00014
   D18       -3.14158   0.00000   0.00000   0.00000   0.00000  -3.14158
   D19        3.14130   0.00000   0.00000   0.00000   0.00000   3.14130
   D20       -0.00014   0.00000   0.00000   0.00000   0.00000  -0.00013
         Item               Value     Threshold  Converged?
 Maximum Force            0.000015     0.000015     YES
 RMS     Force            0.000003     0.000010     YES
 Maximum Displacement     0.000030     0.000060     YES
 RMS     Displacement     0.000008     0.000040     YES
 Predicted change in Energy=-4.302034D-10
 Optimization completed.
    -- Stationary point found.
                           ----------------------------
                           !   Optimized Parameters   !
                           ! (Angstroms and Degrees)  !
 --------------------------                            --------------------------
 ! Name  Definition              Value          Derivative Info.                !
 --------------------------------------------------------------------------------
 ! R1    R(1,2)                  1.374          -DE/DX =    0.0                 !
 ! R2    R(1,9)                  1.374          -DE/DX =    0.0                 !
 ! R3    R(2,3)                  1.0836         -DE/DX =    0.0                 !
 ! R4    R(2,4)                  1.3938         -DE/DX =    0.0                 !
 ! R5    R(4,5)                  1.0836         -DE/DX =    0.0                 !
 ! R6    R(4,6)                  1.3995         -DE/DX =    0.0                 !
 ! R7    R(6,7)                  1.3994         -DE/DX =    0.0                 !
 ! R8    R(6,11)                 1.4361         -DE/DX =    0.0                 !
 ! R9    R(7,8)                  1.0836         -DE/DX =    0.0                 !
 ! R10   R(7,9)                  1.3938         -DE/DX =    0.0                 !
 ! R11   R(9,10)                 1.0836         -DE/DX =    0.0                 !
 ! R12   R(11,12)                1.1506         -DE/DX =    0.0                 !
 ! A1    A(2,1,9)              126.2422         -DE/DX =    0.0                 !
 ! A2    A(1,2,3)              122.4719         -DE/DX =    0.0                 !
 ! A3    A(1,2,4)              116.7178         -DE/DX =    0.0                 !
 ! A4    A(3,2,4)              120.8103         -DE/DX =    0.0                 !
 ! A5    A(2,4,5)              120.6505         -DE/DX =    0.0                 !
 ! A6    A(2,4,6)              119.3566         -DE/DX =    0.0                 !
 ! A7    A(5,4,6)              119.9929         -DE/DX =    0.0                 !
 ! A8    A(4,6,7)              121.6073         -DE/DX =    0.0                 !
 ! A9    A(4,6,11)             119.2117         -DE/DX =    0.0                 !
 ! A10   A(7,6,11)             119.181          -DE/DX =    0.0                 !
 ! A11   A(6,7,8)              119.9868         -DE/DX =    0.0                 !
 ! A12   A(6,7,9)              119.3557         -DE/DX =    0.0                 !
 ! A13   A(8,7,9)              120.6574         -DE/DX =    0.0                 !
 ! A14   A(1,9,7)              116.7203         -DE/DX =    0.0                 !
 ! A15   A(1,9,10)             122.4606         -DE/DX =    0.0                 !
 ! A16   A(7,9,10)             120.8191         -DE/DX =    0.0                 !
 ! A17   L(6,11,12,5,-1)       180.0052         -DE/DX =    0.0                 !
 ! A18   L(6,11,12,5,-2)       179.9808         -DE/DX =    0.0                 !
 ! D1    D(9,1,2,3)            179.9915         -DE/DX =    0.0                 !
 ! D2    D(9,1,2,4)             -0.0262         -DE/DX =    0.0                 !
 ! D3    D(2,1,9,7)              0.023          -DE/DX =    0.0                 !
 ! D4    D(2,1,9,10)          -179.9862         -DE/DX =    0.0                 !
 ! D5    D(1,2,4,5)           -179.9994         -DE/DX =    0.0                 !
 ! D6    D(1,2,4,6)              0.0146         -DE/DX =    0.0                 !
 ! D7    D(3,2,4,5)             -0.0168         -DE/DX =    0.0                 !
 ! D8    D(3,2,4,6)            179.9971         -DE/DX =    0.0                 !
 ! D9    D(2,4,6,7)             -0.0022         -DE/DX =    0.0                 !
 ! D10   D(2,4,6,11)          -179.9739         -DE/DX =    0.0                 !
 ! D11   D(5,4,6,7)           -179.9883         -DE/DX =    0.0                 !
 ! D12   D(5,4,6,11)             0.04           -DE/DX =    0.0                 !
 ! D13   D(4,6,7,8)           -179.9926         -DE/DX =    0.0                 !
 ! D14   D(4,6,7,9)             -0.0012         -DE/DX =    0.0                 !
 ! D15   D(11,6,7,8)            -0.0209         -DE/DX =    0.0                 !
 ! D16   D(11,6,7,9)           179.9706         -DE/DX =    0.0                 !
 ! D17   D(6,7,9,1)             -0.0082         -DE/DX =    0.0                 !
 ! D18   D(6,7,9,10)          -179.9991         -DE/DX =    0.0                 !
 ! D19   D(8,7,9,1)            179.9832         -DE/DX =    0.0                 !
 ! D20   D(8,7,9,10)            -0.0078         -DE/DX =    0.0                 !
 --------------------------------------------------------------------------------
 GradGradGradGradGradGradGradGradGradGradGradGradGradGradGradGradGradGrad


 ----------------------------------------------------------------------

 Electric dipole moment (input orientation):
 (Debye = 10**-18 statcoulomb cm , SI units = C m)
                  (au)            (Debye)         (10**-30 SI)
   Tot        0.185843D+01      0.472366D+01      0.157564D+02
   x          0.161452D+01      0.410371D+01      0.136885D+02
   y         -0.602835D+00     -0.153225D+01     -0.511105D+01
   z          0.695465D+00      0.176770D+01      0.589640D+01

 Dipole polarizability, Alpha (input orientation).
 (esu units = cm**3 , SI units = C**2 m**2 J**-1)
 Alpha(0;0):
               (au)            (10**-24 esu)      (10**-40 SI)
   iso        0.106218D+03      0.157399D+02      0.175130D+02
   aniso      0.803804D+02      0.119112D+02      0.132529D+02
   xx         0.138077D+03      0.204609D+02      0.227659D+02
   yx        -0.575445D+01     -0.852722D+00     -0.948781D+00
   yy         0.104461D+03      0.154796D+02      0.172233D+02
   zx         0.220498D+02      0.326745D+01      0.363552D+01
   zy        -0.259280D+02     -0.384213D+01     -0.427495D+01
   zz         0.761164D+02      0.112793D+02      0.125499D+02

 ----------------------------------------------------------------------

 Dipole orientation:
     6         -0.45036295         17.86952284          9.48681417
     6         -1.97319379         16.12426077          8.31342728
     1         -3.13226982         14.79786467          9.35771983
     6         -1.96791532         16.12872381          5.67947940
     1         -3.12430745         14.80335855          4.63098353
     6         -0.44905093         17.86706761          4.38892903
     6          1.06925901         19.60645594          5.67848795
     1          2.22604662         20.93070618          4.62911710
     6          1.07354589         19.61315005          8.31242533
     1          2.23204074         20.94041159          9.35631335
     6         -0.44894009         17.86720474          1.67516183
     7         -0.44916718         17.86785071         -0.49917789

 Electric dipole moment (dipole orientation):
 (Debye = 10**-18 statcoulomb cm , SI units = C m)
                  (au)            (Debye)         (10**-30 SI)
   Tot        0.185843D+01      0.472366D+01      0.157564D+02
   x          0.000000D+00      0.000000D+00      0.000000D+00
   y          0.000000D+00      0.000000D+00      0.000000D+00
   z          0.185843D+01      0.472366D+01      0.157564D+02

 Dipole polarizability, Alpha (dipole orientation).
 (esu units = cm**3 , SI units = C**2 m**2 J**-1)
 Alpha(0;0):
               (au)            (10**-24 esu)      (10**-40 SI)
   iso        0.106218D+03      0.157399D+02      0.175130D+02
   aniso      0.803804D+02      0.119112D+02      0.132529D+02
   xx         0.808033D+02      0.119738D+02      0.133227D+02
   yx         0.268296D+02      0.397573D+01      0.442360D+01
   yy         0.881135D+02      0.130571D+02      0.145279D+02
   zx        -0.221901D-01     -0.328824D-02     -0.365866D-02
   zy        -0.114992D-01     -0.170400D-02     -0.189596D-02
   zz         0.149738D+03      0.221889D+02      0.246885D+02

 ----------------------------------------------------------------------
 Unable to Open any file for archive entry.
 1\1\GINC-CN015\Freq\UM062X\6-311+G(d,p)\C7H4N1(2)\TAHMINAAFROZ\11-May-
 2025\0\\#N Geom=AllCheck Guess=TCheck SCRF=Check GenChk UM062X/6-311+G
 (d,p) Freq\\4-CN-ph-opt-freq-2-thf\\0,2\C,6.1930316296,7.0547897862,5.
 1530795361\C,5.1009389338,6.2381158471,5.3212187083\H,5.1605974065,5.2
 84925243,5.8331960029\C,3.8917883232,6.6929961499,4.7979589674\H,2.990
 0898264,6.0998351512,4.8944456589\C,3.8494482819,7.9288026515,4.142523
 6495\C,4.9932324228,8.7221744007,3.998460081\H,4.9304605732,9.67493979
 01,3.4861608362\C,6.2058707293,8.2737859397,4.5192354677\H,7.106158250
 7,8.8688927013,4.4211951129\C,2.6019005023,8.3947095571,3.6050904726\N
 ,1.6023161202,8.7682337822,3.1747225066\\Version=AS64L-G16RevC.01\HF=-
 323.762598\S2=0.763326\S2-1=0.\S2A=0.750077\RMSD=3.120e-09\RMSF=5.500e
 -06\ZeroPoint=0.0866822\Thermal=0.0927198\ETot=-323.6698782\HTot=-323.
 668934\GTot=-323.7067358\Dipole=1.6145238,-0.6028348,0.6954649\DipoleD
 eriv=-0.0116195,0.116153,-0.0436582,0.1150874,0.1362053,-0.08468,-0.04
 49515,-0.083961,-0.0459452,-0.3558068,-0.0929633,-0.005464,0.0058673,-
 0.0355349,-0.048019,-0.0555609,-0.0723046,-0.1035685,0.135805,-0.00529
 92,-0.0125976,0.0040812,0.0625863,0.0726212,-0.0179148,0.0710258,0.160
 2477,0.0884565,0.0346313,0.0303904,-0.1922767,0.0347562,-0.1292182,0.1
 499236,-0.0748556,-0.0502312,0.0353404,-0.0565083,-0.0052749,-0.035349
 1,0.1061296,0.0331206,-0.0171807,0.0274258,0.1665381,-0.170463,0.09022
 36,-0.0951738,0.0891673,0.0249248,0.0274045,-0.0953489,0.0282777,0.000
 844,0.1908489,-0.1191767,0.1361525,0.1120948,-0.0367254,-0.0199969,0.0
 164299,-0.0753209,-0.0820903,0.1118442,0.0194283,-0.0272954,-0.0006048
 ,0.0529176,0.0680123,-0.0171039,0.0738933,0.1426076,-0.1011653,0.19159
 64,-0.0945915,0.0941382,-0.2093955,0.0645768,-0.0413638,0.0884974,-0.1
 851451,0.0614447,-0.0503796,-0.0062332,-0.060408,0.1135987,0.0318319,-
 0.0025223,0.0334954,0.1830109,0.8136967,-0.2771832,0.293338,-0.2821339
 ,0.2085,-0.0754894,0.2943924,-0.0753002,0.2962525,-0.7983818,0.1494779
 ,-0.1695923,0.1503363,-0.4579627,0.0598362,-0.168799,0.0591269,-0.4825
 206\Polar=138.0772952,-5.7544523,104.4612625,22.0498152,-25.9280008,76
 .1164358\Quadrupole=14.1642376,-18.6274498,4.4632123,25.1913543,14.243
 9435,3.824525\PG=C01 [X(C7H4N1)]\NImag=0\\0.40471907,0.15012245,0.5219
 5582,-0.00006134,-0.19859236,0.17793003,-0.25493933,-0.10887079,0.0087
 0204,0.59978041,-0.14271236,-0.18904458,0.03784421,0.06024985,0.627577
 00,0.02639210,0.04588924,-0.06967125,0.08102986,-0.24795677,0.27476365
 ,0.00439356,-0.02060249,0.01206493,-0.05300314,0.01021102,-0.00937610,
 0.05318985,-0.00123661,-0.01229699,0.00555389,0.01537437,-0.27537669,0
 .12851738,-0.01134755,0.28825653,0.00195485,0.00094912,-0.00112444,-0.
 01206662,0.12735896,-0.10558518,0.01290615,-0.14070498,0.10050100,-0.0
 6610520,-0.04758658,0.00616778,-0.27567266,0.09275721,-0.09918443,0.00
 260417,-0.00175291,0.00016152,0.70658573,0.00994411,0.05737296,-0.0208
 2960,0.01860711,-0.13382782,0.04207799,0.02472090,-0.00335011,0.010533
 74,0.09185235,0.56866981,-0.02391733,-0.03432844,0.02536387,-0.0604496
 9,0.05950387,-0.10769850,-0.01364368,0.00431022,0.00020857,0.08794188,
 -0.20540365,0.26129644,-0.00406032,0.00073241,-0.00303559,-0.01520601,
 -0.01457631,0.00270141,0.00098197,0.00036748,0.00107963,-0.25887397,-0
 .13594549,0.01883624,0.26866336,0.00211469,0.00202848,0.00315034,0.010
 97725,0.00939023,0.00056719,-0.00025697,-0.00043821,-0.00210639,-0.133
 81693,-0.14172899,0.02186139,0.14314877,0.14404848,-0.00372386,0.00284
 231,0.00474520,-0.01062422,-0.00545746,0.00587454,0.00139554,-0.001966
 55,-0.00300437,0.01776360,0.02143471,-0.04553018,-0.01708336,-0.027771
 29,0.03594130,-0.02004649,-0.02911746,0.01200777,0.02464014,0.02702757
 ,-0.00977447,-0.00347278,0.00080239,-0.00293341,-0.11686889,0.01676528
 ,-0.02189693,0.00548350,-0.02218623,0.01201178,0.65434517,-0.02913742,
 -0.05884098,0.02039095,0.07746018,-0.00336591,0.02334527,0.00078465,0.
 00284313,0.00242942,-0.03847111,-0.26590658,0.09748026,0.00419870,-0.0
 0951215,0.00786958,0.04414331,0.55842654,0.01203129,0.02035809,-0.0144
 9401,-0.03613282,0.01146175,-0.00818435,-0.00291207,0.00243678,0.00517
 183,0.00697138,0.11062957,-0.11784787,-0.00175831,0.00161587,0.0023500
 9,0.09883921,-0.20919014,0.26960010,0.03691808,0.08555952,-0.03906335,
 -0.07577322,-0.00948650,-0.01215736,-0.00123861,-0.00052367,0.00005123
 ,0.04092743,-0.06744083,0.04359413,0.00137241,0.00124533,-0.00183847,-
 0.23958858,-0.07326329,-0.00382303,0.62979372,0.02812164,-0.01328844,0
 .02044877,-0.01377358,0.00049116,-0.00527296,0.00010592,0.00020246,-0.
 00025481,-0.01923196,-0.03372385,0.01602028,0.00032701,-0.00221260,0.0
 0454742,-0.12846614,-0.18191972,0.03217829,0.03590272,0.62106817,-0.00
 904175,0.03402950,-0.00684414,-0.00990996,-0.00429495,-0.00345068,-0.0
 0027285,-0.00040580,-0.00019232,0.01835893,0.00463617,0.00759006,-0.00
 135767,0.00475431,0.00354580,0.02505219,0.04526543,-0.07963416,0.09880
 927,-0.24555615,0.28597077,-0.00365402,0.00239718,-0.00379215,-0.00047
 893,-0.00058732,0.00047669,0.00009282,0.00013531,0.00015449,-0.0037614
 3,-0.00251522,-0.00108285,0.00035092,-0.00116686,0.00057756,0.00449738
 ,-0.02286128,0.01214252,-0.05721013,0.01350537,-0.01138332,0.05675775,
 0.00105840,0.00174333,0.00305759,0.00013159,0.00031873,-0.00076094,0.0
 0010524,-0.00021831,-0.00030737,-0.00343196,0.00132696,0.00181815,0.00
 020760,-0.00031138,0.00046275,0.00347038,-0.00880271,0.00729503,0.0115
 7665,-0.27989053,0.12840768,-0.01170088,0.28924083,-0.00310646,0.00336
 525,0.00462133,0.00010466,-0.00092423,-0.00068482,0.00016772,-0.000300
 43,-0.00065645,-0.00059945,0.00203156,0.00514641,-0.00013834,0.0001356
 5,0.00037498,-0.00159486,0.00106915,0.00269940,-0.01035321,0.12891569,
 -0.10887948,0.01347104,-0.14023197,0.10239121,-0.10243031,-0.03068642,
 0.00410338,0.04392764,-0.02519442,0.02251523,-0.00358299,-0.00201019,-
 0.00126095,-0.01809817,0.03288083,-0.02073653,0.00062168,0.00022400,0.
 00031112,-0.05610870,-0.03233684,0.00216706,-0.28136108,0.08847865,-0.
 09834940,0.00174521,-0.00216728,0.00020624,0.67182941,0.00310982,-0.29
 411222,0.12738919,-0.05929136,-0.03046018,0.00420202,-0.00403681,0.000
 92193,0.00183228,0.02861670,-0.03910008,0.02541868,0.00094457,-0.00043
 879,-0.00017724,0.01810820,0.05206188,-0.01959528,0.01437508,-0.129851
 88,0.03893822,0.02338587,-0.00228055,0.00961276,0.11291634,0.57853208,
 -0.01357810,0.11931182,-0.11761606,0.04032335,0.01226792,0.00750834,-0
 .00021542,0.00231657,0.00499517,-0.01843945,0.02643264,-0.02152842,-0.
 00006276,-0.00033798,-0.00102784,-0.02422995,-0.03151509,0.01705908,-0
 .05965753,0.05646243,-0.10593838,-0.01310323,0.00357847,0.00055440,0.0
 7067697,-0.21009039,0.25226442,0.00525989,-0.00058104,0.00180827,0.001
 21586,0.00148338,-0.00197669,0.00024628,0.00018808,0.00002848,-0.00005
 165,0.00036411,-0.00012108,-0.00006329,0.00002232,0.00017778,-0.001972
 43,0.00188135,-0.00314533,-0.01676574,-0.01593915,0.00302100,0.0011287
 1,0.00047403,0.00105836,-0.25427550,-0.13210717,0.01719069,0.26620822,
 -0.02001034,-0.01292621,0.00144296,-0.00051969,-0.00236725,0.00437323,
 -0.00076690,-0.00034577,-0.00015146,0.00097379,-0.00062226,0.00038089,
 -0.00000817,-0.00011133,-0.00039053,0.00189627,0.00180743,0.00322677,0
 .01051717,0.00999860,0.00020871,-0.00015185,-0.00053820,-0.00203050,-0
 .13722682,-0.13726143,0.02040276,0.14474463,0.14206254,0.01193671,0.00
 601581,-0.00140924,-0.00092081,0.00489009,0.00348692,0.00052920,0.0000
 7373,-0.00020080,-0.00045289,0.00022721,-0.00055967,0.00019181,-0.0003
 8151,-0.00061126,-0.00313015,0.00322415,0.00471427,-0.01077703,-0.0060
 3696,0.00627205,0.00137439,-0.00188759,-0.00304671,0.01986116,0.021594
 28,-0.04235239,-0.01806680,-0.02750187,0.03359696,-0.00001856,-0.00174
 447,0.00140142,0.00815798,-0.00008517,0.00011601,0.00023400,-0.0001061
 1,0.00005388,-0.00890743,0.01899521,-0.01206808,0.00069409,-0.00056775
 ,0.00129159,-0.24236619,0.05554168,-0.07172239,-0.04466110,0.00687759,
 -0.01424753,0.00065770,0.00056719,0.00079362,-0.00073596,-0.00759399,0
 .00194314,-0.00070663,0.00047665,-0.00048536,1.26318806,-0.00175368,-0
 .00325708,0.00018211,-0.00109440,-0.00366403,0.00574863,0.00116621,-0.
 00013402,0.00048273,0.03288546,-0.01172976,0.01424803,0.00078079,-0.00
 078895,-0.00161228,0.05549927,-0.10438903,0.03626996,-0.00710334,0.012
 95159,-0.00838297,-0.00058542,-0.00076081,-0.00188909,-0.00661721,0.00
 242899,0.00126582,-0.00079930,0.00051865,-0.00031891,-0.42169900,0.280
 14152,0.00141902,0.00019605,-0.00187348,0.00062451,0.00599935,0.004840
 28,-0.00061556,0.00018533,0.00002884,-0.01940015,0.01081524,-0.0093453
 5,0.00066306,-0.00180879,-0.00305174,-0.07167992,0.03630895,-0.0952352
 4,-0.00695627,-0.00512359,0.00158815,0.00140585,-0.00157143,-0.0029622
 0,0.00144342,0.00100854,0.00763624,0.00018356,-0.00001584,0.00032043,0
 .49523488,-0.19611602,0.31266104,-0.00003639,0.00037769,-0.00030316,-0
 .00264875,0.00091305,-0.00076225,-0.00044513,0.00010941,-0.00012925,-0
 .00177792,-0.00822837,0.00354392,0.00003566,0.00026238,-0.00025905,-0.
 00854213,0.01206007,-0.01265751,0.00758682,0.00409194,-0.00067892,-0.0
 0012600,-0.00029097,-0.00000931,-0.00153123,0.00157274,-0.00084772,-0.
 00022373,0.00007526,-0.00006023,-0.97553597,0.34932062,-0.40232240,0.9
 8324477,0.00037930,0.00066591,-0.00003804,0.00074947,0.00032935,-0.000
 73030,-0.00008321,-0.00006397,-0.00006126,-0.00279406,0.00261971,-0.00
 130967,-0.00017738,0.00007520,0.00021858,0.01205715,0.01759809,0.00331
 331,-0.00135885,-0.00382497,0.00239987,0.00014512,0.00017263,0.0002461
 7,0.00173937,-0.00043975,-0.00009495,0.00026876,-0.00021478,0.00010158
 ,0.34933817,-0.17131707,0.15012220,-0.36026383,0.15439965,-0.00030513,
 -0.00003639,0.00037219,-0.00068032,-0.00069274,-0.00119895,-0.00002788
 ,-0.00001613,-0.00014185,0.00071130,-0.00258558,0.00290465,-0.00003611
 ,0.00032119,0.00039346,-0.01267126,0.00332206,0.01380087,0.00217162,0.
 00367161,-0.00002767,-0.00024098,0.00013963,0.00044191,-0.00093770,-0.
 00013305,-0.00155456,-0.00015824,0.00005487,-0.00021057,-0.40231118,0.
 15012201,-0.21460697,0.41448588,-0.15416749,0.19982749\\-0.00000881,0.
 00000545,-0.00001360,0.00000983,0.00000276,-0.00000466,0.00000206,-0.0
 0000393,-0.00000530,-0.00000053,0.00000027,0.00000046,-0.00000111,0.00
 000136,0.00000237,-0.00000168,0.00000169,0.00000236,0.00000083,0.00000
 051,0.00000032,-0.00000063,0.00000124,0.00000197,0.00000198,-0.0000165
 0,0.00000343,0.00000233,-0.00000302,-0.00000640,-0.00000156,0.00000398
 ,0.00000764,-0.00000271,0.00000617,0.00001142\\\@
 The archive entry for this job was punched.


 THE RED LIGHT IS ALWAYS LONGER THAN THE GREEN LIGHT.

                     -- PETER'S THEORY OF RELATIVITY
 Job cpu time:       0 days  0 hours 33 minutes 25.8 seconds.
 Elapsed time:       0 days  0 hours  1 minutes  6.5 seconds.
 File lengths (MBytes):  RWF=    125 Int=      0 D2E=      0 Chk=     12 Scr=      1
 Normal termination of Gaussian 16 at Sun May 11 04:08:48 2025.
