/home/tahminaafroz
cn012.cluster.local
tahminaafroz
Mon May  5 07:38:36 CDT 2025
 Entering Gaussian System, Link 0=g16
 Initial command:
 /home/apps/g16/l1.exe "/tmp/2-br-phboh2-opt-freq-2/Gau-1179463.inp" -scrdir="/tmp/2-br-phboh2-opt-freq-2/"
 Entering Link 1 = /home/apps/g16/l1.exe PID=   1179464.
  
 Copyright (c) 1988-2019, Gaussian, Inc.  All Rights Reserved.
  
 This is part of the Gaussian(R) 16 program.  It is based on
 the Gaussian(R) 09 system (copyright 2009, Gaussian, Inc.),
 the Gaussian(R) 03 system (copyright 2003, Gaussian, Inc.),
 the Gaussian(R) 98 system (copyright 1998, Gaussian, Inc.),
 the Gaussian(R) 94 system (copyright 1995, Gaussian, Inc.),
 the Gaussian 92(TM) system (copyright 1992, Gaussian, Inc.),
 the Gaussian 90(TM) system (copyright 1990, Gaussian, Inc.),
 the Gaussian 88(TM) system (copyright 1988, Gaussian, Inc.),
 the Gaussian 86(TM) system (copyright 1986, Carnegie Mellon
 University), and the Gaussian 82(TM) system (copyright 1983,
 Carnegie Mellon University). Gaussian is a federally registered
 trademark of Gaussian, Inc.
  
 This software contains proprietary and confidential information,
 including trade secrets, belonging to Gaussian, Inc.
  
 This software is provided under written license and may be
 used, copied, transmitted, or stored only in accord with that
 written license.
  
 The following legend is applicable only to US Government
 contracts under FAR:
  
                    RESTRICTED RIGHTS LEGEND
  
 Use, reproduction and disclosure by the US Government is
 subject to restrictions as set forth in subparagraphs (a)
 and (c) of the Commercial Computer Software - Restricted
 Rights clause in FAR 52.227-19.
  
 Gaussian, Inc.
 340 Quinnipiac St., Bldg. 40, Wallingford CT 06492
  
  
 ---------------------------------------------------------------
 Warning -- This program may not be used in any manner that
 competes with the business of Gaussian, Inc. or will provide
 assistance to any competitor of Gaussian, Inc.  The licensee
 of this program is prohibited from giving any competitor of
 Gaussian, Inc. access to this program.  By using this program,
 the user acknowledges that Gaussian, Inc. is engaged in the
 business of creating and licensing software in the field of
 computational chemistry and represents and warrants to the
 licensee that it is not a competitor of Gaussian, Inc. and that
 it will not use this program in any manner prohibited above.
 ---------------------------------------------------------------
  

 Cite this work as:
 Gaussian 16, Revision C.01,
 M. J. Frisch, G. W. Trucks, H. B. Schlegel, G. E. Scuseria, 
 M. A. Robb, J. R. Cheeseman, G. Scalmani, V. Barone, 
 G. A. Petersson, H. Nakatsuji, X. Li, M. Caricato, A. V. Marenich, 
 J. Bloino, B. G. Janesko, R. Gomperts, B. Mennucci, H. P. Hratchian, 
 J. V. Ortiz, A. F. Izmaylov, J. L. Sonnenberg, D. Williams-Young, 
 F. Ding, F. Lipparini, F. Egidi, J. Goings, B. Peng, A. Petrone, 
 T. Henderson, D. Ranasinghe, V. G. Zakrzewski, J. Gao, N. Rega, 
 G. Zheng, W. Liang, M. Hada, M. Ehara, K. Toyota, R. Fukuda, 
 J. Hasegawa, M. Ishida, T. Nakajima, Y. Honda, O. Kitao, H. Nakai, 
 T. Vreven, K. Throssell, J. A. Montgomery, Jr., J. E. Peralta, 
 F. Ogliaro, M. J. Bearpark, J. J. Heyd, E. N. Brothers, K. N. Kudin, 
 V. N. Staroverov, T. A. Keith, R. Kobayashi, J. Normand, 
 K. Raghavachari, A. P. Rendell, J. C. Burant, S. S. Iyengar, 
 J. Tomasi, M. Cossi, J. M. Millam, M. Klene, C. Adamo, R. Cammi, 
 J. W. Ochterski, R. L. Martin, K. Morokuma, O. Farkas, 
 J. B. Foresman, and D. J. Fox, Gaussian, Inc., Wallingford CT, 2019.
 
 ******************************************
 Gaussian 16:  AS64L-G16RevC.01  3-Jul-2019
                 5-May-2025 
 ******************************************
 %mem=20GB
 %nprocshared=32
 Will use up to   32 processors via shared memory.
 %chk=2-br-phboh2-opt-freq-2.chk
 ----------------------------------------------------------------------
 # opt=(calcfc,tight) freq 6-311+g(d,p) nosymm scf=(qc,fermi,xqc) geom=
 connectivity int=ultrafine m062x
 ----------------------------------------------------------------------
 1/7=10,10=4,18=20,19=15,26=4,38=1,57=2/1,3;
 2/9=110,12=2,15=1,17=6,18=5,40=1/2;
 3/5=4,6=6,7=111,11=2,25=1,30=1,71=2,74=-55,75=-5,140=1/1,2,3;
 4//1;
 5/5=2,22=13,38=5/2;
 8/6=4,10=90,11=11/1;
 11/6=1,8=1,9=11,15=111,16=1,31=1/1,2,10;
 10/6=1,13=1,31=1/2;
 6/7=2,8=2,9=2,10=2,28=1/1;
 7/10=1,25=1,30=1/1,2,3,16;
 1/7=10,10=4,18=20,19=15,26=4/3(2);
 2/9=110,15=1/2;
 99//99;
 2/9=110,15=1/2;
 3/5=4,6=6,7=111,11=2,25=1,30=1,71=1,74=-55,75=-5/1,2,3;
 4/5=5,16=3,69=1/1;
 5/5=2,22=13,38=5/2;
 7/30=1/1,2,3,16;
 1/7=10,18=20,19=15,26=4/3(-5);
 2/9=110,15=1/2;
 6/7=2,8=2,9=2,10=2,19=2,28=1/1;
 99/9=1/99;
 ----------------------
 2-br-phboh2-opt-freq-2
 ----------------------
 Symbolic Z-matrix:
 Charge =  0 Multiplicity = 1
 O                     8.40921   7.53283   6.49502 
 H                     9.21532   7.14094   6.84483 
 C                     6.27923   7.06617   5.18017 
 B                     7.64736   6.63079   5.83185 
 O                     8.05326   5.32411   5.80451 
 H                     7.49657   4.76003   5.26359 
 C                     5.12561   6.34281   5.5157 
 H                     5.21098   5.50705   6.2041 
 C                     3.87387   6.67895   5.01473 
 H                     3.0002    6.10784   5.30388 
 C                     3.75234   7.75313   4.14127 
 C                     4.87678   8.48246   3.77218 
 H                     4.79635   9.31275   3.08271 
 C                     6.11575   8.13432   4.29643 
 H                     2.78404   8.02616   3.73912 
 Br                    7.62545   9.14559   3.72095 
 

 GradGradGradGradGradGradGradGradGradGradGradGradGradGradGradGradGradGrad
 Berny optimization.
 Initialization pass.
                           ----------------------------
                           !    Initial Parameters    !
                           ! (Angstroms and Degrees)  !
 --------------------------                            --------------------------
 ! Name  Definition              Value          Derivative Info.                !
 --------------------------------------------------------------------------------
 ! R1    R(1,2)                  0.9622         calculate D2E/DX2 analytically  !
 ! R2    R(1,4)                  1.3542         calculate D2E/DX2 analytically  !
 ! R3    R(3,4)                  1.5767         calculate D2E/DX2 analytically  !
 ! R4    R(3,7)                  1.4024         calculate D2E/DX2 analytically  !
 ! R5    R(3,14)                 1.396          calculate D2E/DX2 analytically  !
 ! R6    R(4,5)                  1.3685         calculate D2E/DX2 analytically  !
 ! R7    R(5,6)                  0.9595         calculate D2E/DX2 analytically  !
 ! R8    R(7,8)                  1.0861         calculate D2E/DX2 analytically  !
 ! R9    R(7,9)                  1.3895         calculate D2E/DX2 analytically  !
 ! R10   R(9,10)                 1.0831         calculate D2E/DX2 analytically  !
 ! R11   R(9,11)                 1.3898         calculate D2E/DX2 analytically  !
 ! R12   R(11,12)                1.3902         calculate D2E/DX2 analytically  !
 ! R13   R(11,15)                1.0835         calculate D2E/DX2 analytically  !
 ! R14   R(12,13)                1.0822         calculate D2E/DX2 analytically  !
 ! R15   R(12,14)                1.3896         calculate D2E/DX2 analytically  !
 ! R16   R(14,16)                1.9061         calculate D2E/DX2 analytically  !
 ! A1    A(2,1,4)              112.2144         calculate D2E/DX2 analytically  !
 ! A2    A(4,3,7)              118.1953         calculate D2E/DX2 analytically  !
 ! A3    A(4,3,14)             125.0693         calculate D2E/DX2 analytically  !
 ! A4    A(7,3,14)             116.7317         calculate D2E/DX2 analytically  !
 ! A5    A(1,4,3)              120.4396         calculate D2E/DX2 analytically  !
 ! A6    A(1,4,5)              118.6143         calculate D2E/DX2 analytically  !
 ! A7    A(3,4,5)              120.8473         calculate D2E/DX2 analytically  !
 ! A8    A(4,5,6)              113.6089         calculate D2E/DX2 analytically  !
 ! A9    A(3,7,8)              118.9397         calculate D2E/DX2 analytically  !
 ! A10   A(3,7,9)              122.0059         calculate D2E/DX2 analytically  !
 ! A11   A(8,7,9)              119.0424         calculate D2E/DX2 analytically  !
 ! A12   A(7,9,10)             120.1883         calculate D2E/DX2 analytically  !
 ! A13   A(7,9,11)             119.4937         calculate D2E/DX2 analytically  !
 ! A14   A(10,9,11)            120.318          calculate D2E/DX2 analytically  !
 ! A15   A(9,11,12)            120.1079         calculate D2E/DX2 analytically  !
 ! A16   A(9,11,15)            120.411          calculate D2E/DX2 analytically  !
 ! A17   A(12,11,15)           119.4805         calculate D2E/DX2 analytically  !
 ! A18   A(11,12,13)           120.7668         calculate D2E/DX2 analytically  !
 ! A19   A(11,12,14)           119.312          calculate D2E/DX2 analytically  !
 ! A20   A(13,12,14)           119.921          calculate D2E/DX2 analytically  !
 ! A21   A(3,14,12)            122.3398         calculate D2E/DX2 analytically  !
 ! A22   A(3,14,16)            120.2884         calculate D2E/DX2 analytically  !
 ! A23   A(12,14,16)           117.346          calculate D2E/DX2 analytically  !
 ! D1    D(2,1,4,3)            179.9255         calculate D2E/DX2 analytically  !
 ! D2    D(2,1,4,5)              3.5085         calculate D2E/DX2 analytically  !
 ! D3    D(7,3,4,1)           -126.2981         calculate D2E/DX2 analytically  !
 ! D4    D(7,3,4,5)             50.0382         calculate D2E/DX2 analytically  !
 ! D5    D(14,3,4,1)            52.9792         calculate D2E/DX2 analytically  !
 ! D6    D(14,3,4,5)          -130.6846         calculate D2E/DX2 analytically  !
 ! D7    D(4,3,7,8)             -0.3934         calculate D2E/DX2 analytically  !
 ! D8    D(4,3,7,9)            178.3329         calculate D2E/DX2 analytically  !
 ! D9    D(14,3,7,8)          -179.7311         calculate D2E/DX2 analytically  !
 ! D10   D(14,3,7,9)            -1.0047         calculate D2E/DX2 analytically  !
 ! D11   D(4,3,14,12)         -178.8962         calculate D2E/DX2 analytically  !
 ! D12   D(4,3,14,16)            2.9984         calculate D2E/DX2 analytically  !
 ! D13   D(7,3,14,12)            0.3906         calculate D2E/DX2 analytically  !
 ! D14   D(7,3,14,16)         -177.7149         calculate D2E/DX2 analytically  !
 ! D15   D(1,4,5,6)           -175.8196         calculate D2E/DX2 analytically  !
 ! D16   D(3,4,5,6)              7.7786         calculate D2E/DX2 analytically  !
 ! D17   D(3,7,9,10)          -179.1826         calculate D2E/DX2 analytically  !
 ! D18   D(3,7,9,11)             0.7821         calculate D2E/DX2 analytically  !
 ! D19   D(8,7,9,10)            -0.4575         calculate D2E/DX2 analytically  !
 ! D20   D(8,7,9,11)           179.5072         calculate D2E/DX2 analytically  !
 ! D21   D(7,9,11,12)            0.0897         calculate D2E/DX2 analytically  !
 ! D22   D(7,9,11,15)          179.795          calculate D2E/DX2 analytically  !
 ! D23   D(10,9,11,12)        -179.9456         calculate D2E/DX2 analytically  !
 ! D24   D(10,9,11,15)          -0.2404         calculate D2E/DX2 analytically  !
 ! D25   D(9,11,12,13)         179.1956         calculate D2E/DX2 analytically  !
 ! D26   D(9,11,12,14)          -0.6817         calculate D2E/DX2 analytically  !
 ! D27   D(15,11,12,13)         -0.5124         calculate D2E/DX2 analytically  !
 ! D28   D(15,11,12,14)        179.6104         calculate D2E/DX2 analytically  !
 ! D29   D(11,12,14,3)           0.436          calculate D2E/DX2 analytically  !
 ! D30   D(11,12,14,16)        178.5943         calculate D2E/DX2 analytically  !
 ! D31   D(13,12,14,3)        -179.4423         calculate D2E/DX2 analytically  !
 ! D32   D(13,12,14,16)         -1.284          calculate D2E/DX2 analytically  !
 --------------------------------------------------------------------------------
 Trust Radius=3.00D-01 FncErr=1.00D-07 GrdErr=1.00D-06 EigMax=2.50D+02 EigMin=1.00D-04
 Number of steps in this run=     81 maximum allowed number of steps=    100.
 GradGradGradGradGradGradGradGradGradGradGradGradGradGradGradGradGradGrad

                          Input orientation:                          
 ---------------------------------------------------------------------
 Center     Atomic      Atomic             Coordinates (Angstroms)
 Number     Number       Type             X           Y           Z
 ---------------------------------------------------------------------
      1          8           0        8.409209    7.532832    6.495018
      2          1           0        9.215316    7.140939    6.844834
      3          6           0        6.279234    7.066169    5.180173
      4          5           0        7.647355    6.630792    5.831846
      5          8           0        8.053256    5.324113    5.804513
      6          1           0        7.496568    4.760025    5.263592
      7          6           0        5.125606    6.342815    5.515703
      8          1           0        5.210975    5.507053    6.204102
      9          6           0        3.873869    6.678951    5.014729
     10          1           0        3.000202    6.107836    5.303881
     11          6           0        3.752337    7.753126    4.141274
     12          6           0        4.876775    8.482458    3.772178
     13          1           0        4.796345    9.312752    3.082709
     14          6           0        6.115754    8.134323    4.296432
     15          1           0        2.784038    8.026162    3.739122
     16         35           0        7.625453    9.145589    3.720951
 ---------------------------------------------------------------------
                    Distance matrix (angstroms):
                    1          2          3          4          5
     1  O    0.000000
     2  H    0.962164   0.000000
     3  C    2.546249   3.375983   0.000000
     4  B    1.354214   1.935173   1.576701   0.000000
     5  O    2.341354   2.394474   2.563535   1.368544   0.000000
     6  H    3.168246   3.335142   2.609054   1.960974   0.959527
     7  C    3.627292   4.373708   1.402383   2.557752   3.113246
     8  H    3.796987   4.372055   2.149523   2.708747   2.876056
     9  C    4.846615   5.665137   2.441944   3.861243   4.463924
    10  H    5.718984   6.486099   3.418444   4.706194   5.137919
    11  C    5.222557   6.126022   2.817167   4.391905   5.211945
    12  C    4.560015   5.483049   2.440331   3.917526   4.918898
    13  H    5.278708   6.196585   3.412543   4.783192   5.824511
    14  C    3.233498   4.133818   1.395950   2.638921   3.731689
    15  H    6.283382   7.196555   3.900591   5.475254   6.271488
    16  Br   3.303136   4.037936   2.874999   3.283377   4.373548
                    6          7          8          9         10
     6  H    0.000000
     7  C    2.861860   0.000000
     8  H    2.581965   1.086130   0.000000
     9  C    4.107086   1.389535   2.139113   0.000000
    10  H    4.694201   2.148820   2.461474   1.083086   0.000000
    11  C    4.923161   2.400812   3.380492   1.389801   2.150428
    12  C    4.790004   2.771258   3.857328   2.408815   3.392119
    13  H    5.724926   3.853362   4.939469   3.394197   4.293160
    14  C    3.771993   2.382544   3.370516   2.767690   3.850749
    15  H    5.932925   3.387158   4.279259   2.151716   2.484989
    16  Br   4.650755   4.162441   5.023414   4.672531   5.755568
                   11         12         13         14         15
    11  C    0.000000
    12  C    1.390150   0.000000
    13  H    2.154750   1.082231   0.000000
    14  C    2.398984   1.389644   2.145381   0.000000
    15  H    1.083456   2.142159   2.477009   3.379737   0.000000
    16  Br   4.137228   2.828002   2.905021   1.906050   4.969180
                   16
    16  Br   0.000000
 Symmetry turned off by external request.
 Stoichiometry    C6H6BBrO2
 Framework group  C1[X(C6H6BBrO2)]
 Deg. of freedom    42
 Full point group                 C1      NOp   1
 Rotational constants (GHZ):           1.0703566           0.9060743           0.5211458
 Standard basis: 6-311+G(d,p) (5D, 7F)
   282 basis functions,   466 primitive gaussians,   294 cartesian basis functions
    49 alpha electrons       49 beta electrons
       nuclear repulsion energy       726.7330165774 Hartrees.
 NAtoms=   16 NActive=   16 NUniq=   16 SFac= 1.00D+00 NAtFMM=   60 NAOKFM=F Big=F
 Integral buffers will be    131072 words long.
 Raffenetti 2 integral format.
 Two-electron integral symmetry is turned off.
 One-electron integrals computed using PRISM.
 NBasis=   282 RedAO= T EigKep=  1.55D-06  NBF=   282
 NBsUse=   282 1.00D-06 EigRej= -1.00D+00 NBFU=   282
 ExpMin= 3.15D-02 ExpMax= 4.40D+05 ExpMxC= 1.51D+04 IAcc=3 IRadAn=         5 AccDes= 0.00D+00
 Harris functional with IExCor= 1009 and IRadAn=       5 diagonalized for initial guess.
 HarFok:  IExCor= 1009 AccDes= 0.00D+00 IRadAn=         5 IDoV= 1 UseB2=F ITyADJ=14
 ICtDFT=  3500011 ScaDFX=  1.000000  1.000000  1.000000  1.000000
 FoFCou: FMM=F IPFlag=           0 FMFlag=      100000 FMFlg1=           0
         NFxFlg=           0 DoJE=T BraDBF=F KetDBF=T FulRan=T
         wScrn=  0.000000 ICntrl=       500 IOpCl=  0 I1Cent=   200000004 NGrid=           0
         NMat0=    1 NMatS0=      1 NMatT0=    0 NMatD0=    1 NMtDS0=    0 NMtDT0=    0
 Symmetry not used in FoFCou.
 Requested convergence on RMS density matrix=1.00D-08 within 128 cycles.
 Requested convergence on MAX density matrix=1.00D-06.
 Requested convergence on             energy=1.00D-06.
 Level shift goal  0.100 maximum shift  0.100.
 No special actions if energy rises.
 Dynamic level shift is on during FON iterations.
 SCF Done:  E(RM062X) =  -2981.79253278     A.U. after   15 cycles
            NFock= 15  Conv=0.56D-08     -V/T= 2.0015
 DoSCS=F DFT=T ScalE2(SS,OS)=  1.000000  1.000000
 Range of M.O.s used for correlation:     1   282
 NBasis=   282 NAE=    49 NBE=    49 NFC=     0 NFV=     0
 NROrb=    282 NOA=    49 NOB=    49 NVA=   233 NVB=   233

 **** Warning!!: The largest alpha MO coefficient is  0.17218593D+03

 Symmetrizing basis deriv contribution to polar:
 IMax=3 JMax=2 DiffMx= 0.00D+00
 G2DrvN: will do    17 centers at a time, making    1 passes.
 Calling FoFCou, ICntrl=  3107 FMM=F I1Cent=   0 AccDes= 0.00D+00.
 End of G2Drv F.D. properties file   721 does not exist.
 End of G2Drv F.D. properties file   722 does not exist.
 End of G2Drv F.D. properties file   788 does not exist.
          IDoAtm=1111111111111111
          Differentiating once with respect to nuclear coordinates.
 Keep R1 ints in memory in canonical form, NReq=832100175.
          There are    51 degrees of freedom in the 1st order CPHF.  IDoFFX=6 NUNeed=     0.
     45 vectors produced by pass  0 Test12= 2.24D-14 1.96D-09 XBig12= 1.61D-01 9.19D-02.
 AX will form    45 AO Fock derivatives at one time.
     45 vectors produced by pass  1 Test12= 2.24D-14 1.96D-09 XBig12= 1.72D-02 4.06D-02.
     45 vectors produced by pass  2 Test12= 2.24D-14 1.96D-09 XBig12= 3.53D-04 2.48D-03.
     45 vectors produced by pass  3 Test12= 2.24D-14 1.96D-09 XBig12= 3.53D-06 2.23D-04.
     45 vectors produced by pass  4 Test12= 2.24D-14 1.96D-09 XBig12= 3.31D-08 3.14D-05.
     45 vectors produced by pass  5 Test12= 2.24D-14 1.96D-09 XBig12= 1.82D-10 1.51D-06.
     43 vectors produced by pass  6 Test12= 2.24D-14 1.96D-09 XBig12= 8.20D-13 8.12D-08.
      9 vectors produced by pass  7 Test12= 2.24D-14 1.96D-09 XBig12= 3.16D-15 6.15D-09.
 InvSVY:  IOpt=1 It=  1 EMax= 4.44D-16
 Solved reduced A of dimension   322 with    51 vectors.
 End of Minotr F.D. properties file   721 does not exist.
 End of Minotr F.D. properties file   722 does not exist.
 End of Minotr F.D. properties file   788 does not exist.

 **********************************************************************

            Population analysis using the SCF Density.

 **********************************************************************

 Alpha  occ. eigenvalues -- -485.33116 -63.32308 -57.15055 -57.14800 -57.14789
 Alpha  occ. eigenvalues --  -19.64564 -19.63621 -10.61098 -10.56429 -10.56268
 Alpha  occ. eigenvalues --  -10.56186 -10.55822 -10.55038  -9.01028  -7.09559
 Alpha  occ. eigenvalues --   -6.83826  -6.82802  -6.82768  -2.86982  -2.86631
 Alpha  occ. eigenvalues --   -2.86597  -2.85689  -2.85688  -1.17578  -1.13890
 Alpha  occ. eigenvalues --   -0.98739  -0.90463  -0.86367  -0.82046  -0.71257
 Alpha  occ. eigenvalues --   -0.69103  -0.65993  -0.63405  -0.59767  -0.54913
 Alpha  occ. eigenvalues --   -0.53774  -0.51720  -0.49231  -0.48160  -0.46565
 Alpha  occ. eigenvalues --   -0.46296  -0.45888  -0.41702  -0.41083  -0.39568
 Alpha  occ. eigenvalues --   -0.37874  -0.34417  -0.32621  -0.30028
 Alpha virt. eigenvalues --   -0.00869  -0.00533   0.00031   0.01325   0.01780
 Alpha virt. eigenvalues --    0.02241   0.02833   0.03817   0.04553   0.05069
 Alpha virt. eigenvalues --    0.06150   0.06673   0.07632   0.07862   0.08759
 Alpha virt. eigenvalues --    0.09442   0.09937   0.11125   0.11572   0.11835
 Alpha virt. eigenvalues --    0.12700   0.13345   0.13864   0.14349   0.15934
 Alpha virt. eigenvalues --    0.16786   0.17170   0.17459   0.18277   0.19045
 Alpha virt. eigenvalues --    0.19782   0.20083   0.20512   0.21021   0.21584
 Alpha virt. eigenvalues --    0.22121   0.22908   0.23266   0.23929   0.24712
 Alpha virt. eigenvalues --    0.25631   0.25706   0.26866   0.27354   0.28570
 Alpha virt. eigenvalues --    0.29654   0.30100   0.30361   0.31522   0.32026
 Alpha virt. eigenvalues --    0.33830   0.34856   0.35980   0.36585   0.37639
 Alpha virt. eigenvalues --    0.38322   0.41725   0.43716   0.46113   0.46991
 Alpha virt. eigenvalues --    0.48317   0.49129   0.51654   0.53660   0.54033
 Alpha virt. eigenvalues --    0.55722   0.56021   0.57088   0.57314   0.58149
 Alpha virt. eigenvalues --    0.60065   0.61071   0.62001   0.63236   0.64881
 Alpha virt. eigenvalues --    0.65970   0.67368   0.67899   0.68616   0.70096
 Alpha virt. eigenvalues --    0.70735   0.72689   0.73705   0.74188   0.76587
 Alpha virt. eigenvalues --    0.77464   0.79678   0.80818   0.83319   0.84720
 Alpha virt. eigenvalues --    0.85440   0.85753   0.87504   0.89212   0.91676
 Alpha virt. eigenvalues --    0.92324   0.94305   0.97653   1.01014   1.01044
 Alpha virt. eigenvalues --    1.03642   1.04508   1.06640   1.07811   1.09063
 Alpha virt. eigenvalues --    1.12503   1.13785   1.14862   1.15682   1.17122
 Alpha virt. eigenvalues --    1.17742   1.20344   1.21384   1.26373   1.30298
 Alpha virt. eigenvalues --    1.31083   1.33702   1.37512   1.39459   1.44251
 Alpha virt. eigenvalues --    1.46256   1.48982   1.50542   1.52918   1.54708
 Alpha virt. eigenvalues --    1.57595   1.57959   1.60451   1.61771   1.63348
 Alpha virt. eigenvalues --    1.66044   1.68464   1.69037   1.73810   1.76622
 Alpha virt. eigenvalues --    1.78487   1.82312   1.84099   1.85351   1.88191
 Alpha virt. eigenvalues --    1.92485   1.94556   1.95501   1.98265   1.98963
 Alpha virt. eigenvalues --    1.99385   2.03356   2.05524   2.06538   2.08063
 Alpha virt. eigenvalues --    2.08809   2.13975   2.16332   2.17624   2.20698
 Alpha virt. eigenvalues --    2.30148   2.33141   2.35754   2.38098   2.40842
 Alpha virt. eigenvalues --    2.43302   2.49727   2.52627   2.54171   2.58436
 Alpha virt. eigenvalues --    2.59136   2.63287   2.67205   2.70245   2.72370
 Alpha virt. eigenvalues --    2.73953   2.76381   2.76816   2.78043   2.84255
 Alpha virt. eigenvalues --    2.84454   2.87192   2.88110   2.94582   2.97760
 Alpha virt. eigenvalues --    3.07401   3.10987   3.14024   3.16866   3.21173
 Alpha virt. eigenvalues --    3.24681   3.26494   3.29009   3.39680   3.40927
 Alpha virt. eigenvalues --    3.45351   3.52044   3.55837   3.58125   3.59420
 Alpha virt. eigenvalues --    3.65106   3.81091   3.91018   3.93667   4.01646
 Alpha virt. eigenvalues --    4.07676   4.12983   4.17478   4.31492   4.36592
 Alpha virt. eigenvalues --    4.39175   4.55124   4.72944   4.84735   5.12262
 Alpha virt. eigenvalues --    5.14278   5.31888   5.48091   5.65686   5.73869
 Alpha virt. eigenvalues --    6.93227   7.65910   7.78143   7.82896  14.80898
 Alpha virt. eigenvalues --   23.59656  23.98238  24.03676  24.13375  24.15448
 Alpha virt. eigenvalues --   24.25369  48.44739  49.99864  50.02418 290.80569
 Alpha virt. eigenvalues --  290.93647 291.013721021.02425
          Condensed to atoms (all electrons):
               1          2          3          4          5          6
     1  O    7.832894   0.267840  -0.037240   0.435234  -0.101240   0.014043
     2  H    0.267840   0.435416   0.041464  -0.002718  -0.013065   0.001863
     3  C   -0.037240   0.041464  11.676881   0.545077  -0.228251   0.056930
     4  B    0.435234  -0.002718   0.545077   3.525586   0.355039  -0.000754
     5  O   -0.101240  -0.013065  -0.228251   0.355039   7.871392   0.277151
     6  H    0.014043   0.001863   0.056930  -0.000754   0.277151   0.442003
     7  C   -0.024263   0.019832  -1.070791  -0.223627  -0.016126  -0.027597
     8  H    0.002496  -0.000077  -0.046705  -0.002936   0.003628   0.000727
     9  C    0.011491   0.001726  -0.808397   0.045788   0.041788   0.021538
    10  H    0.000014  -0.000001  -0.018670  -0.000311   0.000221  -0.000028
    11  C   -0.005068  -0.000037  -1.408812  -0.031298   0.006625  -0.004380
    12  C    0.005388  -0.007755  -0.599505   0.126384   0.045255   0.005159
    13  H    0.000003  -0.000002  -0.014356  -0.001059   0.000016   0.000000
    14  C   -0.065773  -0.029758  -1.495847  -0.120647   0.075474  -0.053091
    15  H   -0.000001   0.000000   0.008583  -0.000484  -0.000007   0.000000
    16  Br  -0.052866   0.002704   0.243804  -0.006774  -0.006647  -0.001138
               7          8          9         10         11         12
     1  O   -0.024263   0.002496   0.011491   0.000014  -0.005068   0.005388
     2  H    0.019832  -0.000077   0.001726  -0.000001  -0.000037  -0.007755
     3  C   -1.070791  -0.046705  -0.808397  -0.018670  -1.408812  -0.599505
     4  B   -0.223627  -0.002936   0.045788  -0.000311  -0.031298   0.126384
     5  O   -0.016126   0.003628   0.041788   0.000221   0.006625   0.045255
     6  H   -0.027597   0.000727   0.021538  -0.000028  -0.004380   0.005159
     7  C   10.288134   0.381561  -0.916664   0.037127   0.017491  -3.096156
     8  H    0.381561   0.498195   0.041381  -0.005768  -0.000028   0.005051
     9  C   -0.916664   0.041381   7.623343   0.304407   0.620482   0.981634
    10  H    0.037127  -0.005768   0.304407   0.496977   0.048325  -0.037111
    11  C    0.017491  -0.000028   0.620482   0.048325   6.191193   0.133604
    12  C   -3.096156   0.005051   0.981634  -0.037111   0.133604  12.018619
    13  H    0.031811   0.000050  -0.036408  -0.000140   0.044056   0.271615
    14  C    0.384568  -0.039406  -1.764092   0.019738   0.070839  -3.362589
    15  H   -0.029419  -0.000272   0.038954  -0.006638   0.344612   0.020309
    16  Br   0.211222  -0.000279  -0.004143  -0.000122   0.039046  -0.345268
              13         14         15         16
     1  O    0.000003  -0.065773  -0.000001  -0.052866
     2  H   -0.000002  -0.029758   0.000000   0.002704
     3  C   -0.014356  -1.495847   0.008583   0.243804
     4  B   -0.001059  -0.120647  -0.000484  -0.006774
     5  O    0.000016   0.075474  -0.000007  -0.006647
     6  H    0.000000  -0.053091   0.000000  -0.001138
     7  C    0.031811   0.384568  -0.029419   0.211222
     8  H    0.000050  -0.039406  -0.000272  -0.000279
     9  C   -0.036408  -1.764092   0.038954  -0.004143
    10  H   -0.000140   0.019738  -0.006638  -0.000122
    11  C    0.044056   0.070839   0.344612   0.039046
    12  C    0.271615  -3.362589   0.020309  -0.345268
    13  H    0.481245   0.055269  -0.006368  -0.005507
    14  C    0.055269  11.966851  -0.028538  -0.060680
    15  H   -0.006368  -0.028538   0.491575   0.000542
    16  Br  -0.005507  -0.060680   0.000542  35.173133
 Mulliken charges:
               1
     1  O   -0.282951
     2  H    0.282568
     3  C   -0.844166
     4  B    0.357501
     5  O   -0.311252
     6  H    0.267572
     7  C    0.032897
     8  H    0.162381
     9  C   -0.202828
    10  H    0.161982
    11  C   -0.066649
    12  C   -0.164632
    13  H    0.179774
    14  C    0.447680
    15  H    0.167151
    16  Br  -0.187028
 Sum of Mulliken charges =   0.00000
 Mulliken charges with hydrogens summed into heavy atoms:
               1
     1  O   -0.000383
     3  C   -0.844166
     4  B    0.357501
     5  O   -0.043680
     7  C    0.195278
     9  C   -0.040846
    11  C    0.100502
    12  C    0.015142
    14  C    0.447680
    16  Br  -0.187028
 APT charges:
               1
     1  O   -0.102741
     2  H    2.022269
     3  C   -1.247377
     4  B   -0.883887
     5  O    1.643239
     6  H   -1.687703
     7  C   -0.948047
     8  H    0.119241
     9  C   -0.158637
    10  H   -0.573665
    11  C   -0.360149
    12  C    0.548349
    13  H    0.949890
    14  C    0.358615
    15  H   -0.185642
    16  Br   0.506245
 Sum of APT charges =   0.00000
 APT charges with hydrogens summed into heavy atoms:
               1
     1  O    1.919529
     3  C   -1.247377
     4  B   -0.883887
     5  O   -0.044464
     7  C   -0.828806
     9  C   -0.732302
    11  C   -0.545791
    12  C    1.498239
    14  C    0.358615
    16  Br   0.506245
 Electronic spatial extent (au):  <R**2>=          46236.3667
 Charge=              0.0000 electrons
 Dipole moment (field-independent basis, Debye):
    X=             -1.7190    Y=             -2.0477    Z=             -0.0875  Tot=              2.6750
 Quadrupole moment (field-independent basis, Debye-Ang):
   XX=            -84.4880   YY=            -99.1145   ZZ=            -72.2094
   XY=            -26.0248   XZ=             -6.1191   YZ=            -13.3234
 Traceless Quadrupole moment (field-independent basis, Debye-Ang):
   XX=              0.7826   YY=            -13.8439   ZZ=             13.0613
   XY=            -26.0248   XZ=             -6.1191   YZ=            -13.3234
 Octapole moment (field-independent basis, Debye-Ang**2):
  XXX=          -1417.7674  YYY=          -1922.9161  ZZZ=          -1018.1568  XYY=           -740.2837
  XXY=           -724.0609  XXZ=           -366.3968  XZZ=           -471.7682  YZZ=           -624.6811
  YYZ=           -524.8355  XYZ=           -119.8939
 Hexadecapole moment (field-independent basis, Debye-Ang**3):
 XXXX=         -18383.5297 YYYY=         -28393.0152 ZZZZ=         -10093.9410 XXXY=         -11325.4011
 XXXZ=          -6357.1190 YYYX=         -13275.5603 YYYZ=          -9570.7564 ZZZX=          -6517.1590
 ZZZY=          -7983.8521 XXYY=          -9355.9368 XXZZ=          -4691.3843 YYZZ=          -7107.8028
 XXYZ=          -3159.0754 YYXZ=          -3653.7819 ZZXY=          -4026.0260
 N-N= 7.267330165774D+02 E-N=-8.559443902689D+03  KE= 2.977284749192D+03
  Exact polarizability:       0.000       0.000       0.000       0.000       0.000       0.000
 Approx polarizability:     155.798      14.294     129.819       3.974     -27.044     107.980
 Calling FoFJK, ICntrl=    100127 FMM=F ISym2X=0 I1Cent= 0 IOpClX= 0 NMat=1 NMatS=1 NMatT=0.
 -------------------------------------------------------------------
 Center     Atomic                   Forces (Hartrees/Bohr)
 Number     Number              X              Y              Z
 -------------------------------------------------------------------
      1        8          -0.000000936    0.000006128   -0.000001231
      2        1           0.000000653    0.000007258   -0.000000043
      3        6           0.000000485    0.000001107    0.000000139
      4        5           0.000000666    0.000003244    0.000000469
      5        8           0.000002140    0.000004455    0.000002698
      6        1           0.000003495    0.000002859    0.000003912
      7        6           0.000001127   -0.000000235    0.000001101
      8        1           0.000002253    0.000000858    0.000002766
      9        6           0.000000151   -0.000003295    0.000001301
     10        1           0.000001473   -0.000003444    0.000001835
     11        6          -0.000000370   -0.000004052   -0.000001078
     12        6          -0.000002255   -0.000003084   -0.000002471
     13        1          -0.000003199   -0.000004735   -0.000003333
     14        6          -0.000001042   -0.000001038   -0.000001352
     15        1          -0.000001649   -0.000006292   -0.000001285
     16       35          -0.000002991    0.000000265   -0.000003426
 -------------------------------------------------------------------
 Cartesian Forces:  Max     0.000007258 RMS     0.000002776
 FormGI is forming the generalized inverse of G from B-inverse, IUseBI=4.

 GradGradGradGradGradGradGradGradGradGradGradGradGradGradGradGradGradGrad
 Berny optimization.
 Internal  Forces:  Max     0.000000648 RMS     0.000000158
 Search for a local minimum.
 Step number   1 out of a maximum of   81
 All quantities printed in internal units (Hartrees-Bohrs-Radians)
 Mixed Optimization -- En-DIIS/RFO-DIIS
 Second derivative matrix not updated -- analytic derivatives used.
 ITU=  0
     Eigenvalues ---    0.00114   0.01091   0.01388   0.01578   0.01654
     Eigenvalues ---    0.01786   0.02141   0.02382   0.02558   0.02707
     Eigenvalues ---    0.02769   0.02998   0.03870   0.10622   0.10837
     Eigenvalues ---    0.11485   0.11590   0.12090   0.12459   0.13418
     Eigenvalues ---    0.14901   0.15189   0.18627   0.18996   0.19073
     Eigenvalues ---    0.21882   0.23933   0.27173   0.29570   0.35761
     Eigenvalues ---    0.36465   0.36596   0.36860   0.39591   0.42345
     Eigenvalues ---    0.43814   0.47723   0.48355   0.50022   0.51995
     Eigenvalues ---    0.54923   0.55794
 RFO step:  Lambda= 0.00000000D+00 EMin= 1.14093946D-03
 Linear search not attempted -- first point.
 Iteration  1 RMS(Cart)=  0.00006324 RMS(Int)=  0.00000000
 Iteration  2 RMS(Cart)=  0.00000000 RMS(Int)=  0.00000000
 Variable       Old X    -DE/DX   Delta X   Delta X   Delta X     New X
                                 (Linear)    (Quad)   (Total)
    R1        1.81823   0.00000   0.00000   0.00000   0.00000   1.81823
    R2        2.55909   0.00000   0.00000   0.00000   0.00000   2.55909
    R3        2.97953   0.00000   0.00000   0.00000   0.00000   2.97953
    R4        2.65012   0.00000   0.00000   0.00000   0.00000   2.65012
    R5        2.63796   0.00000   0.00000   0.00000   0.00000   2.63796
    R6        2.58617   0.00000   0.00000   0.00000   0.00000   2.58617
    R7        1.81324   0.00000   0.00000   0.00000   0.00000   1.81324
    R8        2.05249   0.00000   0.00000   0.00000   0.00000   2.05249
    R9        2.62584   0.00000   0.00000   0.00000   0.00000   2.62584
   R10        2.04674   0.00000   0.00000   0.00000   0.00000   2.04674
   R11        2.62634   0.00000   0.00000   0.00000   0.00000   2.62634
   R12        2.62700   0.00000   0.00000   0.00000   0.00000   2.62700
   R13        2.04744   0.00000   0.00000   0.00000   0.00000   2.04744
   R14        2.04512   0.00000   0.00000   0.00000   0.00000   2.04512
   R15        2.62605   0.00000   0.00000   0.00000   0.00000   2.62605
   R16        3.60191   0.00000   0.00000   0.00000   0.00000   3.60191
    A1        1.95851   0.00000   0.00000   0.00000   0.00000   1.95851
    A2        2.06290   0.00000   0.00000  -0.00001  -0.00001   2.06289
    A3        2.18287   0.00000   0.00000   0.00001   0.00001   2.18288
    A4        2.03735   0.00000   0.00000   0.00000   0.00000   2.03735
    A5        2.10207   0.00000   0.00000   0.00000   0.00000   2.10207
    A6        2.07021   0.00000   0.00000   0.00000   0.00000   2.07021
    A7        2.10918   0.00000   0.00000   0.00000   0.00000   2.10918
    A8        1.98285   0.00000   0.00000   0.00000   0.00000   1.98285
    A9        2.07589   0.00000   0.00000   0.00000   0.00000   2.07589
   A10        2.12940   0.00000   0.00000   0.00000   0.00000   2.12941
   A11        2.07768   0.00000   0.00000   0.00000   0.00000   2.07768
   A12        2.09768   0.00000   0.00000   0.00000   0.00000   2.09768
   A13        2.08556   0.00000   0.00000   0.00000   0.00000   2.08556
   A14        2.09995   0.00000   0.00000   0.00000   0.00000   2.09995
   A15        2.09628   0.00000   0.00000   0.00000   0.00000   2.09628
   A16        2.10157   0.00000   0.00000   0.00000   0.00000   2.10157
   A17        2.08533   0.00000   0.00000   0.00000   0.00000   2.08533
   A18        2.10778   0.00000   0.00000   0.00000   0.00000   2.10778
   A19        2.08239   0.00000   0.00000   0.00000   0.00000   2.08239
   A20        2.09302   0.00000   0.00000   0.00000   0.00000   2.09302
   A21        2.13523   0.00000   0.00000   0.00000   0.00000   2.13523
   A22        2.09943   0.00000   0.00000   0.00001   0.00001   2.09944
   A23        2.04807   0.00000   0.00000  -0.00001  -0.00001   2.04807
    D1        3.14029   0.00000   0.00000  -0.00001  -0.00001   3.14029
    D2        0.06123   0.00000   0.00000  -0.00001  -0.00001   0.06123
    D3       -2.20432   0.00000   0.00000  -0.00012  -0.00012  -2.20443
    D4        0.87333   0.00000   0.00000  -0.00012  -0.00012   0.87321
    D5        0.92466   0.00000   0.00000  -0.00012  -0.00012   0.92454
    D6       -2.28088   0.00000   0.00000  -0.00012  -0.00012  -2.28100
    D7       -0.00687   0.00000   0.00000   0.00000   0.00000  -0.00687
    D8        3.11250   0.00000   0.00000   0.00000   0.00000   3.11249
    D9       -3.13690   0.00000   0.00000   0.00001   0.00001  -3.13689
   D10       -0.01754   0.00000   0.00000   0.00000   0.00000  -0.01754
   D11       -3.12233   0.00000   0.00000   0.00000   0.00000  -3.12232
   D12        0.05233   0.00000   0.00000   0.00000   0.00000   0.05233
   D13        0.00682   0.00000   0.00000   0.00000   0.00000   0.00682
   D14       -3.10171   0.00000   0.00000   0.00000   0.00000  -3.10171
   D15       -3.06863   0.00000   0.00000   0.00002   0.00002  -3.06861
   D16        0.13576   0.00000   0.00000   0.00002   0.00002   0.13578
   D17       -3.12733   0.00000   0.00000   0.00000   0.00000  -3.12733
   D18        0.01365   0.00000   0.00000   0.00000   0.00000   0.01365
   D19       -0.00799   0.00000   0.00000   0.00000   0.00000  -0.00799
   D20        3.13299   0.00000   0.00000   0.00000   0.00000   3.13299
   D21        0.00157   0.00000   0.00000   0.00000   0.00000   0.00156
   D22        3.13801   0.00000   0.00000   0.00000   0.00000   3.13801
   D23       -3.14064   0.00000   0.00000   0.00000   0.00000  -3.14065
   D24       -0.00420   0.00000   0.00000   0.00000   0.00000  -0.00420
   D25        3.12755   0.00000   0.00000   0.00000   0.00000   3.12755
   D26       -0.01190   0.00000   0.00000   0.00000   0.00000  -0.01190
   D27       -0.00894   0.00000   0.00000   0.00000   0.00000  -0.00894
   D28        3.13479   0.00000   0.00000   0.00000   0.00000   3.13479
   D29        0.00761   0.00000   0.00000   0.00000   0.00000   0.00761
   D30        3.11706   0.00000   0.00000   0.00000   0.00000   3.11706
   D31       -3.13186   0.00000   0.00000   0.00000   0.00000  -3.13186
   D32       -0.02241   0.00000   0.00000   0.00000   0.00000  -0.02241
         Item               Value     Threshold  Converged?
 Maximum Force            0.000001     0.000015     YES
 RMS     Force            0.000000     0.000010     YES
 Maximum Displacement     0.000267     0.000060     NO 
 RMS     Displacement     0.000063     0.000040     NO 
 Predicted change in Energy=-3.623124D-11
 GradGradGradGradGradGradGradGradGradGradGradGradGradGradGradGradGradGrad

                          Input orientation:                          
 ---------------------------------------------------------------------
 Center     Atomic      Atomic             Coordinates (Angstroms)
 Number     Number       Type             X           Y           Z
 ---------------------------------------------------------------------
      1          8           0        8.409269    7.532848    6.494926
      2          1           0        9.215363    7.140941    6.844760
      3          6           0        6.279243    7.066175    5.180163
      4          5           0        7.647358    6.630792    5.831842
      5          8           0        8.053198    5.324092    5.804607
      6          1           0        7.496482    4.759987    5.263733
      7          6           0        5.125620    6.342801    5.515672
      8          1           0        5.210994    5.507027    6.204057
      9          6           0        3.873880    6.678931    5.014702
     10          1           0        3.000219    6.107800    5.303840
     11          6           0        3.752340    7.753124    4.141269
     12          6           0        4.876770    8.482477    3.772194
     13          1           0        4.796332    9.312784    3.082743
     14          6           0        6.115753    8.134347    4.296445
     15          1           0        2.784039    8.026157    3.739119
     16         35           0        7.625433    9.145651    3.720985
 ---------------------------------------------------------------------
                    Distance matrix (angstroms):
                    1          2          3          4          5
     1  O    0.000000
     2  H    0.962165   0.000000
     3  C    2.546252   3.375985   0.000000
     4  B    1.354214   1.935173   1.576700   0.000000
     5  O    2.341352   2.394470   2.563533   1.368544   0.000000
     6  H    3.168245   3.335137   2.609053   1.960975   0.959527
     7  C    3.627328   4.373728   1.402384   2.557746   3.113192
     8  H    3.797041   4.372087   2.149524   2.708737   2.875961
     9  C    4.846648   5.665157   2.441947   3.861239   4.463882
    10  H    5.719028   6.486126   3.418446   4.706188   5.137856
    11  C    5.222568   6.126031   2.817168   4.391905   5.211936
    12  C    4.560002   5.483044   2.440331   3.917530   4.918922
    13  H    5.278682   6.196572   3.412543   4.783198   5.824551
    14  C    3.233472   4.133805   1.395951   2.638927   3.731726
    15  H    6.283395   7.196565   3.900593   5.475254   6.271478
    16  Br   3.303072   4.037909   2.875005   3.283401   4.373646
                    6          7          8          9         10
     6  H    0.000000
     7  C    2.861776   0.000000
     8  H    2.581808   1.086131   0.000000
     9  C    4.107020   1.389535   2.139112   0.000000
    10  H    4.694102   2.148820   2.461473   1.083086   0.000000
    11  C    4.923149   2.400811   3.380491   1.389801   2.150429
    12  C    4.790043   2.771255   3.857326   2.408816   3.392119
    13  H    5.724989   3.853360   4.939467   3.394196   4.293160
    14  C    3.772051   2.382544   3.370517   2.767693   3.850752
    15  H    5.932912   3.387157   4.279258   2.151717   2.484990
    16  Br   4.650887   4.162444   5.023420   4.672533   5.755569
                   11         12         13         14         15
    11  C    0.000000
    12  C    1.390150   0.000000
    13  H    2.154748   1.082231   0.000000
    14  C    2.398986   1.389644   2.145381   0.000000
    15  H    1.083457   2.142160   2.477008   3.379739   0.000000
    16  Br   4.137224   2.827997   2.905012   1.906049   4.969175
                   16
    16  Br   0.000000
 Symmetry turned off by external request.
 Stoichiometry    C6H6BBrO2
 Framework group  C1[X(C6H6BBrO2)]
 Deg. of freedom    42
 Full point group                 C1      NOp   1
 Rotational constants (GHZ):           1.0703629           0.9060725           0.5211406
 Standard basis: 6-311+G(d,p) (5D, 7F)
   282 basis functions,   466 primitive gaussians,   294 cartesian basis functions
    49 alpha electrons       49 beta electrons
       nuclear repulsion energy       726.7330035475 Hartrees.
 NAtoms=   16 NActive=   16 NUniq=   16 SFac= 1.00D+00 NAtFMM=   60 NAOKFM=F Big=F
 Integral buffers will be    131072 words long.
 Raffenetti 2 integral format.
 Two-electron integral symmetry is turned off.
 One-electron integrals computed using PRISM.
 NBasis=   282 RedAO= T EigKep=  1.55D-06  NBF=   282
 NBsUse=   282 1.00D-06 EigRej= -1.00D+00 NBFU=   282
 Initial guess from the checkpoint file:  "2-br-phboh2-opt-freq-2.chk"
 B after Tr=     0.000114    0.000044   -0.000164
         Rot=    1.000000   -0.000005    0.000001   -0.000004 Ang=   0.00 deg.
 Requested convergence on RMS density matrix=1.00D-08 within 128 cycles.
 Requested convergence on MAX density matrix=1.00D-06.
 Requested convergence on             energy=1.00D-06.
 Level shift goal  0.100 maximum shift  0.100.
 No special actions if energy rises.
 Dynamic level shift is on during FON iterations.
 SCF Done:  E(RM062X) =  -2981.79253278     A.U. after    6 cycles
            NFock=  6  Conv=0.60D-08     -V/T= 2.0015
 Calling FoFJK, ICntrl=      2127 FMM=F ISym2X=0 I1Cent= 0 IOpClX= 0 NMat=1 NMatS=1 NMatT=0.
 -------------------------------------------------------------------
 Center     Atomic                   Forces (Hartrees/Bohr)
 Number     Number              X              Y              Z
 -------------------------------------------------------------------
      1        8          -0.000000450    0.000005859   -0.000000861
      2        1           0.000000119    0.000007524   -0.000000293
      3        6           0.000000077    0.000000756    0.000000090
      4        5           0.000000743    0.000003724    0.000000657
      5        8           0.000002515    0.000004254    0.000002742
      6        1           0.000003269    0.000002609    0.000003695
      7        6           0.000001116   -0.000000233    0.000001318
      8        1           0.000002312    0.000000998    0.000002666
      9        6           0.000000605   -0.000002749    0.000000858
     10        1           0.000001421   -0.000003491    0.000001865
     11        6          -0.000000944   -0.000004385   -0.000000826
     12        6          -0.000001947   -0.000003399   -0.000002117
     13        1          -0.000003156   -0.000004623   -0.000003464
     14        6          -0.000001477   -0.000000818   -0.000001693
     15        1          -0.000001338   -0.000006325   -0.000001221
     16       35          -0.000002866    0.000000299   -0.000003416
 -------------------------------------------------------------------
 Cartesian Forces:  Max     0.000007524 RMS     0.000002762

 GradGradGradGradGradGradGradGradGradGradGradGradGradGradGradGradGradGrad
 Berny optimization.
 Using GEDIIS/GDIIS optimizer.
 FormGI is forming the generalized inverse of G from B-inverse, IUseBI=4.
 Internal  Forces:  Max     0.000000048 RMS     0.000000009
 Search for a local minimum.
 Step number   2 out of a maximum of   81
 All quantities printed in internal units (Hartrees-Bohrs-Radians)
 Mixed Optimization -- En-DIIS/RFO-DIIS
 Swapping is turned off.
 Update second derivatives using D2CorX and points    1    2
 DE= -3.55D-11 DEPred=-3.62D-11 R= 9.79D-01
 Trust test= 9.79D-01 RLast= 2.43D-04 DXMaxT set to 3.00D-01
 ITU=  0  0
     Eigenvalues ---    0.00113   0.01091   0.01389   0.01578   0.01654
     Eigenvalues ---    0.01786   0.02142   0.02382   0.02558   0.02706
     Eigenvalues ---    0.02769   0.02998   0.03870   0.10621   0.10838
     Eigenvalues ---    0.11484   0.11590   0.12091   0.12459   0.13419
     Eigenvalues ---    0.14901   0.15188   0.18628   0.18996   0.19068
     Eigenvalues ---    0.21925   0.23935   0.27174   0.29599   0.35762
     Eigenvalues ---    0.36466   0.36593   0.36862   0.39586   0.42346
     Eigenvalues ---    0.43836   0.47724   0.48359   0.50016   0.52002
     Eigenvalues ---    0.54921   0.55789
 En-DIIS/RFO-DIIS/Sim-DIIS IScMMF=       -3 using points:     2    1
 RFO step:  Lambda=-1.62495833D-14.
 DIIS inversion failure, remove point   2.
 Use linear search instead of GDIIS.
 RFO step:  Lambda= 0.00000000D+00 EMin= 1.13409444D-03
 Skip linear search -- no minimum in search direction.
 Iteration  1 RMS(Cart)=  0.00000024 RMS(Int)=  0.00000000
 Variable       Old X    -DE/DX   Delta X   Delta X   Delta X     New X
                                 (Linear)    (Quad)   (Total)
    R1        1.81823   0.00000   0.00000   0.00000   0.00000   1.81823
    R2        2.55909   0.00000   0.00000   0.00000   0.00000   2.55909
    R3        2.97953   0.00000   0.00000   0.00000   0.00000   2.97953
    R4        2.65012   0.00000   0.00000   0.00000   0.00000   2.65012
    R5        2.63796   0.00000   0.00000   0.00000   0.00000   2.63796
    R6        2.58617   0.00000   0.00000   0.00000   0.00000   2.58617
    R7        1.81324   0.00000   0.00000   0.00000   0.00000   1.81324
    R8        2.05249   0.00000   0.00000   0.00000   0.00000   2.05249
    R9        2.62584   0.00000   0.00000   0.00000   0.00000   2.62584
   R10        2.04674   0.00000   0.00000   0.00000   0.00000   2.04674
   R11        2.62634   0.00000   0.00000   0.00000   0.00000   2.62634
   R12        2.62700   0.00000   0.00000   0.00000   0.00000   2.62700
   R13        2.04744   0.00000   0.00000   0.00000   0.00000   2.04744
   R14        2.04512   0.00000   0.00000   0.00000   0.00000   2.04512
   R15        2.62605   0.00000   0.00000   0.00000   0.00000   2.62605
   R16        3.60191   0.00000   0.00000   0.00000   0.00000   3.60191
    A1        1.95851   0.00000   0.00000   0.00000   0.00000   1.95851
    A2        2.06289   0.00000   0.00000   0.00000   0.00000   2.06289
    A3        2.18288   0.00000   0.00000   0.00000   0.00000   2.18288
    A4        2.03735   0.00000   0.00000   0.00000   0.00000   2.03735
    A5        2.10207   0.00000   0.00000   0.00000   0.00000   2.10207
    A6        2.07021   0.00000   0.00000   0.00000   0.00000   2.07021
    A7        2.10918   0.00000   0.00000   0.00000   0.00000   2.10918
    A8        1.98285   0.00000   0.00000   0.00000   0.00000   1.98285
    A9        2.07589   0.00000   0.00000   0.00000   0.00000   2.07589
   A10        2.12941   0.00000   0.00000   0.00000   0.00000   2.12941
   A11        2.07768   0.00000   0.00000   0.00000   0.00000   2.07768
   A12        2.09768   0.00000   0.00000   0.00000   0.00000   2.09768
   A13        2.08556   0.00000   0.00000   0.00000   0.00000   2.08556
   A14        2.09995   0.00000   0.00000   0.00000   0.00000   2.09995
   A15        2.09628   0.00000   0.00000   0.00000   0.00000   2.09628
   A16        2.10157   0.00000   0.00000   0.00000   0.00000   2.10157
   A17        2.08533   0.00000   0.00000   0.00000   0.00000   2.08533
   A18        2.10778   0.00000   0.00000   0.00000   0.00000   2.10778
   A19        2.08239   0.00000   0.00000   0.00000   0.00000   2.08239
   A20        2.09302   0.00000   0.00000   0.00000   0.00000   2.09302
   A21        2.13523   0.00000   0.00000   0.00000   0.00000   2.13523
   A22        2.09944   0.00000   0.00000   0.00000   0.00000   2.09944
   A23        2.04807   0.00000   0.00000   0.00000   0.00000   2.04807
    D1        3.14029   0.00000   0.00000   0.00000   0.00000   3.14029
    D2        0.06123   0.00000   0.00000   0.00000   0.00000   0.06123
    D3       -2.20443   0.00000   0.00000   0.00000   0.00000  -2.20444
    D4        0.87321   0.00000   0.00000   0.00000   0.00000   0.87321
    D5        0.92454   0.00000   0.00000   0.00000   0.00000   0.92454
    D6       -2.28100   0.00000   0.00000   0.00000   0.00000  -2.28100
    D7       -0.00687   0.00000   0.00000   0.00000   0.00000  -0.00687
    D8        3.11249   0.00000   0.00000   0.00000   0.00000   3.11249
    D9       -3.13689   0.00000   0.00000   0.00000   0.00000  -3.13689
   D10       -0.01754   0.00000   0.00000   0.00000   0.00000  -0.01754
   D11       -3.12232   0.00000   0.00000   0.00000   0.00000  -3.12232
   D12        0.05233   0.00000   0.00000   0.00000   0.00000   0.05234
   D13        0.00682   0.00000   0.00000   0.00000   0.00000   0.00682
   D14       -3.10171   0.00000   0.00000   0.00000   0.00000  -3.10171
   D15       -3.06861   0.00000   0.00000   0.00000   0.00000  -3.06861
   D16        0.13578   0.00000   0.00000   0.00000   0.00000   0.13578
   D17       -3.12733   0.00000   0.00000   0.00000   0.00000  -3.12733
   D18        0.01365   0.00000   0.00000   0.00000   0.00000   0.01365
   D19       -0.00799   0.00000   0.00000   0.00000   0.00000  -0.00799
   D20        3.13299   0.00000   0.00000   0.00000   0.00000   3.13299
   D21        0.00156   0.00000   0.00000   0.00000   0.00000   0.00156
   D22        3.13801   0.00000   0.00000   0.00000   0.00000   3.13801
   D23       -3.14065   0.00000   0.00000   0.00000   0.00000  -3.14065
   D24       -0.00420   0.00000   0.00000   0.00000   0.00000  -0.00420
   D25        3.12755   0.00000   0.00000   0.00000   0.00000   3.12755
   D26       -0.01190   0.00000   0.00000   0.00000   0.00000  -0.01190
   D27       -0.00894   0.00000   0.00000   0.00000   0.00000  -0.00894
   D28        3.13479   0.00000   0.00000   0.00000   0.00000   3.13479
   D29        0.00761   0.00000   0.00000   0.00000   0.00000   0.00761
   D30        3.11706   0.00000   0.00000   0.00000   0.00000   3.11706
   D31       -3.13186   0.00000   0.00000   0.00000   0.00000  -3.13186
   D32       -0.02241   0.00000   0.00000   0.00000   0.00000  -0.02241
         Item               Value     Threshold  Converged?
 Maximum Force            0.000000     0.000015     YES
 RMS     Force            0.000000     0.000010     YES
 Maximum Displacement     0.000001     0.000060     YES
 RMS     Displacement     0.000000     0.000040     YES
 Predicted change in Energy=-1.187627D-14
 Optimization completed.
    -- Stationary point found.
                           ----------------------------
                           !   Optimized Parameters   !
                           ! (Angstroms and Degrees)  !
 --------------------------                            --------------------------
 ! Name  Definition              Value          Derivative Info.                !
 --------------------------------------------------------------------------------
 ! R1    R(1,2)                  0.9622         -DE/DX =    0.0                 !
 ! R2    R(1,4)                  1.3542         -DE/DX =    0.0                 !
 ! R3    R(3,4)                  1.5767         -DE/DX =    0.0                 !
 ! R4    R(3,7)                  1.4024         -DE/DX =    0.0                 !
 ! R5    R(3,14)                 1.396          -DE/DX =    0.0                 !
 ! R6    R(4,5)                  1.3685         -DE/DX =    0.0                 !
 ! R7    R(5,6)                  0.9595         -DE/DX =    0.0                 !
 ! R8    R(7,8)                  1.0861         -DE/DX =    0.0                 !
 ! R9    R(7,9)                  1.3895         -DE/DX =    0.0                 !
 ! R10   R(9,10)                 1.0831         -DE/DX =    0.0                 !
 ! R11   R(9,11)                 1.3898         -DE/DX =    0.0                 !
 ! R12   R(11,12)                1.3901         -DE/DX =    0.0                 !
 ! R13   R(11,15)                1.0835         -DE/DX =    0.0                 !
 ! R14   R(12,13)                1.0822         -DE/DX =    0.0                 !
 ! R15   R(12,14)                1.3896         -DE/DX =    0.0                 !
 ! R16   R(14,16)                1.906          -DE/DX =    0.0                 !
 ! A1    A(2,1,4)              112.2143         -DE/DX =    0.0                 !
 ! A2    A(4,3,7)              118.1948         -DE/DX =    0.0                 !
 ! A3    A(4,3,14)             125.0699         -DE/DX =    0.0                 !
 ! A4    A(7,3,14)             116.7316         -DE/DX =    0.0                 !
 ! A5    A(1,4,3)              120.4399         -DE/DX =    0.0                 !
 ! A6    A(1,4,5)              118.6141         -DE/DX =    0.0                 !
 ! A7    A(3,4,5)              120.8472         -DE/DX =    0.0                 !
 ! A8    A(4,5,6)              113.609          -DE/DX =    0.0                 !
 ! A9    A(3,7,8)              118.9397         -DE/DX =    0.0                 !
 ! A10   A(3,7,9)              122.006          -DE/DX =    0.0                 !
 ! A11   A(8,7,9)              119.0422         -DE/DX =    0.0                 !
 ! A12   A(7,9,10)             120.1883         -DE/DX =    0.0                 !
 ! A13   A(7,9,11)             119.4936         -DE/DX =    0.0                 !
 ! A14   A(10,9,11)            120.3181         -DE/DX =    0.0                 !
 ! A15   A(9,11,12)            120.1079         -DE/DX =    0.0                 !
 ! A16   A(9,11,15)            120.411          -DE/DX =    0.0                 !
 ! A17   A(12,11,15)           119.4805         -DE/DX =    0.0                 !
 ! A18   A(11,12,13)           120.7668         -DE/DX =    0.0                 !
 ! A19   A(11,12,14)           119.3121         -DE/DX =    0.0                 !
 ! A20   A(13,12,14)           119.921          -DE/DX =    0.0                 !
 ! A21   A(3,14,12)            122.3397         -DE/DX =    0.0                 !
 ! A22   A(3,14,16)            120.2888         -DE/DX =    0.0                 !
 ! A23   A(12,14,16)           117.3457         -DE/DX =    0.0                 !
 ! D1    D(2,1,4,3)            179.9251         -DE/DX =    0.0                 !
 ! D2    D(2,1,4,5)              3.5081         -DE/DX =    0.0                 !
 ! D3    D(7,3,4,1)           -126.3048         -DE/DX =    0.0                 !
 ! D4    D(7,3,4,5)             50.0314         -DE/DX =    0.0                 !
 ! D5    D(14,3,4,1)            52.9722         -DE/DX =    0.0                 !
 ! D6    D(14,3,4,5)          -130.6916         -DE/DX =    0.0                 !
 ! D7    D(4,3,7,8)             -0.3933         -DE/DX =    0.0                 !
 ! D8    D(4,3,7,9)            178.3327         -DE/DX =    0.0                 !
 ! D9    D(14,3,7,8)          -179.7308         -DE/DX =    0.0                 !
 ! D10   D(14,3,7,9)            -1.0047         -DE/DX =    0.0                 !
 ! D11   D(4,3,14,12)         -178.896          -DE/DX =    0.0                 !
 ! D12   D(4,3,14,16)            2.9986         -DE/DX =    0.0                 !
 ! D13   D(7,3,14,12)            0.3905         -DE/DX =    0.0                 !
 ! D14   D(7,3,14,16)         -177.7149         -DE/DX =    0.0                 !
 ! D15   D(1,4,5,6)           -175.8187         -DE/DX =    0.0                 !
 ! D16   D(3,4,5,6)              7.7795         -DE/DX =    0.0                 !
 ! D17   D(3,7,9,10)          -179.1825         -DE/DX =    0.0                 !
 ! D18   D(3,7,9,11)             0.7821         -DE/DX =    0.0                 !
 ! D19   D(8,7,9,10)            -0.4577         -DE/DX =    0.0                 !
 ! D20   D(8,7,9,11)           179.5069         -DE/DX =    0.0                 !
 ! D21   D(7,9,11,12)            0.0897         -DE/DX =    0.0                 !
 ! D22   D(7,9,11,15)          179.795          -DE/DX =    0.0                 !
 ! D23   D(10,9,11,12)        -179.9457         -DE/DX =    0.0                 !
 ! D24   D(10,9,11,15)          -0.2404         -DE/DX =    0.0                 !
 ! D25   D(9,11,12,13)         179.1957         -DE/DX =    0.0                 !
 ! D26   D(9,11,12,14)          -0.6816         -DE/DX =    0.0                 !
 ! D27   D(15,11,12,13)         -0.5124         -DE/DX =    0.0                 !
 ! D28   D(15,11,12,14)        179.6103         -DE/DX =    0.0                 !
 ! D29   D(11,12,14,3)           0.4361         -DE/DX =    0.0                 !
 ! D30   D(11,12,14,16)        178.5943         -DE/DX =    0.0                 !
 ! D31   D(13,12,14,3)        -179.4423         -DE/DX =    0.0                 !
 ! D32   D(13,12,14,16)         -1.284          -DE/DX =    0.0                 !
 --------------------------------------------------------------------------------
 GradGradGradGradGradGradGradGradGradGradGradGradGradGradGradGradGradGrad

                          Input orientation:                          
 ---------------------------------------------------------------------
 Center     Atomic      Atomic             Coordinates (Angstroms)
 Number     Number       Type             X           Y           Z
 ---------------------------------------------------------------------
      1          8           0        8.409269    7.532848    6.494926
      2          1           0        9.215363    7.140941    6.844760
      3          6           0        6.279243    7.066175    5.180163
      4          5           0        7.647358    6.630792    5.831842
      5          8           0        8.053198    5.324092    5.804607
      6          1           0        7.496482    4.759987    5.263733
      7          6           0        5.125620    6.342801    5.515672
      8          1           0        5.210994    5.507027    6.204057
      9          6           0        3.873880    6.678931    5.014702
     10          1           0        3.000219    6.107800    5.303840
     11          6           0        3.752340    7.753124    4.141269
     12          6           0        4.876770    8.482477    3.772194
     13          1           0        4.796332    9.312784    3.082743
     14          6           0        6.115753    8.134347    4.296445
     15          1           0        2.784039    8.026157    3.739119
     16         35           0        7.625433    9.145651    3.720985
 ---------------------------------------------------------------------
                    Distance matrix (angstroms):
                    1          2          3          4          5
     1  O    0.000000
     2  H    0.962165   0.000000
     3  C    2.546252   3.375985   0.000000
     4  B    1.354214   1.935173   1.576700   0.000000
     5  O    2.341352   2.394470   2.563533   1.368544   0.000000
     6  H    3.168245   3.335137   2.609053   1.960975   0.959527
     7  C    3.627328   4.373728   1.402384   2.557746   3.113192
     8  H    3.797041   4.372087   2.149524   2.708737   2.875961
     9  C    4.846648   5.665157   2.441947   3.861239   4.463882
    10  H    5.719028   6.486126   3.418446   4.706188   5.137856
    11  C    5.222568   6.126031   2.817168   4.391905   5.211936
    12  C    4.560002   5.483044   2.440331   3.917530   4.918922
    13  H    5.278682   6.196572   3.412543   4.783198   5.824551
    14  C    3.233472   4.133805   1.395951   2.638927   3.731726
    15  H    6.283395   7.196565   3.900593   5.475254   6.271478
    16  Br   3.303072   4.037909   2.875005   3.283401   4.373646
                    6          7          8          9         10
     6  H    0.000000
     7  C    2.861776   0.000000
     8  H    2.581808   1.086131   0.000000
     9  C    4.107020   1.389535   2.139112   0.000000
    10  H    4.694102   2.148820   2.461473   1.083086   0.000000
    11  C    4.923149   2.400811   3.380491   1.389801   2.150429
    12  C    4.790043   2.771255   3.857326   2.408816   3.392119
    13  H    5.724989   3.853360   4.939467   3.394196   4.293160
    14  C    3.772051   2.382544   3.370517   2.767693   3.850752
    15  H    5.932912   3.387157   4.279258   2.151717   2.484990
    16  Br   4.650887   4.162444   5.023420   4.672533   5.755569
                   11         12         13         14         15
    11  C    0.000000
    12  C    1.390150   0.000000
    13  H    2.154748   1.082231   0.000000
    14  C    2.398986   1.389644   2.145381   0.000000
    15  H    1.083457   2.142160   2.477008   3.379739   0.000000
    16  Br   4.137224   2.827997   2.905012   1.906049   4.969175
                   16
    16  Br   0.000000
 Symmetry turned off by external request.
 Stoichiometry    C6H6BBrO2
 Framework group  C1[X(C6H6BBrO2)]
 Deg. of freedom    42
 Full point group                 C1      NOp   1
 Rotational constants (GHZ):           1.0703629           0.9060725           0.5211406

 **********************************************************************

            Population analysis using the SCF Density.

 **********************************************************************

 Alpha  occ. eigenvalues -- -485.33116 -63.32308 -57.15055 -57.14800 -57.14788
 Alpha  occ. eigenvalues --  -19.64564 -19.63621 -10.61098 -10.56429 -10.56269
 Alpha  occ. eigenvalues --  -10.56186 -10.55822 -10.55038  -9.01028  -7.09559
 Alpha  occ. eigenvalues --   -6.83826  -6.82802  -6.82768  -2.86982  -2.86631
 Alpha  occ. eigenvalues --   -2.86597  -2.85689  -2.85688  -1.17578  -1.13890
 Alpha  occ. eigenvalues --   -0.98739  -0.90463  -0.86367  -0.82046  -0.71257
 Alpha  occ. eigenvalues --   -0.69103  -0.65993  -0.63405  -0.59767  -0.54914
 Alpha  occ. eigenvalues --   -0.53774  -0.51720  -0.49231  -0.48160  -0.46565
 Alpha  occ. eigenvalues --   -0.46296  -0.45888  -0.41702  -0.41083  -0.39569
 Alpha  occ. eigenvalues --   -0.37874  -0.34417  -0.32621  -0.30028
 Alpha virt. eigenvalues --   -0.00869  -0.00533   0.00030   0.01325   0.01780
 Alpha virt. eigenvalues --    0.02242   0.02833   0.03817   0.04553   0.05069
 Alpha virt. eigenvalues --    0.06150   0.06673   0.07632   0.07862   0.08759
 Alpha virt. eigenvalues --    0.09443   0.09937   0.11125   0.11572   0.11835
 Alpha virt. eigenvalues --    0.12700   0.13345   0.13864   0.14348   0.15935
 Alpha virt. eigenvalues --    0.16786   0.17170   0.17459   0.18277   0.19045
 Alpha virt. eigenvalues --    0.19782   0.20083   0.20511   0.21022   0.21584
 Alpha virt. eigenvalues --    0.22121   0.22907   0.23266   0.23929   0.24712
 Alpha virt. eigenvalues --    0.25631   0.25706   0.26866   0.27354   0.28570
 Alpha virt. eigenvalues --    0.29654   0.30101   0.30360   0.31522   0.32026
 Alpha virt. eigenvalues --    0.33830   0.34855   0.35980   0.36584   0.37639
 Alpha virt. eigenvalues --    0.38322   0.41725   0.43716   0.46113   0.46991
 Alpha virt. eigenvalues --    0.48317   0.49129   0.51654   0.53661   0.54033
 Alpha virt. eigenvalues --    0.55722   0.56021   0.57088   0.57314   0.58149
 Alpha virt. eigenvalues --    0.60065   0.61071   0.62001   0.63235   0.64881
 Alpha virt. eigenvalues --    0.65971   0.67368   0.67899   0.68616   0.70096
 Alpha virt. eigenvalues --    0.70735   0.72689   0.73705   0.74188   0.76587
 Alpha virt. eigenvalues --    0.77464   0.79678   0.80818   0.83319   0.84720
 Alpha virt. eigenvalues --    0.85440   0.85753   0.87504   0.89212   0.91676
 Alpha virt. eigenvalues --    0.92324   0.94305   0.97653   1.01014   1.01044
 Alpha virt. eigenvalues --    1.03642   1.04508   1.06641   1.07810   1.09062
 Alpha virt. eigenvalues --    1.12503   1.13785   1.14862   1.15683   1.17122
 Alpha virt. eigenvalues --    1.17741   1.20344   1.21384   1.26373   1.30298
 Alpha virt. eigenvalues --    1.31083   1.33702   1.37512   1.39458   1.44252
 Alpha virt. eigenvalues --    1.46256   1.48982   1.50541   1.52918   1.54708
 Alpha virt. eigenvalues --    1.57595   1.57959   1.60451   1.61771   1.63348
 Alpha virt. eigenvalues --    1.66044   1.68465   1.69037   1.73810   1.76622
 Alpha virt. eigenvalues --    1.78487   1.82312   1.84099   1.85351   1.88191
 Alpha virt. eigenvalues --    1.92485   1.94556   1.95501   1.98264   1.98963
 Alpha virt. eigenvalues --    1.99385   2.03355   2.05523   2.06538   2.08063
 Alpha virt. eigenvalues --    2.08809   2.13974   2.16332   2.17624   2.20698
 Alpha virt. eigenvalues --    2.30147   2.33141   2.35754   2.38098   2.40842
 Alpha virt. eigenvalues --    2.43302   2.49727   2.52627   2.54171   2.58436
 Alpha virt. eigenvalues --    2.59136   2.63288   2.67205   2.70245   2.72370
 Alpha virt. eigenvalues --    2.73953   2.76381   2.76816   2.78043   2.84255
 Alpha virt. eigenvalues --    2.84454   2.87192   2.88110   2.94582   2.97760
 Alpha virt. eigenvalues --    3.07401   3.10987   3.14024   3.16866   3.21173
 Alpha virt. eigenvalues --    3.24682   3.26494   3.29009   3.39680   3.40927
 Alpha virt. eigenvalues --    3.45351   3.52044   3.55837   3.58124   3.59420
 Alpha virt. eigenvalues --    3.65106   3.81091   3.91018   3.93667   4.01647
 Alpha virt. eigenvalues --    4.07677   4.12983   4.17479   4.31492   4.36592
 Alpha virt. eigenvalues --    4.39175   4.55124   4.72944   4.84735   5.12262
 Alpha virt. eigenvalues --    5.14277   5.31888   5.48092   5.65686   5.73869
 Alpha virt. eigenvalues --    6.93226   7.65910   7.78144   7.82896  14.80898
 Alpha virt. eigenvalues --   23.59656  23.98238  24.03676  24.13374  24.15448
 Alpha virt. eigenvalues --   24.25369  48.44739  49.99863  50.02418 290.80569
 Alpha virt. eigenvalues --  290.93647 291.013721021.02425
          Condensed to atoms (all electrons):
               1          2          3          4          5          6
     1  O    7.832907   0.267841  -0.037238   0.435229  -0.101243   0.014044
     2  H    0.267841   0.435415   0.041468  -0.002717  -0.013066   0.001863
     3  C   -0.037238   0.041468  11.677226   0.545030  -0.228300   0.056937
     4  B    0.435229  -0.002717   0.545030   3.525572   0.355045  -0.000752
     5  O   -0.101243  -0.013066  -0.228300   0.355045   7.871403   0.277144
     6  H    0.014044   0.001863   0.056937  -0.000752   0.277144   0.442011
     7  C   -0.024209   0.019823  -1.071254  -0.223629  -0.016064  -0.027611
     8  H    0.002496  -0.000077  -0.046719  -0.002934   0.003629   0.000728
     9  C    0.011493   0.001726  -0.808927   0.045799   0.041792   0.021544
    10  H    0.000014  -0.000001  -0.018672  -0.000311   0.000221  -0.000028
    11  C   -0.005066  -0.000037  -1.408933  -0.031298   0.006626  -0.004382
    12  C    0.005379  -0.007755  -0.599036   0.126398   0.045244   0.005162
    13  H    0.000003  -0.000002  -0.014358  -0.001059   0.000016   0.000000
    14  C   -0.065817  -0.029753  -1.495430  -0.120626   0.075464  -0.053092
    15  H   -0.000001   0.000000   0.008581  -0.000484  -0.000007   0.000000
    16  Br  -0.052870   0.002704   0.243752  -0.006775  -0.006644  -0.001138
               7          8          9         10         11         12
     1  O   -0.024209   0.002496   0.011493   0.000014  -0.005066   0.005379
     2  H    0.019823  -0.000077   0.001726  -0.000001  -0.000037  -0.007755
     3  C   -1.071254  -0.046719  -0.808927  -0.018672  -1.408933  -0.599036
     4  B   -0.223629  -0.002934   0.045799  -0.000311  -0.031298   0.126398
     5  O   -0.016064   0.003629   0.041792   0.000221   0.006626   0.045244
     6  H   -0.027611   0.000728   0.021544  -0.000028  -0.004382   0.005162
     7  C   10.288629   0.381568  -0.916713   0.037139   0.017573  -3.096158
     8  H    0.381568   0.498197   0.041394  -0.005768  -0.000028   0.005053
     9  C   -0.916713   0.041394   7.624101   0.304397   0.620500   0.981742
    10  H    0.037139  -0.005768   0.304397   0.496977   0.048326  -0.037115
    11  C    0.017573  -0.000028   0.620500   0.048326   6.191250   0.133436
    12  C   -3.096158   0.005053   0.981742  -0.037115   0.133436  12.018178
    13  H    0.031812   0.000050  -0.036408  -0.000140   0.044058   0.271618
    14  C    0.384379  -0.039417  -1.764394   0.019740   0.070953  -3.362567
    15  H   -0.029417  -0.000272   0.038952  -0.006638   0.344615   0.020306
    16  Br   0.211222  -0.000279  -0.004142  -0.000122   0.039054  -0.345249
              13         14         15         16
     1  O    0.000003  -0.065817  -0.000001  -0.052870
     2  H   -0.000002  -0.029753   0.000000   0.002704
     3  C   -0.014358  -1.495430   0.008581   0.243752
     4  B   -0.001059  -0.120626  -0.000484  -0.006775
     5  O    0.000016   0.075464  -0.000007  -0.006644
     6  H    0.000000  -0.053092   0.000000  -0.001138
     7  C    0.031812   0.384379  -0.029417   0.211222
     8  H    0.000050  -0.039417  -0.000272  -0.000279
     9  C   -0.036408  -1.764394   0.038952  -0.004142
    10  H   -0.000140   0.019740  -0.006638  -0.000122
    11  C    0.044058   0.070953   0.344615   0.039054
    12  C    0.271618  -3.362567   0.020306  -0.345249
    13  H    0.481245   0.055266  -0.006368  -0.005507
    14  C    0.055266  11.966822  -0.028535  -0.060651
    15  H   -0.006368  -0.028535   0.491575   0.000542
    16  Br  -0.005507  -0.060651   0.000542  35.173126
 Mulliken charges:
               1
     1  O   -0.282960
     2  H    0.282568
     3  C   -0.844126
     4  B    0.357513
     5  O   -0.311260
     6  H    0.267569
     7  C    0.032911
     8  H    0.162379
     9  C   -0.202855
    10  H    0.161981
    11  C   -0.066645
    12  C   -0.164635
    13  H    0.179775
    14  C    0.447657
    15  H    0.167151
    16  Br  -0.187023
 Sum of Mulliken charges =   0.00000
 Mulliken charges with hydrogens summed into heavy atoms:
               1
     1  O   -0.000393
     3  C   -0.844126
     4  B    0.357513
     5  O   -0.043691
     7  C    0.195289
     9  C   -0.040873
    11  C    0.100506
    12  C    0.015139
    14  C    0.447657
    16  Br  -0.187023
 Electronic spatial extent (au):  <R**2>=          46236.5003
 Charge=              0.0000 electrons
 Dipole moment (field-independent basis, Debye):
    X=             -1.7191    Y=             -2.0477    Z=             -0.0875  Tot=              2.6751
 Quadrupole moment (field-independent basis, Debye-Ang):
   XX=            -84.4886   YY=            -99.1151   ZZ=            -72.2089
   XY=            -26.0255   XZ=             -6.1189   YZ=            -13.3231
 Traceless Quadrupole moment (field-independent basis, Debye-Ang):
   XX=              0.7822   YY=            -13.8442   ZZ=             13.0620
   XY=            -26.0255   XZ=             -6.1189   YZ=            -13.3231
 Octapole moment (field-independent basis, Debye-Ang**2):
  XXX=          -1417.7706  YYY=          -1922.9256  ZZZ=          -1018.1559  XYY=           -740.2910
  XXY=           -724.0690  XXZ=           -366.3980  XZZ=           -471.7666  YZZ=           -624.6783
  YYZ=           -524.8337  XYZ=           -119.8938
 Hexadecapole moment (field-independent basis, Debye-Ang**3):
 XXXX=         -18383.5098 YYYY=         -28393.2097 ZZZZ=         -10093.9428 XXXY=         -11325.4771
 XXXZ=          -6357.1403 YYYX=         -13275.6575 YYYZ=          -9570.7624 ZZZX=          -6517.1692
 ZZZY=          -7983.8421 XXYY=          -9356.0292 XXZZ=          -4691.3887 YYZZ=          -7107.7888
 XXYZ=          -3159.0975 YYXZ=          -3653.7897 ZZXY=          -4026.0195
 N-N= 7.267330035475D+02 E-N=-8.559443908881D+03  KE= 2.977284748417D+03
 Unable to Open any file for archive entry.
 1\1\GINC-CN012\FOpt\RM062X\6-311+G(d,p)\C6H6B1Br1O2\TAHMINAAFROZ\05-Ma
 y-2025\0\\# opt=(calcfc,tight) freq 6-311+g(d,p) nosymm scf=(qc,fermi,
 xqc) geom=connectivity int=ultrafine m062x\\2-br-phboh2-opt-freq-2\\0,
 1\O,8.4092694244,7.5328479731,6.4949259727\H,9.2153625506,7.1409414748
 ,6.8447604122\C,6.2792425069,7.0661748987,5.1801630945\B,7.6473575982,
 6.6307917932,5.8318424545\O,8.0531981643,5.3240919068,5.8046068809\H,7
 .4964821681,4.7599868606,5.2637331986\C,5.1256196989,6.3428009999,5.51
 56723844\H,5.210994237,5.5070274593,6.2040572825\C,3.8738799623,6.6789
 313669,5.0147023418\H,3.0002187826,6.1078004361,5.3038397306\C,3.75233
 96978,7.7531236342,4.1412688451\C,4.8767702903,8.4824766449,3.77219350
 85\H,4.7963323751,9.3127844928,3.0827425362\C,6.1157530002,8.134346950
 4,4.2964447811\H,2.7840385105,8.0261569003,3.7391189321\Br,7.625433032
 9,9.145651208,3.7209846442\\Version=AS64L-G16RevC.01\HF=-2981.7925328\
 RMSD=6.037e-09\RMSF=2.762e-06\Dipole=-0.6763475,-0.8056393,-0.0344082\
 Quadrupole=0.5815825,-10.2928352,9.7112527,-19.3493021,-4.549287,-9.90
 53659\PG=C01 [X(C6H6B1Br1O2)]\\@
 The archive entry for this job was punched.


 NECESSARY EVIL: ONE WE LIKE TOO MUCH TO RELINQUISH.
 Job cpu time:       0 days  0 hours 48 minutes 59.6 seconds.
 Elapsed time:       0 days  0 hours  1 minutes 35.5 seconds.
 File lengths (MBytes):  RWF=    144 Int=      0 D2E=      0 Chk=      8 Scr=      1
 Normal termination of Gaussian 16 at Mon May  5 07:40:12 2025.
 Link1:  Proceeding to internal job step number  2.
 ----------------------------------------------------------------------
 #N Geom=AllCheck Guess=TCheck SCRF=Check GenChk RM062X/6-311+G(d,p) Fr
 eq
 ----------------------------------------------------------------------
 1/7=10,10=4,29=7,30=1,38=1,40=1/1,3;
 2/12=2,15=1,40=1/2;
 3/5=4,6=6,7=111,11=2,14=-4,25=1,30=1,70=2,71=2,74=-55,75=-5,116=1,140=1/1,2,3;
 4/5=101/1;
 5/5=2,22=13,38=6,98=1/2;
 8/6=4,10=90,11=11/1;
 11/6=1,8=1,9=11,15=111,16=1,31=1/1,2,10;
 10/6=1,31=1/2;
 6/7=2,8=2,9=2,10=2,28=1/1;
 7/8=1,10=1,25=1,30=1/1,2,3,16;
 1/7=10,10=4,30=1/3;
 99//99;
 Structure from the checkpoint file:  "2-br-phboh2-opt-freq-2.chk"
 ----------------------
 2-br-phboh2-opt-freq-2
 ----------------------
 Charge =  0 Multiplicity = 1
 Redundant internal coordinates found in file.  (old form).
 O,0,8.4092694244,7.5328479731,6.4949259727
 H,0,9.2153625506,7.1409414748,6.8447604122
 C,0,6.2792425069,7.0661748987,5.1801630945
 B,0,7.6473575982,6.6307917932,5.8318424545
 O,0,8.0531981643,5.3240919068,5.8046068809
 H,0,7.4964821681,4.7599868606,5.2637331986
 C,0,5.1256196989,6.3428009999,5.5156723844
 H,0,5.210994237,5.5070274593,6.2040572825
 C,0,3.8738799623,6.6789313669,5.0147023418
 H,0,3.0002187826,6.1078004361,5.3038397306
 C,0,3.7523396978,7.7531236342,4.1412688451
 C,0,4.8767702903,8.4824766449,3.7721935085
 H,0,4.7963323751,9.3127844928,3.0827425362
 C,0,6.1157530002,8.1343469504,4.2964447811
 H,0,2.7840385105,8.0261569003,3.7391189321
 Br,0,7.6254330329,9.145651208,3.7209846442
 Recover connectivity data from disk.

 GradGradGradGradGradGradGradGradGradGradGradGradGradGradGradGradGradGrad
 Berny optimization.
 Initialization pass.
                           ----------------------------
                           !    Initial Parameters    !
                           ! (Angstroms and Degrees)  !
 --------------------------                            --------------------------
 ! Name  Definition              Value          Derivative Info.                !
 --------------------------------------------------------------------------------
 ! R1    R(1,2)                  0.9622         calculate D2E/DX2 analytically  !
 ! R2    R(1,4)                  1.3542         calculate D2E/DX2 analytically  !
 ! R3    R(3,4)                  1.5767         calculate D2E/DX2 analytically  !
 ! R4    R(3,7)                  1.4024         calculate D2E/DX2 analytically  !
 ! R5    R(3,14)                 1.396          calculate D2E/DX2 analytically  !
 ! R6    R(4,5)                  1.3685         calculate D2E/DX2 analytically  !
 ! R7    R(5,6)                  0.9595         calculate D2E/DX2 analytically  !
 ! R8    R(7,8)                  1.0861         calculate D2E/DX2 analytically  !
 ! R9    R(7,9)                  1.3895         calculate D2E/DX2 analytically  !
 ! R10   R(9,10)                 1.0831         calculate D2E/DX2 analytically  !
 ! R11   R(9,11)                 1.3898         calculate D2E/DX2 analytically  !
 ! R12   R(11,12)                1.3901         calculate D2E/DX2 analytically  !
 ! R13   R(11,15)                1.0835         calculate D2E/DX2 analytically  !
 ! R14   R(12,13)                1.0822         calculate D2E/DX2 analytically  !
 ! R15   R(12,14)                1.3896         calculate D2E/DX2 analytically  !
 ! R16   R(14,16)                1.906          calculate D2E/DX2 analytically  !
 ! A1    A(2,1,4)              112.2143         calculate D2E/DX2 analytically  !
[...]
     1         11.42941146          6.36519703        -21.94366752
     6          6.30013770          6.72323089        -18.16705913
     5          8.99153109          6.02677569        -19.23895438
     8         10.65371251          4.62386366        -17.83992462
     1          9.93609890          3.95621671        -16.31443209
     6          6.15344526          7.77828919        -15.74043972
     1          7.88506194          8.06936736        -14.67766463
     6          3.86648349          8.50697014        -14.67560790
     1          3.82035163          9.33932447        -12.80633415
     6          1.64185570          8.16058971        -16.02791403
     6          1.71042621          7.08948520        -18.42565780
     1         -0.01188644          6.78804879        -19.48645568
     6          4.02337702          6.39780168        -19.45907832
     1         -0.15751498          8.71282272        -15.22212155
    35          3.98755817          4.86797783        -22.71977179

 Electric dipole moment (dipole orientation):
 (Debye = 10**-18 statcoulomb cm , SI units = C m)
                  (au)            (Debye)         (10**-30 SI)
   Tot        0.105247D+01      0.267510D+01      0.892317D+01
   x          0.000000D+00      0.000000D+00      0.000000D+00
   y          0.000000D+00      0.000000D+00      0.000000D+00
   z          0.105247D+01      0.267510D+01      0.892317D+01

 Dipole polarizability, Alpha (dipole orientation).
 (esu units = cm**3 , SI units = C**2 m**2 J**-1)
 Alpha(0;0):
               (au)            (10**-24 esu)      (10**-40 SI)
   iso        0.104451D+03      0.154780D+02      0.172216D+02
   aniso      0.589648D+02      0.873768D+01      0.972198D+01
   xx         0.113999D+03      0.168929D+02      0.187959D+02
   yx        -0.724328D+01     -0.107334D+01     -0.119426D+01
   yy         0.761511D+02      0.112844D+02      0.125556D+02
   zx        -0.216356D+01     -0.320606D+00     -0.356722D+00
   zy         0.219085D+02      0.324651D+01      0.361223D+01
   zz         0.123202D+03      0.182566D+02      0.203132D+02

 ----------------------------------------------------------------------
 Unable to Open any file for archive entry.
 1\1\GINC-CN012\Freq\RM062X\6-311+G(d,p)\C6H6B1Br1O2\TAHMINAAFROZ\05-Ma
 y-2025\0\\#N Geom=AllCheck Guess=TCheck SCRF=Check GenChk RM062X/6-311
 +G(d,p) Freq\\2-br-phboh2-opt-freq-2\\0,1\O,8.4092694244,7.5328479731,
 6.4949259727\H,9.2153625506,7.1409414748,6.8447604122\C,6.2792425069,7
 .0661748987,5.1801630945\B,7.6473575982,6.6307917932,5.8318424545\O,8.
 0531981643,5.3240919068,5.8046068809\H,7.4964821681,4.7599868606,5.263
 7331986\C,5.1256196989,6.3428009999,5.5156723844\H,5.210994237,5.50702
 74593,6.2040572825\C,3.8738799623,6.6789313669,5.0147023418\H,3.000218
 7826,6.1078004361,5.3038397306\C,3.7523396978,7.7531236342,4.141268845
 1\C,4.8767702903,8.4824766449,3.7721935085\H,4.7963323751,9.3127844928
 ,3.0827425362\C,6.1157530002,8.1343469504,4.2964447811\H,2.7840385105,
 8.0261569003,3.7391189321\Br,7.6254330329,9.145651208,3.7209846442\\Ve
 rsion=AS64L-G16RevC.01\HF=-2981.7925328\RMSD=4.486e-09\RMSF=2.762e-06\
 ZeroPoint=0.1158195\Thermal=0.1251246\ETot=-2981.6674082\HTot=-2981.66
 6464\GTot=-2981.7132366\Dipole=-0.6763467,-0.8056388,-0.0344085\Dipole
 Deriv=-0.913152,-0.2203632,-0.3745181,-0.2762427,-0.714657,-0.238764,-
 0.38284,-0.1787349,-0.8351494,0.3052587,0.0507184,0.0061822,0.0672368,
 0.2657014,0.0326284,0.0375905,0.0159182,0.357394,-0.5646249,-0.0229553
 ,-0.0553214,-0.0241182,-0.344354,0.1257092,-0.0082501,0.1100798,-0.233
 6906,1.459922,-0.2566467,0.6221538,-0.1010303,1.6359706,0.2097328,0.56
 58867,0.0776619,0.9357818,-0.6966629,0.3579426,-0.0709443,0.2854254,-1
 .3173128,-0.0138925,-0.0871233,0.0466348,-0.5398792,0.2709687,-0.09011
 47,-0.0300014,-0.0937602,0.4144812,-0.0299865,-0.0524567,0.0022086,0.2
 639512,0.0344603,0.0262865,0.0138318,0.0573644,-0.0390482,-0.0650985,0
 .0298883,-0.1011992,-0.0369544,0.0604485,-0.0002891,-0.0137192,-0.0058
 165,-0.0063703,0.0977353,-0.0155276,0.1022508,0.0430165,-0.02235,0.063
 2832,-0.0340226,0.0428569,-0.0909573,-0.0281003,-0.0192772,-0.0236842,
 -0.1203917,-0.0243565,-0.0631651,0.0184922,-0.0674601,0.0615613,0.0517
 008,0.022574,0.0545159,0.1038828,0.0729189,-0.0181151,0.0487074,0.0480
 694,-0.0071557,-0.0775943,-0.0089881,-0.0901251,-0.0407398,-0.3418649,
 -0.1136207,0.0572287,-0.1266623,-0.0936944,-0.029202,0.0582947,-0.0153
 326,-0.078273,0.0795144,-0.0094848,-0.0027342,0.0044454,0.0483457,0.07
 14143,-0.0056757,0.0710788,0.077415,0.732439,0.5353068,-0.3030004,0.41
 37078,0.356441,-0.2599583,-0.2510429,-0.2240584,0.1055353,-0.0472727,0
 .014276,-0.0456555,0.0154432,0.0832548,0.0470482,-0.0490628,0.0457379,
 0.0926477,-0.4056467,-0.2530588,0.163321,-0.2394592,-0.2522062,0.10662
 75,0.1660103,0.1070475,-0.0945462\Polar=128.146373,11.825532,101.50564
 68,4.6375247,-22.2983309,83.6996355\Quadrupole=0.5815902,-10.2928291,9
 .7112388,-19.3492857,-4.5492828,-9.9053647\PG=C01 [X(C6H6B1Br1O2)]\NIm
 ag=0\\0.54740791,-0.04772839,0.36165626,0.27533693,0.05439071,0.205301
 06,-0.37540523,0.15684122,-0.16172132,0.39537674,0.18955589,-0.1171088
 1,0.07896783,-0.16694635,0.10887832,-0.15318659,0.06073450,-0.08440926
 ,0.17217162,-0.06761669,0.09010978,-0.01471135,-0.00014068,-0.01144330
 ,0.00108772,-0.00069741,-0.00173736,0.60359030,-0.01419156,0.00837633,
 -0.00920340,-0.00177478,-0.00128371,-0.00287690,0.03693312,0.45454132,
 -0.01757799,-0.00004606,-0.00085919,-0.00256037,-0.00184660,0.00325321
 ,0.07614011,-0.22797201,0.32975843,-0.17026651,-0.08969507,-0.09384685
 ,-0.02205452,-0.02346036,-0.02052670,-0.16347823,0.02730865,-0.0446605
 9,0.46039293,-0.12000921,-0.19316850,-0.10423876,0.00738350,0.01108696
 ,0.00640413,0.03353133,-0.07569910,0.01970722,0.00585003,0.58567334,-0
 .10040445,-0.08742256,-0.12805871,-0.01235784,-0.01145802,-0.00677254,
 -0.04851288,0.02093412,-0.08656210,0.17737323,0.08568799,0.27725870,0.
 01455142,-0.02264715,-0.00354289,0.00153117,0.00165710,0.00322325,-0.0
 0127571,0.02836628,-0.00682407,-0.10089927,0.06778712,-0.02010239,0.29
 215412,-0.01105390,-0.05476740,-0.02253634,0.00410024,-0.00120253,0.00
 279170,0.00942637,-0.01534595,-0.00005931,0.09974444,-0.30665985,0.006
 37148,0.07883066,0.58188057,-0.00183231,-0.02959598,0.00644905,0.00398
 204,0.00164295,-0.00101362,-0.00894825,0.00977157,0.01329598,-0.012324
 25,-0.01606024,-0.05686395,0.20354664,0.19515653,0.22163575,0.00299819
 ,0.00353134,-0.00132838,-0.00014812,0.00037775,0.00042954,-0.00120403,
 0.00099200,0.00090226,0.00526382,0.00496627,0.00593549,-0.20084377,-0.
 18529041,-0.18216178,0.19484318,0.00226023,-0.00375474,-0.00058538,0.0
 0055936,-0.00034312,0.00036310,-0.00050746,0.00281221,0.00095415,-0.02
 211582,-0.02160756,-0.02028179,-0.15528010,-0.20406731,-0.16038924,0.1
 7546970,0.22680519,-0.00152690,0.00035229,0.00518709,0.00039739,0.0001
 9930,-0.00055722,0.00077129,0.00193747,-0.00168333,-0.00119869,0.00075
 031,-0.00218095,-0.17430668,-0.18344393,-0.18267666,0.17594158,0.18028
 295,0.18228198,-0.00107843,0.00037643,-0.00146677,0.00027834,-0.000120
 97,-0.00087925,-0.25657049,-0.06041180,0.01172906,-0.01923942,-0.00836
 311,0.00390302,0.00048775,-0.00190216,-0.00053199,0.00016761,0.0002908
 5,-0.00028239,0.65312927,0.00325471,0.00033803,0.00264790,-0.00002664,
 0.00017776,0.00028213,-0.10890306,-0.15041721,0.04623456,-0.00037286,0
 .00947383,-0.00592281,0.00018897,-0.00334603,0.00215588,0.00086826,0.0
 0063546,-0.00103396,0.03142166,0.50057407,-0.00212346,0.00083198,-0.00
 177928,-0.00026796,-0.00008972,-0.00073377,0.04854870,0.05688722,-0.09
 244588,-0.00574731,-0.00762381,0.00684014,0.00003454,0.00289199,-0.001
 40596,-0.00117511,-0.00066422,0.00056704,0.07448815,-0.28109247,0.3751
 9318,0.00027545,0.00050335,0.00009045,-0.00010028,-0.00008768,0.000003
 51,0.00478781,-0.01945946,0.01604392,-0.00039374,-0.00228087,0.0014512
 3,0.00059490,0.00088603,-0.00089470,-0.00073592,0.00028286,0.00084742,
 -0.06018089,0.01511066,-0.01649239,0.06185969,-0.00050321,0.00029839,-
 0.00046200,-0.00018501,-0.00008547,0.00004295,0.00129172,-0.00860960,0
 .00876111,0.00057266,-0.00247829,-0.00041379,0.00065353,0.00035914,-0.
 00021620,-0.00017990,0.00011062,0.00008610,0.01687146,-0.21501412,0.14
 453621,-0.01516559,0.22339505,-0.00033811,-0.00026531,-0.00023191,-0.0
 0003528,0.00001724,0.00007289,-0.00130950,0.00461731,-0.00185229,-0.00
 025114,-0.00032421,-0.00173764,-0.00027414,-0.00149141,0.00041470,0.00
 115084,0.00002109,-0.00030600,-0.01682607,0.14588172,-0.15889330,0.018
 90989,-0.16089631,0.15950286,-0.00089292,0.00065232,-0.00092068,-0.000
 15533,-0.00007483,-0.00019583,-0.05465964,-0.03806458,0.01670995,-0.00
 099057,-0.00583626,0.00291721,0.00083706,0.00100853,-0.00008141,-0.000
 47787,0.00039030,0.00007762,-0.30326722,0.07044196,-0.10020307,0.00256
 272,-0.00171152,0.00097597,0.71719171,0.00063629,0.00011026,-0.0002850
 7,0.00019464,0.00002217,-0.00029405,0.00425097,0.04309465,-0.02402705,
 -0.00242955,0.00070855,0.00321197,0.00024051,0.00122197,-0.00096777,-0
 .00053650,-0.00023156,0.00042556,0.01085786,-0.11724654,0.04370167,0.0
 2267119,-0.00206474,0.00892592,0.08432489,0.49568616,0.00062798,-0.000
 45187,0.00038955,0.00018749,0.00014786,0.00011341,-0.01716868,-0.03509
 254,0.03253436,0.00145153,0.00270265,0.00431151,-0.00046659,0.00070586
 ,-0.00057823,-0.00017314,0.00019104,-0.00016850,-0.05302677,0.05570702
 ,-0.11791120,-0.01858468,0.00494931,-0.00283492,0.04258175,-0.27011823
 ,0.35682989,-0.00050207,-0.00000692,-0.00038124,0.00000159,-0.00001665
 ,-0.00005954,-0.00397225,0.00159419,-0.00309801,0.00037239,-0.00105043
 ,0.00089370,-0.00020189,0.00049058,-0.00017445,-0.00003637,-0.00014972
 ,-0.00000169,-0.01673724,-0.01632473,0.00917710,0.00067352,0.00064193,
 0.00039286,-0.24529618,-0.12403480,0.05936208,0.25686820,0.00005940,-0
 .00005279,0.00002260,0.00001775,-0.00000537,0.00005344,0.00157556,0.00
 322137,0.00328337,0.00016513,0.00035280,-0.00006473,-0.00000708,-0.000
 10491,-0.00000326,0.00004538,0.00001534,0.00000694,0.00768826,0.007789
 68,-0.00207254,0.00008082,-0.00119314,-0.00228639,-0.12393803,-0.13082
 111,0.05054262,0.13355220,0.13128022,-0.00010553,-0.00005463,-0.000151
 04,0.00000176,-0.00001082,-0.00000868,-0.00332712,0.00346281,0.0037256
 1,-0.00011023,-0.00022033,0.00042929,0.00005358,0.00004550,-0.00009187
 ,0.00001216,0.00000518,0.00005712,-0.00999362,-0.00640901,0.00649459,0
 .00085879,-0.00224954,-0.00216629,0.05939478,0.05058573,-0.06667927,-0
 .06262365,-0.05831412,0.06058407,-0.00058345,-0.00002223,-0.00033383,-
 0.00003067,-0.00001328,0.00011022,-0.01366987,-0.02340522,0.01634883,0
 .00132061,-0.00110035,0.00158246,-0.00027962,0.00040446,-0.00019672,-0
 .00005957,-0.00006620,-0.00011150,0.03004714,0.02859742,-0.01839735,-0
 .00485583,0.00129746,-0.00297584,-0.13257722,0.03824862,-0.04336915,0.
 00648034,-0.02072928,0.01682969,0.72490256,-0.00017115,0.00025838,-0.0
 0010717,-0.00008518,0.00003447,-0.00007657,-0.02332048,-0.04677931,0.0
 2674395,-0.00080572,-0.00199348,0.00078366,0.00044690,-0.00012746,0.00
 030944,0.00000068,0.00044310,0.00000377,0.07461659,0.00107310,0.019088
 02,0.00068513,0.00367696,0.00300675,-0.02137987,-0.23455776,0.13142817
 ,0.00345078,-0.00772442,0.00936391,0.02953851,0.47896510,-0.00014688,-
 0.00018799,-0.00003642,-0.00001074,-0.00006413,0.00008674,0.01686407,0
 .02914898,-0.02333584,0.00112642,0.00084028,-0.00125147,-0.00038928,0.
 00000894,-0.00008617,0.00014933,-0.00039173,-0.00009067,-0.05509557,0.
 00973778,-0.01131514,-0.00280585,0.00315820,0.00430378,0.00406038,0.14
 243058,-0.17575720,-0.00214449,0.00493620,-0.00080778,0.08808657,-0.26
 535243,0.36497444,0.00032189,-0.00004603,-0.00010825,-0.00003626,-0.00
 016182,0.00019414,0.02766662,0.06793648,-0.04758587,0.00155263,0.00033
 896,-0.00137668,0.00011913,0.00020439,-0.00027717,-0.00003051,-0.00049
 123,0.00002608,-0.07986921,-0.01037861,-0.00600615,-0.00138534,-0.0001
 9553,0.00012332,0.04997764,-0.05899293,0.05464103,0.00163989,0.0008396
 7,-0.00157207,-0.26907296,-0.06613214,0.01289748,0.65242911,0.00148989
 ,0.00069343,0.00016058,0.00013827,-0.00001818,0.00006793,0.02511924,0.
 00187683,0.01172103,-0.00360739,-0.00081778,0.00381075,0.00130032,-0.0
 0021453,-0.00090090,-0.00031935,-0.00004016,0.00030554,-0.01103318,-0.
 00489683,-0.00254568,-0.00030454,0.00005862,-0.00076878,-0.01389184,-0
 .02564095,0.02290556,0.00047624,-0.00033709,0.00614955,-0.12853734,-0.
 16480322,0.05781788,0.04898775,0.51949830,-0.00002655,-0.00074350,-0.0
 0002793,0.00025543,0.00011967,-0.00013377,-0.01637904,0.01730930,-0.00
 872886,0.00127707,0.00529514,0.00218840,-0.00190664,0.00085703,-0.0006
 7735,0.00015922,-0.00039994,-0.00022506,-0.00619171,-0.00229764,-0.004
 63523,0.00018385,-0.00088017,-0.00039033,0.01980912,0.01381333,-0.0004
 0252,-0.00144399,0.00629536,0.00218987,0.06370216,0.07075290,-0.106365
 50,0.06054452,-0.30453575,0.38963852,-0.00033110,-0.00024018,0.0000017
 6,-0.00001046,-0.00001115,0.00001625,-0.00485181,0.00094729,-0.0031340
 5,0.00117477,0.00076167,-0.00031183,-0.00051336,0.00032420,-0.00002211
 ,0.00002061,-0.00008279,-0.00005299,-0.00137167,-0.00033447,0.00018355
 ,0.00008830,0.00011119,0.00011541,-0.00373479,-0.00325286,0.00045550,0
 .00019011,-0.00101488,0.00078710,0.00669522,-0.01982823,0.01658980,-0.
 05731301,0.01441373,-0.01519328,0.05931886,0.00016232,0.00008213,0.000
 01588,0.00000429,-0.00000088,0.00000698,0.00089577,0.00302807,0.002719
 24,-0.00043304,0.00003965,0.00005632,0.00007182,-0.00008755,-0.0000100
 1,-0.00003282,0.00000826,0.00000860,0.00002088,0.00008907,-0.00085194,
 0.00012291,-0.00042735,-0.00044196,-0.00357209,0.00277375,0.00326478,0
 .00021042,-0.00041350,0.00041227,0.00293437,-0.00710414,0.00953801,0.0
 1727859,-0.22122356,0.15242466,-0.01511678,0.22751055,-0.00016640,-0.0
 0009606,-0.00009361,-0.00000843,0.00001598,-0.00000910,-0.00288283,0.0
 0247848,0.00347738,0.00051452,0.00032507,0.00029576,-0.00031416,0.0001
 8476,-0.00011611,-0.00003226,-0.00007854,-0.00003628,0.00031254,-0.000
 95969,-0.00018771,0.00011630,-0.00042534,-0.00060488,0.00045932,0.0034
 2451,0.00490509,-0.00015037,0.00020240,-0.00011496,-0.00214198,0.00473
 319,-0.00028241,-0.01703001,0.15199399,-0.16408342,0.01864263,-0.16681
 438,0.16440045,-0.00398722,-0.00321281,0.00066538,-0.00043336,-0.00002
 408,0.00021547,-0.11638122,0.00298040,-0.01823908,0.01178452,0.0181531
 5,-0.00946229,-0.00750695,0.00310489,-0.00059711,0.00056869,-0.0008698
 8,-0.00072358,0.05033932,-0.01235370,0.01869316,-0.00254596,-0.0031115
 8,0.00020709,-0.03012379,0.03106571,-0.02874489,0.00008145,0.00097915,
 -0.00070907,-0.06033534,-0.04481490,0.02301479,-0.27394768,0.08154270,
 -0.10719768,0.00010690,-0.00242984,0.00125974,0.53143119,-0.00531644,-
 0.00299210,-0.00143017,0.00005721,-0.00002041,-0.00022852,0.04404154,-
 0.20301653,0.12511372,0.01193143,-0.00228081,0.00655537,-0.00261154,0.
 00279121,-0.00143133,0.00037688,-0.00111670,0.00000111,-0.06338993,-0.
 02864399,0.01589264,-0.00310207,0.00281506,0.00346460,0.03037412,-0.03
 203397,0.02548183,0.00111359,-0.00075068,0.00020124,0.01024582,0.04519
 978,-0.02933462,0.02234678,-0.11129091,0.04475926,0.02153484,-0.002822
 47,0.00883180,-0.02172503,0.38648124,0.00342678,0.00088159,0.00131169,
 -0.00021487,-0.00026944,0.00051626,-0.04877052,0.11670767,-0.16546571,
 -0.00512057,0.00660134,-0.00562195,0.00166991,-0.00136334,0.00137729,-
 0.00013648,0.00106936,-0.00005046,0.05762250,0.02516260,-0.00295629,0.
 00038326,0.00334240,0.00506436,-0.02833252,0.02603413,-0.03231789,-0.0
 0070546,0.00017710,-0.00097612,-0.02059408,-0.03903195,0.03383595,-0.0
 6137367,0.05558225,-0.11876304,-0.01792650,0.00381583,-0.00445303,0.09
 794545,-0.22385267,0.31695828,0.00003917,0.00003465,-0.00004615,0.0000
 1281,-0.00000005,0.00001206,0.00019143,-0.00053601,0.00067054,-0.00005
 025,0.00000074,0.00009951,-0.00004381,0.00008430,0.00000030,0.00000641
 ,-0.00001549,-0.00001023,0.00201266,-0.00039393,-0.00073688,-0.0000409
 3,-0.00012420,0.00009806,0.00206090,-0.00135085,0.00066206,0.00040063,
 0.00071058,0.00030771,-0.28743441,0.06269264,-0.09725616,-0.01742472,0
 .00808009,-0.01061336,0.00065888,0.00033601,0.00065079,-0.00144210,-0.
 00313226,0.00084136,0.30213622,0.00000810,0.00008364,0.00000678,-0.000
 03788,-0.00001518,0.00002172,-0.00036528,-0.00099683,-0.00047293,-0.00
 007100,-0.00041868,-0.00037097,0.00013676,-0.00002826,0.00004135,-0.00
 005518,0.00003477,0.00004335,-0.00067499,-0.00094204,0.00642872,0.0011
 4605,-0.00028784,0.00039486,0.02258592,-0.00056367,0.00815152,0.000064
 98,-0.00099710,-0.00243849,0.06272631,-0.06960484,0.03635397,-0.015841
 90,0.00803216,-0.00619411,0.00082266,-0.00124334,-0.00226654,-0.003308
 69,0.00203479,0.00392313,-0.06620378,0.06518128,-0.00017564,-0.0000597
 1,-0.00005978,-0.00001662,0.00000250,0.00000429,0.00072828,-0.00007598
 ,-0.00119621,0.00016521,-0.00025166,-0.00042883,-0.00002471,-0.0001608
 2,0.00011831,0.00007769,-0.00001000,-0.00004334,-0.00051549,0.00637837
 ,0.00220190,-0.00089956,0.00017236,-0.00028576,-0.01824552,0.00343537,
 -0.00204479,0.00079473,-0.00232996,-0.00208277,-0.09731583,0.03644695,
 -0.08663009,0.00854267,-0.00149506,0.00689455,0.00025907,-0.00240918,-
 0.00229215,0.00081834,0.00390823,0.00477108,0.10534238,-0.04362922,0.0
 8110912,0.00216427,0.00180016,-0.00095486,0.00008587,0.00002388,0.0002
 0924,-0.00654928,-0.00921500,0.00513536,-0.00448915,-0.00013251,-0.001
 62749,0.00128882,-0.00036262,0.00051326,-0.00033234,0.00032538,0.00015
 326,0.00185249,-0.00079564,0.00002449,-0.00060351,-0.00026342,0.000036
 64,-0.00045451,-0.00189319,0.00156450,0.00003788,-0.00002464,0.0001957
 3,-0.00054693,0.00510646,-0.00493987,-0.03462723,-0.02385458,0.0130208
 8,-0.00012746,-0.00045281,0.00077059,-0.09760845,-0.04274492,0.0212853
 9,-0.00108289,-0.00093208,0.00046501,0.14099241,0.00154704,-0.00005249
 ,0.00263601,-0.00024065,-0.00011602,0.00032416,-0.02313126,-0.01480253
 ,0.00918562,-0.00258153,-0.00221108,-0.00147700,0.00086591,-0.00030111
 ,0.00049721,-0.00021409,0.00029619,0.00007461,0.00375218,0.00035576,0.
 00468194,-0.00108879,-0.00055331,0.00014486,-0.00130900,-0.00045723,-0
 .00051559,-0.00001167,-0.00025928,-0.00052924,-0.00011905,0.00304374,0
 .00136009,-0.00569245,-0.00087612,0.00342445,0.00096576,-0.00020870,-0
 .00154964,-0.04597550,-0.05435351,0.02121999,-0.00018244,-0.00026886,0
 .00007781,0.07341554,0.07076456,-0.00178089,0.00173261,-0.00293131,0.0
 0019771,0.00024208,-0.00051862,0.01742702,0.01196590,-0.00391554,0.001
 87838,0.00040489,-0.00184565,-0.00037638,0.00004135,0.00021885,0.00024
 904,-0.00008603,-0.00007475,-0.00324563,0.00352759,0.00096691,0.000788
 57,0.00049470,-0.00005528,0.00099292,-0.00029662,-0.00038929,0.0001624
 3,-0.00044903,-0.00040176,-0.00122366,0.00190742,0.00275780,-0.0016393
 8,-0.00026889,0.00352168,-0.00041030,-0.00173510,-0.00080500,0.0228542
 8,0.02206752,-0.03323040,-0.00002200,0.00000688,-0.00003552,-0.0358521
 1,-0.03955527,0.03673787\\0.00000045,-0.00000585,0.00000086,-0.0000001
 1,-0.00000752,0.00000030,-0.00000007,-0.00000082,-0.00000004,-0.000000
 74,-0.00000374,-0.00000066,-0.00000252,-0.00000424,-0.00000274,-0.0000
 0327,-0.00000261,-0.00000370,-0.00000116,0.00000023,-0.00000133,-0.000
 00231,-0.00000098,-0.00000267,-0.00000059,0.00000275,-0.00000086,-0.00
 000140,0.00000350,-0.00000187,0.00000094,0.00000435,0.00000085,0.00000
 191,0.00000339,0.00000212,0.00000316,0.00000463,0.00000346,0.00000147,
 0.00000087,0.00000165,0.00000135,0.00000633,0.00000122,0.00000289,-0.0
 0000029,0.00000341\\\@
 The archive entry for this job was punched.


 IF OTHER PEOPLE ARE GOING TO TALK, CONVERSATION IS SIMPLY IMPOSSIBLE.

                                               -- WHISTLER'S PRINCIPLE
 Job cpu time:       0 days  0 hours 41 minutes 13.1 seconds.
 Elapsed time:       0 days  0 hours  1 minutes 19.4 seconds.
 File lengths (MBytes):  RWF=    145 Int=      0 D2E=      0 Chk=      8 Scr=      1
 Normal termination of Gaussian 16 at Mon May  5 07:41:32 2025.
