/home/tahminaafroz
cn014.cluster.local
tahminaafroz
Mon Apr 21 11:55:32 CDT 2025
 Entering Gaussian System, Link 0=g16
 Initial command:
 /home/apps/g16/l1.exe "/tmp/4-cl-phboh2-opt-freq-thf/Gau-3018681.inp" -scrdir="/tmp/4-cl-phboh2-opt-freq-thf/"
 Entering Link 1 = /home/apps/g16/l1.exe PID=   3018682.
  
 Copyright (c) 1988-2019, Gaussian, Inc.  All Rights Reserved.
  
 This is part of the Gaussian(R) 16 program.  It is based on
 the Gaussian(R) 09 system (copyright 2009, Gaussian, Inc.),
 the Gaussian(R) 03 system (copyright 2003, Gaussian, Inc.),
 the Gaussian(R) 98 system (copyright 1998, Gaussian, Inc.),
 the Gaussian(R) 94 system (copyright 1995, Gaussian, Inc.),
 the Gaussian 92(TM) system (copyright 1992, Gaussian, Inc.),
 the Gaussian 90(TM) system (copyright 1990, Gaussian, Inc.),
 the Gaussian 88(TM) system (copyright 1988, Gaussian, Inc.),
 the Gaussian 86(TM) system (copyright 1986, Carnegie Mellon
 University), and the Gaussian 82(TM) system (copyright 1983,
 Carnegie Mellon University). Gaussian is a federally registered
 trademark of Gaussian, Inc.
  
 This software contains proprietary and confidential information,
 including trade secrets, belonging to Gaussian, Inc.
  
 This software is provided under written license and may be
 used, copied, transmitted, or stored only in accord with that
 written license.
  
 The following legend is applicable only to US Government
 contracts under FAR:
  
                    RESTRICTED RIGHTS LEGEND
  
 Use, reproduction and disclosure by the US Government is
 subject to restrictions as set forth in subparagraphs (a)
 and (c) of the Commercial Computer Software - Restricted
 Rights clause in FAR 52.227-19.
  
 Gaussian, Inc.
 340 Quinnipiac St., Bldg. 40, Wallingford CT 06492
  
  
 ---------------------------------------------------------------
 Warning -- This program may not be used in any manner that
 competes with the business of Gaussian, Inc. or will provide
 assistance to any competitor of Gaussian, Inc.  The licensee
 of this program is prohibited from giving any competitor of
 Gaussian, Inc. access to this program.  By using this program,
 the user acknowledges that Gaussian, Inc. is engaged in the
 business of creating and licensing software in the field of
 computational chemistry and represents and warrants to the
 licensee that it is not a competitor of Gaussian, Inc. and that
 it will not use this program in any manner prohibited above.
 ---------------------------------------------------------------
  

 Cite this work as:
 Gaussian 16, Revision C.01,
 M. J. Frisch, G. W. Trucks, H. B. Schlegel, G. E. Scuseria, 
 M. A. Robb, J. R. Cheeseman, G. Scalmani, V. Barone, 
 G. A. Petersson, H. Nakatsuji, X. Li, M. Caricato, A. V. Marenich, 
 J. Bloino, B. G. Janesko, R. Gomperts, B. Mennucci, H. P. Hratchian, 
 J. V. Ortiz, A. F. Izmaylov, J. L. Sonnenberg, D. Williams-Young, 
 F. Ding, F. Lipparini, F. Egidi, J. Goings, B. Peng, A. Petrone, 
 T. Henderson, D. Ranasinghe, V. G. Zakrzewski, J. Gao, N. Rega, 
 G. Zheng, W. Liang, M. Hada, M. Ehara, K. Toyota, R. Fukuda, 
 J. Hasegawa, M. Ishida, T. Nakajima, Y. Honda, O. Kitao, H. Nakai, 
 T. Vreven, K. Throssell, J. A. Montgomery, Jr., J. E. Peralta, 
 F. Ogliaro, M. J. Bearpark, J. J. Heyd, E. N. Brothers, K. N. Kudin, 
 V. N. Staroverov, T. A. Keith, R. Kobayashi, J. Normand, 
 K. Raghavachari, A. P. Rendell, J. C. Burant, S. S. Iyengar, 
 J. Tomasi, M. Cossi, J. M. Millam, M. Klene, C. Adamo, R. Cammi, 
 J. W. Ochterski, R. L. Martin, K. Morokuma, O. Farkas, 
 J. B. Foresman, and D. J. Fox, Gaussian, Inc., Wallingford CT, 2019.
 
 ******************************************
 Gaussian 16:  AS64L-G16RevC.01  3-Jul-2019
                21-Apr-2025 
 ******************************************
 %mem=20GB
 %nprocshared=32
 Will use up to   32 processors via shared memory.
 %chk=4-cl-phboh2-opt-freq-thf.chk
 ----------------------------------------------------------------------
 # opt=(calcfc,tight) freq 6-311+g(d,p) scrf=(smd,solvent=thf) nosymm s
 cf=(qc,fermi,xqc) geom=connectivity int=ultrafine m062x
 ----------------------------------------------------------------------
 1/7=10,10=4,18=20,19=15,26=6,38=1,57=2/1,3;
 2/9=110,12=2,15=1,17=6,18=5,40=1/2;
 3/5=4,6=6,7=111,11=2,25=1,30=1,70=32201,71=2,72=20,74=-55,75=-5,140=1/1,2,3;
 4//1;
 5/5=2,22=13,38=5,53=20/2;
 8/6=4,10=90,11=11/1;
 11/6=1,8=1,9=11,15=111,16=1,31=1/1,2,10;
 10/6=1,13=1,31=1/2;
 6/7=2,8=2,9=2,10=2,28=1/1;
 7/10=1,25=1,30=1/1,2,3,16;
 1/7=10,10=4,18=20,19=15,26=6/3(2);
 2/9=110,15=1/2;
 99//99;
 2/9=110,15=1/2;
 3/5=4,6=6,7=111,11=2,25=1,30=1,70=32205,71=1,72=20,74=-55,75=-5/1,2,3;
 4/5=5,16=3,69=1/1;
 5/5=2,22=13,38=5,53=20/2;
 7/30=1/1,2,3,16;
 1/7=10,18=20,19=15,26=6/3(-5);
 2/9=110,15=1/2;
 6/7=2,8=2,9=2,10=2,19=2,28=1/1;
 99/9=1/99;
 -----------------------
 4-cl-phboh2-optfreq-thf
 -----------------------
 Symbolic Z-matrix:
 Charge =  0 Multiplicity = 1
 O                     8.68516   7.45621   5.54176 
 H                     9.49823   7.14809   5.95219 
 C                     6.24256   6.99584   5.1734 
 B                     7.63957   6.61458   5.77245 
 O                     7.87708   5.49076   6.51526 
 H                     7.10779   4.94127   6.67183 
 C                     5.1173    6.17405   5.28872 
 H                     5.17713   5.2192    5.80383 
 C                     3.88893   6.53713   4.75026 
 H                     3.02194   5.89581   4.84229 
 C                     3.78662   7.74959   4.08134 
 C                     4.88098   8.59388   3.94284 
 H                     4.77381   9.53307   3.41525 
 C                     6.09833   8.20841   4.48865 
 H                     6.95998   8.85807   4.38532 
 Cl                    2.25259   8.21894   3.40018 
 

 GradGradGradGradGradGradGradGradGradGradGradGradGradGradGradGradGradGrad
 Berny optimization.
 Initialization pass.
                           ----------------------------
                           !    Initial Parameters    !
                           ! (Angstroms and Degrees)  !
 --------------------------                            --------------------------
 ! Name  Definition              Value          Derivative Info.                !
 --------------------------------------------------------------------------------
 ! R1    R(1,2)                  0.9615         calculate D2E/DX2 analytically  !
 ! R2    R(1,4)                  1.3619         calculate D2E/DX2 analytically  !
 ! R3    R(3,4)                  1.5671         calculate D2E/DX2 analytically  !
 ! R4    R(3,7)                  1.3982         calculate D2E/DX2 analytically  !
 ! R5    R(3,14)                 1.4            calculate D2E/DX2 analytically  !
 ! R6    R(4,5)                  1.3679         calculate D2E/DX2 analytically  !
 ! R7    R(5,6)                  0.9583         calculate D2E/DX2 analytically  !
 ! R8    R(7,8)                  1.0866         calculate D2E/DX2 analytically  !
 ! R9    R(7,9)                  1.3895         calculate D2E/DX2 analytically  !
 ! R10   R(9,10)                 1.0823         calculate D2E/DX2 analytically  !
 ! R11   R(9,11)                 1.3885         calculate D2E/DX2 analytically  !
 ! R12   R(11,12)                1.3891         calculate D2E/DX2 analytically  !
 ! R13   R(11,16)                1.7428         calculate D2E/DX2 analytically  !
 ! R14   R(12,13)                1.0825         calculate D2E/DX2 analytically  !
 ! R15   R(12,14)                1.3887         calculate D2E/DX2 analytically  !
 ! R16   R(14,15)                1.0841         calculate D2E/DX2 analytically  !
 ! A1    A(2,1,4)              112.264          calculate D2E/DX2 analytically  !
 ! A2    A(4,3,7)              122.8829         calculate D2E/DX2 analytically  !
 ! A3    A(4,3,14)             119.3092         calculate D2E/DX2 analytically  !
 ! A4    A(7,3,14)             117.8079         calculate D2E/DX2 analytically  !
 ! A5    A(1,4,3)              117.9891         calculate D2E/DX2 analytically  !
 ! A6    A(1,4,5)              117.7997         calculate D2E/DX2 analytically  !
 ! A7    A(3,4,5)              124.2111         calculate D2E/DX2 analytically  !
 ! A8    A(4,5,6)              114.8621         calculate D2E/DX2 analytically  !
 ! A9    A(3,7,8)              120.7508         calculate D2E/DX2 analytically  !
 ! A10   A(3,7,9)              121.7316         calculate D2E/DX2 analytically  !
 ! A11   A(8,7,9)              117.5171         calculate D2E/DX2 analytically  !
 ! A12   A(7,9,10)             121.3576         calculate D2E/DX2 analytically  !
 ! A13   A(7,9,11)             118.6858         calculate D2E/DX2 analytically  !
 ! A14   A(10,9,11)            119.9565         calculate D2E/DX2 analytically  !
 ! A15   A(9,11,12)            121.3795         calculate D2E/DX2 analytically  !
 ! A16   A(9,11,16)            119.2283         calculate D2E/DX2 analytically  !
 ! A17   A(12,11,16)           119.3921         calculate D2E/DX2 analytically  !
 ! A18   A(11,12,13)           119.8606         calculate D2E/DX2 analytically  !
 ! A19   A(11,12,14)           118.8632         calculate D2E/DX2 analytically  !
 ! A20   A(13,12,14)           121.2762         calculate D2E/DX2 analytically  !
 ! A21   A(3,14,12)            121.5316         calculate D2E/DX2 analytically  !
 ! A22   A(3,14,15)            118.933          calculate D2E/DX2 analytically  !
 ! A23   A(12,14,15)           119.5354         calculate D2E/DX2 analytically  !
 ! D1    D(2,1,4,3)            179.4719         calculate D2E/DX2 analytically  !
 ! D2    D(2,1,4,5)             -0.4141         calculate D2E/DX2 analytically  !
 ! D3    D(7,3,4,1)            176.6408         calculate D2E/DX2 analytically  !
 ! D4    D(7,3,4,5)             -3.4812         calculate D2E/DX2 analytically  !
 ! D5    D(14,3,4,1)            -3.2945         calculate D2E/DX2 analytically  !
 ! D6    D(14,3,4,5)           176.5835         calculate D2E/DX2 analytically  !
 ! D7    D(4,3,7,8)             -0.398          calculate D2E/DX2 analytically  !
 ! D8    D(4,3,7,9)            179.8746         calculate D2E/DX2 analytically  !
 ! D9    D(14,3,7,8)           179.5382         calculate D2E/DX2 analytically  !
 ! D10   D(14,3,7,9)            -0.1892         calculate D2E/DX2 analytically  !
 ! D11   D(4,3,14,12)         -179.8146         calculate D2E/DX2 analytically  !
 ! D12   D(4,3,14,15)            0.1562         calculate D2E/DX2 analytically  !
 ! D13   D(7,3,14,12)            0.2468         calculate D2E/DX2 analytically  !
 ! D14   D(7,3,14,15)         -179.7824         calculate D2E/DX2 analytically  !
 ! D15   D(1,4,5,6)            178.4041         calculate D2E/DX2 analytically  !
 ! D16   D(3,4,5,6)             -1.4741         calculate D2E/DX2 analytically  !
 ! D17   D(3,7,9,10)           179.9409         calculate D2E/DX2 analytically  !
 ! D18   D(3,7,9,11)             0.0334         calculate D2E/DX2 analytically  !
 ! D19   D(8,7,9,10)             0.2052         calculate D2E/DX2 analytically  !
 ! D20   D(8,7,9,11)          -179.7024         calculate D2E/DX2 analytically  !
 ! D21   D(7,9,11,12)            0.0735         calculate D2E/DX2 analytically  !
 ! D22   D(7,9,11,16)          179.99           calculate D2E/DX2 analytically  !
 ! D23   D(10,9,11,12)        -179.8354         calculate D2E/DX2 analytically  !
 ! D24   D(10,9,11,16)           0.0811         calculate D2E/DX2 analytically  !
 ! D25   D(9,11,12,13)         179.9161         calculate D2E/DX2 analytically  !
 ! D26   D(9,11,12,14)          -0.0178         calculate D2E/DX2 analytically  !
 ! D27   D(16,11,12,13)         -0.0002         calculate D2E/DX2 analytically  !
 ! D28   D(16,11,12,14)       -179.9341         calculate D2E/DX2 analytically  !
 ! D29   D(11,12,14,3)          -0.1471         calculate D2E/DX2 analytically  !
 ! D30   D(11,12,14,15)        179.8823         calculate D2E/DX2 analytically  !
 ! D31   D(13,12,14,3)         179.92           calculate D2E/DX2 analytically  !
 ! D32   D(13,12,14,15)         -0.0506         calculate D2E/DX2 analytically  !
 --------------------------------------------------------------------------------
 Trust Radius=3.00D-01 FncErr=5.00D-06 GrdErr=5.00D-06 EigMax=2.50D+02 EigMin=1.00D-04
 Number of steps in this run=     81 maximum allowed number of steps=    100.
 GradGradGradGradGradGradGradGradGradGradGradGradGradGradGradGradGradGrad

                          Input orientation:                          
 ---------------------------------------------------------------------
 Center     Atomic      Atomic             Coordinates (Angstroms)
 Number     Number       Type             X           Y           Z
 ---------------------------------------------------------------------
      1          8           0        8.685162    7.456214    5.541765
      2          1           0        9.498228    7.148086    5.952188
      3          6           0        6.242555    6.995843    5.173404
      4          5           0        7.639566    6.614580    5.772452
      5          8           0        7.877080    5.490758    6.515262
      6          1           0        7.107787    4.941274    6.671834
      7          6           0        5.117302    6.174045    5.288723
      8          1           0        5.177127    5.219196    5.803826
      9          6           0        3.888928    6.537127    4.750260
     10          1           0        3.021935    5.895810    4.842289
     11          6           0        3.786616    7.749593    4.081337
     12          6           0        4.880982    8.593882    3.942844
     13          1           0        4.773806    9.533066    3.415249
     14          6           0        6.098326    8.208410    4.488648
     15          1           0        6.959981    8.858073    4.385320
     16         17           0        2.252585    8.218936    3.400178
 ---------------------------------------------------------------------
                    Distance matrix (angstroms):
                    1          2          3          4          5
     1  O    0.000000
     2  H    0.961492   0.000000
     3  C    2.512759   3.350983   0.000000
     4  B    1.361923   1.942050   1.567118   0.000000
     5  O    2.337458   2.385772   2.595676   1.367902   0.000000
     6  H    3.176490   3.331984   2.686107   1.972721   0.958258
     7  C    3.799686   4.536679   1.398158   2.605740   3.096394
     8  H    4.168841   4.734400   2.165420   2.830492   2.805287
     9  C    4.947228   5.769068   2.434960   3.888208   4.485028
    10  H    5.915764   6.688979   3.419372   4.764908   5.151246
    11  C    5.120027   6.040232   2.791485   4.358136   5.268607
    12  C    4.280493   5.238965   2.433493   3.856798   5.022282
    13  H    4.912646   5.868931   3.418455   4.720863   5.964951
    14  C    2.892503   3.850399   1.400004   2.562005   3.828415
    15  H    2.505758   3.438289   2.145618   2.723827   4.088586
    16  Cl   6.822477   7.756212   4.534330   6.100918   6.984386
                    6          7          8          9         10
     6  H    0.000000
     7  C    2.719329   0.000000
     8  H    2.134977   1.086576   0.000000
     9  C    4.074340   1.389487   2.122828   0.000000
    10  H    4.577397   2.160389   2.455038   1.082328   0.000000
    11  C    5.062362   2.389740   3.362053   1.388524   2.144830
    12  C    5.074209   2.779001   3.865160   2.422051   3.397742
    13  H    6.094044   3.861466   4.947468   3.397192   4.281954
    14  C    4.057030   2.396074   3.393185   2.782637   3.864888
    15  H    4.537765   3.378699   4.293268   3.866696   4.948942
    16  Cl   6.709679   3.994344   4.830001   2.707180   2.840510
                   11         12         13         14         15
    11  C    0.000000
    12  C    1.389115   0.000000
    13  H    2.144526   1.082548   0.000000
    14  C    2.391740   1.388675   2.158993   0.000000
    15  H    3.375112   2.141919   2.485159   1.084061   0.000000
    16  Cl   1.742846   2.709897   2.843188   3.996824   4.851657
                   16
    16  Cl   0.000000
 Symmetry turned off by external request.
 Stoichiometry    C6H6BClO2
 Framework group  C1[X(C6H6BClO2)]
 Deg. of freedom    42
 Full point group                 C1      NOp   1
 Rotational constants (GHZ):           3.6929154           0.5237773           0.4588123
 Standard basis: 6-311+G(d,p) (5D, 7F)
   264 basis functions,   425 primitive gaussians,   274 cartesian basis functions
    40 alpha electrons       40 beta electrons
       nuclear repulsion energy       533.7805710621 Hartrees.
 NAtoms=   16 NActive=   16 NUniq=   16 SFac= 1.00D+00 NAtFMM=   60 NAOKFM=F Big=F
 Integral buffers will be    131072 words long.
 Raffenetti 2 integral format.
 Two-electron integral symmetry is turned off.
 Force inversion solution in PCM.
 ------------------------------------------------------------------------------
 Polarizable Continuum Model (PCM)
 =================================
 Model                : PCM.
 Atomic radii         : SMD-Coulomb.
 Polarization charges : Total charges.
 Charge compensation  : None.
 Solution method      : Matrix inversion.
 Cavity type          : VdW (van der Waals Surface) (Alpha=1.000).
 Cavity algorithm     : GePol (No added spheres)
                        Default sphere list used, NSphG=   16.
                        Lebedev-Laikov grids with approx.  5.0 points / Ang**2.
                        Smoothing algorithm: York/Karplus (Gamma=1.0000).
                        Polarization charges: spherical gaussians, with
                                              point-specific exponents (IZeta= 3).
                        Self-potential: point-specific (ISelfS= 7).
                        Self-field    : sphere-specific E.n sum rule (ISelfD= 2).
 1st derivatives      : Analytical E(r).r(x)/FMM algorithm (CHGder, D1EAlg=3).
                        Cavity 1st derivative terms included.
 2nd derivatives      : Analytical E(r).r(xy)/FMM algorithm (CHGder, D2EAlg=3).
                        Cavity 2nd derivative terms included.
 Solvent              : TetraHydroFuran, Eps=   7.425700 Eps(inf)=   1.974025
 ------------------------------------------------------------------------------
 Spheres list:
 ISph  on   Nord     Re0    Alpha      Xe            Ye            Ze
    1   O      1    2.2940  1.000      8.685162      7.456214      5.541765
    2   H      2    1.2000  1.000      9.498228      7.148086      5.952188
    3   C      3    1.8500  1.000      6.242555      6.995843      5.173404
    4   B      4    1.8000  1.000      7.639566      6.614580      5.772452
    5   O      5    2.2940  1.000      7.877080      5.490758      6.515262
    6   H      6    1.2000  1.000      7.107787      4.941274      6.671834
    7   C      7    1.8500  1.000      5.117302      6.174045      5.288723
    8   H      8    1.2000  1.000      5.177127      5.219196      5.803826
    9   C      9    1.8500  1.000      3.888928      6.537127      4.750260
   10   H     10    1.2000  1.000      3.021935      5.895810      4.842289
   11   C     11    1.8500  1.000      3.786616      7.749593      4.081337
   12   C     12    1.8500  1.000      4.880982      8.593882      3.942844
   13   H     13    1.2000  1.000      4.773806      9.533066      3.415249
   14   C     14    1.8500  1.000      6.098326      8.208410      4.488648
   15   H     15    1.2000  1.000      6.959981      8.858073      4.385320
   16  Cl     16    2.3800  1.000      2.252585      8.218936      3.400178
 ------------------------------------------------------------------------------
 ------------------------------------------------------------------------------
 Atomic radii for non-electrostatic terms: SMD-CDS.
 ------------------------------------------------------------------------------
 Nuclear repulsion after PCM non-electrostatic terms =      533.7758531959 Hartrees.
 One-electron integrals computed using PRISM.
 NBasis=   264 RedAO= T EigKep=  2.19D-06  NBF=   264
 NBsUse=   264 1.00D-06 EigRej= -1.00D+00 NBFU=   264
 ExpMin= 3.15D-02 ExpMax= 1.06D+05 ExpMxC= 3.62D+03 IAcc=3 IRadAn=         5 AccDes= 0.00D+00
 Harris functional with IExCor= 1009 and IRadAn=       5 diagonalized for initial guess.
 HarFok:  IExCor= 1009 AccDes= 0.00D+00 IRadAn=         5 IDoV= 1 UseB2=F ITyADJ=14
 ICtDFT=  3500011 ScaDFX=  1.000000  1.000000  1.000000  1.000000
 FoFCou: FMM=F IPFlag=           0 FMFlag=      100000 FMFlg1=           0
         NFxFlg=           0 DoJE=T BraDBF=F KetDBF=T FulRan=T
         wScrn=  0.000000 ICntrl=       500 IOpCl=  0 I1Cent=   200000004 NGrid=           0
         NMat0=    1 NMatS0=      1 NMatT0=    0 NMatD0=    1 NMtDS0=    0 NMtDT0=    0
 Symmetry not used in FoFCou.
 Requested convergence on RMS density matrix=1.00D-08 within 128 cycles.
 Requested convergence on MAX density matrix=1.00D-06.
 Requested convergence on             energy=1.00D-06.
 Level shift goal  0.100 maximum shift  0.100.
 No special actions if energy rises.
 Dynamic level shift is on during FON iterations.
 Inv3:  Mode=1 IEnd=     7824675.
 Iteration    1 A*A^-1 deviation from unit magnitude is 4.44D-15 for   1606.
 Iteration    1 A*A^-1 deviation from orthogonality  is 2.32D-15 for   1592    487.
 Iteration    1 A^-1*A deviation from unit magnitude is 4.22D-15 for   1606.
 Iteration    1 A^-1*A deviation from orthogonality  is 2.22D-15 for   1615   1447.
 Error on total polarization charges =  0.01876
 SCF Done:  E(RM062X) =  -867.840122549     A.U. after   14 cycles
            NFock= 14  Conv=0.58D-08     -V/T= 2.0028
 SMD-CDS (non-electrostatic) energy       (kcal/mol) =      -2.96
 (included in total energy above)
 DoSCS=F DFT=T ScalE2(SS,OS)=  1.000000  1.000000
 Range of M.O.s used for correlation:     1   264
 NBasis=   264 NAE=    40 NBE=    40 NFC=     0 NFV=     0
 NROrb=    264 NOA=    40 NOB=    40 NVA=   224 NVB=   224

 **** Warning!!: The largest alpha MO coefficient is  0.18422369D+03

 Symmetrizing basis deriv contribution to polar:
 IMax=3 JMax=2 DiffMx= 0.00D+00
 G2DrvN: will do    17 centers at a time, making    1 passes.
 Calling FoFCou, ICntrl=  3107 FMM=F I1Cent=   0 AccDes= 0.00D+00.
 NEqPCM:  Using equilibrium solvation (IEInf=0, Eps=   7.4257, EpsInf=   1.9740)
 G2PCM: DoFxE=T DoFxN=T DoGrad=T DoDP/DQ/DG/TGxP=FFFF NFrqRd=   0 IEInf=0 SqF1=F DoCFld=F IF1Alg=4.
 End of G2Drv F.D. properties file   721 does not exist.
 End of G2Drv F.D. properties file   722 does not exist.
 End of G2Drv F.D. properties file   788 does not exist.
          IDoAtm=1111111111111111
 NEqPCM:  Using equilibrium solvation (IEInf=0, Eps=   7.4257, EpsInf=   1.9740)
          Differentiating once with respect to nuclear coordinates.
 Keep R1 ints in memory in canonical form, NReq=647109706.
          There are    51 degrees of freedom in the 1st order CPHF.  IDoFFX=6 NUNeed=     0.
     45 vectors produced by pass  0 Test12= 1.76D-14 1.96D-09 XBig12= 2.07D-01 1.99D-01.
 AX will form    45 AO Fock derivatives at one time.
     45 vectors produced by pass  1 Test12= 1.76D-14 1.96D-09 XBig12= 1.09D-02 3.49D-02.
     45 vectors produced by pass  2 Test12= 1.76D-14 1.96D-09 XBig12= 3.46D-04 2.49D-03.
     45 vectors produced by pass  3 Test12= 1.76D-14 1.96D-09 XBig12= 2.10D-06 2.29D-04.
     45 vectors produced by pass  4 Test12= 1.76D-14 1.96D-09 XBig12= 1.51D-08 1.88D-05.
     45 vectors produced by pass  5 Test12= 1.76D-14 1.96D-09 XBig12= 8.83D-11 1.05D-06.
     44 vectors produced by pass  6 Test12= 1.76D-14 1.96D-09 XBig12= 3.87D-13 7.74D-08.
      8 vectors produced by pass  7 Test12= 1.76D-14 1.96D-09 XBig12= 1.49D-15 3.83D-09.
 InvSVY:  IOpt=1 It=  1 EMax= 5.00D-16
 Solved reduced A of dimension   322 with    51 vectors.
 End of Minotr F.D. properties file   721 does not exist.
 End of Minotr F.D. properties file   722 does not exist.
 End of Minotr F.D. properties file   788 does not exist.

 **********************************************************************

            Population analysis using the SCF Density.

 **********************************************************************

 Alpha  occ. eigenvalues -- -102.68184 -19.63776 -19.63259 -10.61429 -10.55915
 Alpha  occ. eigenvalues --  -10.55725 -10.55618 -10.55428 -10.53674  -9.82464
 Alpha  occ. eigenvalues --   -7.54965  -7.54313  -7.54297  -7.08649  -1.16937
 Alpha  occ. eigenvalues --   -1.13266  -1.00421  -0.94220  -0.85911  -0.83274
 Alpha  occ. eigenvalues --   -0.70837  -0.69004  -0.65386  -0.63281  -0.58970
 Alpha  occ. eigenvalues --   -0.54348  -0.53446  -0.51021  -0.50081  -0.48603
 Alpha  occ. eigenvalues --   -0.46962  -0.46164  -0.45840  -0.41894  -0.40716
 Alpha  occ. eigenvalues --   -0.40482  -0.39274  -0.38310  -0.32266  -0.30707
 Alpha virt. eigenvalues --   -0.01188  -0.00036   0.00656   0.01956   0.02056
 Alpha virt. eigenvalues --    0.03097   0.03462   0.04491   0.04754   0.06455
 Alpha virt. eigenvalues --    0.06644   0.08042   0.09026   0.09250   0.09375
 Alpha virt. eigenvalues --    0.10941   0.11315   0.11821   0.13426   0.13662
 Alpha virt. eigenvalues --    0.13873   0.14620   0.14966   0.15177   0.16189
 Alpha virt. eigenvalues --    0.16931   0.16986   0.17887   0.18961   0.19339
 Alpha virt. eigenvalues --    0.20327   0.21311   0.22230   0.22628   0.22806
 Alpha virt. eigenvalues --    0.23446   0.23922   0.24193   0.24466   0.24984
 Alpha virt. eigenvalues --    0.25213   0.25551   0.25965   0.27345   0.28757
 Alpha virt. eigenvalues --    0.29563   0.30456   0.31470   0.33280   0.33432
 Alpha virt. eigenvalues --    0.34902   0.36196   0.36903   0.40105   0.41926
 Alpha virt. eigenvalues --    0.45829   0.46184   0.47343   0.48059   0.48260
 Alpha virt. eigenvalues --    0.49680   0.50167   0.50841   0.54093   0.54817
 Alpha virt. eigenvalues --    0.56973   0.57289   0.58039   0.59453   0.59880
 Alpha virt. eigenvalues --    0.62471   0.63105   0.63994   0.64375   0.66903
 Alpha virt. eigenvalues --    0.68347   0.69254   0.70805   0.70964   0.72368
 Alpha virt. eigenvalues --    0.72943   0.75587   0.75831   0.80131   0.84433
 Alpha virt. eigenvalues --    0.85664   0.86673   0.87296   0.88734   0.89793
 Alpha virt. eigenvalues --    0.90278   0.91524   0.92433   0.92712   0.93482
 Alpha virt. eigenvalues --    0.95364   0.98029   0.99673   1.01597   1.03484
 Alpha virt. eigenvalues --    1.04642   1.06811   1.07709   1.09744   1.10550
 Alpha virt. eigenvalues --    1.11152   1.11703   1.13138   1.13505   1.18252
 Alpha virt. eigenvalues --    1.20287   1.22470   1.24794   1.29204   1.33265
 Alpha virt. eigenvalues --    1.33837   1.34937   1.35828   1.38971   1.45948
 Alpha virt. eigenvalues --    1.49549   1.50406   1.51125   1.53735   1.54172
 Alpha virt. eigenvalues --    1.58803   1.60649   1.61082   1.65888   1.66989
 Alpha virt. eigenvalues --    1.69045   1.70690   1.72766   1.75805   1.78077
 Alpha virt. eigenvalues --    1.80070   1.80650   1.85333   1.87112   1.91777
 Alpha virt. eigenvalues --    1.95367   1.96216   1.96809   1.99481   2.00019
 Alpha virt. eigenvalues --    2.00783   2.02739   2.09651   2.10532   2.13057
 Alpha virt. eigenvalues --    2.14885   2.16525   2.21891   2.25698   2.30391
 Alpha virt. eigenvalues --    2.33441   2.36065   2.42750   2.43139   2.46101
 Alpha virt. eigenvalues --    2.50626   2.56329   2.57972   2.59576   2.61990
 Alpha virt. eigenvalues --    2.64459   2.65879   2.68974   2.71807   2.73556
 Alpha virt. eigenvalues --    2.77762   2.78519   2.78979   2.80286   2.81497
 Alpha virt. eigenvalues --    2.84247   2.86073   2.94214   2.95144   2.97958
 Alpha virt. eigenvalues --    3.07190   3.11181   3.13555   3.19922   3.24143
 Alpha virt. eigenvalues --    3.26014   3.26678   3.31467   3.40310   3.41971
 Alpha virt. eigenvalues --    3.48232   3.54041   3.55523   3.60737   3.63687
 Alpha virt. eigenvalues --    3.66431   3.80120   3.93010   3.95405   4.03615
 Alpha virt. eigenvalues --    4.11210   4.18288   4.20057   4.84986   5.08181
 Alpha virt. eigenvalues --    5.09135   5.39336   5.49908   5.69047   5.76960
 Alpha virt. eigenvalues --    9.96766  14.79676  23.62909  23.99647  24.02870
 Alpha virt. eigenvalues --   24.12352  24.17622  24.25040  25.93039  26.23551
 Alpha virt. eigenvalues --   26.69861  50.00277  50.05678 216.06786
          Condensed to atoms (all electrons):
               1          2          3          4          5          6
     1  O    7.789708   0.284911   0.069219   0.436482  -0.127400   0.018085
     2  H    0.284911   0.416097   0.036045  -0.006542  -0.031860   0.002872
     3  C    0.069219   0.036045  10.818538   0.271785  -0.174003   0.027404
     4  B    0.436482  -0.006542   0.271785   3.329643   0.375430   0.013829
     5  O   -0.127400  -0.031860  -0.174003   0.375430   7.988704   0.269902
     6  H    0.018085   0.002872   0.027404   0.013829   0.269902   0.394465
     7  C   -0.009050  -0.007795  -1.363159   0.121001   0.074196  -0.067250
     8  H    0.002143  -0.000024   0.033669   0.008794  -0.005637   0.008669
     9  C    0.061085   0.004877   0.466394   0.041785   0.001538   0.046592
    10  H   -0.000070   0.000000  -0.031327   0.000225   0.000373  -0.000045
    11  C   -0.010090  -0.000249  -3.420534   0.000070   0.007248  -0.004595
    12  C   -0.005169  -0.016004  -0.208431   0.014844   0.066529  -0.013684
    13  H    0.000544   0.000002  -0.018280   0.000416  -0.000070   0.000003
    14  C   -0.118945  -0.011581   0.157433  -0.099173  -0.055479   0.021828
    15  H    0.002785  -0.000321   0.056915  -0.009393   0.002276  -0.000072
    16  Cl  -0.000503   0.000002  -0.109392  -0.001439  -0.000283   0.000069
               7          8          9         10         11         12
     1  O   -0.009050   0.002143   0.061085  -0.000070  -0.010090  -0.005169
     2  H   -0.007795  -0.000024   0.004877   0.000000  -0.000249  -0.016004
     3  C   -1.363159   0.033669   0.466394  -0.031327  -3.420534  -0.208431
     4  B    0.121001   0.008794   0.041785   0.000225   0.000070   0.014844
     5  O    0.074196  -0.005637   0.001538   0.000373   0.007248   0.066529
     6  H   -0.067250   0.008669   0.046592  -0.000045  -0.004595  -0.013684
     7  C   12.219407   0.343269  -1.124469   0.020613  -0.685194  -0.553366
     8  H    0.343269   0.477524   0.003120  -0.005917  -0.022968  -0.026055
     9  C   -1.124469   0.003120  17.574163   0.169515  -1.829329  -7.859546
    10  H    0.020613  -0.005917   0.169515   0.447026   0.132530   0.071981
    11  C   -0.685194  -0.022968  -1.829329   0.132530  14.400160  -1.542724
    12  C   -0.553366  -0.026055  -7.859546   0.071981  -1.542724  17.302078
    13  H   -0.012831   0.000055   0.074110  -0.000257   0.116209   0.158098
    14  C   -2.905065   0.002826  -1.208679  -0.008165  -0.829761  -1.012677
    15  H    0.011491  -0.000094  -0.022389   0.000046  -0.023525  -0.006735
    16  Cl   0.279252   0.000801   0.077885  -0.007954  -1.182593   0.090810
              13         14         15         16
     1  O    0.000544  -0.118945   0.002785  -0.000503
     2  H    0.000002  -0.011581  -0.000321   0.000002
     3  C   -0.018280   0.157433   0.056915  -0.109392
     4  B    0.000416  -0.099173  -0.009393  -0.001439
     5  O   -0.000070  -0.055479   0.002276  -0.000283
     6  H    0.000003   0.021828  -0.000072   0.000069
     7  C   -0.012831  -2.905065   0.011491   0.279252
     8  H    0.000055   0.002826  -0.000094   0.000801
     9  C    0.074110  -1.208679  -0.022389   0.077885
    10  H   -0.000257  -0.008165   0.000046  -0.007954
    11  C    0.116209  -0.829761  -0.023525  -1.182593
    12  C    0.158098  -1.012677  -0.006735   0.090810
    13  H    0.446607   0.037111  -0.005851  -0.007780
    14  C    0.037111  11.873173   0.337467   0.241905
    15  H   -0.005851   0.337467   0.451668   0.000628
    16  Cl  -0.007780   0.241905   0.000628  17.338603
 Mulliken charges:
               1
     1  O   -0.393734
     2  H    0.329572
     3  C   -0.612276
     4  B    0.502241
     5  O   -0.391463
     6  H    0.281928
     7  C   -0.341050
     8  H    0.179824
     9  C   -0.476653
    10  H    0.211427
    11  C    0.895344
    12  C   -0.459949
    13  H    0.211914
    14  C   -0.422217
    15  H    0.205102
    16  Cl   0.279989
 Sum of Mulliken charges =   0.00000
 Mulliken charges with hydrogens summed into heavy atoms:
               1
     1  O   -0.064162
     3  C   -0.612276
     4  B    0.502241
     5  O   -0.109535
     7  C   -0.161226
     9  C   -0.265225
    11  C    0.895344
    12  C   -0.248036
    14  C   -0.217115
    16  Cl   0.279989
 APT charges:
               1
     1  O   -0.501869
     2  H    2.065368
     3  C   -1.397071
     4  B   -0.353500
     5  O    1.261370
     6  H   -1.196536
     7  C   -0.442327
     8  H   -0.165558
     9  C    1.988705
    10  H   -0.810515
    11  C   -1.700691
    12  C   -1.931083
    13  H    1.219309
    14  C   -0.125341
    15  H    1.905585
    16  Cl   0.184154
 Sum of APT charges =   0.00000
 APT charges with hydrogens summed into heavy atoms:
               1
     1  O    1.563499
     3  C   -1.397071
     4  B   -0.353500
     5  O    0.064834
     7  C   -0.607885
     9  C    1.178190
    11  C   -1.700691
    12  C   -0.711774
    14  C    1.780244
    16  Cl   0.184154
 Electronic spatial extent (au):  <R**2>=          31929.8530
 Charge=              0.0000 electrons
 Dipole moment (field-independent basis, Debye):
    X=              0.7968    Y=             -1.8303    Z=              1.3680  Tot=              2.4200
 Quadrupole moment (field-independent basis, Debye-Ang):
   XX=            -57.9229   YY=            -85.5651   ZZ=            -53.0615
   XY=             -0.8471   XZ=             10.2328   YZ=             -3.1279
 Traceless Quadrupole moment (field-independent basis, Debye-Ang):
   XX=              7.5936   YY=            -20.0486   ZZ=             12.4550
   XY=             -0.8471   XZ=             10.2328   YZ=             -3.1279
 Octapole moment (field-independent basis, Debye-Ang**2):
  XXX=           -948.7320  YYY=          -1590.7620  ZZZ=           -843.0203  XYY=           -370.7151
  XXY=           -446.5819  XXZ=           -233.0839  XZZ=           -266.6531  YZZ=           -472.8916
  YYZ=           -393.8867  XYZ=             22.1588
 Hexadecapole moment (field-independent basis, Debye-Ang**3):
 XXXX=         -11530.8749 YYYY=         -22371.6991 ZZZZ=          -8709.3170 XXXY=          -6801.1548
 XXXZ=          -4479.1412 YYYX=          -7521.3676 YYYZ=          -7510.1869 ZZZX=          -4738.7690
 ZZZY=          -6519.5254 XXYY=          -5545.9781 XXZZ=          -3107.4404 YYZZ=          -5504.3430
 XXYZ=          -1838.8701 YYXZ=          -1827.5871 ZZXY=          -2235.2908
 N-N= 5.337758531959D+02 E-N=-3.113929019615D+03  KE= 8.653999653170D+02
  Exact polarizability:       0.000       0.000       0.000       0.000       0.000       0.000
 Approx polarizability:     147.696       0.713     120.406      20.232     -24.859      93.049
 D2PCM: PCM CHGder 2nd derivatives, FixD1E=F FixD2E=F DoIter=F DoCFld=F I1PDM=0
 Calling FoFJK, ICntrl=    100127 FMM=F ISym2X=0 I1Cent= 0 IOpClX= 0 NMat=1 NMatS=1 NMatT=0.
 -------------------------------------------------------------------
 Center     Atomic                   Forces (Hartrees/Bohr)
 Number     Number              X              Y              Z
 -------------------------------------------------------------------
      1        8          -0.001029218    0.001685711   -0.001376649
      2        1           0.002516809   -0.000698101    0.001112725
      3        6          -0.000798034    0.000705265   -0.000651677
      4        5          -0.000271140   -0.002009794    0.001221158
      5        8           0.002722820    0.002631876   -0.000954225
      6        1          -0.002963388   -0.002161300    0.000514483
      7        6           0.000232243   -0.001763048    0.000876299
      8        1          -0.000284507    0.000063588    0.000090502
      9        6          -0.001256129    0.000568689   -0.000662630
     10        1           0.000070804   -0.000816439    0.000403211
     11        6           0.003594069   -0.001183215    0.001661937
     12        6          -0.001088153    0.001225631   -0.000971794
     13        1           0.000581477    0.000633739   -0.000141318
     14        6           0.000551251   -0.000432458    0.000372148
     15        1          -0.000510432    0.000850869   -0.000534406
     16       17          -0.002068471    0.000698987   -0.000959765
 -------------------------------------------------------------------
 Cartesian Forces:  Max     0.003594069 RMS     0.001340420
 FormGI is forming the generalized inverse of G from B-inverse, IUseBI=4.

 GradGradGradGradGradGradGradGradGradGradGradGradGradGradGradGradGradGrad
 Berny optimization.
 Internal  Forces:  Max     0.003715210 RMS     0.000812528
 Search for a local minimum.
 Step number   1 out of a maximum of   81
 All quantities printed in internal units (Hartrees-Bohrs-Radians)
 Mixed Optimization -- En-DIIS/RFO-DIIS
 Second derivative matrix not updated -- analytic derivatives used.
 ITU=  0
     Eigenvalues ---    0.00134   0.01001   0.01222   0.01439   0.01698
     Eigenvalues ---    0.01759   0.02146   0.02338   0.02563   0.02753
     Eigenvalues ---    0.02888   0.03172   0.03873   0.10537   0.11112
     Eigenvalues ---    0.11233   0.11445   0.12009   0.12656   0.15931
     Eigenvalues ---    0.16201   0.17760   0.18578   0.18771   0.19703
     Eigenvalues ---    0.20129   0.26841   0.28190   0.29561   0.35833
     Eigenvalues ---    0.36532   0.36772   0.36936   0.38815   0.42561
     Eigenvalues ---    0.42817   0.47846   0.47966   0.49225   0.52140
     Eigenvalues ---    0.54630   0.55726
 RFO step:  Lambda=-1.65183411D-04 EMin= 1.33508303D-03
 Linear search not attempted -- first point.
 Iteration  1 RMS(Cart)=  0.01564754 RMS(Int)=  0.00010977
 Iteration  2 RMS(Cart)=  0.00015445 RMS(Int)=  0.00000146
 Iteration  3 RMS(Cart)=  0.00000002 RMS(Int)=  0.00000146
 Variable       Old X    -DE/DX   Delta X   Delta X   Delta X     New X
                                 (Linear)    (Quad)   (Total)
    R1        1.81696   0.00283   0.00000   0.00509   0.00509   1.82205
    R2        2.57366   0.00178   0.00000   0.00400   0.00400   2.57766
    R3        2.96142   0.00120   0.00000   0.00539   0.00539   2.96681
    R4        2.64213   0.00101   0.00000   0.00232   0.00232   2.64446
    R5        2.64562   0.00120   0.00000   0.00118   0.00118   2.64680
    R6        2.58496  -0.00066   0.00000  -0.00232  -0.00232   2.58264
    R7        1.81085   0.00372   0.00000   0.00670   0.00670   1.81755
    R8        2.05333  -0.00003   0.00000  -0.00053  -0.00053   2.05280
    R9        2.62575   0.00047   0.00000   0.00194   0.00195   2.62769
   R10        2.04530   0.00046   0.00000   0.00103   0.00103   2.04633
   R11        2.62393   0.00058   0.00000  -0.00058  -0.00058   2.62335
   R12        2.62505   0.00033   0.00000  -0.00072  -0.00072   2.62432
   R13        3.29350   0.00238   0.00000   0.01249   0.01249   3.30599
   R14        2.04572   0.00056   0.00000   0.00107   0.00107   2.04679
   R15        2.62421   0.00025   0.00000   0.00184   0.00184   2.62605
   R16        2.04858   0.00016   0.00000   0.00048   0.00048   2.04906
    A1        1.95938   0.00045   0.00000   0.00201   0.00201   1.96139
    A2        2.14471  -0.00095   0.00000  -0.00416  -0.00416   2.14055
    A3        2.08234   0.00055   0.00000   0.00261   0.00261   2.08495
    A4        2.05614   0.00041   0.00000   0.00155   0.00155   2.05769
    A5        2.05930   0.00017   0.00000  -0.00143  -0.00143   2.05787
    A6        2.05599   0.00015   0.00000   0.00126   0.00126   2.05725
    A7        2.16789  -0.00033   0.00000   0.00017   0.00017   2.16807
    A8        2.00472  -0.00004   0.00000  -0.00045  -0.00045   2.00427
    A9        2.10750   0.00057   0.00000   0.00417   0.00417   2.11167
   A10        2.12462  -0.00062   0.00000  -0.00221  -0.00221   2.12241
   A11        2.05106   0.00005   0.00000  -0.00195  -0.00195   2.04911
   A12        2.11809  -0.00068   0.00000  -0.00531  -0.00531   2.11278
   A13        2.07146  -0.00022   0.00000  -0.00196  -0.00196   2.06950
   A14        2.09364   0.00090   0.00000   0.00728   0.00727   2.10091
   A15        2.11847   0.00116   0.00000   0.00641   0.00642   2.12489
   A16        2.08093  -0.00044   0.00000  -0.00282  -0.00282   2.07810
   A17        2.08379  -0.00072   0.00000  -0.00359  -0.00359   2.08019
   A18        2.09196   0.00113   0.00000   0.00846   0.00846   2.10042
   A19        2.07455  -0.00087   0.00000  -0.00520  -0.00519   2.06936
   A20        2.11667  -0.00026   0.00000  -0.00326  -0.00326   2.11341
   A21        2.12113   0.00015   0.00000   0.00140   0.00140   2.12253
   A22        2.07577   0.00106   0.00000   0.00788   0.00788   2.08366
   A23        2.08629  -0.00121   0.00000  -0.00929  -0.00929   2.07700
    D1        3.13238   0.00004   0.00000   0.00544   0.00544   3.13782
    D2       -0.00723  -0.00003   0.00000   0.00351   0.00351  -0.00372
    D3        3.08296   0.00001   0.00000   0.02374   0.02374   3.10671
    D4       -0.06076   0.00008   0.00000   0.02581   0.02581  -0.03494
    D5       -0.05750   0.00000   0.00000   0.02418   0.02418  -0.03332
    D6        3.08196   0.00007   0.00000   0.02626   0.02626   3.10822
    D7       -0.00695   0.00009   0.00000   0.00612   0.00612  -0.00083
    D8        3.13940   0.00004   0.00000   0.00256   0.00255  -3.14123
    D9        3.13353   0.00009   0.00000   0.00568   0.00569   3.13922
   D10       -0.00330   0.00004   0.00000   0.00212   0.00212  -0.00118
   D11       -3.13836  -0.00002   0.00000  -0.00254  -0.00254  -3.14090
   D12        0.00273  -0.00003   0.00000  -0.00264  -0.00264   0.00008
   D13        0.00431  -0.00003   0.00000  -0.00212  -0.00211   0.00219
   D14       -3.13779  -0.00004   0.00000  -0.00222  -0.00222  -3.14001
   D15        3.11374   0.00011   0.00000   0.01271   0.01271   3.12645
   D16       -0.02573   0.00004   0.00000   0.01065   0.01065  -0.01508
   D17        3.14056  -0.00002   0.00000  -0.00016  -0.00017   3.14040
   D18        0.00058  -0.00003   0.00000  -0.00068  -0.00068  -0.00010
   D19        0.00358  -0.00007   0.00000  -0.00363  -0.00363  -0.00004
   D20       -3.13640  -0.00008   0.00000  -0.00415  -0.00414  -3.14054
   D21        0.00128  -0.00001   0.00000  -0.00084  -0.00084   0.00044
   D22        3.14142   0.00001   0.00000  -0.00037  -0.00037   3.14105
   D23       -3.13872  -0.00002   0.00000  -0.00134  -0.00134  -3.14006
   D24        0.00142   0.00000   0.00000  -0.00087  -0.00087   0.00055
   D25        3.14013   0.00002   0.00000   0.00135   0.00135   3.14148
   D26       -0.00031   0.00002   0.00000   0.00084   0.00084   0.00053
   D27        0.00000   0.00001   0.00000   0.00087   0.00087   0.00087
   D28       -3.14044   0.00001   0.00000   0.00036   0.00036  -3.14008
   D29       -0.00257   0.00000   0.00000   0.00069   0.00069  -0.00188
   D30        3.13954   0.00001   0.00000   0.00078   0.00078   3.14032
   D31        3.14020  -0.00001   0.00000   0.00016   0.00017   3.14036
   D32       -0.00088   0.00000   0.00000   0.00026   0.00026  -0.00062
         Item               Value     Threshold  Converged?
 Maximum Force            0.003715     0.000015     NO 
 RMS     Force            0.000813     0.000010     NO 
 Maximum Displacement     0.070975     0.000060     NO 
 RMS     Displacement     0.015670     0.000040     NO 
 Predicted change in Energy=-8.290065D-05
 GradGradGradGradGradGradGradGradGradGradGradGradGradGradGradGradGradGrad

                          Input orientation:                          
 ---------------------------------------------------------------------
 Center     Atomic      Atomic             Coordinates (Angstroms)
 Number     Number       Type             X           Y           Z
 ---------------------------------------------------------------------
      1          8           0        8.683160    7.467187    5.563643
      2          1           0        9.500714    7.155833    5.969003
      3          6           0        6.241786    6.998984    5.175719
      4          5           0        7.640251    6.614191    5.776576
      5          8           0        7.880289    5.479469    6.499474
      6          1           0        7.112325    4.916327    6.634275
      7          6           0        5.115443    6.177732    5.298919
      8          1           0        5.170402    5.227968    5.823287
      9          6           0        3.886853    6.539830    4.757636
     10          1           0        3.021229    5.896894    4.857348
     11          6           0        3.789522    7.748203    4.081240
     12          6           0        4.881455    8.593679    3.934846
     13          1           0        4.779912    9.531440    3.402470
     14          6           0        6.098488    8.208392    4.483942
     15          1           0        6.956045    8.862600    4.372812
     16         17           0        2.250092    8.216162    3.394388
 ---------------------------------------------------------------------
                    Distance matrix (angstroms):
                    1          2          3          4          5
     1  O    0.000000
     2  H    0.964185   0.000000
     3  C    2.515950   3.357754   0.000000
     4  B    1.364038   1.947236   1.569969   0.000000
     5  O    2.339103   2.391103   2.597296   1.366672   0.000000
     6  H    3.181299   3.341014   2.687505   1.974106   0.961805
     7  C    3.802811   4.542719   1.399386   2.606398   3.094071
     8  H    4.173845   4.742309   2.168802   2.832658   2.804277
     9  C    4.951181   5.776011   2.435431   3.889957   4.483959
    10  H    5.917950   6.693611   3.418764   4.763912   5.145997
    11  C    5.120955   6.044193   2.787977   4.357553   5.265870
    12  C    4.286598   5.248118   2.435840   3.862810   5.026790
    13  H    4.916010   5.875081   3.419769   4.725280   5.968438
    14  C    2.897528   3.858553   1.400627   2.566986   3.831998
    15  H    2.519560   3.454884   2.151253   2.737524   4.101523
    16  Cl   6.830153   7.766882   4.537431   6.106959   6.987858
                    6          7          8          9         10
     6  H    0.000000
     7  C    2.713274   0.000000
     8  H    2.127413   1.086293   0.000000
     9  C    4.069546   1.390516   2.122284   0.000000
    10  H    4.566842   2.158608   2.449376   1.082873   0.000000
    11  C    5.057523   2.388972   3.360527   1.388219   2.149410
    12  C    5.078052   2.784285   3.870104   2.425801   3.403542
    13  H    6.097868   3.867358   4.953050   3.403493   4.291802
    14  C    4.060725   2.398780   3.396780   2.783943   3.866778
    15  H    4.551012   3.384376   4.301505   3.868241   4.951056
    16  Cl   6.710222   3.999083   4.832914   2.710631   2.848492
                   11         12         13         14         15
    11  C    0.000000
    12  C    1.388733   0.000000
    13  H    2.149776   1.083112   0.000000
    14  C    2.388570   1.389648   2.158398   0.000000
    15  H    3.369535   2.137301   2.474766   1.084316   0.000000
    16  Cl   1.749455   2.712689   2.851317   3.999667   4.849864
                   16
    16  Cl   0.000000
 Symmetry turned off by external request.
 Stoichiometry    C6H6BClO2
 Framework group  C1[X(C6H6BClO2)]
 Deg. of freedom    42
 Full point group                 C1      NOp   1
 Rotational constants (GHZ):           3.6834333           0.5231068           0.4580874
 Standard basis: 6-311+G(d,p) (5D, 7F)
   264 basis functions,   425 primitive gaussians,   274 cartesian basis functions
    40 alpha electrons       40 beta electrons
       nuclear repulsion energy       533.2891937762 Hartrees.
 NAtoms=   16 NActive=   16 NUniq=   16 SFac= 1.00D+00 NAtFMM=   60 NAOKFM=F Big=F
 Integral buffers will be    131072 words long.
 Raffenetti 2 integral format.
 Two-electron integral symmetry is turned off.
 ------------------------------------------------------------------------------
 Polarizable Continuum Model (PCM)
 =================================
 Model                : PCM.
 Atomic radii         : SMD-Coulomb.
 Polarization charges : Total charges.
 Charge compensation  : None.
 Solution method      : Matrix inversion.
 Cavity type          : VdW (van der Waals Surface) (Alpha=1.000).
 Cavity algorithm     : GePol (No added spheres)
                        Default sphere list used, NSphG=   16.
                        Lebedev-Laikov grids with approx.  5.0 points / Ang**2.
                        Smoothing algorithm: York/Karplus (Gamma=1.0000).
                        Polarization charges: spherical gaussians, with
                                              point-specific exponents (IZeta= 3).
                        Self-potential: point-specific (ISelfS= 7).
                        Self-field    : sphere-specific E.n sum rule (ISelfD= 2).
 1st derivatives      : Analytical E(r).r(x)/FMM algorithm (CHGder, D1EAlg=3).
                        Cavity 1st derivative terms included.
 Solvent              : TetraHydroFuran, Eps=   7.425700 Eps(inf)=   1.974025
 ------------------------------------------------------------------------------
 Spheres list:
 ISph  on   Nord     Re0    Alpha      Xe            Ye            Ze
    1   O      1    2.2940  1.000      8.683160      7.467187      5.563643
    2   H      2    1.2000  1.000      9.500714      7.155833      5.969003
    3   C      3    1.8500  1.000      6.241786      6.998984      5.175719
    4   B      4    1.8000  1.000      7.640251      6.614191      5.776576
    5   O      5    2.2940  1.000      7.880289      5.479469      6.499474
    6   H      6    1.2000  1.000      7.112325      4.916327      6.634275
    7   C      7    1.8500  1.000      5.115443      6.177732      5.298919
    8   H      8    1.2000  1.000      5.170402      5.227968      5.823287
    9   C      9    1.8500  1.000      3.886853      6.539830      4.757636
   10   H     10    1.2000  1.000      3.021229      5.896894      4.857348
   11   C     11    1.8500  1.000      3.789522      7.748203      4.081240
   12   C     12    1.8500  1.000      4.881455      8.593679      3.934846
   13   H     13    1.2000  1.000      4.779912      9.531440      3.402470
   14   C     14    1.8500  1.000      6.098488      8.208392      4.483942
   15   H     15    1.2000  1.000      6.956045      8.862600      4.372812
   16  Cl     16    2.3800  1.000      2.250092      8.216162      3.394388
 ------------------------------------------------------------------------------
 ------------------------------------------------------------------------------
 Atomic radii for non-electrostatic terms: SMD-CDS.
 ------------------------------------------------------------------------------
 Nuclear repulsion after PCM non-electrostatic terms =      533.2844743146 Hartrees.
 One-electron integrals computed using PRISM.
 NBasis=   264 RedAO= T EigKep=  2.17D-06  NBF=   264
 NBsUse=   264 1.00D-06 EigRej= -1.00D+00 NBFU=   264
 Initial guess from the checkpoint file:  "4-cl-phboh2-opt-freq-thf.chk"
 B after Tr=     0.028178    0.001604   -0.035036
         Rot=    0.999999   -0.000774    0.000685   -0.000604 Ang=  -0.14 deg.
 ExpMin= 3.15D-02 ExpMax= 1.06D+05 ExpMxC= 3.62D+03 IAcc=3 IRadAn=         5 AccDes= 0.00D+00
 Harris functional with IExCor= 1009 and IRadAn=       5 diagonalized for initial guess.
 HarFok:  IExCor= 1009 AccDes= 0.00D+00 IRadAn=         5 IDoV= 1 UseB2=F ITyADJ=14
 ICtDFT=  3500011 ScaDFX=  1.000000  1.000000  1.000000  1.000000
 FoFCou: FMM=F IPFlag=           0 FMFlag=      100000 FMFlg1=           0
         NFxFlg=           0 DoJE=T BraDBF=F KetDBF=T FulRan=T
         wScrn=  0.000000 ICntrl=       500 IOpCl=  0 I1Cent=   200000004 NGrid=           0
         NMat0=    1 NMatS0=      1 NMatT0=    0 NMatD0=    1 NMtDS0=    0 NMtDT0=    0
 Symmetry not used in FoFCou.
 Requested convergence on RMS density matrix=1.00D-08 within 128 cycles.
 Requested convergence on MAX density matrix=1.00D-06.
 Requested convergence on             energy=1.00D-06.
 Level shift goal  0.100 maximum shift  0.100.
 No special actions if energy rises.
 Dynamic level shift is on during FON iterations.
 Inv3:  Mode=1 IEnd=     7805307.
 Iteration    1 A*A^-1 deviation from unit magnitude is 3.11D-15 for   1585.
 Iteration    1 A*A^-1 deviation from orthogonality  is 2.13D-15 for   1603   1441.
 Iteration    1 A^-1*A deviation from unit magnitude is 2.89D-15 for   1585.
 Iteration    1 A^-1*A deviation from orthogonality  is 1.94D-15 for   1608   1322.
 Error on total polarization charges =  0.01879
 SCF Done:  E(RM062X) =  -867.840205728     A.U. after   12 cycles
            NFock= 12  Conv=0.59D-08     -V/T= 2.0029
 SMD-CDS (non-electrostatic) energy       (kcal/mol) =      -2.96
 (included in total energy above)
 D1PCM: PCM CHGder 1st derivatives, ID1Alg=3 FixD1E=F DoIter=F DoCFld=F I1PDM=0.
 Calling FoFJK, ICntrl=      2127 FMM=F ISym2X=0 I1Cent= 0 IOpClX= 0 NMat=1 NMatS=1 NMatT=0.
 -------------------------------------------------------------------
 Center     Atomic                   Forces (Hartrees/Bohr)
 Number     Number              X              Y              Z
 -------------------------------------------------------------------
      1        8          -0.000015639    0.000026855   -0.000006570
      2        1           0.000021310   -0.000000326    0.000017770
      3        6          -0.000004147   -0.000002684   -0.000010418
      4        5           0.000002767   -0.000004590   -0.000002675
      5        8           0.000044581    0.000035008    0.000015019
      6        1          -0.000036859   -0.000037185   -0.000010155
      7        6           0.000001285   -0.000005945    0.000005055
      8        1           0.000002933   -0.000006009   -0.000006417
      9        6          -0.000006749   -0.000001993   -0.000014952
     10        1           0.000006579   -0.000011829   -0.000007399
     11        6           0.000040075   -0.000026639    0.000016327
     12        6          -0.000016142    0.000003940   -0.000002930
     13        1          -0.000001626    0.000005520    0.000007786
     14        6           0.000008740    0.000005736    0.000005424
     15        1          -0.000007829    0.000008933    0.000007589
     16       17          -0.000039280    0.000011209   -0.000013455
 -------------------------------------------------------------------
 Cartesian Forces:  Max     0.000044581 RMS     0.000017101

 GradGradGradGradGradGradGradGradGradGradGradGradGradGradGradGradGradGrad
 Berny optimization.
 Using GEDIIS/GDIIS optimizer.
 FormGI is forming the generalized inverse of G from B-inverse, IUseBI=4.
 Internal  Forces:  Max     0.000053506 RMS     0.000009979
 Search for a local minimum.
 Step number   2 out of a maximum of   81
 All quantities printed in internal units (Hartrees-Bohrs-Radians)
 Mixed Optimization -- En-DIIS/RFO-DIIS
 Swapping is turned off.
 Update second derivatives using D2CorX and points    1    2
 DE= -8.32D-05 DEPred=-8.29D-05 R= 1.00D+00
 TightC=F SS=  1.41D+00  RLast= 6.10D-02 DXNew= 5.0454D-01 1.8311D-01
 Trust test= 1.00D+00 RLast= 6.10D-02 DXMaxT set to 3.00D-01
 ITU=  1  0
     Eigenvalues ---    0.00134   0.00999   0.01223   0.01439   0.01698
     Eigenvalues ---    0.01759   0.02146   0.02338   0.02562   0.02753
     Eigenvalues ---    0.02888   0.03172   0.03873   0.10536   0.11112
     Eigenvalues ---    0.11227   0.11451   0.12009   0.12657   0.15930
     Eigenvalues ---    0.16145   0.17769   0.18578   0.18769   0.19700
     Eigenvalues ---    0.20124   0.26818   0.28191   0.29553   0.35833
     Eigenvalues ---    0.36533   0.36772   0.36938   0.38820   0.42561
     Eigenvalues ---    0.42815   0.47849   0.47962   0.49221   0.52115
     Eigenvalues ---    0.54537   0.55577
 En-DIIS/RFO-DIIS/Sim-DIIS IScMMF=       -3 using points:     2    1
 RFO step:  Lambda=-7.73440504D-08.
 DidBck=F Rises=F RFO-DIIS coefs:    1.03828   -0.03828
 Iteration  1 RMS(Cart)=  0.00081366 RMS(Int)=  0.00000047
 Iteration  2 RMS(Cart)=  0.00000056 RMS(Int)=  0.00000006
 Variable       Old X    -DE/DX   Delta X   Delta X   Delta X     New X
                                 (Linear)    (Quad)   (Total)
    R1        1.82205   0.00003   0.00019  -0.00014   0.00005   1.82210
    R2        2.57766   0.00001   0.00015  -0.00012   0.00003   2.57769
    R3        2.96681   0.00001   0.00021  -0.00014   0.00007   2.96688
    R4        2.64446   0.00001   0.00009  -0.00007   0.00002   2.64447
    R5        2.64680   0.00001   0.00005  -0.00003   0.00002   2.64682
    R6        2.58264   0.00001  -0.00009   0.00011   0.00002   2.58265
    R7        1.81755   0.00005   0.00026  -0.00016   0.00010   1.81765
    R8        2.05280   0.00000  -0.00002   0.00002   0.00000   2.05280
    R9        2.62769   0.00001   0.00007  -0.00005   0.00002   2.62772
   R10        2.04633   0.00000   0.00004  -0.00004   0.00000   2.04633
   R11        2.62335   0.00000  -0.00002   0.00000  -0.00002   2.62333
   R12        2.62432   0.00000  -0.00003   0.00002  -0.00001   2.62431
   R13        3.30599   0.00004   0.00048  -0.00027   0.00020   3.30619
   R14        2.04679   0.00000   0.00004  -0.00004   0.00000   2.04679
   R15        2.62605   0.00001   0.00007  -0.00005   0.00002   2.62608
   R16        2.04906   0.00000   0.00002  -0.00002   0.00000   2.04906
    A1        1.96139   0.00000   0.00008  -0.00009  -0.00002   1.96137
    A2        2.14055   0.00000  -0.00016   0.00021   0.00005   2.14060
    A3        2.08495   0.00000   0.00010  -0.00014  -0.00004   2.08491
    A4        2.05769   0.00000   0.00006  -0.00007  -0.00001   2.05768
    A5        2.05787   0.00000  -0.00005   0.00003  -0.00003   2.05784
    A6        2.05725   0.00000   0.00005  -0.00005   0.00000   2.05725
    A7        2.16807   0.00000   0.00001   0.00002   0.00003   2.16809
    A8        2.00427   0.00000  -0.00002  -0.00004  -0.00005   2.00422
    A9        2.11167   0.00000   0.00016  -0.00012   0.00004   2.11170
   A10        2.12241   0.00000  -0.00008   0.00009   0.00001   2.12242
   A11        2.04911   0.00000  -0.00007   0.00003  -0.00005   2.04906
   A12        2.11278   0.00000  -0.00020   0.00017  -0.00003   2.11274
   A13        2.06950   0.00000  -0.00008   0.00005  -0.00002   2.06948
   A14        2.10091   0.00000   0.00028  -0.00022   0.00005   2.10097
   A15        2.12489   0.00000   0.00025  -0.00021   0.00004   2.12493
   A16        2.07810   0.00000  -0.00011   0.00012   0.00001   2.07811
   A17        2.08019  -0.00001  -0.00014   0.00009  -0.00005   2.08015
   A18        2.10042   0.00000   0.00032  -0.00027   0.00006   2.10048
   A19        2.06936   0.00000  -0.00020   0.00018  -0.00002   2.06934
   A20        2.11341   0.00000  -0.00012   0.00009  -0.00004   2.11337
   A21        2.12253   0.00000   0.00005  -0.00005   0.00000   2.12253
   A22        2.08366   0.00000   0.00030  -0.00027   0.00004   2.08369
   A23        2.07700   0.00000  -0.00036   0.00032  -0.00003   2.07697
    D1        3.13782   0.00000   0.00021  -0.00013   0.00008   3.13790
    D2       -0.00372   0.00000   0.00013   0.00022   0.00035  -0.00337
    D3        3.10671   0.00001   0.00091   0.00059   0.00150   3.10821
    D4       -0.03494   0.00000   0.00099   0.00022   0.00120  -0.03374
    D5       -0.03332   0.00000   0.00093   0.00005   0.00097  -0.03234
    D6        3.10822  -0.00001   0.00101  -0.00033   0.00068   3.10890
    D7       -0.00083   0.00000   0.00023  -0.00061  -0.00037  -0.00120
    D8       -3.14123  -0.00001   0.00010  -0.00059  -0.00050   3.14146
    D9        3.13922   0.00000   0.00022  -0.00007   0.00015   3.13937
   D10       -0.00118   0.00000   0.00008  -0.00006   0.00002  -0.00116
   D11       -3.14090   0.00001  -0.00010   0.00062   0.00052  -3.14038
   D12        0.00008   0.00000  -0.00010   0.00050   0.00040   0.00048
   D13        0.00219   0.00000  -0.00008   0.00010   0.00002   0.00221
   D14       -3.14001   0.00000  -0.00008  -0.00002  -0.00011  -3.14012
   D15        3.12645   0.00001   0.00049   0.00070   0.00119   3.12764
   D16       -0.01508   0.00001   0.00041   0.00108   0.00148  -0.01360
   D17        3.14040   0.00000  -0.00001   0.00009   0.00008   3.14048
   D18       -0.00010   0.00000  -0.00003  -0.00008  -0.00010  -0.00020
   D19       -0.00004   0.00000  -0.00014   0.00010  -0.00004  -0.00008
   D20       -3.14054   0.00000  -0.00016  -0.00007  -0.00023  -3.14077
   D21        0.00044   0.00000  -0.00003   0.00018   0.00015   0.00059
   D22        3.14105   0.00001  -0.00001   0.00039   0.00038   3.14143
   D23       -3.14006   0.00000  -0.00005   0.00002  -0.00003  -3.14009
   D24        0.00055   0.00000  -0.00003   0.00022   0.00019   0.00074
   D25        3.14148   0.00000   0.00005  -0.00001   0.00004   3.14151
   D26        0.00053   0.00000   0.00003  -0.00015  -0.00011   0.00041
   D27        0.00087   0.00000   0.00003  -0.00022  -0.00019   0.00068
   D28       -3.14008  -0.00001   0.00001  -0.00035  -0.00034  -3.14042
   D29       -0.00188   0.00000   0.00003   0.00000   0.00003  -0.00185
   D30        3.14032   0.00000   0.00003   0.00012   0.00015   3.14047
   D31        3.14036   0.00000   0.00001  -0.00013  -0.00013   3.14024
   D32       -0.00062   0.00000   0.00001  -0.00002  -0.00001  -0.00063
         Item               Value     Threshold  Converged?
 Maximum Force            0.000054     0.000015     NO 
 RMS     Force            0.000010     0.000010     YES
 Maximum Displacement     0.003484     0.000060     NO 
 RMS     Displacement     0.000814     0.000040     NO 
 Predicted change in Energy=-3.867216D-08
 GradGradGradGradGradGradGradGradGradGradGradGradGradGradGradGradGradGrad

                          Input orientation:                          
 ---------------------------------------------------------------------
 Center     Atomic      Atomic             Coordinates (Angstroms)
 Number     Number       Type             X           Y           Z
 ---------------------------------------------------------------------
      1          8           0        8.682854    7.467904    5.564799
      2          1           0        9.500408    7.156631    5.970288
      3          6           0        6.241859    6.998789    5.175432
      4          5           0        7.640255    6.614247    5.776703
      5          8           0        7.880446    5.479328    6.499256
      6          1           0        7.112850    4.915208    6.632432
      7          6           0        5.115375    6.177777    5.299043
      8          1           0        5.170176    5.228189    5.823746
      9          6           0        3.886747    6.539957    4.757871
     10          1           0        3.021026    5.897218    4.857988
     11          6           0        3.789517    7.748220    4.081289
     12          6           0        4.881575    8.593445    3.934422
     13          1           0        4.780118    9.531156    3.401936
     14          6           0        6.098655    8.208059    4.483375
     15          1           0        6.956265    8.862151    4.371988
     16         17           0        2.249841    8.216611    3.395012
 ---------------------------------------------------------------------
                    Distance matrix (angstroms):
                    1          2          3          4          5
     1  O    0.000000
     2  H    0.964213   0.000000
     3  C    2.515975   3.357805   0.000000
     4  B    1.364055   1.947261   1.570004   0.000000
     5  O    2.339125   2.391116   2.597353   1.366681   0.000000
     6  H    3.181354   3.341085   2.687524   1.974123   0.961858
     7  C    3.802888   4.542823   1.399395   2.606470   3.094182
     8  H    4.174001   4.742497   2.168834   2.832784   2.804451
     9  C    4.951248   5.776109   2.435454   3.890033   4.484081
    10  H    5.918018   6.693708   3.418771   4.763974   5.146101
    11  C    5.120949   6.044218   2.787969   4.357580   5.265941
    12  C    4.286572   5.248124   2.435858   3.862841   5.026861
    13  H    4.915926   5.875027   3.419774   4.725279   5.968479
    14  C    2.897480   3.858541   1.400637   2.566996   3.832040
    15  H    2.519490   3.454855   2.151282   2.737542   4.101569
    16  Cl   6.830241   7.767003   4.537532   6.107094   6.988044
                    6          7          8          9         10
     6  H    0.000000
     7  C    2.713284   0.000000
     8  H    2.127419   1.086294   0.000000
     9  C    4.069585   1.390528   2.122266   0.000000
    10  H    4.566839   2.158597   2.449313   1.082872   0.000000
    11  C    5.057551   2.388956   3.360495   1.388206   2.149430
    12  C    5.078117   2.784296   3.870114   2.425812   3.403566
    13  H    6.097927   3.867371   4.953063   3.403519   4.291853
    14  C    4.060776   2.398790   3.396806   2.783962   3.866797
    15  H    4.551097   3.384401   4.301557   3.868259   4.951074
    16  Cl   6.710366   3.999183   4.832988   2.710723   2.848616
                   11         12         13         14         15
    11  C    0.000000
    12  C    1.388728   0.000000
    13  H    2.149807   1.083114   0.000000
    14  C    2.388564   1.389660   2.158387   0.000000
    15  H    3.369516   2.137290   2.474709   1.084315   0.000000
    16  Cl   1.749563   2.712746   2.851382   3.999747   4.849911
                   16
    16  Cl   0.000000
 Symmetry turned off by external request.
 Stoichiometry    C6H6BClO2
 Framework group  C1[X(C6H6BClO2)]
 Deg. of freedom    42
 Full point group                 C1      NOp   1
 Rotational constants (GHZ):           3.6833779           0.5230889           0.4580709
 Standard basis: 6-311+G(d,p) (5D, 7F)
   264 basis functions,   425 primitive gaussians,   274 cartesian basis functions
    40 alpha electrons       40 beta electrons
       nuclear repulsion energy       533.2813044629 Hartrees.
 NAtoms=   16 NActive=   16 NUniq=   16 SFac= 1.00D+00 NAtFMM=   60 NAOKFM=F Big=F
 Integral buffers will be    131072 words long.
 Raffenetti 2 integral format.
 Two-electron integral symmetry is turned off.
 ------------------------------------------------------------------------------
 Polarizable Continuum Model (PCM)
 =================================
 Model                : PCM.
 Atomic radii         : SMD-Coulomb.
 Polarization charges : Total charges.
 Charge compensation  : None.
 Solution method      : Matrix inversion.
 Cavity type          : VdW (van der Waals Surface) (Alpha=1.000).
 Cavity algorithm     : GePol (No added spheres)
                        Default sphere list used, NSphG=   16.
                        Lebedev-Laikov grids with approx.  5.0 points / Ang**2.
                        Smoothing algorithm: York/Karplus (Gamma=1.0000).
                        Polarization charges: spherical gaussians, with
                                              point-specific exponents (IZeta= 3).
                        Self-potential: point-specific (ISelfS= 7).
                        Self-field    : sphere-specific E.n sum rule (ISelfD= 2).
 1st derivatives      : Analytical E(r).r(x)/FMM algorithm (CHGder, D1EAlg=3).
                        Cavity 1st derivative terms included.
 Solvent              : TetraHydroFuran, Eps=   7.425700 Eps(inf)=   1.974025
 ------------------------------------------------------------------------------
 Spheres list:
 ISph  on   Nord     Re0    Alpha      Xe            Ye            Ze
    1   O      1    2.2940  1.000      8.682854      7.467904      5.564799
    2   H      2    1.2000  1.000      9.500408      7.156631      5.970288
    3   C      3    1.8500  1.000      6.241859      6.998789      5.175432
    4   B      4    1.8000  1.000      7.640255      6.614247      5.776703
    5   O      5    2.2940  1.000      7.880446      5.479328      6.499256
    6   H      6    1.2000  1.000      7.112850      4.915208      6.632432
    7   C      7    1.8500  1.000      5.115375      6.177777      5.299043
    8   H      8    1.2000  1.000      5.170176      5.228189      5.823746
    9   C      9    1.8500  1.000      3.886747      6.539957      4.757871
   10   H     10    1.2000  1.000      3.021026      5.897218      4.857988
   11   C     11    1.8500  1.000      3.789517      7.748220      4.081289
   12   C     12    1.8500  1.000      4.881575      8.593445      3.934422
   13   H     13    1.2000  1.000      4.780118      9.531156      3.401936
   14   C     14    1.8500  1.000      6.098655      8.208059      4.483375
   15   H     15    1.2000  1.000      6.956265      8.862151      4.371988
   16  Cl     16    2.3800  1.000      2.249841      8.216611      3.395012
 ------------------------------------------------------------------------------
 ------------------------------------------------------------------------------
 Atomic radii for non-electrostatic terms: SMD-CDS.
 ------------------------------------------------------------------------------
 Nuclear repulsion after PCM non-electrostatic terms =      533.2765849973 Hartrees.
 One-electron integrals computed using PRISM.
 NBasis=   264 RedAO= T EigKep=  2.17D-06  NBF=   264
 NBsUse=   264 1.00D-06 EigRej= -1.00D+00 NBFU=   264
 Initial guess from the checkpoint file:  "4-cl-phboh2-opt-freq-thf.chk"
 B after Tr=    -0.000173    0.000761   -0.000472
         Rot=    1.000000   -0.000035   -0.000010   -0.000004 Ang=   0.00 deg.
 Requested convergence on RMS density matrix=1.00D-08 within 128 cycles.
 Requested convergence on MAX density matrix=1.00D-06.
 Requested convergence on             energy=1.00D-06.
 Level shift goal  0.100 maximum shift  0.100.
 No special actions if energy rises.
 Dynamic level shift is on during FON iterations.
 Inv3:  Mode=1 IEnd=     7805307.
 Iteration    1 A*A^-1 deviation from unit magnitude is 5.11D-15 for   1610.
 Iteration    1 A*A^-1 deviation from orthogonality  is 2.26D-15 for   1590    488.
 Iteration    1 A^-1*A deviation from unit magnitude is 5.11D-15 for   1610.
 Iteration    1 A^-1*A deviation from orthogonality  is 2.26D-15 for   1612   1373.
 Error on total polarization charges =  0.01879
 SCF Done:  E(RM062X) =  -867.840205768     A.U. after    8 cycles
            NFock=  8  Conv=0.86D-08     -V/T= 2.0029
 SMD-CDS (non-electrostatic) energy       (kcal/mol) =      -2.96
 (included in total energy above)
 D1PCM: PCM CHGder 1st derivatives, ID1Alg=3 FixD1E=F DoIter=F DoCFld=F I1PDM=0.
 Calling FoFJK, ICntrl=      2127 FMM=F ISym2X=0 I1Cent= 0 IOpClX= 0 NMat=1 NMatS=1 NMatT=0.
 -------------------------------------------------------------------
 Center     Atomic                   Forces (Hartrees/Bohr)
 Number     Number              X              Y              Z
 -------------------------------------------------------------------
      1        8          -0.000002291    0.000007796    0.000006275
      2        1          -0.000002335    0.000008979    0.000006551
      3        6           0.000000602    0.000000677   -0.000000192
      4        5           0.000000533    0.000004003    0.000000676
      5        8           0.000003664    0.000002343   -0.000000600
      6        1           0.000003593   -0.000002639   -0.000006716
      7        6           0.000002348   -0.000003458   -0.000003916
      8        1           0.000005500   -0.000004955   -0.000007522
      9        6           0.000002612   -0.000005564   -0.000005609
     10        1           0.000004319   -0.000008768   -0.000009335
     11        6          -0.000000588   -0.000003228   -0.000000380
     12        6          -0.000002812    0.000000431    0.000003808
     13        1          -0.000005600    0.000002119    0.000007035
     14        6          -0.000003068    0.000002856    0.000004431
     15        1          -0.000004938    0.000005947    0.000008593
     16       17          -0.000001540   -0.000006539   -0.000003098
 -------------------------------------------------------------------
 Cartesian Forces:  Max     0.000009335 RMS     0.000004736

 GradGradGradGradGradGradGradGradGradGradGradGradGradGradGradGradGradGrad
 Berny optimization.
 Using GEDIIS/GDIIS optimizer.
 FormGI is forming the generalized inverse of G from B-inverse, IUseBI=4.
 Internal  Forces:  Max     0.000001348 RMS     0.000000419
 Search for a local minimum.
 Step number   3 out of a maximum of   81
 All quantities printed in internal units (Hartrees-Bohrs-Radians)
 Mixed Optimization -- En-DIIS/RFO-DIIS
 Swapping is turned off.
 Update second derivatives using D2CorX and points    1    2    3
 DE= -4.07D-08 DEPred=-3.87D-08 R= 1.05D+00
 Trust test= 1.05D+00 RLast= 3.20D-03 DXMaxT set to 3.00D-01
 ITU=  0  1  0
     Eigenvalues ---    0.00126   0.00959   0.01237   0.01445   0.01706
     Eigenvalues ---    0.01761   0.02146   0.02339   0.02581   0.02760
     Eigenvalues ---    0.02889   0.03179   0.03876   0.10536   0.11113
     Eigenvalues ---    0.11232   0.11459   0.12008   0.12654   0.15929
     Eigenvalues ---    0.16206   0.17785   0.18577   0.18784   0.19689
     Eigenvalues ---    0.20123   0.26805   0.28191   0.29599   0.35833
     Eigenvalues ---    0.36533   0.36772   0.36938   0.38828   0.42563
     Eigenvalues ---    0.42826   0.47849   0.47973   0.49229   0.52146
     Eigenvalues ---    0.54663   0.55561
 En-DIIS/RFO-DIIS/Sim-DIIS IScMMF=       -3 using points:     3    2    1
 RFO step:  Lambda=-9.77635146D-11.
 DidBck=F Rises=F RFO-DIIS coefs:    1.08259   -0.07556   -0.00703
 Iteration  1 RMS(Cart)=  0.00019122 RMS(Int)=  0.00000002
 Iteration  2 RMS(Cart)=  0.00000002 RMS(Int)=  0.00000001
 Variable       Old X    -DE/DX   Delta X   Delta X   Delta X     New X
                                 (Linear)    (Quad)   (Total)
    R1        1.82210   0.00000   0.00004  -0.00004   0.00000   1.82210
    R2        2.57769   0.00000   0.00003  -0.00003   0.00000   2.57769
    R3        2.96688   0.00000   0.00004  -0.00004   0.00000   2.96688
    R4        2.64447   0.00000   0.00002  -0.00002   0.00000   2.64447
    R5        2.64682   0.00000   0.00001  -0.00001   0.00000   2.64682
    R6        2.58265   0.00000  -0.00002   0.00002   0.00000   2.58266
    R7        1.81765   0.00000   0.00006  -0.00005   0.00000   1.81765
    R8        2.05280   0.00000   0.00000   0.00000   0.00000   2.05280
    R9        2.62772   0.00000   0.00002  -0.00002   0.00000   2.62772
   R10        2.04633   0.00000   0.00001  -0.00001   0.00000   2.04633
   R11        2.62333   0.00000  -0.00001   0.00000   0.00000   2.62333
   R12        2.62431   0.00000  -0.00001   0.00001   0.00000   2.62431
   R13        3.30619   0.00000   0.00010  -0.00010   0.00000   3.30620
   R14        2.04679   0.00000   0.00001  -0.00001   0.00000   2.04679
   R15        2.62608   0.00000   0.00001  -0.00001   0.00000   2.62608
   R16        2.04906   0.00000   0.00000   0.00000   0.00000   2.04906
    A1        1.96137   0.00000   0.00001  -0.00001   0.00000   1.96137
    A2        2.14060   0.00000  -0.00003   0.00004   0.00001   2.14061
    A3        2.08491   0.00000   0.00002  -0.00002  -0.00001   2.08490
    A4        2.05768   0.00000   0.00001  -0.00001   0.00000   2.05768
    A5        2.05784   0.00000  -0.00001   0.00001  -0.00001   2.05783
    A6        2.05725   0.00000   0.00001  -0.00001   0.00000   2.05725
    A7        2.16809   0.00000   0.00000   0.00001   0.00001   2.16810
    A8        2.00422   0.00000  -0.00001   0.00000   0.00000   2.00422
    A9        2.11170   0.00000   0.00003  -0.00003   0.00000   2.11171
   A10        2.12242   0.00000  -0.00001   0.00002   0.00000   2.12242
   A11        2.04906   0.00000  -0.00002   0.00001  -0.00001   2.04906
   A12        2.11274   0.00000  -0.00004   0.00004   0.00000   2.11274
   A13        2.06948   0.00000  -0.00002   0.00002   0.00000   2.06948
   A14        2.10097   0.00000   0.00006  -0.00006   0.00000   2.10096
   A15        2.12493   0.00000   0.00005  -0.00005   0.00000   2.12493
   A16        2.07811   0.00000  -0.00002   0.00002   0.00000   2.07811
   A17        2.08015   0.00000  -0.00003   0.00003   0.00000   2.08015
   A18        2.10048   0.00000   0.00006  -0.00006   0.00000   2.10048
   A19        2.06934   0.00000  -0.00004   0.00004   0.00000   2.06934
   A20        2.11337   0.00000  -0.00003   0.00003   0.00000   2.11337
   A21        2.12253   0.00000   0.00001  -0.00001   0.00000   2.12253
   A22        2.08369   0.00000   0.00006  -0.00006   0.00000   2.08369
   A23        2.07697   0.00000  -0.00007   0.00007   0.00000   2.07697
    D1        3.13790   0.00000   0.00004   0.00001   0.00005   3.13795
    D2       -0.00337   0.00000   0.00005   0.00000   0.00006  -0.00331
    D3        3.10821   0.00000   0.00029   0.00004   0.00033   3.10853
    D4       -0.03374   0.00000   0.00028   0.00004   0.00032  -0.03342
    D5       -0.03234   0.00000   0.00025   0.00006   0.00031  -0.03204
    D6        3.10890   0.00000   0.00024   0.00006   0.00030   3.10920
    D7       -0.00120   0.00000   0.00001   0.00000   0.00001  -0.00119
    D8        3.14146   0.00000  -0.00002   0.00002   0.00000   3.14146
    D9        3.13937   0.00000   0.00005  -0.00002   0.00003   3.13940
   D10       -0.00116   0.00000   0.00002   0.00000   0.00002  -0.00114
   D11       -3.14038   0.00000   0.00003  -0.00003  -0.00001  -3.14039
   D12        0.00048   0.00000   0.00001  -0.00001   0.00000   0.00048
   D13        0.00221   0.00000  -0.00001  -0.00001  -0.00003   0.00218
   D14       -3.14012   0.00000  -0.00002   0.00001  -0.00002  -3.14013
   D15        3.12764   0.00000   0.00019  -0.00002   0.00017   3.12781
   D16       -0.01360   0.00000   0.00020  -0.00002   0.00018  -0.01342
   D17        3.14048   0.00000   0.00001   0.00000   0.00000   3.14048
   D18       -0.00020   0.00000  -0.00001   0.00001   0.00000  -0.00020
   D19       -0.00008   0.00000  -0.00003   0.00002  -0.00001  -0.00009
   D20       -3.14077   0.00000  -0.00005   0.00004  -0.00001  -3.14078
   D21        0.00059   0.00000   0.00001  -0.00002  -0.00001   0.00058
   D22        3.14143   0.00000   0.00003  -0.00005  -0.00002   3.14140
   D23       -3.14009   0.00000  -0.00001   0.00000  -0.00002  -3.14011
   D24        0.00074   0.00000   0.00001  -0.00004  -0.00003   0.00071
   D25        3.14151   0.00000   0.00001  -0.00001   0.00001   3.14152
   D26        0.00041   0.00000   0.00000   0.00001   0.00000   0.00042
   D27        0.00068   0.00000  -0.00001   0.00003   0.00002   0.00070
   D28       -3.14042   0.00000  -0.00003   0.00004   0.00002  -3.14040
   D29       -0.00185   0.00000   0.00001   0.00001   0.00001  -0.00184
   D30        3.14047   0.00000   0.00002  -0.00001   0.00001   3.14048
   D31        3.14024   0.00000  -0.00001   0.00002   0.00001   3.14025
   D32       -0.00063   0.00000   0.00000   0.00000   0.00000  -0.00062
         Item               Value     Threshold  Converged?
 Maximum Force            0.000001     0.000015     YES
 RMS     Force            0.000000     0.000010     YES
 Maximum Displacement     0.000886     0.000060     NO 
 RMS     Displacement     0.000191     0.000040     NO 
 Predicted change in Energy=-5.275375D-10
 GradGradGradGradGradGradGradGradGradGradGradGradGradGradGradGradGradGrad

                          Input orientation:                          
 ---------------------------------------------------------------------
 Center     Atomic      Atomic             Coordinates (Angstroms)
 Number     Number       Type             X           Y           Z
 ---------------------------------------------------------------------
      1          8           0        8.682773    7.468068    5.565064
[...]

 Dipole orientation:
     8         13.92559078         19.61280262          0.63438833
     1         14.98833694         20.09299766          2.03439697
     6          9.76950359         17.71438186         -0.68021561
     5         11.69472836         18.57712721          1.40582430
     8         11.27949511         18.35817976          3.94546152
     1          9.67270025         17.63832909          4.39699172
     6          7.45987390         16.56363899         -0.10173482
     1          6.90907524         16.21892047          1.84550930
     6          5.78459411         15.81570677         -1.98293917
     1          4.00248902         14.92485182         -1.51608832
     6          6.44324090         16.23262630         -4.48777724
     6          8.71569595         17.36734498         -5.14761570
     1          9.18630869         17.67190506         -7.11614568
     6         10.35830372         18.09546008         -3.23242115
     1         12.13721551         18.98087849         -3.73256702
    17          4.35379370         15.30070668         -6.87454851

 Electric dipole moment (dipole orientation):
 (Debye = 10**-18 statcoulomb cm , SI units = C m)
                  (au)            (Debye)         (10**-30 SI)
   Tot        0.970949D+00      0.246791D+01      0.823205D+01
   x          0.000000D+00      0.000000D+00      0.000000D+00
   y          0.000000D+00      0.000000D+00      0.000000D+00
   z          0.970949D+00      0.246791D+01      0.823205D+01

 Dipole polarizability, Alpha (dipole orientation).
 (esu units = cm**3 , SI units = C**2 m**2 J**-1)
 Alpha(0;0):
               (au)            (10**-24 esu)      (10**-40 SI)
   iso        0.126120D+03      0.186890D+02      0.207943D+02
   aniso      0.884739D+02      0.131105D+02      0.145874D+02
   xx         0.137912D+03      0.204364D+02      0.227386D+02
   yx         0.313172D+02      0.464073D+01      0.516350D+01
   yy         0.868829D+02      0.128747D+02      0.143251D+02
   zx         0.192132D+02      0.284711D+01      0.316783D+01
   zy         0.658805D+01      0.976248D+00      0.108622D+01
   zz         0.153565D+03      0.227559D+02      0.253194D+02

 ----------------------------------------------------------------------
 Unable to Open any file for archive entry.
 1\1\GINC-CN014\Freq\RM062X\6-311+G(d,p)\C6H6B1Cl1O2\TAHMINAAFROZ\21-Ap
 r-2025\0\\#N Geom=AllCheck Guess=TCheck SCRF=Check GenChk RM062X/6-311
 +G(d,p) Freq\\4-cl-phboh2-optfreq-thf\\0,1\O,8.6827687214,7.46807729,5
 .5650783463\H,9.5003415244,7.156779168,5.9705093786\C,6.2418509059,6.9
 987933718,5.175455024\B,7.6402488409,6.6142630484,5.7767351521\O,7.880
 5169769,5.4792184283,6.499069599\H,7.1130087921,4.9149011963,6.6319253
 945\C,5.1153362409,6.1778372019,5.2991558134\H,5.1701002017,5.22829903
 08,5.8239508896\C,3.8867136496,6.5400159992,4.757971448\H,3.0209681352
 ,5.8973203053,4.858162256\C,3.7895167194,7.7482231641,4.0812862718\C,4
 .8816002339,8.5934003516,3.9343420433\H,4.7801678635,9.5310725904,3.40
 17841554\C,6.098672228,8.2080200477,4.4833169378\H,6.9563009491,8.8620
 785531,4.3718760552\Cl,2.2498540172,8.2165932532,3.3949602351\\Version
 =AS64L-G16RevC.01\HF=-867.8402058\RMSD=2.233e-09\RMSF=4.710e-06\ZeroPo
 int=0.1159008\Thermal=0.1249684\ETot=-867.7152374\HTot=-867.7142932\GT
 ot=-867.7595918\Dipole=0.3343872,-0.740873,0.5310691\DipoleDeriv=-1.63
 05783,-0.3568532,-0.0624393,-0.4533132,-0.8658978,0.0110755,-0.0029833
 ,0.0359029,-0.6551536,0.4483376,0.0432199,-0.0098242,0.0496555,0.33979
 96,0.0437022,-0.0175163,0.0434394,0.3616099,-0.7888738,0.1666766,-0.24
 98777,0.155025,-0.2982841,0.0872868,-0.2390888,0.0952423,-0.3405507,2.
 362663,-0.0254587,0.4691239,0.0993155,1.6879045,-0.5572189,0.3983171,-
 0.58928,1.1331136,-0.8416913,0.1808284,-0.165092,0.2077567,-1.3676484,
 0.4866271,-0.1837604,0.4752747,-0.9508289,0.3019113,-0.0394337,0.00283
 22,-0.0804285,0.4619039,-0.0700119,0.0318471,-0.0572671,0.4217384,0.15
 30566,-0.1053372,0.1398024,0.0840866,0.0319766,-0.0690595,0.0284011,-0
 .1268103,-0.0671077,0.0870279,0.0479007,-0.0469949,0.0283459,-0.035806
 9,0.1144014,-0.0366627,0.1180949,0.0882995,-0.2639246,0.1914508,-0.135
 0058,0.1981081,-0.2152331,0.0891719,-0.1336048,0.0920122,-0.241503,0.0
 259256,-0.0631405,-0.0106426,-0.0540089,0.1031629,0.0312854,-0.0162019
 ,0.0284258,0.1689965,1.2678853,-0.2905484,0.5125169,-0.3141865,0.29067
 08,-0.2395911,0.5206281,-0.233511,0.2822007,-0.4814068,-0.0307748,-0.0
 747638,0.0069778,-0.0628192,-0.0480122,-0.0921582,-0.0599095,-0.150864
 7,0.1136961,0.0231109,-0.0337542,0.0132118,0.0511478,0.0772172,-0.0288
 946,0.0823854,0.1348531,0.1433571,0.1054803,0.0180782,-0.1199724,0.016
 1285,-0.1139489,0.1388536,-0.0510225,-0.0634834,0.0283388,-0.0825386,0
 .0069855,-0.0571483,0.0710006,0.0329168,-0.0073056,0.0254716,0.1444258
 ,-0.9257245,0.2354175,-0.3609447,0.2365749,-0.2080057,0.1241582,-0.359
 8705,0.1215513,-0.2657456\Polar=161.1096632,-2.4339836,122.5640614,26.
 3338773,-28.2362292,94.6853219\Quadrupole=6.0876614,-15.262838,9.17517
 66,-0.5584175,7.599505,-2.6655631\PG=C01 [X(C6H6B1Cl1O2)]\NImag=0\\0.6
 3940600,0.02627536,0.28385730,0.15071170,-0.13921100,0.15512448,-0.375
 36422,0.11795007,-0.16815552,0.40342918,0.14857827,-0.08122443,0.08126
 967,-0.12594271,0.07476234,-0.18601706,0.07289971,-0.10544470,0.181186
 71,-0.07276093,0.10157201,-0.03021700,-0.00199276,-0.00930408,0.000051
 96,-0.00220334,0.00011301,0.61072938,-0.01800909,0.00731422,-0.0042363
 6,-0.00320534,-0.00080350,0.00205346,0.06750459,0.53796372,-0.00009434
 ,0.00008687,0.00842954,0.00069170,0.00234420,0.00307803,0.09799964,-0.
 20029167,0.26803511,-0.23117211,-0.11157138,0.01456217,-0.03307633,-0.
 02245382,0.00346587,-0.16827568,0.02684833,-0.04422106,0.52680720,-0.1
 3518626,-0.16314902,0.03057039,0.00487715,0.00793546,-0.00216521,0.026
 19767,-0.07744306,0.01548509,0.07294710,0.49090631,0.02836571,0.037060
 47,-0.06087303,-0.01240927,-0.00957491,0.00418669,-0.04394785,0.015613
 69,-0.08311135,0.06159710,-0.18091462,0.26480758,0.00335405,-0.0349111
 9,0.01790157,0.00482527,0.00189988,0.00094430,0.00131712,0.02117254,-0
 .01630425,-0.09032702,0.02564625,-0.02749299,0.43651925,-0.02483775,-0
 .04680299,0.02718734,0.00588625,-0.00046075,0.00032933,0.00490880,-0.0
 0719013,0.01500087,0.05661669,-0.23603779,0.12750760,0.20363692,0.4827
 3536,0.01217735,0.02449041,0.00057484,-0.00142059,-0.00080173,-0.00256
 981,-0.00680294,0.01940405,0.00326141,-0.04558092,0.11968146,-0.123708
 72,-0.01217084,-0.21493645,0.15077304,0.00304353,0.00268122,-0.0023824
 0,-0.00004416,0.00035760,0.00001061,-0.00133205,0.00113826,-0.00032499
 ,0.00411385,0.00157115,0.00095540,-0.35109623,-0.24868080,0.05764311,0
 .34750793,0.00102191,-0.00005558,0.00395191,0.00035317,-0.00051107,-0.
 00010885,0.00034232,0.00143314,-0.00224156,-0.02415279,-0.02129505,0.0
 0435936,-0.21916027,-0.19183024,0.05107923,0.24207699,0.21088190,-0.00
 150338,0.00430386,0.00344223,0.00003891,-0.00008630,-0.00081359,0.0000
 6982,-0.00201278,-0.00128430,0.01605388,0.01079717,-0.00524864,0.04031
 342,0.04386195,-0.02392291,-0.05420879,-0.05688258,0.02696489,-0.00096
 129,0.00104872,-0.00113268,-0.00062514,-0.00037002,0.00001708,-0.25076
 760,-0.07588865,-0.01232893,-0.01906090,-0.00874432,-0.00121779,0.0013
 1694,-0.00280117,0.00228854,0.00095513,0.00031962,-0.00002623,0.633871
 31,0.00520619,0.00011926,0.00177556,0.00037087,0.00041563,0.00005130,-
 0.12466186,-0.18088527,0.02809128,-0.00082761,0.01052999,-0.00501981,0
 .00061655,-0.00357532,0.00165738,0.00285419,0.00013535,0.00117987,0.05
 067948,0.60587807,-0.00330240,0.00069245,-0.00041878,-0.00045687,-0.00
 013815,0.00036079,0.01397656,0.04168825,-0.08218453,-0.00535616,-0.007
 20498,0.00410769,0.00038180,0.00044919,-0.00169303,-0.00152525,0.00039
 888,-0.00009523,0.11187741,-0.23501280,0.29961048,0.00043006,0.0003138
 1,-0.00011881,-0.00005703,-0.00004929,-0.00004380,0.00704008,-0.020130
 63,0.01225149,-0.00019045,-0.00064113,0.00117200,0.00049679,-0.0002246
 6,-0.00097403,-0.00253205,0.00062374,-0.00154048,-0.05875368,0.0085146
 1,-0.01015034,0.05997541,-0.00018875,0.00037214,-0.00017042,-0.0001118
 8,0.00000879,0.00006706,0.00234141,-0.01070497,0.00751354,0.00138751,-
 0.00223483,-0.00002212,0.00031423,0.00149850,-0.00015430,-0.00095227,0
 .00081820,-0.00034519,0.01227151,-0.26704173,0.12562809,-0.01085668,0.
 27879482,0.00021599,-0.00000286,0.00023946,-0.00000638,0.00009077,0.00
 013465,0.00027395,0.00116172,0.00150030,0.00006978,-0.00061985,-0.0027
 5561,-0.00125350,-0.00028832,-0.00196702,-0.00064629,0.00026205,0.0005
 8544,-0.01235491,0.12436580,-0.10939758,0.01712852,-0.13949740,0.10672
 202,-0.00296001,0.00012355,-0.00072243,0.00003173,-0.00009890,0.000185
 61,-0.05273216,-0.03808750,0.00267064,0.00126061,-0.00621562,0.0019937
 7,0.00042665,0.00105156,-0.00051216,-0.00032050,0.00019439,-0.00001395
 ,-0.29487628,0.07460963,-0.10525860,0.00105591,-0.00165201,-0.00018903
 ,0.70338724,0.00053325,0.00063464,-0.00047270,-0.00038120,-0.00013595,
 -0.00022738,0.00837839,0.05188642,-0.01983963,-0.00457405,0.00064526,0
 .00166848,0.00008987,-0.00005426,0.00009180,-0.00063900,0.00007222,-0.
 00063167,0.00623962,-0.12936752,0.03705772,0.02572645,-0.00404354,0.01
 208485,0.10753950,0.58749845,-0.00106410,-0.00054542,-0.00040530,0.000
 33170,-0.00021589,-0.00027571,-0.02241149,-0.03271876,0.02229670,0.001
 08260,0.00116668,0.00575359,0.00004969,0.00034371,-0.00013267,0.000474
 56,-0.00034505,-0.00025036,-0.06851127,0.05624830,-0.11315259,-0.01488
 875,0.00432456,-0.00165930,0.10329668,-0.21393753,0.27616483,-0.000709
 04,-0.00001182,-0.00014668,-0.00002128,-0.00003895,0.00003272,-0.00278
 086,0.00172306,-0.00385677,0.00044859,-0.00095496,0.00058092,-0.000152
 74,0.00032013,-0.00022951,-0.00002168,-0.00011042,0.00005832,-0.015202
 55,-0.01665587,0.00359864,0.00075263,0.00055316,0.00115638,-0.24159420
 ,-0.14292912,0.01890930,0.25241402,0.00021178,-0.00004455,0.00001379,0
 .00003513,0.00000305,-0.00002058,0.00158698,0.00192803,0.00343366,0.00
 015200,0.00040348,-0.00006352,-0.00001729,-0.00006015,0.00004265,0.000
 02296,0.00001856,-0.00000670,0.00877588,0.00952120,-0.00062078,0.00016
 376,-0.00039903,-0.00208462,-0.14076915,-0.15648964,0.02467973,0.15094
 501,0.15999820,-0.00027635,-0.00004298,-0.00017430,-0.00001564,-0.0000
 3943,-0.00002952,-0.00373219,0.00348068,0.00455895,-0.00001532,-0.0003
 7703,0.00040113,-0.00004323,0.00014184,-0.00006186,-0.00001847,-0.0000
 4635,0.00001363,-0.01005372,-0.00782293,0.00510298,0.00134951,-0.00197
 081,-0.00292294,0.01772428,0.02399582,-0.04437361,-0.01672173,-0.02994
 228,0.03621608,0.00064470,0.00045765,-0.00003616,-0.00002000,0.0000134
 2,-0.00004814,-0.01141364,-0.02881818,0.01472164,-0.00296462,-0.000850
 19,-0.00027259,0.00092907,-0.00104889,0.00088830,0.00009125,0.00031725
 ,-0.00020028,0.02781191,0.02858874,-0.00952966,-0.00277132,0.00029333,
 -0.00317264,-0.11078139,0.02724947,-0.02722086,0.00408513,-0.02152307,
 0.01195679,0.51222758,-0.00168191,-0.00002973,-0.00045349,0.00014647,-
 0.00007396,0.00008538,-0.02947741,-0.06105741,0.02029433,0.00006931,-0
 .00339859,0.00164561,0.00047477,0.00013207,-0.00004216,0.00005304,0.00
 022709,0.00002815,0.08954349,0.00156803,0.02798113,0.00004004,0.003076
 01,0.00259721,-0.04116766,-0.27597660,0.10098646,0.00466546,-0.0115218
 7,0.00901570,0.09798324,0.54328862,0.00109732,0.00008876,0.00012100,-0
 .00010879,0.00008294,0.00001707,0.01492129,0.02032320,-0.01503377,-0.0
 0077871,0.00139117,-0.00131607,0.00006625,-0.00045344,0.00013550,-0.00
 008128,0.00009459,0.00013694,-0.04222115,0.01085784,-0.01086091,-0.003
 02598,0.00265343,0.00557905,0.00954348,0.12038872,-0.12826342,-0.00214
 937,0.00158771,0.00131581,0.05586380,-0.19474219,0.25072254,-0.0000990
 7,-0.00040487,0.00019923,0.00007783,0.00015412,-0.00001944,0.02399995,
 0.07474509,-0.03688718,0.00510275,0.00069327,-0.00063379,-0.00097493,0
 .00137304,-0.00065714,-0.00004352,-0.00047133,0.00020438,-0.07552458,-
 0.01361391,-0.01247725,-0.00115824,-0.00003899,0.00001836,0.04667572,-
 0.06150003,0.04378489,0.00138957,0.00096032,-0.00188754,-0.23120579,-0
 .07807365,-0.00464207,0.63742087,-0.00030757,0.00057233,-0.00048714,0.
 00014255,0.00012576,-0.00004793,0.02911821,0.00415746,0.01203962,-0.00
 159370,-0.00278221,0.00437877,0.00166400,-0.00061993,0.00021005,-0.000
 09081,0.00033395,-0.00019003,-0.01481891,-0.00465158,-0.00439459,0.000
 04244,0.00008936,-0.00069695,-0.01297287,-0.03276966,0.01882810,0.0006
 3427,-0.00231907,0.00476695,-0.14657627,-0.19981259,0.03034807,0.04653
 481,0.62884676,0.00012984,-0.00051446,0.00017294,-0.00004036,-0.000056
 57,-0.00002230,-0.01213735,0.02508670,-0.00542013,0.00057508,0.0049772
 0,0.00358811,-0.00079178,-0.00001139,-0.00148266,0.00002419,-0.0002320
 0,0.00025493,-0.01184345,-0.00402813,-0.00625227,-0.00000545,-0.000721
 17,-0.00083555,0.01756355,0.00515996,0.01126032,-0.00171822,0.00484581
 ,0.00312068,0.03227842,0.04968908,-0.08397991,0.11666532,-0.25250544,0
 .30299021,-0.00031016,-0.00016124,-0.00000310,0.00002000,0.00000347,-0
 .00000277,-0.00410361,0.00040470,-0.00349372,0.00096876,0.00079342,-0.
 00018370,-0.00055040,0.00040161,-0.00034663,-0.00003000,-0.00012796,0.
 00006526,-0.00124569,-0.00012121,-0.00000529,0.00009522,0.00017112,0.0
 0020786,-0.00349910,-0.00336671,-0.00092758,0.00036656,-0.00103335,0.0
 0059019,0.00378289,-0.02175642,0.01197863,-0.05756240,0.02135095,-0.01
 734458,0.05750148,0.00018296,0.00005480,0.00003614,-0.00001721,0.00000
 458,0.00000431,0.00044431,0.00283677,0.00269095,-0.00048213,-0.0000402
 6,-0.00005757,0.00015399,-0.00017165,0.00004658,0.00000247,0.00004532,
 -0.00001566,-0.00026052,0.00027860,-0.00076106,0.00014800,-0.00026435,
 -0.00034016,-0.00366216,0.00081182,0.00188456,0.00017643,-0.00042098,0
 .00040652,0.00439061,-0.01135663,0.00884022,0.01909933,-0.27194773,0.1
 3152287,-0.02011828,0.28239226,-0.00019222,-0.00005750,0.00001223,0.00
 000983,0.00000878,0.00001940,-0.00354394,0.00266872,0.00518069,0.00051
 412,0.00029359,0.00008741,-0.00018868,0.00011199,-0.00029882,-0.000010
 73,-0.00004695,0.00004776,0.00007395,-0.00069917,-0.00059277,0.0002206
 6,-0.00033031,-0.00073420,-0.00076485,0.00196650,0.00495242,-0.0000602
 6,0.00006856,0.00018790,-0.00206920,0.00145801,0.00144970,-0.01619558,
 0.13209798,-0.11308161,0.02011654,-0.14378089,0.10872929,-0.00231391,-
 0.00002995,-0.00040799,0.00063067,0.00017102,0.00007520,-0.12395243,-0
 .01423929,-0.00841234,0.00218369,0.01990558,-0.01076196,-0.00527183,0.
 00240613,-0.00336146,-0.00035729,-0.00081954,0.00041106,0.04707732,-0.
 01783661,0.02122936,-0.00352897,-0.00406655,-0.00092313,-0.02564264,0.
 02982932,-0.02186895,0.00002359,0.00098858,-0.00021058,-0.05907009,-0.
 04735406,0.00699960,-0.29135601,0.08023783,-0.10646943,0.00255921,-0.0
 0116433,0.00019755,0.69418908,-0.00247933,-0.00238631,0.00040766,-0.00
 034051,-0.00039274,0.00006439,0.03592347,-0.25904626,0.11409834,0.0102
 9018,-0.00215816,0.00512931,-0.00202426,0.00221017,-0.00107625,-0.0002
 1837,-0.00045553,0.00019656,-0.06189877,-0.03775581,0.00597928,-0.0038
 1016,0.00098656,0.00241797,0.02929774,-0.03648079,0.02511715,0.0008118
 6,-0.00056372,-0.00004826,0.01294193,0.05742112,-0.02350457,0.01189778
 ,-0.13551885,0.04080034,0.02427431,-0.00156633,0.00984007,0.09235839,0
 .57525909,0.00094499,0.00097633,-0.00084566,0.00037780,0.00017757,-0.0
 0013081,-0.03554531,0.09998229,-0.12954191,-0.00566052,0.00792809,-0.0
 0371290,-0.00076291,0.00023633,0.00098163,-0.00002905,0.00000630,0.000
 03483,0.04502590,0.01832778,0.00843913,-0.00106660,0.00236290,0.005959
 47,-0.02157139,0.02526739,-0.02481666,-0.00012268,0.00000333,-0.001111
 21,-0.02565477,-0.04058988,0.02155078,-0.06956730,0.06011311,-0.117310
 30,-0.01345090,0.00266043,-0.00125787,0.10393287,-0.20480099,0.2856720
 7,-0.00073406,0.00070828,-0.00066362,-0.00007412,-0.00001553,0.0000437
 4,0.00661933,0.00248247,-0.00022279,-0.00022702,0.00094007,0.00026394,
 0.00015055,-0.00040238,0.00014644,0.00001659,0.00002467,0.00000645,0.0
 0162291,0.00071631,-0.00196719,0.00029396,0.00024423,-0.00007475,-0.00
 017610,0.00080469,-0.00012471,-0.00007309,0.00002044,0.00022235,-0.001
 50803,0.00108087,-0.00327157,-0.01651597,-0.01694198,0.00312451,0.0008
 1708,0.00060569,0.00115290,-0.23627414,-0.13904449,0.01996598,0.247537
 38,-0.00000476,0.00055242,-0.00028686,0.00029297,0.00032778,-0.0001992
 1,-0.02066184,-0.01125310,0.00167010,-0.00140549,-0.00210181,-0.000820
 97,0.00019021,0.00054549,-0.00000234,-0.00008411,0.00003867,-0.0000828
 0,0.00064091,-0.00243786,0.00541039,-0.00108603,-0.00060765,0.00007541
 ,0.00085798,-0.00048225,-0.00018469,-0.00000100,-0.00013984,-0.0004119
 2,0.00107001,0.00222170,0.00345607,0.00919619,0.00914343,0.00027044,0.
 00012326,-0.00050407,-0.00209530,-0.13899984,-0.15883970,0.02458713,0.
 14904410,0.16346761,-0.00024298,-0.00002133,0.00010027,-0.00011616,-0.
 00028680,-0.00010480,0.01217558,0.00816946,0.00163089,0.00156535,-0.00
 019909,-0.00245936,-0.00021045,-0.00010024,0.00048663,0.00005806,-0.00
 005498,-0.00000693,-0.00194624,0.00541737,0.00380038,0.00064036,0.0004
 5434,0.00004366,-0.00015917,-0.00020002,-0.00120143,0.00023757,-0.0004
 0351,-0.00061879,-0.00326614,0.00344690,0.00531127,-0.01094560,-0.0070
 7022,0.00557817,0.00140610,-0.00195592,-0.00300280,0.01998562,0.024499
 39,-0.04844630,-0.01836549,-0.03151219,0.03915505,-0.00203748,-0.00047
 545,-0.00030118,0.00021566,-0.00000521,0.00005637,-0.00418279,0.002359
 65,-0.00218874,0.00440869,-0.00097917,0.00199110,-0.00096255,0.0013945
 3,-0.00108752,0.00004920,-0.00043176,0.00027162,0.00436219,0.00156051,
 -0.00103475,-0.00114832,0.00029063,-0.00045021,-0.02025547,0.00699953,
 -0.01091169,0.00107534,-0.00052000,0.00113166,-0.12983765,0.02545440,-
 0.04419145,-0.04022617,0.01357704,-0.02001030,0.00119017,0.00050085,0.
 00073992,0.00110377,-0.00797977,0.00318390,-0.00147528,0.00082743,-0.0
 0081641,0.18772068,0.00068570,0.00021549,0.00010551,-0.00005578,0.0000
 1901,-0.00002486,0.00225107,0.00086394,-0.00037598,-0.00125016,0.00022
 027,-0.00088976,0.00025380,-0.00031839,0.00030961,-0.00009253,0.000143
 06,-0.00011388,-0.00473688,-0.00273103,0.00284698,0.00122575,-0.000348
 28,0.00047440,0.03095152,-0.00574862,0.01436812,0.00087275,0.00008635,
 -0.00110552,0.02551094,-0.04470726,0.01858746,-0.01055117,0.00715255,-
 0.00428322,-0.00083766,-0.00015214,-0.00150407,-0.00138670,-0.00071271
 ,0.00276188,-0.00026743,0.00006918,-0.00018317,-0.04257322,0.04594858,
 -0.00095008,-0.00020333,-0.00005523,0.00009292,-0.00001321,0.00002260,
 -0.00210469,-0.00037266,-0.00139561,0.00212675,-0.00081006,0.00025349,
 -0.00043840,0.00061969,-0.00037553,0.00006133,-0.00019399,0.00014131,0
 .00235350,0.00461036,0.00322625,-0.00094829,0.00020778,-0.00049183,-0.
 02378642,0.00762770,-0.00589682,0.00043137,-0.00153325,-0.00162493,-0.
 04423851,0.01859975,-0.04688556,-0.00695930,0.00260966,0.00141937,0.00
 139371,-0.00118130,-0.00169872,-0.00041542,0.00087961,0.00453571,-0.00
 023617,0.00012674,-0.00026591,0.07361770,-0.03097349,0.04909140\\0.000
 00225,-0.00000772,-0.00000647,0.00000193,-0.00000904,-0.00000680,-0.00
 000004,-0.00000084,-0.00000040,-0.00000027,-0.00000342,-0.00000152,-0.
 00000281,-0.00000161,0.00000216,-0.00000453,0.00000145,0.00000556,-0.0
 0000261,0.00000345,0.00000458,-0.00000490,0.00000515,0.00000791,-0.000
 00235,0.00000568,0.00000548,-0.00000435,0.00000898,0.00000935,0.000000
 58,0.00000355,0.00000132,0.00000314,-0.00000069,-0.00000371,0.00000539
 ,-0.00000226,-0.00000691,0.00000284,-0.00000284,-0.00000450,0.00000485
 ,-0.00000616,-0.00000839,0.00000088,0.00000633,0.00000235\\\@
 The archive entry for this job was punched.


 BLESSED ARE THOSE WHO NOUGHT EXPECT,
 FOR THEY SHALL NOT BE DISAPPOINTED..  WALCOT - ODE TO PITT
 Job cpu time:       0 days  0 hours 42 minutes 59.9 seconds.
 Elapsed time:       0 days  0 hours  1 minutes 25.0 seconds.
 File lengths (MBytes):  RWF=    166 Int=      0 D2E=      0 Chk=     15 Scr=      1
 Normal termination of Gaussian 16 at Mon Apr 21 11:59:07 2025.
