/home/tahminaafroz
cn012.cluster.local
tahminaafroz
Sat Apr 26 20:06:27 CDT 2025
 Entering Gaussian System, Link 0=g16
 Initial command:
 /home/apps/g16/l1.exe "/tmp/2-cl-phboh2-opt-freq-thf/Gau-3979562.inp" -scrdir="/tmp/2-cl-phboh2-opt-freq-thf/"
 Entering Link 1 = /home/apps/g16/l1.exe PID=   3979563.
  
 Copyright (c) 1988-2019, Gaussian, Inc.  All Rights Reserved.
  
 This is part of the Gaussian(R) 16 program.  It is based on
 the Gaussian(R) 09 system (copyright 2009, Gaussian, Inc.),
 the Gaussian(R) 03 system (copyright 2003, Gaussian, Inc.),
 the Gaussian(R) 98 system (copyright 1998, Gaussian, Inc.),
 the Gaussian(R) 94 system (copyright 1995, Gaussian, Inc.),
 the Gaussian 92(TM) system (copyright 1992, Gaussian, Inc.),
 the Gaussian 90(TM) system (copyright 1990, Gaussian, Inc.),
 the Gaussian 88(TM) system (copyright 1988, Gaussian, Inc.),
 the Gaussian 86(TM) system (copyright 1986, Carnegie Mellon
 University), and the Gaussian 82(TM) system (copyright 1983,
 Carnegie Mellon University). Gaussian is a federally registered
 trademark of Gaussian, Inc.
  
 This software contains proprietary and confidential information,
 including trade secrets, belonging to Gaussian, Inc.
  
 This software is provided under written license and may be
 used, copied, transmitted, or stored only in accord with that
 written license.
  
 The following legend is applicable only to US Government
 contracts under FAR:
  
                    RESTRICTED RIGHTS LEGEND
  
 Use, reproduction and disclosure by the US Government is
 subject to restrictions as set forth in subparagraphs (a)
 and (c) of the Commercial Computer Software - Restricted
 Rights clause in FAR 52.227-19.
  
 Gaussian, Inc.
 340 Quinnipiac St., Bldg. 40, Wallingford CT 06492
  
  
 ---------------------------------------------------------------
 Warning -- This program may not be used in any manner that
 competes with the business of Gaussian, Inc. or will provide
 assistance to any competitor of Gaussian, Inc.  The licensee
 of this program is prohibited from giving any competitor of
 Gaussian, Inc. access to this program.  By using this program,
 the user acknowledges that Gaussian, Inc. is engaged in the
 business of creating and licensing software in the field of
 computational chemistry and represents and warrants to the
 licensee that it is not a competitor of Gaussian, Inc. and that
 it will not use this program in any manner prohibited above.
 ---------------------------------------------------------------
  

 Cite this work as:
 Gaussian 16, Revision C.01,
 M. J. Frisch, G. W. Trucks, H. B. Schlegel, G. E. Scuseria, 
 M. A. Robb, J. R. Cheeseman, G. Scalmani, V. Barone, 
 G. A. Petersson, H. Nakatsuji, X. Li, M. Caricato, A. V. Marenich, 
 J. Bloino, B. G. Janesko, R. Gomperts, B. Mennucci, H. P. Hratchian, 
 J. V. Ortiz, A. F. Izmaylov, J. L. Sonnenberg, D. Williams-Young, 
 F. Ding, F. Lipparini, F. Egidi, J. Goings, B. Peng, A. Petrone, 
 T. Henderson, D. Ranasinghe, V. G. Zakrzewski, J. Gao, N. Rega, 
 G. Zheng, W. Liang, M. Hada, M. Ehara, K. Toyota, R. Fukuda, 
 J. Hasegawa, M. Ishida, T. Nakajima, Y. Honda, O. Kitao, H. Nakai, 
 T. Vreven, K. Throssell, J. A. Montgomery, Jr., J. E. Peralta, 
 F. Ogliaro, M. J. Bearpark, J. J. Heyd, E. N. Brothers, K. N. Kudin, 
 V. N. Staroverov, T. A. Keith, R. Kobayashi, J. Normand, 
 K. Raghavachari, A. P. Rendell, J. C. Burant, S. S. Iyengar, 
 J. Tomasi, M. Cossi, J. M. Millam, M. Klene, C. Adamo, R. Cammi, 
 J. W. Ochterski, R. L. Martin, K. Morokuma, O. Farkas, 
 J. B. Foresman, and D. J. Fox, Gaussian, Inc., Wallingford CT, 2019.
 
 ******************************************
 Gaussian 16:  AS64L-G16RevC.01  3-Jul-2019
                26-Apr-2025 
 ******************************************
 %mem=20GB
 %nprocshared=32
 Will use up to   32 processors via shared memory.
 %chk=2-cl-phboh2-opt-freq-thf.chk
 ----------------------------------------------------------------------
 # opt=(calcfc,tight) freq 6-311+g(d,p) scrf=(smd,solvent=thf) nosymm s
 cf=(qc,fermi,xqc) geom=connectivity int=ultrafine m062x
 ----------------------------------------------------------------------
 1/7=10,10=4,18=20,19=15,26=6,38=1,57=2/1,3;
 2/9=110,12=2,15=1,17=6,18=5,40=1/2;
 3/5=4,6=6,7=111,11=2,25=1,30=1,70=32201,71=2,72=20,74=-55,75=-5,140=1/1,2,3;
 4//1;
 5/5=2,22=13,38=5,53=20/2;
 8/6=4,10=90,11=11/1;
 11/6=1,8=1,9=11,15=111,16=1,31=1/1,2,10;
 10/6=1,13=1,31=1/2;
 6/7=2,8=2,9=2,10=2,28=1/1;
 7/10=1,25=1,30=1/1,2,3,16;
 1/7=10,10=4,18=20,19=15,26=6/3(2);
 2/9=110,15=1/2;
 99//99;
 2/9=110,15=1/2;
 3/5=4,6=6,7=111,11=2,25=1,30=1,70=32205,71=1,72=20,74=-55,75=-5/1,2,3;
 4/5=5,16=3,69=1/1;
 5/5=2,22=13,38=5,53=20/2;
 7/30=1/1,2,3,16;
 1/7=10,18=20,19=15,26=6/3(-5);
 2/9=110,15=1/2;
 6/7=2,8=2,9=2,10=2,19=2,28=1/1;
 99/9=1/99;
 ------------------------
 2-cl-phboh2-opt-freq-thf
 ------------------------
 Symbolic Z-matrix:
 Charge =  0 Multiplicity = 1
 O                     8.82871   6.83775   5.06541 
 H                     9.59749   6.49441   5.53098 
 C                     6.28931   7.04591   5.13923 
 B                     7.67535   6.57931   5.72667 
 O                     7.73608   5.84522   6.88093 
 H                     6.89296   5.76419   7.33162 
 C                     5.2358    6.12159   5.10173 
 H                     5.40342   5.11748   5.48048 
 C                     3.99292   6.44071   4.56895 
 H                     3.20398   5.69918   4.54368 
 C                     3.77211   7.71833   4.06768 
 C                     4.78841   8.66524   4.10194 
 H                     4.62898   9.66775   3.72607 
 C                     6.02654   8.31904   4.62913 
 H                     2.80786   7.98479   3.65176 
 Cl                    7.25754   9.55789   4.67785 
 

 GradGradGradGradGradGradGradGradGradGradGradGradGradGradGradGradGradGrad
 Berny optimization.
 Initialization pass.
                           ----------------------------
                           !    Initial Parameters    !
                           ! (Angstroms and Degrees)  !
 --------------------------                            --------------------------
 ! Name  Definition              Value          Derivative Info.                !
 --------------------------------------------------------------------------------
 ! R1    R(1,2)                  0.9621         calculate D2E/DX2 analytically  !
 ! R2    R(1,4)                  1.3544         calculate D2E/DX2 analytically  !
 ! R3    R(3,4)                  1.576          calculate D2E/DX2 analytically  !
 ! R4    R(3,7)                  1.402          calculate D2E/DX2 analytically  !
 ! R5    R(3,14)                 1.3965         calculate D2E/DX2 analytically  !
 ! R6    R(4,5)                  1.3693         calculate D2E/DX2 analytically  !
 ! R7    R(5,6)                  0.9594         calculate D2E/DX2 analytically  !
 ! R8    R(7,8)                  1.0862         calculate D2E/DX2 analytically  !
 ! R9    R(7,9)                  1.3894         calculate D2E/DX2 analytically  !
 ! R10   R(9,10)                 1.083          calculate D2E/DX2 analytically  !
 ! R11   R(9,11)                 1.3901         calculate D2E/DX2 analytically  !
 ! R12   R(11,12)                1.3895         calculate D2E/DX2 analytically  !
 ! R13   R(11,15)                1.0834         calculate D2E/DX2 analytically  !
 ! R14   R(12,13)                1.0825         calculate D2E/DX2 analytically  !
 ! R15   R(12,14)                1.3895         calculate D2E/DX2 analytically  !
 ! R16   R(14,16)                1.7471         calculate D2E/DX2 analytically  !
 ! A1    A(2,1,4)              112.0926         calculate D2E/DX2 analytically  !
 ! A2    A(4,3,7)              118.3996         calculate D2E/DX2 analytically  !
 ! A3    A(4,3,14)             124.8579         calculate D2E/DX2 analytically  !
 ! A4    A(7,3,14)             116.7368         calculate D2E/DX2 analytically  !
 ! A5    A(1,4,3)              120.6937         calculate D2E/DX2 analytically  !
 ! A6    A(1,4,5)              118.4318         calculate D2E/DX2 analytically  !
 ! A7    A(3,4,5)              120.7924         calculate D2E/DX2 analytically  !
 ! A8    A(4,5,6)              113.7209         calculate D2E/DX2 analytically  !
 ! A9    A(3,7,8)              118.9589         calculate D2E/DX2 analytically  !
 ! A10   A(3,7,9)              122.0735         calculate D2E/DX2 analytically  !
 ! A11   A(8,7,9)              118.9528         calculate D2E/DX2 analytically  !
 ! A12   A(7,9,10)             120.22           calculate D2E/DX2 analytically  !
 ! A13   A(7,9,11)             119.4374         calculate D2E/DX2 analytically  !
 ! A14   A(10,9,11)            120.3426         calculate D2E/DX2 analytically  !
 ! A15   A(9,11,12)            120.0842         calculate D2E/DX2 analytically  !
 ! A16   A(9,11,15)            120.3881         calculate D2E/DX2 analytically  !
 ! A17   A(12,11,15)           119.5273         calculate D2E/DX2 analytically  !
 ! A18   A(11,12,13)           120.9878         calculate D2E/DX2 analytically  !
 ! A19   A(11,12,14)           119.4259         calculate D2E/DX2 analytically  !
 ! A20   A(13,12,14)           119.5863         calculate D2E/DX2 analytically  !
 ! A21   A(3,14,12)            122.2356         calculate D2E/DX2 analytically  !
 ! A22   A(3,14,16)            120.2443         calculate D2E/DX2 analytically  !
 ! A23   A(12,14,16)           117.4988         calculate D2E/DX2 analytically  !
 ! D1    D(2,1,4,3)           -179.6676         calculate D2E/DX2 analytically  !
 ! D2    D(2,1,4,5)             -2.9363         calculate D2E/DX2 analytically  !
 ! D3    D(7,3,4,1)            132.3813         calculate D2E/DX2 analytically  !
 ! D4    D(7,3,4,5)            -44.2724         calculate D2E/DX2 analytically  !
 ! D5    D(14,3,4,1)           -46.712          calculate D2E/DX2 analytically  !
 ! D6    D(14,3,4,5)           136.6342         calculate D2E/DX2 analytically  !
 ! D7    D(4,3,7,8)              0.2555         calculate D2E/DX2 analytically  !
 ! D8    D(4,3,7,9)           -178.3233         calculate D2E/DX2 analytically  !
 ! D9    D(14,3,7,8)           179.4224         calculate D2E/DX2 analytically  !
 ! D10   D(14,3,7,9)             0.8436         calculate D2E/DX2 analytically  !
 ! D11   D(4,3,14,12)          178.8383         calculate D2E/DX2 analytically  !
 ! D12   D(4,3,14,16)           -2.8814         calculate D2E/DX2 analytically  !
 ! D13   D(7,3,14,12)           -0.2687         calculate D2E/DX2 analytically  !
 ! D14   D(7,3,14,16)          178.0117         calculate D2E/DX2 analytically  !
 ! D15   D(1,4,5,6)            175.2036         calculate D2E/DX2 analytically  !
 ! D16   D(3,4,5,6)             -8.0685         calculate D2E/DX2 analytically  !
 ! D17   D(3,7,9,10)           179.213          calculate D2E/DX2 analytically  !
 ! D18   D(3,7,9,11)            -0.7047         calculate D2E/DX2 analytically  !
 ! D19   D(8,7,9,10)             0.6341         calculate D2E/DX2 analytically  !
 ! D20   D(8,7,9,11)          -179.2835         calculate D2E/DX2 analytically  !
 ! D21   D(7,9,11,12)           -0.0366         calculate D2E/DX2 analytically  !
 ! D22   D(7,9,11,15)         -179.7948         calculate D2E/DX2 analytically  !
 ! D23   D(10,9,11,12)        -179.9541         calculate D2E/DX2 analytically  !
 ! D24   D(10,9,11,15)           0.2876         calculate D2E/DX2 analytically  !
 ! D25   D(9,11,12,13)        -179.292          calculate D2E/DX2 analytically  !
 ! D26   D(9,11,12,14)           0.5904         calculate D2E/DX2 analytically  !
 ! D27   D(15,11,12,13)          0.4684         calculate D2E/DX2 analytically  !
 ! D28   D(15,11,12,14)       -179.6492         calculate D2E/DX2 analytically  !
 ! D29   D(11,12,14,3)          -0.435          calculate D2E/DX2 analytically  !
 ! D30   D(11,12,14,16)       -178.7603         calculate D2E/DX2 analytically  !
 ! D31   D(13,12,14,3)         179.4491         calculate D2E/DX2 analytically  !
 ! D32   D(13,12,14,16)          1.1239         calculate D2E/DX2 analytically  !
 --------------------------------------------------------------------------------
 Trust Radius=3.00D-01 FncErr=5.00D-06 GrdErr=5.00D-06 EigMax=2.50D+02 EigMin=1.00D-04
 Number of steps in this run=     81 maximum allowed number of steps=    100.
 GradGradGradGradGradGradGradGradGradGradGradGradGradGradGradGradGradGrad

                          Input orientation:                          
 ---------------------------------------------------------------------
 Center     Atomic      Atomic             Coordinates (Angstroms)
 Number     Number       Type             X           Y           Z
 ---------------------------------------------------------------------
      1          8           0        8.828710    6.837749    5.065408
      2          1           0        9.597493    6.494407    5.530983
      3          6           0        6.289311    7.045908    5.139228
      4          5           0        7.675352    6.579308    5.726665
      5          8           0        7.736081    5.845217    6.880929
      6          1           0        6.892963    5.764191    7.331618
      7          6           0        5.235801    6.121586    5.101735
      8          1           0        5.403418    5.117484    5.480482
      9          6           0        3.992917    6.440713    4.568949
     10          1           0        3.203977    5.699181    4.543683
     11          6           0        3.772109    7.718332    4.067685
     12          6           0        4.788413    8.665238    4.101935
     13          1           0        4.628978    9.667749    3.726074
     14          6           0        6.026545    8.319038    4.629129
     15          1           0        2.807857    7.984789    3.651764
     16         17           0        7.257538    9.557888    4.677854
 ---------------------------------------------------------------------
                    Distance matrix (angstroms):
                    1          2          3          4          5
     1  O    0.000000
     2  H    0.962118   0.000000
     3  C    2.548985   3.376639   0.000000
     4  B    1.354359   1.933940   1.576042   0.000000
     5  O    2.339888   2.389279   2.562874   1.369271   0.000000
     6  H    3.167862   3.330163   2.610320   1.962759   0.959445
     7  C    3.663769   4.398591   1.402020   2.559581   3.081122
     8  H    3.855415   4.414604   2.149437   2.712788   2.816410
     9  C    4.877397   5.686797   2.442315   3.862621   4.439723
    10  H    5.762478   6.517990   3.418718   4.708212   5.101374
    11  C    5.228775   6.129791   2.817209   4.391457   5.209220
    12  C    4.537840   5.466437   2.439447   3.914750   4.935998
    13  H    5.238365   6.165544   3.409950   4.777157   5.849697
    14  C    3.199482   4.110266   1.396462   2.636249   3.756715
    15  H    6.290053   7.200824   3.900586   5.474769   6.268386
    16  Cl   3.165112   3.948181   2.731368   3.185359   4.343555
                    6          7          8          9         10
     6  H    0.000000
     7  C    2.801124   0.000000
     8  H    2.462454   1.086170   0.000000
     9  C    4.062055   1.389411   2.138069   0.000000
    10  H    4.624438   2.148990   2.460387   1.083021   0.000000
    11  C    4.920534   2.400261   3.379582   1.390083   2.150888
    12  C    4.824527   2.769462   3.855539   2.408200   3.391618
    13  H    5.776101   3.851746   4.937876   3.395405   4.295189
    14  C    3.818556   2.382735   3.370910   2.769001   3.851992
    15  H    5.929627   3.386570   4.278152   2.151689   2.485243
    16  Cl   4.644084   4.009397   4.878438   4.515129   5.598123
                   11         12         13         14         15
    11  C    0.000000
    12  C    1.389488   0.000000
    13  H    2.156652   1.082460   0.000000
    14  C    2.399698   1.389517   2.141897   0.000000
    15  H    1.083407   2.142024   2.480798   3.380372   0.000000
    16  Cl   3.988043   2.687952   2.797728   1.747131   4.829820
                   16
    16  Cl   0.000000
 Symmetry turned off by external request.
 Stoichiometry    C6H6BClO2
 Framework group  C1[X(C6H6BClO2)]
 Deg. of freedom    42
 Full point group                 C1      NOp   1
 Rotational constants (GHZ):           1.4644875           1.0659936           0.6552217
 Standard basis: 6-311+G(d,p) (5D, 7F)
   264 basis functions,   425 primitive gaussians,   274 cartesian basis functions
    40 alpha electrons       40 beta electrons
       nuclear repulsion energy       556.5980674267 Hartrees.
 NAtoms=   16 NActive=   16 NUniq=   16 SFac= 1.00D+00 NAtFMM=   60 NAOKFM=F Big=F
 Integral buffers will be    131072 words long.
 Raffenetti 2 integral format.
 Two-electron integral symmetry is turned off.
 Force inversion solution in PCM.
 ------------------------------------------------------------------------------
 Polarizable Continuum Model (PCM)
 =================================
 Model                : PCM.
 Atomic radii         : SMD-Coulomb.
 Polarization charges : Total charges.
 Charge compensation  : None.
 Solution method      : Matrix inversion.
 Cavity type          : VdW (van der Waals Surface) (Alpha=1.000).
 Cavity algorithm     : GePol (No added spheres)
                        Default sphere list used, NSphG=   16.
                        Lebedev-Laikov grids with approx.  5.0 points / Ang**2.
                        Smoothing algorithm: York/Karplus (Gamma=1.0000).
                        Polarization charges: spherical gaussians, with
                                              point-specific exponents (IZeta= 3).
                        Self-potential: point-specific (ISelfS= 7).
                        Self-field    : sphere-specific E.n sum rule (ISelfD= 2).
 1st derivatives      : Analytical E(r).r(x)/FMM algorithm (CHGder, D1EAlg=3).
                        Cavity 1st derivative terms included.
 2nd derivatives      : Analytical E(r).r(xy)/FMM algorithm (CHGder, D2EAlg=3).
                        Cavity 2nd derivative terms included.
 Solvent              : TetraHydroFuran, Eps=   7.425700 Eps(inf)=   1.974025
 ------------------------------------------------------------------------------
 Spheres list:
 ISph  on   Nord     Re0    Alpha      Xe            Ye            Ze
    1   O      1    2.2940  1.000      8.828710      6.837749      5.065408
    2   H      2    1.2000  1.000      9.597493      6.494407      5.530983
    3   C      3    1.8500  1.000      6.289311      7.045908      5.139228
    4   B      4    1.8000  1.000      7.675352      6.579308      5.726665
    5   O      5    2.2940  1.000      7.736081      5.845217      6.880929
    6   H      6    1.2000  1.000      6.892963      5.764191      7.331618
    7   C      7    1.8500  1.000      5.235801      6.121586      5.101735
    8   H      8    1.2000  1.000      5.403418      5.117484      5.480482
    9   C      9    1.8500  1.000      3.992917      6.440713      4.568949
   10   H     10    1.2000  1.000      3.203977      5.699181      4.543683
   11   C     11    1.8500  1.000      3.772109      7.718332      4.067685
   12   C     12    1.8500  1.000      4.788413      8.665238      4.101935
   13   H     13    1.2000  1.000      4.628978      9.667749      3.726074
   14   C     14    1.8500  1.000      6.026545      8.319038      4.629129
   15   H     15    1.2000  1.000      2.807857      7.984789      3.651764
   16  Cl     16    2.3800  1.000      7.257538      9.557888      4.677854
 ------------------------------------------------------------------------------
 ------------------------------------------------------------------------------
 Atomic radii for non-electrostatic terms: SMD-CDS.
 ------------------------------------------------------------------------------
 Nuclear repulsion after PCM non-electrostatic terms =      556.5932778728 Hartrees.
 One-electron integrals computed using PRISM.
 NBasis=   264 RedAO= T EigKep=  1.68D-06  NBF=   264
 NBsUse=   264 1.00D-06 EigRej= -1.00D+00 NBFU=   264
 ExpMin= 3.15D-02 ExpMax= 1.06D+05 ExpMxC= 3.62D+03 IAcc=3 IRadAn=         5 AccDes= 0.00D+00
 Harris functional with IExCor= 1009 and IRadAn=       5 diagonalized for initial guess.
 HarFok:  IExCor= 1009 AccDes= 0.00D+00 IRadAn=         5 IDoV= 1 UseB2=F ITyADJ=14
 ICtDFT=  3500011 ScaDFX=  1.000000  1.000000  1.000000  1.000000
 FoFCou: FMM=F IPFlag=           0 FMFlag=      100000 FMFlg1=           0
         NFxFlg=           0 DoJE=T BraDBF=F KetDBF=T FulRan=T
         wScrn=  0.000000 ICntrl=       500 IOpCl=  0 I1Cent=   200000004 NGrid=           0
         NMat0=    1 NMatS0=      1 NMatT0=    0 NMatD0=    1 NMtDS0=    0 NMtDT0=    0
 Symmetry not used in FoFCou.
 Requested convergence on RMS density matrix=1.00D-08 within 128 cycles.
 Requested convergence on MAX density matrix=1.00D-06.
 Requested convergence on             energy=1.00D-06.
 Level shift goal  0.100 maximum shift  0.100.
 No special actions if energy rises.
 Dynamic level shift is on during FON iterations.
 Inv3:  Mode=1 IEnd=     7498683.
 Iteration    1 A*A^-1 deviation from unit magnitude is 4.44D-15 for   1579.
 Iteration    1 A*A^-1 deviation from orthogonality  is 2.03D-15 for    384     53.
 Iteration    1 A^-1*A deviation from unit magnitude is 4.44D-15 for   1579.
 Iteration    1 A^-1*A deviation from orthogonality  is 1.73D-14 for   1578    384.
 Error on total polarization charges =  0.02160
 SCF Done:  E(RM062X) =  -867.836171492     A.U. after   15 cycles
            NFock= 15  Conv=0.94D-08     -V/T= 2.0028
 SMD-CDS (non-electrostatic) energy       (kcal/mol) =      -3.01
 (included in total energy above)
 DoSCS=F DFT=T ScalE2(SS,OS)=  1.000000  1.000000
 Range of M.O.s used for correlation:     1   264
 NBasis=   264 NAE=    40 NBE=    40 NFC=     0 NFV=     0
 NROrb=    264 NOA=    40 NOB=    40 NVA=   224 NVB=   224

 **** Warning!!: The largest alpha MO coefficient is  0.16749221D+03

 Symmetrizing basis deriv contribution to polar:
 IMax=3 JMax=2 DiffMx= 0.00D+00
 G2DrvN: will do    17 centers at a time, making    1 passes.
 Calling FoFCou, ICntrl=  3107 FMM=F I1Cent=   0 AccDes= 0.00D+00.
 NEqPCM:  Using equilibrium solvation (IEInf=0, Eps=   7.4257, EpsInf=   1.9740)
 G2PCM: DoFxE=T DoFxN=T DoGrad=T DoDP/DQ/DG/TGxP=FFFF NFrqRd=   0 IEInf=0 SqF1=F DoCFld=F IF1Alg=4.
 End of G2Drv F.D. properties file   721 does not exist.
 End of G2Drv F.D. properties file   722 does not exist.
 End of G2Drv F.D. properties file   788 does not exist.
          IDoAtm=1111111111111111
 NEqPCM:  Using equilibrium solvation (IEInf=0, Eps=   7.4257, EpsInf=   1.9740)
          Differentiating once with respect to nuclear coordinates.
 Keep R1 ints in memory in canonical form, NReq=647109699.
          There are    51 degrees of freedom in the 1st order CPHF.  IDoFFX=6 NUNeed=     0.
     45 vectors produced by pass  0 Test12= 1.76D-14 1.96D-09 XBig12= 2.37D-01 1.09D-01.
 AX will form    45 AO Fock derivatives at one time.
     45 vectors produced by pass  1 Test12= 1.76D-14 1.96D-09 XBig12= 2.05D-02 4.11D-02.
     45 vectors produced by pass  2 Test12= 1.76D-14 1.96D-09 XBig12= 4.10D-04 3.23D-03.
     45 vectors produced by pass  3 Test12= 1.76D-14 1.96D-09 XBig12= 2.53D-06 2.11D-04.
     45 vectors produced by pass  4 Test12= 1.76D-14 1.96D-09 XBig12= 2.16D-08 2.39D-05.
     45 vectors produced by pass  5 Test12= 1.76D-14 1.96D-09 XBig12= 1.30D-10 1.13D-06.
     44 vectors produced by pass  6 Test12= 1.76D-14 1.96D-09 XBig12= 5.76D-13 6.37D-08.
     10 vectors produced by pass  7 Test12= 1.76D-14 1.96D-09 XBig12= 2.40D-15 4.44D-09.
 InvSVY:  IOpt=1 It=  1 EMax= 6.66D-16
 Solved reduced A of dimension   324 with    51 vectors.
 End of Minotr F.D. properties file   721 does not exist.
 End of Minotr F.D. properties file   722 does not exist.
 End of Minotr F.D. properties file   788 does not exist.

 **********************************************************************

            Population analysis using the SCF Density.

 **********************************************************************

 Alpha  occ. eigenvalues -- -102.67490 -19.63848 -19.63371 -10.61209 -10.55632
 Alpha  occ. eigenvalues --  -10.55524 -10.55421 -10.54909 -10.54494  -9.81793
 Alpha  occ. eigenvalues --   -7.54291  -7.53645  -7.53620  -7.09136  -1.17082
 Alpha  occ. eigenvalues --   -1.13428  -0.99957  -0.94007  -0.85750  -0.82984
 Alpha  occ. eigenvalues --   -0.70757  -0.68645  -0.65430  -0.62929  -0.59349
 Alpha  occ. eigenvalues --   -0.54621  -0.53348  -0.51171  -0.49631  -0.48317
 Alpha  occ. eigenvalues --   -0.46679  -0.46035  -0.45550  -0.41919  -0.40847
 Alpha  occ. eigenvalues --   -0.40336  -0.39561  -0.37342  -0.32152  -0.30390
 Alpha virt. eigenvalues --   -0.00511   0.00112   0.00613   0.02000   0.02339
 Alpha virt. eigenvalues --    0.02876   0.03865   0.04538   0.05481   0.06401
 Alpha virt. eigenvalues --    0.07336   0.07715   0.08343   0.09118   0.09813
 Alpha virt. eigenvalues --    0.10494   0.11836   0.12440   0.12855   0.13154
 Alpha virt. eigenvalues --    0.13759   0.14100   0.14604   0.14943   0.16905
 Alpha virt. eigenvalues --    0.17509   0.17746   0.18699   0.19382   0.20220
 Alpha virt. eigenvalues --    0.20510   0.20768   0.21130   0.21879   0.22052
 Alpha virt. eigenvalues --    0.23054   0.23411   0.24025   0.24792   0.25345
 Alpha virt. eigenvalues --    0.26212   0.26577   0.27651   0.27922   0.28991
 Alpha virt. eigenvalues --    0.29385   0.30510   0.30983   0.32339   0.33425
 Alpha virt. eigenvalues --    0.34180   0.35698   0.36766   0.37704   0.38103
 Alpha virt. eigenvalues --    0.39557   0.43246   0.45089   0.47150   0.49084
 Alpha virt. eigenvalues --    0.49257   0.50329   0.53364   0.54760   0.55159
 Alpha virt. eigenvalues --    0.56428   0.56836   0.57619   0.58423   0.59667
 Alpha virt. eigenvalues --    0.61185   0.61913   0.62846   0.64263   0.65867
 Alpha virt. eigenvalues --    0.67385   0.68570   0.69201   0.70331   0.72097
 Alpha virt. eigenvalues --    0.73246   0.74312   0.76484   0.78179   0.78500
 Alpha virt. eigenvalues --    0.83378   0.86325   0.86464   0.87126   0.88800
 Alpha virt. eigenvalues --    0.90408   0.93150   0.93879   0.94633   0.95738
 Alpha virt. eigenvalues --    0.96286   0.99610   1.01682   1.02571   1.03401
 Alpha virt. eigenvalues --    1.05331   1.06379   1.07578   1.09321   1.10820
 Alpha virt. eigenvalues --    1.13735   1.15549   1.15727   1.17608   1.17999
 Alpha virt. eigenvalues --    1.19010   1.23608   1.27037   1.30825   1.32393
 Alpha virt. eigenvalues --    1.34115   1.34941   1.38752   1.40878   1.45493
 Alpha virt. eigenvalues --    1.47227   1.49422   1.50996   1.53323   1.56797
 Alpha virt. eigenvalues --    1.58407   1.59671   1.61389   1.62709   1.64517
 Alpha virt. eigenvalues --    1.67425   1.70101   1.70349   1.75297   1.77933
 Alpha virt. eigenvalues --    1.79597   1.83098   1.85283   1.86700   1.90619
 Alpha virt. eigenvalues --    1.93634   1.95014   1.96411   1.99323   1.99982
 Alpha virt. eigenvalues --    2.00745   2.04806   2.06299   2.08029   2.09750
 Alpha virt. eigenvalues --    2.14146   2.18407   2.20160   2.28005   2.33681
 Alpha virt. eigenvalues --    2.34862   2.36366   2.40818   2.44406   2.45769
 Alpha virt. eigenvalues --    2.51222   2.52453   2.55938   2.58845   2.59477
 Alpha virt. eigenvalues --    2.60990   2.64797   2.68458   2.71707   2.73018
 Alpha virt. eigenvalues --    2.75308   2.78189   2.79337   2.80493   2.85122
 Alpha virt. eigenvalues --    2.86459   2.87691   2.89871   2.95268   2.98148
 Alpha virt. eigenvalues --    3.07981   3.11516   3.14531   3.22270   3.24738
 Alpha virt. eigenvalues --    3.26145   3.26836   3.30504   3.40334   3.41999
 Alpha virt. eigenvalues --    3.46041   3.52656   3.56932   3.58656   3.60105
 Alpha virt. eigenvalues --    3.65127   3.84440   3.91952   3.94138   4.02983
 Alpha virt. eigenvalues --    4.09054   4.14382   4.18474   4.84915   5.12564
 Alpha virt. eigenvalues --    5.14079   5.32410   5.48334   5.66250   5.74581
 Alpha virt. eigenvalues --    9.98915  14.80892  23.60547  23.97921  24.04381
 Alpha virt. eigenvalues --   24.13236  24.16199  24.25913  25.96564  26.30894
 Alpha virt. eigenvalues --   26.74580  49.99966  50.03049 216.09488
          Condensed to atoms (all electrons):
               1          2          3          4          5          6
     1  O    7.868275   0.287551  -0.207955   0.404456  -0.113589   0.012192
     2  H    0.287551   0.400769   0.040040  -0.002320  -0.009724   0.001738
     3  C   -0.207955   0.040040  18.026075   0.672802  -0.169893   0.069062
     4  B    0.404456  -0.002320   0.672802   3.481395   0.375481  -0.003561
     5  O   -0.113589  -0.009724  -0.169893   0.375481   7.875435   0.284425
     6  H    0.012192   0.001738   0.069062  -0.003561   0.284425   0.410319
     7  C   -0.019092   0.009783  -0.797362  -0.075477   0.032515  -0.029390
     8  H    0.001827  -0.000049  -0.068625  -0.003618   0.004476   0.000786
     9  C   -0.011416   0.000776  -0.479969   0.024198   0.053658   0.020101
    10  H    0.000000   0.000000  -0.014931   0.000060   0.000154  -0.000022
    11  C    0.005603   0.000064  -2.131574  -0.046308   0.003778  -0.003582
    12  C    0.073470  -0.009346  -3.726276  -0.136420   0.003366  -0.001633
    13  H   -0.000064   0.000000   0.020347   0.002057   0.000045   0.000002
    14  C    0.090074  -0.024233  -4.071970  -0.134664   0.008705  -0.053342
    15  H    0.000003   0.000000  -0.005747  -0.000131  -0.000010   0.000000
    16  Cl  -0.069965   0.003724  -0.022812   0.066657   0.003863   0.000931
               7          8          9         10         11         12
     1  O   -0.019092   0.001827  -0.011416   0.000000   0.005603   0.073470
     2  H    0.009783  -0.000049   0.000776   0.000000   0.000064  -0.009346
     3  C   -0.797362  -0.068625  -0.479969  -0.014931  -2.131574  -3.726276
     4  B   -0.075477  -0.003618   0.024198   0.000060  -0.046308  -0.136420
     5  O    0.032515   0.004476   0.053658   0.000154   0.003778   0.003366
     6  H   -0.029390   0.000786   0.020101  -0.000022  -0.003582  -0.001633
     7  C    9.870303   0.407786  -0.716188   0.008409   0.140819  -2.650972
     8  H    0.407786   0.462307   0.037361  -0.004846   0.001312  -0.005789
     9  C   -0.716188   0.037361   7.788541   0.348775   0.661591   0.959311
    10  H    0.008409  -0.004846   0.348775   0.458452   0.017396  -0.032336
    11  C    0.140819   0.001312   0.661591   0.017396   6.676028   1.162002
    12  C   -2.650972  -0.005789   0.959311  -0.032336   1.162002  15.706942
    13  H    0.016890   0.000042  -0.029238  -0.000089  -0.004952   0.243478
    14  C   -0.075000  -0.026582  -2.494277   0.029468  -0.665194  -4.766510
    15  H   -0.027759  -0.000209   0.036712  -0.005605   0.362824   0.017797
    16  Cl   0.098315   0.001089  -0.045271   0.000862   0.101283  -0.417533
              13         14         15         16
     1  O   -0.000064   0.090074   0.000003  -0.069965
     2  H    0.000000  -0.024233   0.000000   0.003724
     3  C    0.020347  -4.071970  -0.005747  -0.022812
     4  B    0.002057  -0.134664  -0.000131   0.066657
     5  O    0.000045   0.008705  -0.000010   0.003863
     6  H    0.000002  -0.053342   0.000000   0.000931
     7  C    0.016890  -0.075000  -0.027759   0.098315
     8  H    0.000042  -0.026582  -0.000209   0.001089
     9  C   -0.029238  -2.494277   0.036712  -0.045271
    10  H   -0.000089   0.029468  -0.005605   0.000862
    11  C   -0.004952  -0.665194   0.362824   0.101283
    12  C    0.243478  -4.766510   0.017797  -0.417533
    13  H    0.446321   0.091693  -0.005880   0.007516
    14  C    0.091693  17.510618  -0.027800  -0.225778
    15  H   -0.005880  -0.027800   0.454327   0.001447
    16  Cl   0.007516  -0.225778   0.001447  17.243757
 Mulliken charges:
               1
     1  O   -0.321371
     2  H    0.301228
     3  C   -1.131212
     4  B    0.375393
     5  O   -0.352684
     6  H    0.291974
     7  C   -0.193581
     8  H    0.192732
     9  C   -0.154664
    10  H    0.194253
    11  C   -0.281090
    12  C   -0.419549
    13  H    0.211831
    14  C    0.834792
    15  H    0.200031
    16  Cl   0.251916
 Sum of Mulliken charges =   0.00000
 Mulliken charges with hydrogens summed into heavy atoms:
               1
     1  O   -0.020143
     3  C   -1.131212
     4  B    0.375393
     5  O   -0.060710
     7  C   -0.000849
     9  C    0.039589
    11  C   -0.081058
    12  C   -0.207718
    14  C    0.834792
    16  Cl   0.251916
 APT charges:
               1
     1  O   -0.860143
     2  H    1.929130
     3  C   -3.698044
     4  B   -0.436689
     5  O    0.780779
     6  H   -0.264962
     7  C   -0.935501
     8  H   -0.231705
     9  C    0.045039
    10  H   -0.943299
    11  C   -1.276297
    12  C   -1.104856
    13  H    1.415775
    14  C    6.374823
    15  H   -0.182554
    16  Cl  -0.611497
 Sum of APT charges =   0.00000
 APT charges with hydrogens summed into heavy atoms:
               1
     1  O    1.068987
     3  C   -3.698044
     4  B   -0.436689
     5  O    0.515818
     7  C   -1.167206
     9  C   -0.898260
    11  C   -1.458851
    12  C    0.310919
    14  C    6.374823
    16  Cl  -0.611497
 Electronic spatial extent (au):  <R**2>=          36576.1796
 Charge=              0.0000 electrons
 Dipole moment (field-independent basis, Debye):
    X=             -2.7633    Y=             -2.0272    Z=              1.1262  Tot=              3.6074
 Quadrupole moment (field-independent basis, Debye-Ang):
   XX=            -91.0423   YY=            -92.7985   ZZ=            -53.7038
   XY=            -33.8443   XZ=             -2.9735   YZ=             -4.7661
 Traceless Quadrupole moment (field-independent basis, Debye-Ang):
   XX=            -11.8607   YY=            -13.6169   ZZ=             25.4777
   XY=            -33.8443   XZ=             -2.9735   YZ=             -4.7661
 Octapole moment (field-independent basis, Debye-Ang**2):
  XXX=          -1380.9102  YYY=          -1761.1056  ZZZ=           -874.2686  XYY=           -753.7748
  XXY=           -777.6859  XXZ=           -367.2531  XZZ=           -374.0565  YZZ=           -486.7091
  YYZ=           -444.9314  XYZ=            -99.2425
 Hexadecapole moment (field-independent basis, Debye-Ang**3):
 XXXX=         -16770.7313 YYYY=         -25685.1812 ZZZZ=          -9170.6397 XXXY=         -11126.0511
 XXXZ=          -6328.5155 YYYX=         -12501.3945 YYYZ=          -8693.1320 ZZZX=          -5798.1535
 ZZZY=          -6966.4245 XXYY=          -9411.2298 XXZZ=          -4272.2662 YYZZ=          -5998.5689
 XXYZ=          -3211.4340 YYXZ=          -3370.1589 ZZXY=          -3259.0272
 N-N= 5.565932778728D+02 E-N=-3.159900569198D+03  KE= 8.654040462416D+02
  Exact polarizability:       0.000       0.000       0.000       0.000       0.000       0.000
 Approx polarizability:     139.938      12.539     132.247      14.308     -16.770      91.087
 D2PCM: PCM CHGder 2nd derivatives, FixD1E=F FixD2E=F DoIter=F DoCFld=F I1PDM=0
 Calling FoFJK, ICntrl=    100127 FMM=F ISym2X=0 I1Cent= 0 IOpClX= 0 NMat=1 NMatS=1 NMatT=0.
 -------------------------------------------------------------------
 Center     Atomic                   Forces (Hartrees/Bohr)
 Number     Number              X              Y              Z
 -------------------------------------------------------------------
      1        8          -0.000106149    0.001414689   -0.002613605
      2        1           0.002493558   -0.001082794    0.001201327
      3        6           0.000952914    0.001011623   -0.000203035
      4        5          -0.002322433   -0.001874867    0.002599369
      5        8           0.003204961    0.001440536   -0.001931740
      6        1          -0.002961833   -0.000718322    0.001388180
      7        6           0.000468182   -0.001209608    0.000030533
      8        1          -0.000277078    0.000046968    0.000192878
      9        6           0.000227734    0.000181790   -0.000056110
     10        1          -0.000186625   -0.000227108    0.000041095
     11        6          -0.000554076   -0.000049012   -0.000132772
     12        6           0.001128301    0.001409122   -0.000114313
     13        1          -0.000701940    0.000361002   -0.000326122
     14        6          -0.003231183   -0.003364414    0.000012781
     15        1          -0.000162378    0.000248888   -0.000140077
     16       17           0.002028045    0.002411507    0.000051609
 -------------------------------------------------------------------
 Cartesian Forces:  Max     0.003364414 RMS     0.001448504
 FormGI is forming the generalized inverse of G from B-inverse, IUseBI=4.

 GradGradGradGradGradGradGradGradGradGradGradGradGradGradGradGradGradGrad
 Berny optimization.
 Internal  Forces:  Max     0.003302654 RMS     0.000821375
 Search for a local minimum.
 Step number   1 out of a maximum of   81
 All quantities printed in internal units (Hartrees-Bohrs-Radians)
 Mixed Optimization -- En-DIIS/RFO-DIIS
 Second derivative matrix not updated -- analytic derivatives used.
 ITU=  0
     Eigenvalues ---    0.00167   0.01056   0.01246   0.01492   0.01641
     Eigenvalues ---    0.01807   0.02182   0.02396   0.02571   0.02761
     Eigenvalues ---    0.02823   0.03200   0.03857   0.10630   0.10709
     Eigenvalues ---    0.11483   0.11579   0.12054   0.12514   0.14745
     Eigenvalues ---    0.15128   0.16315   0.18502   0.18988   0.19095
     Eigenvalues ---    0.22167   0.26050   0.27777   0.30267   0.35852
     Eigenvalues ---    0.36552   0.36675   0.36837   0.38940   0.42339
     Eigenvalues ---    0.44112   0.47897   0.48374   0.49916   0.52034
     Eigenvalues ---    0.54368   0.55224
 RFO step:  Lambda=-2.33327835D-04 EMin= 1.67480482D-03
 Linear search not attempted -- first point.
 Iteration  1 RMS(Cart)=  0.03984339 RMS(Int)=  0.00074593
 Iteration  2 RMS(Cart)=  0.00108127 RMS(Int)=  0.00000315
 Iteration  3 RMS(Cart)=  0.00000081 RMS(Int)=  0.00000311
 Variable       Old X    -DE/DX   Delta X   Delta X   Delta X     New X
                                 (Linear)    (Quad)   (Total)
    R1        1.81814   0.00295   0.00000   0.00539   0.00539   1.82353
    R2        2.55937   0.00281   0.00000   0.00697   0.00697   2.56634
    R3        2.97829   0.00076   0.00000   0.00259   0.00259   2.98088
    R4        2.64943   0.00059   0.00000   0.00122   0.00122   2.65066
    R5        2.63893   0.00067   0.00000  -0.00174  -0.00174   2.63720
    R6        2.58755  -0.00085   0.00000  -0.00499  -0.00499   2.58255
    R7        1.81309   0.00330   0.00000   0.00625   0.00625   1.81933
    R8        2.05256  -0.00002   0.00000  -0.00018  -0.00018   2.05238
    R9        2.62561   0.00066   0.00000   0.00181   0.00181   2.62742
   R10        2.04661   0.00029   0.00000   0.00094   0.00094   2.04755
   R11        2.62688   0.00076   0.00000   0.00132   0.00131   2.62819
   R12        2.62575   0.00045   0.00000   0.00216   0.00216   2.62792
   R13        2.04734   0.00026   0.00000   0.00065   0.00065   2.04800
   R14        2.04555   0.00055   0.00000   0.00116   0.00116   2.04671
   R15        2.62581   0.00031   0.00000  -0.00116  -0.00116   2.62465
   R16        3.30160   0.00314   0.00000   0.01690   0.01690   3.31850
    A1        1.95638   0.00045   0.00000   0.00251   0.00251   1.95889
    A2        2.06646  -0.00030   0.00000   0.00352   0.00352   2.06998
    A3        2.17918   0.00077   0.00000  -0.00161  -0.00161   2.17757
    A4        2.03744  -0.00048   0.00000  -0.00193  -0.00192   2.03552
    A5        2.10650  -0.00051   0.00000  -0.01098  -0.01098   2.09552
    A6        2.06702  -0.00018   0.00000   0.00255   0.00255   2.06957
    A7        2.10823   0.00069   0.00000   0.00857   0.00857   2.11679
    A8        1.98480   0.00018   0.00000  -0.00007  -0.00007   1.98474
    A9        2.07622   0.00039   0.00000   0.00289   0.00288   2.07911
   A10        2.13058  -0.00036   0.00000  -0.00361  -0.00361   2.12697
   A11        2.07612  -0.00003   0.00000   0.00088   0.00087   2.07698
   A12        2.09824  -0.00032   0.00000  -0.00213  -0.00213   2.09610
   A13        2.08458   0.00052   0.00000   0.00351   0.00351   2.08809
   A14        2.10037  -0.00020   0.00000  -0.00137  -0.00137   2.09900
   A15        2.09586  -0.00006   0.00000   0.00016   0.00016   2.09602
   A16        2.10117   0.00023   0.00000   0.00109   0.00109   2.10226
   A17        2.08614  -0.00017   0.00000  -0.00125  -0.00125   2.08489
   A18        2.11164  -0.00034   0.00000  -0.00248  -0.00248   2.10916
   A19        2.08437  -0.00066   0.00000  -0.00608  -0.00608   2.07829
   A20        2.08717   0.00100   0.00000   0.00856   0.00856   2.09573
   A21        2.13341   0.00104   0.00000   0.00792   0.00793   2.14134
   A22        2.09866  -0.00010   0.00000  -0.00602  -0.00603   2.09263
   A23        2.05074  -0.00094   0.00000  -0.00195  -0.00195   2.04879
    D1       -3.13579   0.00009   0.00000   0.00609   0.00610  -3.12969
    D2       -0.05125   0.00014   0.00000   0.00913   0.00912  -0.04213
    D3        2.31049  -0.00009   0.00000  -0.07710  -0.07710   2.23339
    D4       -0.77270  -0.00012   0.00000  -0.07999  -0.07998  -0.85268
    D5       -0.81528  -0.00012   0.00000  -0.07618  -0.07619  -0.89146
    D6        2.38472  -0.00014   0.00000  -0.07907  -0.07907   2.30565
    D7        0.00446   0.00011   0.00000   0.01055   0.01055   0.01501
    D8       -3.11233  -0.00005   0.00000   0.00287   0.00287  -3.10946
    D9        3.13151   0.00014   0.00000   0.00971   0.00971   3.14122
   D10        0.01472  -0.00001   0.00000   0.00203   0.00203   0.01675
   D11        3.12132   0.00003   0.00000  -0.00322  -0.00322   3.11810
   D12       -0.05029  -0.00004   0.00000  -0.00527  -0.00527  -0.05556
   D13       -0.00469   0.00000   0.00000  -0.00236  -0.00237  -0.00705
   D14        3.10689  -0.00007   0.00000  -0.00442  -0.00442   3.10247
   D15        3.05788   0.00038   0.00000   0.03820   0.03819   3.09607
   D16       -0.14082   0.00039   0.00000   0.04057   0.04058  -0.10024
   D17        3.12786   0.00007   0.00000   0.00171   0.00171   3.12957
   D18       -0.01230   0.00001   0.00000  -0.00023  -0.00024  -0.01254
   D19        0.01107  -0.00009   0.00000  -0.00599  -0.00599   0.00508
   D20       -3.12909  -0.00015   0.00000  -0.00794  -0.00794  -3.13702
   D21       -0.00064   0.00000   0.00000  -0.00140  -0.00140  -0.00204
   D22       -3.13801   0.00003   0.00000   0.00020   0.00020  -3.13781
   D23       -3.14079  -0.00006   0.00000  -0.00335  -0.00335   3.13905
   D24        0.00502  -0.00003   0.00000  -0.00175  -0.00175   0.00327
   D25       -3.12924   0.00003   0.00000   0.00210   0.00210  -3.12714
   D26        0.01031  -0.00001   0.00000   0.00109   0.00109   0.01139
   D27        0.00817   0.00000   0.00000   0.00052   0.00052   0.00869
   D28       -3.13547  -0.00004   0.00000  -0.00049  -0.00049  -3.13596
   D29       -0.00759   0.00000   0.00000   0.00084   0.00084  -0.00676
   D30       -3.11996   0.00006   0.00000   0.00291   0.00292  -3.11704
   D31        3.13198  -0.00004   0.00000  -0.00018  -0.00018   3.13180
   D32        0.01962   0.00002   0.00000   0.00190   0.00190   0.02152
         Item               Value     Threshold  Converged?
 Maximum Force            0.003303     0.000015     NO 
 RMS     Force            0.000821     0.000010     NO 
 Maximum Displacement     0.140533     0.000060     NO 
 RMS     Displacement     0.039889     0.000040     NO 
 Predicted change in Energy=-1.200419D-04
 GradGradGradGradGradGradGradGradGradGradGradGradGradGradGradGradGradGrad

                          Input orientation:                          
 ---------------------------------------------------------------------
 Center     Atomic      Atomic             Coordinates (Angstroms)
 Number     Number       Type             X           Y           Z
 ---------------------------------------------------------------------
      1          8           0        8.815233    6.781511    5.023704
      2          1           0        9.594853    6.446385    5.483103
      3          6           0        6.285789    7.039637    5.142801
      4          5           0        7.674253    6.576855    5.731215
      5          8           0        7.753780    5.909756    6.921311
      6          1           0        6.911607    5.838558    7.382356
      7          6           0        5.236913    6.110025    5.086607
      8          1           0        5.401739    5.103853    5.460782
      9          6           0        3.997184    6.433867    4.546860
     10          1           0        3.210473    5.689847    4.507759
     11          6           0        3.773448    7.716850    4.058843
     12          6           0        4.784694    8.669871    4.113565
     13          1           0        4.619516    9.676375    3.749267
     14          6           0        6.017147    8.316403    4.647579
     15          1           0        2.811043    7.984536    3.638553
     16         17           0        7.249791    9.564449    4.729816
 ---------------------------------------------------------------------
                    Distance matrix (angstroms):
                    1          2          3          4          5
     1  O    0.000000
     2  H    0.964969   0.000000
     3  C    2.545368   3.379003   0.000000
     4  B    1.358046   1.940950   1.577413   0.000000
     5  O    2.342553   2.397075   2.568020   1.366629   0.000000
     6  H    3.174302   3.343117   2.617222   1.962901   0.962749
     7  C    3.641321   4.388848   1.402668   2.563996   3.121035
     8  H    3.828513   4.402851   2.151724   2.721615   2.883525
     9  C    4.854053   5.675439   2.441273   3.865744   4.474898
    10  H    5.733346   6.502612   3.418008   4.712639   5.149294
    11  C    5.217798   6.126284   2.818766   4.394622   5.225166
    12  C    4.543072   5.473314   2.443415   3.917533   4.931242
    13  H    5.254375   6.180048   3.416253   4.781899   5.837198
    14  C    3.213510   4.122505   1.395544   2.635583   3.738676
    15  H    6.278233   7.196413   3.902494   5.478286   6.285846
    16  Cl   3.206513   3.973548   2.733959   3.179416   4.291088
                    6          7          8          9         10
     6  H    0.000000
     7  C    2.854603   0.000000
     8  H    2.551850   1.086074   0.000000
     9  C    4.109537   1.390370   2.139384   0.000000
    10  H    4.688691   2.148971   2.460343   1.083517   0.000000
    11  C    4.941839   2.404146   3.382975   1.390779   2.151095
    12  C    4.819242   2.775631   3.861635   2.409903   3.393244
    13  H    5.760369   3.858563   4.944604   3.396661   4.295709
    14  C    3.797207   2.381095   3.370534   2.763030   3.846526
    15  H    5.952807   3.390501   4.281420   2.153260   2.486094
    16  Cl   4.586131   4.013978   4.883290   4.518126   5.601601
                   11         12         13         14         15
    11  C    0.000000
    12  C    1.390634   0.000000
    13  H    2.156712   1.083072   0.000000
    14  C    2.395884   1.388903   2.147058   0.000000
    15  H    1.083754   2.142573   2.478942   3.377480   0.000000
    16  Cl   3.993593   2.693833   2.809332   1.756073   4.836265
                   16
    16  Cl   0.000000
 Symmetry turned off by external request.
 Stoichiometry    C6H6BClO2
 Framework group  C1[X(C6H6BClO2)]
 Deg. of freedom    42
 Full point group                 C1      NOp   1
 Rotational constants (GHZ):           1.4663783           1.0557453           0.6584244
 Standard basis: 6-311+G(d,p) (5D, 7F)
   264 basis functions,   425 primitive gaussians,   274 cartesian basis functions
    40 alpha electrons       40 beta electrons
       nuclear repulsion energy       555.9411022826 Hartrees.
 NAtoms=   16 NActive=   16 NUniq=   16 SFac= 1.00D+00 NAtFMM=   60 NAOKFM=F Big=F
 Integral buffers will be    131072 words long.
 Raffenetti 2 integral format.
 Two-electron integral symmetry is turned off.
 ------------------------------------------------------------------------------
 Polarizable Continuum Model (PCM)
 =================================
 Model                : PCM.
 Atomic radii         : SMD-Coulomb.
 Polarization charges : Total charges.
 Charge compensation  : None.
 Solution method      : Matrix inversion.
 Cavity type          : VdW (van der Waals Surface) (Alpha=1.000).
 Cavity algorithm     : GePol (No added spheres)
                        Default sphere list used, NSphG=   16.
                        Lebedev-Laikov grids with approx.  5.0 points / Ang**2.
                        Smoothing algorithm: York/Karplus (Gamma=1.0000).
                        Polarization charges: spherical gaussians, with
                                              point-specific exponents (IZeta= 3).
                        Self-potential: point-specific (ISelfS= 7).
                        Self-field    : sphere-specific E.n sum rule (ISelfD= 2).
 1st derivatives      : Analytical E(r).r(x)/FMM algorithm (CHGder, D1EAlg=3).
                        Cavity 1st derivative terms included.
 Solvent              : TetraHydroFuran, Eps=   7.425700 Eps(inf)=   1.974025
 ------------------------------------------------------------------------------
 Spheres list:
 ISph  on   Nord     Re0    Alpha      Xe            Ye            Ze
    1   O      1    2.2940  1.000      8.815233      6.781511      5.023704
    2   H      2    1.2000  1.000      9.594853      6.446385      5.483103
    3   C      3    1.8500  1.000      6.285789      7.039637      5.142801
    4   B      4    1.8000  1.000      7.674253      6.576855      5.731215
    5   O      5    2.2940  1.000      7.753780      5.909756      6.921311
    6   H      6    1.2000  1.000      6.911607      5.838558      7.382356
    7   C      7    1.8500  1.000      5.236913      6.110025      5.086607
    8   H      8    1.2000  1.000      5.401739      5.103853      5.460782
    9   C      9    1.8500  1.000      3.997184      6.433867      4.546860
   10   H     10    1.2000  1.000      3.210473      5.689847      4.507759
   11   C     11    1.8500  1.000      3.773448      7.716850      4.058843
   12   C     12    1.8500  1.000      4.784694      8.669871      4.113565
   13   H     13    1.2000  1.000      4.619516      9.676375      3.749267
   14   C     14    1.8500  1.000      6.017147      8.316403      4.647579
   15   H     15    1.2000  1.000      2.811043      7.984536      3.638553
   16  Cl     16    2.3800  1.000      7.249791      9.564449      4.729816
 ------------------------------------------------------------------------------
 ------------------------------------------------------------------------------
 Atomic radii for non-electrostatic terms: SMD-CDS.
 ------------------------------------------------------------------------------
 Nuclear repulsion after PCM non-electrostatic terms =      555.9362741622 Hartrees.
 One-electron integrals computed using PRISM.
 NBasis=   264 RedAO= T EigKep=  1.70D-06  NBF=   264
 NBsUse=   264 1.00D-06 EigRej= -1.00D+00 NBFU=   264
 Initial guess from the checkpoint file:  "2-cl-phboh2-opt-freq-thf.chk"
 B after Tr=     0.048220    0.025433   -0.083811
         Rot=    0.999995   -0.002637    0.001132   -0.001062 Ang=  -0.35 deg.
 ExpMin= 3.15D-02 ExpMax= 1.06D+05 ExpMxC= 3.62D+03 IAcc=3 IRadAn=         5 AccDes= 0.00D+00
 Harris functional with IExCor= 1009 and IRadAn=       5 diagonalized for initial guess.
 HarFok:  IExCor= 1009 AccDes= 0.00D+00 IRadAn=         5 IDoV= 1 UseB2=F ITyADJ=14
 ICtDFT=  3500011 ScaDFX=  1.000000  1.000000  1.000000  1.000000
 FoFCou: FMM=F IPFlag=           0 FMFlag=      100000 FMFlg1=           0
         NFxFlg=           0 DoJE=T BraDBF=F KetDBF=T FulRan=T
         wScrn=  0.000000 ICntrl=       500 IOpCl=  0 I1Cent=   200000004 NGrid=           0
         NMat0=    1 NMatS0=      1 NMatT0=    0 NMatD0=    1 NMtDS0=    0 NMtDT0=    0
 Symmetry not used in FoFCou.
 Requested convergence on RMS density matrix=1.00D-08 within 128 cycles.
 Requested convergence on MAX density matrix=1.00D-06.
 Requested convergence on             energy=1.00D-06.
 Level shift goal  0.100 maximum shift  0.100.
 No special actions if energy rises.
 Dynamic level shift is on during FON iterations.
 Inv3:  Mode=1 IEnd=     7489200.
 Iteration    1 A*A^-1 deviation from unit magnitude is 2.78D-15 for   1562.
 Iteration    1 A*A^-1 deviation from orthogonality  is 1.33D-15 for    573    289.
 Iteration    1 A^-1*A deviation from unit magnitude is 2.66D-15 for   1576.
 Iteration    1 A^-1*A deviation from orthogonality  is 1.19D-15 for    518    361.
 Error on total polarization charges =  0.02154
 SCF Done:  E(RM062X) =  -867.836277587     A.U. after   12 cycles
            NFock= 12  Conv=0.61D-08     -V/T= 2.0029
 SMD-CDS (non-electrostatic) energy       (kcal/mol) =      -3.03
 (included in total energy above)
 D1PCM: PCM CHGder 1st derivatives, ID1Alg=3 FixD1E=F DoIter=F DoCFld=F I1PDM=0.
 Calling FoFJK, ICntrl=      2127 FMM=F ISym2X=0 I1Cent= 0 IOpClX= 0 NMat=1 NMatS=1 NMatT=0.
 -------------------------------------------------------------------
 Center     Atomic                   Forces (Hartrees/Bohr)
 Number     Number              X              Y              Z
 -------------------------------------------------------------------
      1        8           0.000055450    0.000000449    0.000055730
      2        1           0.000034485   -0.000008807    0.000028585
      3        6           0.000004792   -0.000019297   -0.000010936
      4        5          -0.000038839   -0.000038211   -0.000008110
      5        8          -0.000028860   -0.000056245   -0.000133505
      6        1          -0.000028004   -0.000003878    0.000037433
      7        6           0.000010756    0.000034171    0.000015255
      8        1           0.000038820    0.000068443    0.000007212
      9        6           0.000002044   -0.000007206    0.000001936
     10        1           0.000001511    0.000000167   -0.000009005
     11        6          -0.000003495   -0.000002987   -0.000009750
     12        6           0.000009737    0.000015746   -0.000009845
     13        1          -0.000004437    0.000000928   -0.000000732
     14        6          -0.000038930   -0.000012116    0.000094095
     15        1           0.000005080    0.000001338   -0.000011443
     16       17          -0.000020110    0.000027504   -0.000046918
 -------------------------------------------------------------------
 Cartesian Forces:  Max     0.000133505 RMS     0.000034866

 GradGradGradGradGradGradGradGradGradGradGradGradGradGradGradGradGradGrad
 Berny optimization.
 Using GEDIIS/GDIIS optimizer.
 FormGI is forming the generalized inverse of G from B-inverse, IUseBI=4.
 Internal  Forces:  Max     0.000249977 RMS     0.000059672
 Search for a local minimum.
 Step number   2 out of a maximum of   81
 All quantities printed in internal units (Hartrees-Bohrs-Radians)
 Mixed Optimization -- En-DIIS/RFO-DIIS
 Swapping is turned off.
 Update second derivatives using D2CorX and points    1    2
 DE= -1.06D-04 DEPred=-1.20D-04 R= 8.84D-01
 TightC=F SS=  1.41D+00  RLast= 1.70D-01 DXNew= 5.0454D-01 5.1073D-01
 Trust test= 8.84D-01 RLast= 1.70D-01 DXMaxT set to 5.05D-01
 ITU=  1  0
     Eigenvalues ---    0.00210   0.01055   0.01245   0.01493   0.01640
     Eigenvalues ---    0.01807   0.02180   0.02394   0.02568   0.02761
     Eigenvalues ---    0.02823   0.03206   0.03855   0.10632   0.10700
     Eigenvalues ---    0.11455   0.11578   0.12047   0.12462   0.14416
     Eigenvalues ---    0.15050   0.16184   0.18495   0.18976   0.19099
     Eigenvalues ---    0.22208   0.25873   0.27777   0.30274   0.35851
     Eigenvalues ---    0.36535   0.36676   0.36814   0.38491   0.42349
     Eigenvalues ---    0.44072   0.47856   0.48282   0.49840   0.51800
     Eigenvalues ---    0.53491   0.55006
 En-DIIS/RFO-DIIS/Sim-DIIS IScMMF=       -3 using points:     2    1
 RFO step:  Lambda=-1.23620663D-05.
 DidBck=T Rises=F RFO-DIIS coefs:    0.59809    0.40191
 Iteration  1 RMS(Cart)=  0.01955000 RMS(Int)=  0.00016160
 Iteration  2 RMS(Cart)=  0.00024460 RMS(Int)=  0.00000136
 Iteration  3 RMS(Cart)=  0.00000003 RMS(Int)=  0.00000136
 Variable       Old X    -DE/DX   Delta X   Delta X   Delta X     New X
                                 (Linear)    (Quad)   (Total)
    R1        1.82353   0.00004  -0.00217   0.00248   0.00032   1.82384
    R2        2.56634   0.00004  -0.00280   0.00314   0.00034   2.56668
    R3        2.98088   0.00002  -0.00104   0.00110   0.00005   2.98093
    R4        2.65066  -0.00010  -0.00049   0.00079   0.00030   2.65096
    R5        2.63720   0.00005   0.00070  -0.00029   0.00041   2.63760
    R6        2.58255  -0.00006   0.00201  -0.00187   0.00014   2.58269
    R7        1.81933   0.00004  -0.00251   0.00283   0.00032   1.81965
    R8        2.05238  -0.00005   0.00007  -0.00017  -0.00010   2.05228
    R9        2.62742  -0.00002  -0.00073   0.00053  -0.00019   2.62722
   R10        2.04755   0.00000  -0.00038   0.00040   0.00003   2.04758
   R11        2.62819  -0.00002  -0.00053   0.00048  -0.00005   2.62814
   R12        2.62792   0.00000  -0.00087   0.00084  -0.00003   2.62788
   R13        2.04800   0.00000  -0.00026   0.00030   0.00004   2.04803
   R14        2.04671   0.00000  -0.00046   0.00050   0.00003   2.04674
   R15        2.62465   0.00003   0.00047  -0.00027   0.00020   2.62484
   R16        3.31850   0.00000  -0.00679   0.00716   0.00037   3.31886
    A1        1.95889   0.00000  -0.00101   0.00035  -0.00066   1.95823
    A2        2.06998  -0.00022  -0.00141  -0.00203  -0.00344   2.06654
    A3        2.17757   0.00025   0.00065   0.00385   0.00450   2.18207
    A4        2.03552  -0.00003   0.00077  -0.00182  -0.00105   2.03447
    A5        2.09552   0.00019   0.00441  -0.00112   0.00329   2.09881
    A6        2.06957  -0.00007  -0.00102  -0.00045  -0.00148   2.06810
    A7        2.11679  -0.00013  -0.00344   0.00160  -0.00184   2.11495
    A8        1.98474   0.00003   0.00003   0.00144   0.00147   1.98621
    A9        2.07911  -0.00010  -0.00116   0.00097  -0.00019   2.07892
   A10        2.12697   0.00007   0.00145  -0.00035   0.00110   2.12807
   A11        2.07698   0.00002  -0.00035  -0.00058  -0.00092   2.07606
   A12        2.09610   0.00001   0.00086  -0.00081   0.00005   2.09615
   A13        2.08809  -0.00002  -0.00141   0.00109  -0.00032   2.08776
   A14        2.09900   0.00001   0.00055  -0.00027   0.00028   2.09928
   A15        2.09602  -0.00002  -0.00006  -0.00023  -0.00029   2.09573
   A16        2.10226   0.00001  -0.00044   0.00070   0.00027   2.10252
   A17        2.08489   0.00001   0.00050  -0.00048   0.00003   2.08492
   A18        2.10916  -0.00002   0.00100  -0.00149  -0.00050   2.10866
   A19        2.07829   0.00001   0.00244  -0.00198   0.00047   2.07876
   A20        2.09573   0.00000  -0.00344   0.00347   0.00003   2.09576
   A21        2.14134  -0.00002  -0.00319   0.00329   0.00010   2.14144
   A22        2.09263   0.00010   0.00242  -0.00055   0.00187   2.09450
   A23        2.04879  -0.00008   0.00078  -0.00272  -0.00193   2.04686
    D1       -3.12969   0.00001  -0.00245   0.00452   0.00207  -3.12762
    D2       -0.04213  -0.00002  -0.00367   0.00511   0.00145  -0.04068
    D3        2.23339   0.00005   0.03099   0.00492   0.03591   2.26930
    D4       -0.85268   0.00008   0.03215   0.00438   0.03653  -0.81615
    D5       -0.89146   0.00004   0.03062   0.00423   0.03485  -0.85662
    D6        2.30565   0.00007   0.03178   0.00369   0.03546   2.34111
    D7        0.01501   0.00001  -0.00424   0.00213  -0.00211   0.01290
    D8       -3.10946   0.00000  -0.00115  -0.00065  -0.00180  -3.11126
    D9        3.14122   0.00002  -0.00390   0.00282  -0.00108   3.14014
   D10        0.01675   0.00001  -0.00081   0.00005  -0.00077   0.01598
   D11        3.11810  -0.00001   0.00129   0.00051   0.00181   3.11991
   D12       -0.05556   0.00004   0.00212   0.00110   0.00322  -0.05234
   D13       -0.00705  -0.00002   0.00095  -0.00017   0.00078  -0.00627
   D14        3.10247   0.00002   0.00178   0.00042   0.00219   3.10466
   D15        3.09607  -0.00001  -0.01535   0.01100  -0.00434   3.09173
   D16       -0.10024  -0.00003  -0.01631   0.01151  -0.00480  -0.10504
   D17        3.12957   0.00000  -0.00069   0.00096   0.00027   3.12984
   D18       -0.01254   0.00000   0.00010   0.00006   0.00016  -0.01238
   D19        0.00508  -0.00001   0.00241  -0.00183   0.00058   0.00566
   D20       -3.13702   0.00000   0.00319  -0.00273   0.00046  -3.13656
   D21       -0.00204  -0.00001   0.00056  -0.00009   0.00047  -0.00156
   D22       -3.13781  -0.00001  -0.00008   0.00020   0.00011  -3.13770
   D23        3.13905  -0.00001   0.00135  -0.00099   0.00036   3.13940
   D24        0.00327  -0.00001   0.00070  -0.00071   0.00000   0.00327
   D25       -3.12714  -0.00001  -0.00084   0.00037  -0.00047  -3.12761
   D26        0.01139   0.00000  -0.00044  -0.00003  -0.00047   0.01092
   D27        0.00869  -0.00001  -0.00021   0.00010  -0.00011   0.00858
   D28       -3.13596   0.00000   0.00020  -0.00031  -0.00011  -3.13607
   D29       -0.00676   0.00002  -0.00034   0.00016  -0.00018  -0.00693
   D30       -3.11704  -0.00003  -0.00117  -0.00045  -0.00162  -3.11866
   D31        3.13180   0.00002   0.00007  -0.00025  -0.00018   3.13162
   D32        0.02152  -0.00003  -0.00076  -0.00086  -0.00162   0.01990
         Item               Value     Threshold  Converged?
 Maximum Force            0.000250     0.000015     NO 
 RMS     Force            0.000060     0.000010     NO 
 Maximum Displacement     0.083531     0.000060     NO 
 RMS     Displacement     0.019563     0.000040     NO 
 Predicted change in Energy=-6.213432D-06
 GradGradGradGradGradGradGradGradGradGradGradGradGradGradGradGradGradGrad

                          Input orientation:                          
 ---------------------------------------------------------------------
 Center     Atomic      Atomic             Coordinates (Angstroms)
 Number     Number       Type             X           Y           Z
 ---------------------------------------------------------------------
      1          8           0        8.823493    6.807808    5.043483
      2          1           0        9.599285    6.464602    5.503750
      3          6           0        6.288431    7.044066    5.141658
      4          5           0        7.675193    6.577861    5.731461
      5          8           0        7.746622    5.880864    6.904905
      6          1           0        6.901162    5.794355    7.357586
      7          6           0        5.237503    6.116037    5.094353
      8          1           0        5.401915    5.111787    5.473683
      9          6           0        3.996227    6.437619    4.557081
     10          1           0        3.208593    5.694191    4.525655
     11          6           0        3.772375    7.717773    4.061812
     12          6           0        4.785412    8.669383    4.106641
     13          1           0        4.620135    9.673627    3.736154
     14          6           0        6.019473    8.317902    4.638522
     15          1           0        2.808873    7.984340    3.643278
     16         17           0        7.252769    9.566563    4.704098
 ---------------------------------------------------------------------
                    Distance matrix (angstroms):
                    1          2          3          4          5
     1  O    0.000000
     2  H    0.965137   0.000000
     3  C    2.547940   3.380628   0.000000
     4  B    1.358228   1.940827   1.577442   0.000000
     5  O    2.341745   2.395066   2.566788   1.366703   0.000000
     6  H    3.174511   3.341528   2.616783   1.963998   0.962916
     7  C    3.652460   4.394798   1.402828   2.561547   3.103077
     8  H    3.843014   4.410093   2.151708   2.717280   2.852635
     9  C    4.865812   5.682532   2.442070   3.864405   4.459565
    10  H    5.747642   6.510848   3.418628   4.710133   5.127317
    11  C    5.225467   6.132088   2.819660   4.395351   5.220350
    12  C    4.544143   5.475979   2.443764   3.919865   4.937093
    13  H    5.252642   6.181761   3.416613   4.785227   5.848158
    14  C    3.210438   4.122911   1.395760   2.638877   3.749492
    15  H    6.286530   7.202822   3.903406   5.479029   6.280461
    16  Cl   3.192661   3.970862   2.735763   3.188457   4.321090
                    6          7          8          9         10
     6  H    0.000000
     7  C    2.827271   0.000000
     8  H    2.502545   1.086020   0.000000
     9  C    4.085984   1.390267   2.138679   0.000000
    10  H    4.654560   2.148917   2.459393   1.083531   0.000000
    11  C    4.934670   2.403809   3.382298   1.390753   2.151252
    12  C    4.828128   2.774804   3.860747   2.409664   3.393184
    13  H    5.776383   3.857758   4.943740   3.396312   4.295541
    14  C    3.813001   2.380645   3.370170   2.763263   3.846770
    15  H    5.944656   3.390342   4.280865   2.153414   2.486594
    16  Cl   4.625384   4.014938   4.884971   4.518514   5.602005
                   11         12         13         14         15
    11  C    0.000000
    12  C    1.390617   0.000000
    13  H    2.156413   1.083090   0.000000
    14  C    2.396288   1.389007   2.147185   0.000000
    15  H    1.083773   2.142590   2.478505   3.377828   0.000000
    16  Cl   3.992956   2.692534   2.806981   1.756267   4.834974
                   16
    16  Cl   0.000000
 Symmetry turned off by external request.
 Stoichiometry    C6H6BClO2
 Framework group  C1[X(C6H6BClO2)]
 Deg. of freedom    42
 Full point group                 C1      NOp   1
 Rotational constants (GHZ):           1.4626366           1.0594716           0.6560170
 Standard basis: 6-311+G(d,p) (5D, 7F)
   264 basis functions,   425 primitive gaussians,   274 cartesian basis functions
    40 alpha electrons       40 beta electrons
       nuclear repulsion energy       555.8853261987 Hartrees.
 NAtoms=   16 NActive=   16 NUniq=   16 SFac= 1.00D+00 NAtFMM=   60 NAOKFM=F Big=F
 Integral buffers will be    131072 words long.
 Raffenetti 2 integral format.
 Two-electron integral symmetry is turned off.
 ------------------------------------------------------------------------------
 Polarizable Continuum Model (PCM)
 =================================
 Model                : PCM.
 Atomic radii         : SMD-Coulomb.
 Polarization charges : Total charges.
 Charge compensation  : None.
 Solution method      : Matrix inversion.
 Cavity type          : VdW (van der Waals Surface) (Alpha=1.000).
 Cavity algorithm     : GePol (No added spheres)
                        Default sphere list used, NSphG=   16.
                        Lebedev-Laikov grids with approx.  5.0 points / Ang**2.
                        Smoothing algorithm: York/Karplus (Gamma=1.0000).
                        Polarization charges: spherical gaussians, with
                                              point-specific exponents (IZeta= 3).
                        Self-potential: point-specific (ISelfS= 7).
                        Self-field    : sphere-specific E.n sum rule (ISelfD= 2).
 1st derivatives      : Analytical E(r).r(x)/FMM algorithm (CHGder, D1EAlg=3).
                        Cavity 1st derivative terms included.
 Solvent              : TetraHydroFuran, Eps=   7.425700 Eps(inf)=   1.974025
 ------------------------------------------------------------------------------
 Spheres list:
 ISph  on   Nord     Re0    Alpha      Xe            Ye            Ze
    1   O      1    2.2940  1.000      8.823493      6.807808      5.043483
    2   H      2    1.2000  1.000      9.599285      6.464602      5.503750
    3   C      3    1.8500  1.000      6.288431      7.044066      5.141658
    4   B      4    1.8000  1.000      7.675193      6.577861      5.731461
    5   O      5    2.2940  1.000      7.746622      5.880864      6.904905
    6   H      6    1.2000  1.000      6.901162      5.794355      7.357586
    7   C      7    1.8500  1.000      5.237503      6.116037      5.094353
    8   H      8    1.2000  1.000      5.401915      5.111787      5.473683
    9   C      9    1.8500  1.000      3.996227      6.437619      4.557081
   10   H     10    1.2000  1.000      3.208593      5.694191      4.525655
   11   C     11    1.8500  1.000      3.772375      7.717773      4.061812
   12   C     12    1.8500  1.000      4.785412      8.669383      4.106641
   13   H     13    1.2000  1.000      4.620135      9.673627      3.736154
   14   C     14    1.8500  1.000      6.019473      8.317902      4.638522
   15   H     15    1.2000  1.000      2.808873      7.984340      3.643278
   16  Cl     16    2.3800  1.000      7.252769      9.566563      4.704098
 ------------------------------------------------------------------------------
 ------------------------------------------------------------------------------
 Atomic radii for non-electrostatic terms: SMD-CDS.
 ------------------------------------------------------------------------------
 Nuclear repulsion after PCM non-electrostatic terms =      555.8805157436 Hartrees.
 One-electron integrals computed using PRISM.
 NBasis=   264 RedAO= T EigKep=  1.70D-06  NBF=   264
 NBsUse=   264 1.00D-06 EigRej= -1.00D+00 NBFU=   264
 Initial guess from the checkpoint file:  "2-cl-phboh2-opt-freq-thf.chk"
 B after Tr=    -0.016248   -0.015957    0.042092
         Rot=    0.999999    0.001390   -0.000464    0.000329 Ang=   0.17 deg.
 ExpMin= 3.15D-02 ExpMax= 1.06D+05 ExpMxC= 3.62D+03 IAcc=3 IRadAn=         5 AccDes= 0.00D+00
 Harris functional with IExCor= 1009 and IRadAn=       5 diagonalized for initial guess.
 HarFok:  IExCor= 1009 AccDes= 0.00D+00 IRadAn=         5 IDoV= 1 UseB2=F ITyADJ=14
 ICtDFT=  3500011 ScaDFX=  1.000000  1.000000  1.000000  1.000000
 FoFCou: FMM=F IPFlag=           0 FMFlag=      100000 FMFlg1=           0
         NFxFlg=           0 DoJE=T BraDBF=F KetDBF=T FulRan=T
         wScrn=  0.000000 ICntrl=       500 IOpCl=  0 I1Cent=   200000004 NGrid=           0
         NMat0=    1 NMatS0=      1 NMatT0=    0 NMatD0=    1 NMtDS0=    0 NMtDT0=    0
 Symmetry not used in FoFCou.
 Requested convergence on RMS density matrix=1.00D-08 within 128 cycles.
 Requested convergence on MAX density matrix=1.00D-06.
 Requested convergence on             energy=1.00D-06.
 Level shift goal  0.100 maximum shift  0.100.
 No special actions if energy rises.
 Dynamic level shift is on during FON iterations.
 Inv3:  Mode=1 IEnd=     7479723.
 Iteration    1 A*A^-1 deviation from unit magnitude is 4.22D-15 for   1579.
 Iteration    1 A*A^-1 deviation from orthogonality  is 1.83D-15 for   1579   1452.
 Iteration    1 A^-1*A deviation from unit magnitude is 3.77D-15 for   1579.
 Iteration    1 A^-1*A deviation from orthogonality  is 7.44D-14 for    384    383.
 Error on total polarization charges =  0.02160
 SCF Done:  E(RM062X) =  -867.836281413     A.U. after   12 cycles
            NFock= 12  Conv=0.26D-08     -V/T= 2.0029
 SMD-CDS (non-electrostatic) energy       (kcal/mol) =      -3.02
 (included in total energy above)
 D1PCM: PCM CHGder 1st derivatives, ID1Alg=3 FixD1E=F DoIter=F DoCFld=F I1PDM=0.
 Calling FoFJK, ICntrl=      2127 FMM=F ISym2X=0 I1Cent= 0 IOpClX= 0 NMat=1 NMatS=1 NMatT=0.
 -------------------------------------------------------------------
 Center     Atomic                   Forces (Hartrees/Bohr)
 Number     Number              X              Y              Z
 -------------------------------------------------------------------
      1        8          -0.000013961   -0.000058836    0.000097169
      2        1          -0.000137028    0.000053144   -0.000049522
      3        6          -0.000046083   -0.000030143    0.000017357
      4        5           0.000114984    0.000111514   -0.000130338
      5        8          -0.000131648   -0.000063176    0.000193388
      6        1           0.000130111    0.000025738   -0.000082282
      7        6          -0.000035900    0.000029014   -0.000030513
      8        1          -0.000003920   -0.000043239   -0.000016150
      9        6          -0.000009928   -0.000004364   -0.000013428
     10        1           0.000012542    0.000011495   -0.000018356
     11        6           0.000033017    0.000005605    0.000001264
     12        6          -0.000054678   -0.000073111    0.000009355
     13        1           0.000042021   -0.000014709    0.000018271
     14        6           0.000153625    0.000156848   -0.000030009
     15        1           0.000012609   -0.000010262   -0.000001888
     16       17          -0.000065764   -0.000095518    0.000035682
 -------------------------------------------------------------------
 Cartesian Forces:  Max     0.000193388 RMS     0.000071923

 GradGradGradGradGradGradGradGradGradGradGradGradGradGradGradGradGradGrad
 Berny optimization.
 Using GEDIIS/GDIIS optimizer.
 FormGI is forming the generalized inverse of G from B-inverse, IUseBI=4.
 Internal  Forces:  Max     0.000163988 RMS     0.000049115
 Search for a local minimum.
 Step number   3 out of a maximum of   81
 All quantities printed in internal units (Hartrees-Bohrs-Radians)
 Mixed Optimization -- En-DIIS/RFO-DIIS
 Swapping is turned off.
 Update second derivatives using D2CorX and points    1    2    3
 DE= -3.83D-06 DEPred=-6.21D-06 R= 6.16D-01
 TightC=F SS=  1.41D+00  RLast= 7.24D-02 DXNew= 8.4853D-01 2.1722D-01
 Trust test= 6.16D-01 RLast= 7.24D-02 DXMaxT set to 5.05D-01
 ITU=  1  1  0
     Eigenvalues ---    0.00289   0.01061   0.01249   0.01493   0.01642
     Eigenvalues ---    0.01808   0.02182   0.02399   0.02570   0.02761
     Eigenvalues ---    0.02824   0.03225   0.03856   0.10633   0.10718
     Eigenvalues ---    0.11484   0.11580   0.12053   0.12515   0.14979
     Eigenvalues ---    0.15072   0.16269   0.18499   0.18998   0.19106
     Eigenvalues ---    0.22278   0.25960   0.27776   0.30485   0.35867
     Eigenvalues ---    0.36550   0.36676   0.36836   0.39073   0.42373
     Eigenvalues ---    0.44118   0.47935   0.48347   0.49864   0.51964
     Eigenvalues ---    0.54240   0.55115
 En-DIIS/RFO-DIIS/Sim-DIIS IScMMF=       -3 using points:     3    2    1
 RFO step:  Lambda=-2.10119915D-06.
 DidBck=T Rises=F RFO-DIIS coefs:    0.63521    0.33768    0.02711
 Iteration  1 RMS(Cart)=  0.00608219 RMS(Int)=  0.00001544
 Iteration  2 RMS(Cart)=  0.00002339 RMS(Int)=  0.00000016
 Iteration  3 RMS(Cart)=  0.00000000 RMS(Int)=  0.00000016
 Variable       Old X    -DE/DX   Delta X   Delta X   Delta X     New X
                                 (Linear)    (Quad)   (Total)
    R1        1.82384  -0.00016  -0.00026  -0.00001  -0.00027   1.82357
    R2        2.56668  -0.00014  -0.00031   0.00000  -0.00032   2.56636
    R3        2.98093  -0.00004  -0.00009   0.00000  -0.00009   2.98084
    R4        2.65096   0.00003  -0.00014   0.00001  -0.00013   2.65083
    R5        2.63760  -0.00004  -0.00010   0.00000  -0.00010   2.63750
    R6        2.58269   0.00011   0.00008   0.00006   0.00015   2.58284
    R7        1.81965  -0.00016  -0.00028   0.00000  -0.00029   1.81936
    R8        2.05228   0.00003   0.00004   0.00001   0.00005   2.05233
    R9        2.62722  -0.00002   0.00002  -0.00001   0.00001   2.62724
   R10        2.04758  -0.00002  -0.00003   0.00000  -0.00004   2.04754
   R11        2.62814  -0.00003  -0.00002   0.00000  -0.00002   2.62812
   R12        2.62788  -0.00002  -0.00005   0.00000  -0.00005   2.62783
   R13        2.04803  -0.00001  -0.00003   0.00000  -0.00003   2.04800
   R14        2.04674  -0.00003  -0.00004  -0.00001  -0.00005   2.04669
   R15        2.62484  -0.00003  -0.00004   0.00000  -0.00004   2.62480
   R16        3.31886  -0.00011  -0.00059   0.00004  -0.00055   3.31832
    A1        1.95823  -0.00003   0.00017  -0.00003   0.00014   1.95837
    A2        2.06654   0.00011   0.00116  -0.00007   0.00109   2.06763
    A3        2.18207  -0.00015  -0.00160   0.00005  -0.00154   2.18053
    A4        2.03447   0.00004   0.00043   0.00001   0.00044   2.03492
    A5        2.09881  -0.00008  -0.00090   0.00000  -0.00090   2.09791
    A6        2.06810   0.00004   0.00047  -0.00001   0.00046   2.06856
    A7        2.11495   0.00003   0.00044   0.00000   0.00044   2.11539
    A8        1.98621  -0.00003  -0.00053  -0.00003  -0.00057   1.98564
    A9        2.07892   0.00003  -0.00001  -0.00004  -0.00005   2.07887
   A10        2.12807  -0.00002  -0.00030   0.00001  -0.00030   2.12777
   A11        2.07606  -0.00001   0.00031   0.00003   0.00035   2.07641
   A12        2.09615   0.00001   0.00004   0.00001   0.00005   2.09620
   A13        2.08776  -0.00002   0.00002  -0.00001   0.00001   2.08777
   A14        2.09928   0.00000  -0.00006   0.00000  -0.00006   2.09922
   A15        2.09573   0.00001   0.00010   0.00001   0.00011   2.09584
   A16        2.10252  -0.00002  -0.00013  -0.00001  -0.00014   2.10239
   A17        2.08492   0.00000   0.00002   0.00000   0.00003   2.08495
   A18        2.10866   0.00002   0.00025   0.00001   0.00026   2.10891
   A19        2.07876   0.00003  -0.00001   0.00002   0.00001   2.07877
   A20        2.09576  -0.00005  -0.00024  -0.00002  -0.00027   2.09549
   A21        2.14144  -0.00005  -0.00025  -0.00003  -0.00028   2.14116
   A22        2.09450  -0.00003  -0.00052   0.00004  -0.00048   2.09402
   A23        2.04686   0.00008   0.00076  -0.00001   0.00075   2.04761
    D1       -3.12762   0.00000  -0.00092   0.00014  -0.00078  -3.12840
    D2       -0.04068   0.00000  -0.00078   0.00004  -0.00073  -0.04141
    D3        2.26930  -0.00003  -0.01101  -0.00012  -0.01113   2.25817
    D4       -0.81615  -0.00004  -0.01116  -0.00002  -0.01118  -0.82733
    D5       -0.85662  -0.00002  -0.01065   0.00002  -0.01062  -0.86724
    D6        2.34111  -0.00003  -0.01079   0.00012  -0.01067   2.33044
    D7        0.01290   0.00000   0.00048   0.00019   0.00068   0.01357
    D8       -3.11126   0.00001   0.00058   0.00015   0.00072  -3.11054
    D9        3.14014  -0.00002   0.00013   0.00006   0.00019   3.14033
   D10        0.01598  -0.00001   0.00022   0.00001   0.00024   0.01622
   D11        3.11991   0.00000  -0.00057  -0.00020  -0.00077   3.11914
   D12       -0.05234  -0.00002  -0.00103  -0.00008  -0.00112  -0.05346
   D13       -0.00627   0.00001  -0.00022  -0.00005  -0.00028  -0.00655
   D14        3.10466  -0.00001  -0.00068   0.00006  -0.00062   3.10404
   D15        3.09173  -0.00001   0.00055   0.00000   0.00054   3.09227
   D16       -0.10504  -0.00001   0.00065  -0.00010   0.00055  -0.10449
   D17        3.12984   0.00000  -0.00015   0.00002  -0.00012   3.12972
   D18       -0.01238   0.00000  -0.00005   0.00003  -0.00002  -0.01239
   D19        0.00566   0.00001  -0.00005  -0.00002  -0.00007   0.00558
   D20       -3.13656   0.00001   0.00005  -0.00001   0.00003  -3.13653
   D21       -0.00156   0.00000  -0.00013  -0.00004  -0.00017  -0.00174
   D22       -3.13770   0.00000  -0.00005  -0.00005  -0.00010  -3.13779
   D23        3.13940   0.00001  -0.00004  -0.00003  -0.00007   3.13934
   D24        0.00327   0.00000   0.00005  -0.00004   0.00001   0.00328
   D25       -3.12761   0.00000   0.00011  -0.00004   0.00008  -3.12753
   D26        0.01092   0.00000   0.00014   0.00000   0.00014   0.01106
   D27        0.00858   0.00000   0.00003  -0.00003   0.00000   0.00858
   D28       -3.13607   0.00000   0.00005   0.00001   0.00006  -3.13601
   D29       -0.00693  -0.00001   0.00004   0.00005   0.00009  -0.00684
   D30       -3.11866   0.00001   0.00051  -0.00006   0.00045  -3.11821
   D31        3.13162  -0.00001   0.00007   0.00009   0.00016   3.13178
[...]
     1         14.00887807          9.10239539        -17.51655136
     6          9.63037338         11.61561818        -13.60391294
     5         12.23514921         10.72381372        -14.74638008
     8         14.43482661         10.97100636        -13.41540414
     1         14.24567057         11.87429472        -11.84749016
     6          9.02789497         10.90093103        -11.12333209
     1         10.37279823          9.77974273        -10.05267853
     6          6.74106275         11.55333607        -10.00658993
     1          6.32450840         10.95414133         -8.09351521
     6          4.99523725         12.97866384        -11.35845583
     6          5.53985526         13.74789660        -13.81144343
     1          4.20738158         14.87908807        -14.87627891
     6          7.82984901         13.05196606        -14.88905103
     1          3.20749622         13.50729222        -10.51060946
    17          8.45488913         14.12841949        -17.96504833

 Electric dipole moment (dipole orientation):
 (Debye = 10**-18 statcoulomb cm , SI units = C m)
                  (au)            (Debye)         (10**-30 SI)
   Tot        0.144658D+01      0.367684D+01      0.122646D+02
   x          0.000000D+00      0.000000D+00      0.000000D+00
   y          0.000000D+00      0.000000D+00      0.000000D+00
   z          0.144658D+01      0.367684D+01      0.122646D+02

 Dipole polarizability, Alpha (dipole orientation).
 (esu units = cm**3 , SI units = C**2 m**2 J**-1)
 Alpha(0;0):
               (au)            (10**-24 esu)      (10**-40 SI)
   iso        0.126001D+03      0.186714D+02      0.207747D+02
   aniso      0.727805D+02      0.107850D+02      0.119999D+02
   xx         0.134072D+03      0.198674D+02      0.221054D+02
   yx        -0.207863D+02     -0.308021D+01     -0.342719D+01
   yy         0.945553D+02      0.140116D+02      0.155901D+02
   zx        -0.141566D+02     -0.209780D+01     -0.233411D+01
   zy        -0.182489D+02     -0.270420D+01     -0.300883D+01
   zz         0.149375D+03      0.221352D+02      0.246287D+02

 ----------------------------------------------------------------------
 Unable to Open any file for archive entry.
 1\1\GINC-CN012\Freq\RM062X\6-311+G(d,p)\C6H6B1Cl1O2\TAHMINAAFROZ\26-Ap
 r-2025\0\\#N Geom=AllCheck Guess=TCheck SCRF=Check GenChk RM062X/6-311
 +G(d,p) Freq\\2-cl-phboh2-opt-freq-thf\\0,1\O,8.8210615482,6.800950564
 8,5.0379700038\H,9.5978469519,6.4600046593,5.4979359315\C,6.2875870097
 ,7.0428560702,5.1421274025\B,7.674883266,6.5776339215,5.7313165342\O,7
 .7485639549,5.8883313402,6.9092614777\H,6.9041640119,5.8064945263,7.36
 44579577\C,5.2372134137,6.1144113936,5.0923558286\H,5.4018207458,5.109
 6076188,5.4702308103\C,3.9964051707,6.4365814034,4.5543452261\H,3.2089
 952653,5.6930412009,4.5207734543\C,3.7727427358,7.7174877446,4.0609760
 777\C,4.7853269165,8.6694029518,4.1085253532\H,4.6203131915,9.67424719
 6,3.7396278811\C,6.0189654329,8.3175490695,4.6410921767\H,2.809593765,
 7.984350958,3.6418647004\Cl,7.2519796201,9.5658273813,4.7112601841\\Ve
 rsion=AS64L-G16RevC.01\HF=-867.8362824\RMSD=2.056e-09\RMSF=5.287e-06\Z
 eroPoint=0.1159166\Thermal=0.1249639\ETot=-867.7113184\HTot=-867.71037
 42\GTot=-867.7554068\Dipole=-1.0986816,-0.8263867,0.450089\DipoleDeriv
 =-1.6364587,0.0191301,0.2751062,0.0272652,-0.6520305,0.0442197,0.31530
 83,0.0331067,-0.7616574,0.442643,0.009754,-0.0335067,-0.0069003,0.3680
 052,0.0349354,-0.0436251,0.0453996,0.3178765,-0.6702542,0.0104731,-0.1
 693403,-0.0572857,-0.4538982,0.0709512,-0.1912666,0.1103257,-0.3118952
 ,2.2132731,-0.2834064,0.0470043,-0.1784121,1.0250048,-0.60469,-0.07633
 64,-0.5656225,1.7105908,-0.7907807,0.0837053,-0.1089778,0.0889034,-0.8
 985364,0.494324,-0.063234,0.4480688,-1.4013037,0.282589,0.0236203,-0.0
 169069,-0.0070335,0.3923393,-0.0466269,0.0561014,-0.073517,0.4896979,0
 .0711089,-0.0050868,0.0824462,0.0413373,0.0458861,-0.0514899,0.011655,
 -0.0360755,-0.1455257,0.0895108,0.0316691,-0.0365949,0.014167,-0.03762
 87,0.074719,-0.0269274,0.0823129,0.1268276,-0.0714227,0.1022411,0.0038
 749,0.0632537,-0.0961789,0.0011972,0.0223455,0.0099155,-0.1686055,0.02
 2215,-0.0874978,-0.0278615,-0.0913262,0.0345742,0.0171082,-0.0269616,0
 .0149986,0.170585,0.0587074,-0.0029665,0.0691656,0.0742214,0.0772127,-
 0.0443608,0.0495794,-0.0662646,-0.1064198,-0.3666976,-0.1685061,-0.028
 2606,-0.1224418,-0.1376813,-0.045015,-0.031048,-0.0730586,-0.1369319,0
 .1225065,-0.0056807,-0.0202924,0.0019193,0.0131195,0.0552372,-0.032046
 9,0.0489267,0.1607378,0.8092867,0.7449926,0.0667786,0.6383672,0.857186
 3,-0.0328946,0.1546508,-0.0026805,0.0306369,-0.019865,0.020672,-0.0752
 713,0.0213172,0.096276,0.0327595,-0.0756008,0.0332488,0.1402285,-0.556
 3615,-0.4931134,-0.0273634,-0.5073521,-0.6336503,-0.0003742,-0.0425935
 ,-0.0090846,-0.1148418\Polar=149.146913,13.3735112,137.4138615,17.9239
 726,-18.3133064,91.4416016\Quadrupole=-8.8380323,-10.5058133,19.343845
 6,-25.8034898,-2.2451803,-3.8282562\PG=C01 [X(C6H6B1Cl1O2)]\NImag=0\\0
 .64970285,-0.09557770,0.12702734,0.03452562,-0.14968693,0.30403130,-0.
 33843718,0.13068562,-0.16906024,0.36911444,0.14757289,-0.07805645,0.08
 934755,-0.14242749,0.07417404,-0.20142275,0.09331971,-0.14179493,0.183
 72044,-0.08833079,0.13360057,-0.02711971,0.00555828,-0.00488653,-0.000
 72019,-0.00075710,0.00154562,0.58268236,-0.00156019,0.00895839,0.00034
 423,-0.00079724,0.00411984,0.00237493,0.03100419,0.57663249,0.01208194
 ,-0.00305507,0.00892965,0.00268314,0.00173372,0.00023672,0.12936216,-0
 .14455006,0.23206923,-0.27575384,-0.02405593,0.10108520,-0.03565668,-0
 .00389993,0.01675932,-0.16200898,0.03054935,-0.04312359,0.56169459,-0.
 03778527,-0.05993322,0.03300246,0.01098531,0.00390780,-0.00658952,0.03
 511268,-0.08060887,0.01853678,-0.01476602,0.25953444,0.12657811,0.0306
 5634,-0.13174501,-0.01182670,-0.00234192,0.01006403,-0.04464399,0.0146
 6353,-0.07707579,-0.05954569,-0.17824452,0.46491807,-0.00644204,-0.020
 85862,0.04091867,0.00595634,-0.00056680,-0.00083752,0.00216920,0.01518
 470,-0.02045013,-0.08106588,0.00850313,-0.00478769,0.49966211,-0.01509
 176,0.00235848,0.02205637,0.00156494,-0.00270536,-0.00039026,0.0040597
 5,0.00410681,0.01932611,0.02680160,-0.11668066,0.12104971,0.01918083,0
 .13157063,0.03205881,0.02312434,-0.03851450,-0.00521770,-0.00015376,-0
 .00171519,-0.00347273,0.01799486,-0.01225093,-0.03723639,0.12761631,-0
 .25320121,-0.20089464,-0.19151642,0.44100593,0.00384874,0.00164468,-0.
 00223577,-0.00000134,0.00006762,-0.00027917,-0.00021789,0.00113073,-0.
 00240873,-0.00022616,-0.00106093,0.00122460,-0.41524045,-0.03971590,0.
 21941544,0.41256527,0.00062008,0.00342085,0.00464198,0.00014491,-0.000
 78425,-0.00015229,-0.00010544,-0.00113442,-0.00186392,-0.01626662,-0.0
 0458948,0.00956040,-0.02211150,-0.01828289,0.02246786,0.03802378,0.021
 38538,-0.00058564,0.00418850,-0.00071198,-0.00020238,-0.00009921,-0.00
 063790,-0.00060655,-0.00219019,0.00175265,0.02820215,0.00340733,-0.017
 96960,0.18806290,0.02975734,-0.13313176,-0.21518441,-0.03445473,0.1508
 7646,-0.00162675,0.00138840,-0.00045405,-0.00028666,0.00068691,0.00063
 972,-0.22738451,-0.07448701,-0.03558157,-0.01725511,-0.01300704,-0.003
 76590,0.00049196,0.00005447,0.00206206,-0.00000928,0.00017057,-0.00005
 486,0.61515019,0.00453914,-0.00143743,0.00027949,0.00031638,-0.0002601
 3,-0.00030760,-0.12926105,-0.19896345,0.00377718,-0.00135078,0.0113390
 9,-0.00330829,0.00057666,-0.00328553,0.00219289,0.00101986,0.00116252,
 0.00035665,0.02498725,0.67021868,-0.00279398,0.00081261,0.00028259,0.0
 0010967,0.00013966,0.00040435,-0.01652786,0.02163824,-0.07573489,-0.00
 425624,-0.00773845,0.00299094,-0.00003874,0.00097923,-0.00078128,-0.00
 027269,-0.00036633,-0.00021811,0.15608815,-0.16334662,0.24817027,0.000
 05116,0.00011972,-0.00023409,-0.00007824,-0.00007965,-0.00001738,0.005
 90858,-0.02134912,0.00823287,-0.00073100,-0.00134035,0.00163268,-0.000
 90577,0.00005825,-0.00000736,0.00002391,-0.00025432,-0.00073159,-0.063
 26495,0.03805802,-0.02024305,0.06545028,0.00004909,0.00017210,-0.00019
 844,-0.00006397,-0.00000097,0.00001783,0.00361641,-0.01385815,0.006488
 78,0.00062673,-0.00141275,0.00032916,0.00034267,0.00047792,-0.00043781
 ,-0.00061224,-0.00031621,-0.00082004,0.03875305,-0.29685908,0.09599618
 ,-0.03880919,0.31275013,0.00081844,-0.00012910,0.00013325,0.00006537,0
 .00009659,0.00002675,0.00077037,-0.00213790,0.00324530,0.00037004,-0.0
 0077735,-0.00250912,-0.00055486,0.00024656,-0.00051920,-0.00024601,-0.
 00022177,-0.00054716,-0.02139677,0.09414889,-0.07700242,0.02588819,-0.
 10456097,0.06974509,-0.00101272,0.00061830,-0.00009992,-0.00002284,0.0
 0015118,0.00009969,-0.04761926,-0.05099025,-0.00237929,0.00092492,-0.0
 0611224,0.00030313,0.00037461,0.00108696,-0.00058147,-0.00024496,0.000
 09539,-0.00046219,-0.29426720,0.07195926,-0.10349301,0.00021031,-0.001
 37635,-0.00104771,0.66461837,-0.00087721,0.00066377,-0.00018456,-0.000
 15054,0.00018826,0.00020580,-0.00128967,0.05477898,-0.01675507,-0.0028
 2085,-0.00124545,0.00155837,0.00032713,0.00011497,-0.00006368,-0.00013
 570,-0.00035132,-0.00007800,0.00316140,-0.13615479,0.02447630,0.026787
 31,-0.00247942,0.01207717,0.09254168,0.66951619,-0.00113426,0.00019329
 ,-0.00067422,-0.00020046,-0.00027154,-0.00008393,-0.01826207,-0.030689
 45,0.01445301,-0.00152510,0.00050541,0.00536652,0.00057283,-0.00108195
 ,0.00030218,0.00021041,0.00031451,0.00006385,-0.08091817,0.04740252,-0
 .10934191,-0.01008920,0.00163976,0.00054591,0.15398474,-0.14035104,0.2
 3555939,-0.00068331,0.00018509,0.00000791,-0.00000028,0.00001765,0.000
 05366,-0.00325106,0.00136324,-0.00424140,0.00058044,-0.00119178,0.0004
 5323,-0.00014190,0.00033279,-0.00032728,-0.00003000,-0.00006974,0.0001
 0815,-0.01443444,-0.01989098,0.00017830,0.00058832,0.00055479,0.001477
 53,-0.20886473,-0.14611045,-0.01222312,0.21640451,0.00004261,-0.000044
 66,-0.00002801,0.00001588,-0.00001657,-0.00001253,0.00152850,0.0014520
 1,0.00241442,0.00021783,0.00029905,0.00005704,-0.00005701,-0.00002180,
 -0.00003922,-0.00001235,0.00001009,0.00002798,0.00776621,0.00895378,0.
 00091306,-0.00002308,0.00019215,-0.00144189,-0.14608872,-0.19254197,-0
 .00083605,0.15646572,0.19918634,-0.00026579,0.00007821,-0.00006294,-0.
 00002330,0.00004176,0.00002114,-0.00411774,0.00211773,0.00491075,0.000
 09089,-0.00047849,0.00032792,-0.00004868,0.00013143,-0.00019852,-0.000
 06793,-0.00001848,0.00004653,-0.00861627,-0.00886333,0.00341094,0.0016
 4538,-0.00119652,-0.00322380,-0.01232977,-0.00086161,-0.04213388,0.015
 71941,-0.00156715,0.03217682,-0.00088558,0.00018776,-0.00011340,0.0000
 3760,-0.00013268,-0.00002571,-0.00885608,-0.02238928,0.00619583,0.0016
 9302,-0.00135411,0.00114919,-0.00026951,0.00035752,-0.00044788,-0.0000
 4761,0.00001133,0.00021248,0.01874462,0.03504446,-0.00737293,-0.004051
 69,0.00070944,-0.00446381,-0.13148824,0.05958231,-0.04236577,0.0079919
 6,-0.02171600,0.00869257,0.68525485,0.00020665,0.00020598,-0.00021798,
 -0.00006494,0.00005896,-0.00003452,-0.02275379,-0.06733384,0.01433806,
 -0.00140705,-0.00251991,0.00008165,0.00057613,-0.00026985,0.00029726,0
 .00008304,0.00031249,-0.00051618,0.08818881,0.00704857,0.03031804,0.00
 031357,0.00206393,0.00180702,-0.00875201,-0.30766653,0.07543079,0.0059
 6009,-0.01375989,0.00780638,0.02952401,0.63487539,-0.00022373,-0.00001
 100,0.00009909,0.00007993,-0.00001863,0.00000531,0.00598568,0.01205184
 ,-0.00732370,0.00128676,-0.00010346,-0.00055786,-0.00036776,0.00040491
 ,-0.00024697,-0.00010436,-0.00014235,0.00015531,-0.02426155,0.01262419
 ,-0.00530718,-0.00409068,0.00195677,0.00523407,-0.02041859,0.09942401,
 -0.10412707,-0.00042387,-0.00192789,0.00405570,0.17955711,-0.14943857,
 0.25054266,-0.00022074,-0.00001061,0.00040575,0.00015371,-0.00003390,0
 .00004414,0.01777447,0.07848553,-0.02478769,0.00307701,0.00076330,-0.0
 0102146,-0.00070931,0.00102270,-0.00046535,-0.00018358,-0.00043254,0.0
 0052183,-0.07303816,-0.01679375,-0.01807210,-0.00110511,-0.00027468,0.
 00009698,0.05363766,-0.06116429,0.03620484,0.00171628,0.00130708,-0.00
 256411,-0.23873454,-0.07668681,-0.03604974,0.61729039,0.00068230,0.000
 46621,-0.00034257,-0.00003711,-0.00008994,-0.00003917,0.03067911,0.005
 58126,0.01057401,-0.00277301,-0.00295656,0.00221995,0.00162832,-0.0002
 7397,0.00167770,0.00004197,-0.00007784,-0.00044296,-0.01654960,-0.0059
 1330,-0.00550575,-0.00027497,0.00024271,-0.00066342,-0.01036232,-0.044
 29588,0.01319291,0.00104121,-0.00336238,0.00393829,-0.14924655,-0.2283
 7227,0.00108494,0.04046270,0.71337183,-0.00113805,-0.00021142,-0.00018
 844,-0.00014811,-0.00020334,-0.00006047,-0.00735624,0.02990973,-0.0020
 5950,0.00069615,0.00299879,0.00465178,0.00017983,-0.00057944,-0.000510
 25,0.00004249,0.00006457,0.00013723,-0.01765695,-0.00559376,-0.0094773
 4,0.00010637,-0.00057006,-0.00090382,0.01902331,-0.00402334,0.01493945
 ,-0.00234602,0.00394433,0.00532849,-0.01358241,0.02518334,-0.07533296,
 0.15409755,-0.16728109,0.23858120,-0.00031885,-0.00008605,0.00004304,0
 .00000430,-0.00002787,0.00000251,-0.00431880,0.00078816,-0.00355495,0.
 00103873,0.00067006,-0.00006583,-0.00043037,0.00019948,-0.00051067,-0.
 00006522,-0.00002973,0.00011614,-0.00104354,-0.00058672,0.00022759,0.0
 0005633,0.00012219,0.00029365,-0.00243765,-0.00368859,-0.00232567,0.00
 025137,-0.00106259,0.00045812,0.00798785,-0.02202029,0.00822221,-0.061
 26324,0.03943979,-0.02062045,0.06158707,0.00019001,0.00000239,-0.00002
 465,0.00000592,-0.00000313,0.00000312,0.00071248,0.00176938,0.00149737
 ,-0.00052095,0.00011862,-0.00001391,0.00016078,-0.00012722,0.00014829,
 0.00003243,0.00002133,-0.00005062,-0.00035539,0.00038142,-0.00058896,0
 .00014630,-0.00013019,-0.00018252,-0.00385227,-0.00005006,0.00104171,0
 .00032164,-0.00066827,0.00034797,0.00505919,-0.01284891,0.00701640,0.0
 4185900,-0.30620782,0.09784737,-0.04140638,0.32024319,-0.00019780,-0.0
 0008426,0.00000665,0.00000559,-0.00002260,0.00000619,-0.00373845,0.001
 78943,0.00413853,0.00043544,0.00037609,0.00032708,-0.00005087,0.000012
 07,-0.00018503,0.00002798,0.00000927,0.00003407,-0.00018498,-0.0006751
 1,-0.00095579,0.00028275,-0.00021041,-0.00075405,-0.00206377,0.0010151
 0,0.00663786,-0.00001826,-0.00015863,0.00007311,-0.00001596,-0.0018790
 8,0.00460188,-0.02180643,0.09683644,-0.07520564,0.02528348,-0.10563517
 ,0.06700981,-0.00213021,-0.00277752,0.00081847,-0.00036005,-0.00080247
 ,-0.00023213,-0.12449305,0.02254377,-0.02402817,0.00847764,0.01955734,
 -0.00595215,-0.00489064,0.00107251,-0.00480881,-0.00020734,0.00005176,
 0.00094572,0.05453224,-0.00793609,0.01928645,-0.00155526,-0.00321977,-
 0.00205475,-0.03424199,0.03797177,-0.02213770,-0.00009359,0.00108045,-
 0.00011757,-0.05166097,-0.06135949,-0.00034736,-0.27064222,0.09286686,
 -0.09943981,-0.00189159,-0.00253343,-0.00063018,0.52453314,-0.00653551
 ,-0.00132218,0.00038014,-0.00011405,-0.00004736,0.00020085,0.07229096,
 -0.26586065,0.08797482,0.01320570,-0.00462450,0.00548251,-0.00347379,0
 .00339520,-0.00411205,-0.00043184,-0.00088224,0.00144147,-0.06581668,-
 0.04929451,-0.00542902,-0.00313639,0.00041338,0.00119943,0.03686052,-0
 .03802780,0.02323913,0.00119145,-0.00042736,0.00041814,0.00277566,0.05
 983858,-0.01609720,0.02173383,-0.13072077,0.02753489,0.02512210,-0.003
 92527,0.01046531,-0.03402136,0.52552161,0.00161096,-0.00002818,-0.0004
 5829,-0.00011465,0.00005910,-0.00019458,-0.04172701,0.07051422,-0.0974
 4486,-0.00400070,0.00819350,-0.00296660,-0.00135302,-0.00076688,-0.000
 31282,-0.00007784,0.00020565,0.00009073,0.03912328,0.01518710,0.014241
 18,-0.00222877,0.00135278,0.00678633,-0.02166211,0.02329431,-0.0220285
 6,-0.00022958,0.00036040,-0.00080048,-0.02096488,-0.03904851,0.0109731
 1,-0.07573240,0.05279265,-0.10759931,-0.00950407,0.00130825,-0.0004205
 5,0.14788583,-0.13441136,0.21975997,-0.00013081,0.00004857,-0.00001322
 ,0.00000546,-0.00000820,-0.00000288,0.00003365,-0.00020470,0.00064121,
 0.00004960,0.00000857,0.00027230,-0.00002417,-0.00001062,-0.00007297,0
 .00000532,0.00000099,0.00003867,0.00229246,-0.00000006,-0.00178317,-0.
 00013199,-0.00012190,0.00003580,0.00068025,-0.00142030,-0.00087749,0.0
 0002720,0.00064094,0.00122962,-0.28459805,0.06145802,-0.10442314,-0.01
 476569,0.00731071,-0.00888595,0.00041890,0.00053558,0.00149532,0.00020
 863,-0.00333885,-0.00166622,0.29711036,0.00013300,0.00002656,-0.000013
 26,0.00000666,-0.00000114,-0.00000315,-0.00034347,-0.00098547,-0.00023
 109,-0.00004643,-0.00006314,-0.00016812,0.00002682,0.00006738,-0.00001
 750,-0.00003057,-0.00001836,-0.00007142,-0.00027357,-0.00436383,0.0037
 6150,0.00133139,-0.00024709,0.00054343,0.02610291,-0.00130984,0.010871
 53,-0.00005068,0.00076132,-0.00160045,0.06169077,-0.07444130,0.0325570
 7,-0.02054666,0.00877623,-0.00853364,0.00111044,0.00045566,-0.00112961
 ,-0.00331225,-0.00109641,0.00171831,-0.06448648,0.07291280,0.00005752,
 0.00001664,0.00005710,0.00002879,0.00002516,0.00001699,0.00057264,-0.0
 0062939,-0.00114884,0.00031037,-0.00021756,-0.00058969,-0.00010292,0.0
 0014475,-0.00010301,-0.00000817,-0.00000585,0.00003028,-0.00170567,0.0
 0394524,0.00558823,-0.00043336,0.00001830,-0.00030516,-0.00979679,0.00
 145193,0.00067811,0.00146200,-0.00134961,-0.00318882,-0.10448871,0.032
 43252,-0.08627758,-0.00004039,0.00097745,0.00390817,0.00129994,-0.0012
 8708,-0.00345898,-0.00154497,0.00175914,0.00682372,0.11428374,-0.03733
 094,0.07804957,0.00115898,0.00293001,-0.00070744,0.00029160,0.00023985
 ,-0.00004758,-0.00257874,-0.00927186,0.00135838,-0.00483830,0.00101734
 ,-0.00000383,0.00146581,-0.00097353,0.00050694,0.00003059,0.00015108,-
 0.00038043,0.00139914,-0.00068159,-0.00103640,-0.00046488,-0.00029628,
 -0.00005245,-0.00024655,-0.00271399,0.00108619,-0.00006077,-0.00010546
 ,0.00031516,-0.00111760,0.00673404,-0.00442091,-0.03298692,-0.03490941
 ,-0.00297173,0.00042472,-0.00035493,0.00117614,-0.09558474,-0.05631174
 ,-0.00935883,-0.00118112,-0.00131188,0.00010599,0.13428878,0.00339187,
 -0.00250811,0.00064419,-0.00007027,-0.00048360,-0.00026239,-0.03005186
 ,-0.02865431,-0.00020606,-0.00349363,-0.00056446,-0.00158189,0.0005605
 6,-0.00044412,0.00082092,-0.00004458,0.00012436,-0.00045591,0.00533224
 ,-0.00257201,0.00394031,-0.00154750,-0.00100847,-0.00000415,-0.0018820
 5,-0.00113909,-0.00060152,-0.00012003,-0.00001184,-0.00029389,-0.00010
 385,0.00280861,0.00061896,-0.00969090,-0.00616753,-0.00048693,0.001456
 00,0.00096888,-0.00070884,-0.05918206,-0.09293972,-0.00073135,-0.00041
 229,-0.00047335,0.00004929,0.09585834,0.13306478,0.00003060,0.00081631
 ,0.00061067,0.00010059,-0.00000175,0.00010494,0.00710269,0.00679826,0.
 00330266,0.00045138,-0.00048732,-0.00203148,-0.00024742,0.00022649,0.0
 0036257,-0.00003584,-0.00003852,0.00002940,-0.00331646,0.00218056,0.00
 373041,0.00028725,0.00019468,0.00004803,0.00092375,-0.00118569,-0.0001
 5670,0.00034935,-0.00035624,-0.00074297,-0.00196572,0.00343976,0.00350
 619,-0.01083142,-0.00901937,0.00379140,0.00063494,-0.00142757,-0.00185
 515,-0.00764286,-0.00004620,-0.02644900,-0.00027162,-0.00035266,-0.000
 08010,0.01443079,-0.00074075,0.01582911\\-0.00000011,-0.00000236,-0.00
 001054,0.00000134,-0.00000145,-0.00001264,0.00000042,0.00000005,-0.000
 00137,0.00000243,0.00000083,-0.00000544,0.00000644,0.00000439,-0.00000
 350,0.00000829,0.00000656,0.00000004,-0.00000051,0.00000078,0.00000568
 ,0.00000019,0.00000179,0.00000820,-0.00000236,0.00000008,0.00000959,-0
 .00000308,0.00000061,0.00001503,-0.00000326,-0.00000130,0.00000646,-0.
 00000238,-0.00000200,-0.00000053,-0.00000296,-0.00000299,-0.00000302,-
 0.00000044,-0.00000116,-0.00000428,-0.00000472,-0.00000184,0.00000943,
 0.00000070,-0.00000200,-0.00001312\\\@
 The archive entry for this job was punched.


 Sometimes the fool who rushes in gets the job done.
                                    -- Al Bernstein
 Job cpu time:       0 days  0 hours 44 minutes 43.6 seconds.
 Elapsed time:       0 days  0 hours  1 minutes 28.1 seconds.
 File lengths (MBytes):  RWF=    164 Int=      0 D2E=      0 Chk=     15 Scr=      1
 Normal termination of Gaussian 16 at Sat Apr 26 20:10:35 2025.
