/home/tahminaafroz
cn013.cluster.local
tahminaafroz
Fri May 30 05:10:09 CDT 2025
 Entering Gaussian System, Link 0=g16
 Initial command:
 /home/apps/g16/l1.exe "/tmp/2-cl-ph-anion-opt-freq-thf/Gau-1730088.inp" -scrdir="/tmp/2-cl-ph-anion-opt-freq-thf/"
 Entering Link 1 = /home/apps/g16/l1.exe PID=   1730089.
  
 Copyright (c) 1988-2019, Gaussian, Inc.  All Rights Reserved.
  
 This is part of the Gaussian(R) 16 program.  It is based on
 the Gaussian(R) 09 system (copyright 2009, Gaussian, Inc.),
 the Gaussian(R) 03 system (copyright 2003, Gaussian, Inc.),
 the Gaussian(R) 98 system (copyright 1998, Gaussian, Inc.),
 the Gaussian(R) 94 system (copyright 1995, Gaussian, Inc.),
 the Gaussian 92(TM) system (copyright 1992, Gaussian, Inc.),
 the Gaussian 90(TM) system (copyright 1990, Gaussian, Inc.),
 the Gaussian 88(TM) system (copyright 1988, Gaussian, Inc.),
 the Gaussian 86(TM) system (copyright 1986, Carnegie Mellon
 University), and the Gaussian 82(TM) system (copyright 1983,
 Carnegie Mellon University). Gaussian is a federally registered
 trademark of Gaussian, Inc.
  
 This software contains proprietary and confidential information,
 including trade secrets, belonging to Gaussian, Inc.
  
 This software is provided under written license and may be
 used, copied, transmitted, or stored only in accord with that
 written license.
  
 The following legend is applicable only to US Government
 contracts under FAR:
  
                    RESTRICTED RIGHTS LEGEND
  
 Use, reproduction and disclosure by the US Government is
 subject to restrictions as set forth in subparagraphs (a)
 and (c) of the Commercial Computer Software - Restricted
 Rights clause in FAR 52.227-19.
  
 Gaussian, Inc.
 340 Quinnipiac St., Bldg. 40, Wallingford CT 06492
  
  
 ---------------------------------------------------------------
 Warning -- This program may not be used in any manner that
 competes with the business of Gaussian, Inc. or will provide
 assistance to any competitor of Gaussian, Inc.  The licensee
 of this program is prohibited from giving any competitor of
 Gaussian, Inc. access to this program.  By using this program,
 the user acknowledges that Gaussian, Inc. is engaged in the
 business of creating and licensing software in the field of
 computational chemistry and represents and warrants to the
 licensee that it is not a competitor of Gaussian, Inc. and that
 it will not use this program in any manner prohibited above.
 ---------------------------------------------------------------
  

 Cite this work as:
 Gaussian 16, Revision C.01,
 M. J. Frisch, G. W. Trucks, H. B. Schlegel, G. E. Scuseria, 
 M. A. Robb, J. R. Cheeseman, G. Scalmani, V. Barone, 
 G. A. Petersson, H. Nakatsuji, X. Li, M. Caricato, A. V. Marenich, 
 J. Bloino, B. G. Janesko, R. Gomperts, B. Mennucci, H. P. Hratchian, 
 J. V. Ortiz, A. F. Izmaylov, J. L. Sonnenberg, D. Williams-Young, 
 F. Ding, F. Lipparini, F. Egidi, J. Goings, B. Peng, A. Petrone, 
 T. Henderson, D. Ranasinghe, V. G. Zakrzewski, J. Gao, N. Rega, 
 G. Zheng, W. Liang, M. Hada, M. Ehara, K. Toyota, R. Fukuda, 
 J. Hasegawa, M. Ishida, T. Nakajima, Y. Honda, O. Kitao, H. Nakai, 
 T. Vreven, K. Throssell, J. A. Montgomery, Jr., J. E. Peralta, 
 F. Ogliaro, M. J. Bearpark, J. J. Heyd, E. N. Brothers, K. N. Kudin, 
 V. N. Staroverov, T. A. Keith, R. Kobayashi, J. Normand, 
 K. Raghavachari, A. P. Rendell, J. C. Burant, S. S. Iyengar, 
 J. Tomasi, M. Cossi, J. M. Millam, M. Klene, C. Adamo, R. Cammi, 
 J. W. Ochterski, R. L. Martin, K. Morokuma, O. Farkas, 
 J. B. Foresman, and D. J. Fox, Gaussian, Inc., Wallingford CT, 2019.
 
 ******************************************
 Gaussian 16:  AS64L-G16RevC.01  3-Jul-2019
                30-May-2025 
 ******************************************
 %mem=20GB
 %nprocshared=32
 Will use up to   32 processors via shared memory.
 %chk=2-cl-ph-anion-opt-freq-thf.chk
 ----------------------------------------------------------------------
 # opt=(calcfc,tight) freq 6-311+g(d,p) scrf=(smd,solvent=thf) nosymm s
 cf=(qc,fermi,xqc) geom=connectivity int=ultrafine m062x
 ----------------------------------------------------------------------
 1/7=10,10=4,18=20,19=15,26=6,38=1,57=2/1,3;
 2/9=110,12=2,15=1,17=6,18=5,40=1/2;
 3/5=4,6=6,7=111,11=2,25=1,30=1,70=32201,71=2,72=20,74=-55,75=-5,140=1/1,2,3;
 4//1;
 5/5=2,22=13,38=5,53=20/2;
 8/6=4,10=90,11=11/1;
 11/6=1,8=1,9=11,15=111,16=1,31=1/1,2,10;
 10/6=1,13=1,31=1/2;
 6/7=2,8=2,9=2,10=2,28=1/1;
 7/10=1,25=1,30=1/1,2,3,16;
 1/7=10,10=4,18=20,19=15,26=6/3(2);
 2/9=110,15=1/2;
 99//99;
 2/9=110,15=1/2;
 3/5=4,6=6,7=111,11=2,25=1,30=1,70=32205,71=1,72=20,74=-55,75=-5/1,2,3;
 4/5=5,16=3,69=1/1;
 5/5=2,22=13,38=5,53=20/2;
 7/30=1/1,2,3,16;
 1/7=10,18=20,19=15,26=6/3(-5);
 2/9=110,15=1/2;
 6/7=2,8=2,9=2,10=2,19=2,28=1/1;
 99/9=1/99;
 --------------------------
 2-cl-ph-anion-opt-freq-thf
 --------------------------
 Symbolic Z-matrix:
 Charge = -1 Multiplicity = 1
 C                     6.20018   7.07685   5.11747 
 C                     5.24488   6.09268   5.09736 
 H                     5.43902   5.09809   5.48257 
 C                     4.00096   6.43185   4.55441 
 H                     3.21249   5.68917   4.51587 
 C                     3.77706   7.71717   4.06585 
 C                     4.77693   8.68614   4.10604 
 H                     4.60443   9.68652   3.72596 
 C                     6.01586   8.34936   4.64687 
 H                     2.81165   7.97369   3.6464 
 Cl                    7.30749   9.52385   4.72437 
 

 GradGradGradGradGradGradGradGradGradGradGradGradGradGradGradGradGradGrad
 Berny optimization.
 Initialization pass.
                           ----------------------------
                           !    Initial Parameters    !
                           ! (Angstroms and Degrees)  !
 --------------------------                            --------------------------
 ! Name  Definition              Value          Derivative Info.                !
 --------------------------------------------------------------------------------
 ! R1    R(1,2)                  1.3717         calculate D2E/DX2 analytically  !
 ! R2    R(1,9)                  1.3692         calculate D2E/DX2 analytically  !
 ! R3    R(2,3)                  1.0841         calculate D2E/DX2 analytically  !
 ! R4    R(2,4)                  1.399          calculate D2E/DX2 analytically  !
 ! R5    R(4,5)                  1.0839         calculate D2E/DX2 analytically  !
 ! R6    R(4,6)                  1.3932         calculate D2E/DX2 analytically  !
 ! R7    R(6,7)                  1.3929         calculate D2E/DX2 analytically  !
 ! R8    R(6,10)                 1.0834         calculate D2E/DX2 analytically  !
 ! R9    R(7,8)                  1.084          calculate D2E/DX2 analytically  !
 ! R10   R(7,9)                  1.3931         calculate D2E/DX2 analytically  !
 ! R11   R(9,11)                 1.7475         calculate D2E/DX2 analytically  !
 ! A1    A(2,1,9)              124.6116         calculate D2E/DX2 analytically  !
 ! A2    A(1,2,3)              121.8912         calculate D2E/DX2 analytically  !
 ! A3    A(1,2,4)              116.8068         calculate D2E/DX2 analytically  !
 ! A4    A(3,2,4)              121.302          calculate D2E/DX2 analytically  !
 ! A5    A(2,4,5)              119.6378         calculate D2E/DX2 analytically  !
 ! A6    A(2,4,6)              120.1772         calculate D2E/DX2 analytically  !
 ! A7    A(5,4,6)              120.185          calculate D2E/DX2 analytically  !
 ! A8    A(4,6,7)              121.0849         calculate D2E/DX2 analytically  !
 ! A9    A(4,6,10)             119.8302         calculate D2E/DX2 analytically  !
 ! A10   A(7,6,10)             119.0849         calculate D2E/DX2 analytically  !
 ! A11   A(6,7,8)              121.1747         calculate D2E/DX2 analytically  !
 ! A12   A(6,7,9)              118.7768         calculate D2E/DX2 analytically  !
 ! A13   A(8,7,9)              120.0485         calculate D2E/DX2 analytically  !
 ! A14   A(1,9,7)              118.5426         calculate D2E/DX2 analytically  !
 ! A15   A(1,9,11)             120.656          calculate D2E/DX2 analytically  !
 ! A16   A(7,9,11)             120.8014         calculate D2E/DX2 analytically  !
 ! D1    D(9,1,2,3)            179.9931         calculate D2E/DX2 analytically  !
 ! D2    D(9,1,2,4)             -0.0198         calculate D2E/DX2 analytically  !
 ! D3    D(2,1,9,7)              0.0039         calculate D2E/DX2 analytically  !
 ! D4    D(2,1,9,11)           179.984          calculate D2E/DX2 analytically  !
 ! D5    D(1,2,4,5)           -179.986          calculate D2E/DX2 analytically  !
 ! D6    D(1,2,4,6)              0.02           calculate D2E/DX2 analytically  !
 ! D7    D(3,2,4,5)              0.0012         calculate D2E/DX2 analytically  !
 ! D8    D(3,2,4,6)           -179.9928         calculate D2E/DX2 analytically  !
 ! D9    D(2,4,6,7)             -0.0053         calculate D2E/DX2 analytically  !
 ! D10   D(2,4,6,10)           179.9881         calculate D2E/DX2 analytically  !
 ! D11   D(5,4,6,7)           -179.9992         calculate D2E/DX2 analytically  !
 ! D12   D(5,4,6,10)            -0.0058         calculate D2E/DX2 analytically  !
 ! D13   D(4,6,7,8)            179.9747         calculate D2E/DX2 analytically  !
 ! D14   D(4,6,7,9)             -0.0111         calculate D2E/DX2 analytically  !
 ! D15   D(10,6,7,8)            -0.0187         calculate D2E/DX2 analytically  !
 ! D16   D(10,6,7,9)           179.9955         calculate D2E/DX2 analytically  !
 ! D17   D(6,7,9,1)              0.0119         calculate D2E/DX2 analytically  !
 ! D18   D(6,7,9,11)          -179.9681         calculate D2E/DX2 analytically  !
 ! D19   D(8,7,9,1)           -179.9741         calculate D2E/DX2 analytically  !
 ! D20   D(8,7,9,11)             0.0459         calculate D2E/DX2 analytically  !
 --------------------------------------------------------------------------------
 Trust Radius=3.00D-01 FncErr=5.00D-06 GrdErr=5.00D-06 EigMax=2.50D+02 EigMin=1.00D-04
 Number of steps in this run=     57 maximum allowed number of steps=    100.
 GradGradGradGradGradGradGradGradGradGradGradGradGradGradGradGradGradGrad

                          Input orientation:                          
 ---------------------------------------------------------------------
 Center     Atomic      Atomic             Coordinates (Angstroms)
 Number     Number       Type             X           Y           Z
 ---------------------------------------------------------------------
      1          6           0        6.200181    7.076851    5.117472
      2          6           0        5.244878    6.092679    5.097358
      3          1           0        5.439015    5.098091    5.482573
      4          6           0        4.000961    6.431845    4.554412
      5          1           0        3.212492    5.689170    4.515866
      6          6           0        3.777058    7.717168    4.065855
      7          6           0        4.776928    8.686137    4.106044
      8          1           0        4.604434    9.686520    3.725961
      9          6           0        6.015855    8.349364    4.646867
     10          1           0        2.811648    7.973687    3.646398
     11         17           0        7.307492    9.523850    4.724374
 ---------------------------------------------------------------------
                    Distance matrix (angstroms):
                    1          2          3          4          5
     1  C    0.000000
     2  C    1.371715   0.000000
     3  H    2.151317   1.084106   0.000000
     4  C    2.360008   1.398983   2.169881   0.000000
     5  H    3.348712   2.152103   2.498260   1.083852   0.000000
     6  C    2.717983   2.420219   3.410096   1.393153   2.152678
     7  C    2.374539   2.815618   3.899649   2.425900   3.405470
     8  H    3.360518   3.899563   4.983562   3.412246   4.305840
     9  C    1.369209   2.426927   3.406160   2.783024   3.866864
    10  H    3.801385   3.400601   4.306234   2.148542   2.477028
    11  Cl   2.714492   4.020750   4.863478   4.530180   5.614025
                    6          7          8          9         10
     6  C    0.000000
     7  C    1.392931   0.000000
     8  H    2.162967   1.083967   0.000000
     9  C    2.397803   1.393142   2.151317   0.000000
    10  H    1.083403   2.140370   2.480768   3.377723   0.000000
    11  Cl   4.020163   2.736393   2.886141   1.747498   4.876233
                   11
    11  Cl   0.000000
 Symmetry turned off by external request.
 Stoichiometry    C6H4Cl(1-)
 Framework group  C1[X(C6H4Cl)]
 Deg. of freedom    27
 Full point group                 C1      NOp   1
 Rotational constants (GHZ):           6.0872998           1.5608970           1.2423384
 Standard basis: 6-311+G(d,p) (5D, 7F)
   186 basis functions,   301 primitive gaussians,   193 cartesian basis functions
    29 alpha electrons       29 beta electrons
       nuclear repulsion energy       303.6349872050 Hartrees.
 NAtoms=   11 NActive=   11 NUniq=   11 SFac= 1.00D+00 NAtFMM=   60 NAOKFM=F Big=F
 Integral buffers will be    131072 words long.
 Raffenetti 2 integral format.
 Two-electron integral symmetry is turned off.
 Force inversion solution in PCM.
 ------------------------------------------------------------------------------
 Polarizable Continuum Model (PCM)
 =================================
 Model                : PCM.
 Atomic radii         : SMD-Coulomb.
 Polarization charges : Total charges.
 Charge compensation  : None.
 Solution method      : Matrix inversion.
 Cavity type          : VdW (van der Waals Surface) (Alpha=1.000).
 Cavity algorithm     : GePol (No added spheres)
                        Default sphere list used, NSphG=   11.
                        Lebedev-Laikov grids with approx.  5.0 points / Ang**2.
                        Smoothing algorithm: York/Karplus (Gamma=1.0000).
                        Polarization charges: spherical gaussians, with
                                              point-specific exponents (IZeta= 3).
                        Self-potential: point-specific (ISelfS= 7).
                        Self-field    : sphere-specific E.n sum rule (ISelfD= 2).
 1st derivatives      : Analytical E(r).r(x)/FMM algorithm (CHGder, D1EAlg=3).
                        Cavity 1st derivative terms included.
 2nd derivatives      : Analytical E(r).r(xy)/FMM algorithm (CHGder, D2EAlg=3).
                        Cavity 2nd derivative terms included.
 Solvent              : TetraHydroFuran, Eps=   7.425700 Eps(inf)=   1.974025
 ------------------------------------------------------------------------------
 Spheres list:
 ISph  on   Nord     Re0    Alpha      Xe            Ye            Ze
    1   C      1    1.8500  1.000      6.200181      7.076851      5.117472
    2   C      2    1.8500  1.000      5.244878      6.092679      5.097358
    3   H      3    1.2000  1.000      5.439015      5.098091      5.482573
    4   C      4    1.8500  1.000      4.000961      6.431845      4.554412
    5   H      5    1.2000  1.000      3.212492      5.689170      4.515866
    6   C      6    1.8500  1.000      3.777058      7.717168      4.065855
    7   C      7    1.8500  1.000      4.776928      8.686137      4.106044
    8   H      8    1.2000  1.000      4.604434      9.686520      3.725961
    9   C      9    1.8500  1.000      6.015855      8.349364      4.646867
   10   H     10    1.2000  1.000      2.811648      7.973687      3.646398
   11  Cl     11    2.3800  1.000      7.307492      9.523850      4.724374
 ------------------------------------------------------------------------------
 ------------------------------------------------------------------------------
 Atomic radii for non-electrostatic terms: SMD-CDS.
 ------------------------------------------------------------------------------
 Nuclear repulsion after PCM non-electrostatic terms =      303.6314181595 Hartrees.
 One-electron integrals computed using PRISM.
 NBasis=   186 RedAO= T EigKep=  3.38D-06  NBF=   186
 NBsUse=   186 1.00D-06 EigRej= -1.00D+00 NBFU=   186
 ExpMin= 4.38D-02 ExpMax= 1.06D+05 ExpMxC= 3.62D+03 IAcc=3 IRadAn=         5 AccDes= 0.00D+00
 Harris functional with IExCor= 1009 and IRadAn=       5 diagonalized for initial guess.
 HarFok:  IExCor= 1009 AccDes= 0.00D+00 IRadAn=         5 IDoV= 1 UseB2=F ITyADJ=14
 ICtDFT=  3500011 ScaDFX=  1.000000  1.000000  1.000000  1.000000
 FoFCou: FMM=F IPFlag=           0 FMFlag=      100000 FMFlg1=           0
         NFxFlg=           0 DoJE=T BraDBF=F KetDBF=T FulRan=T
         wScrn=  0.000000 ICntrl=       500 IOpCl=  0 I1Cent=   200000004 NGrid=           0
         NMat0=    1 NMatS0=      1 NMatT0=    0 NMatD0=    1 NMtDS0=    0 NMtDT0=    0
 Symmetry not used in FoFCou.
 Keep R1 ints in memory in canonical form, NReq=183961021.
 Requested convergence on RMS density matrix=1.00D-08 within 128 cycles.
 Requested convergence on MAX density matrix=1.00D-06.
 Requested convergence on             energy=1.00D-06.
 Level shift goal  0.100 maximum shift  0.100.
 No special actions if energy rises.
 Dynamic level shift is on during FON iterations.
 Inv3:  Mode=1 IEnd=     4191372.
 Iteration    1 A*A^-1 deviation from unit magnitude is 4.44D-15 for   1181.
 Iteration    1 A*A^-1 deviation from orthogonality  is 1.64D-15 for   1166    776.
 Iteration    1 A^-1*A deviation from unit magnitude is 4.88D-15 for   1181.
 Iteration    1 A^-1*A deviation from orthogonality  is 4.12D-14 for   1178    404.
 Error on total polarization charges =  0.04504
 SCF Done:  E(RM062X) =  -691.246113450     A.U. after   17 cycles
            NFock= 17  Conv=0.49D-08     -V/T= 2.0025
 SMD-CDS (non-electrostatic) energy       (kcal/mol) =      -2.24
 (included in total energy above)
 DoSCS=F DFT=T ScalE2(SS,OS)=  1.000000  1.000000
 Range of M.O.s used for correlation:     1   186
 NBasis=   186 NAE=    29 NBE=    29 NFC=     0 NFV=     0
 NROrb=    186 NOA=    29 NOB=    29 NVA=   157 NVB=   157

 **** Warning!!: The largest alpha MO coefficient is  0.22804079D+03

 Symmetrizing basis deriv contribution to polar:
 IMax=3 JMax=2 DiffMx= 0.00D+00
 G2DrvN: will do    12 centers at a time, making    1 passes.
 Calling FoFCou, ICntrl=  3107 FMM=F I1Cent=   0 AccDes= 0.00D+00.
 NEqPCM:  Using equilibrium solvation (IEInf=0, Eps=   7.4257, EpsInf=   1.9740)
 G2PCM: DoFxE=T DoFxN=T DoGrad=T DoDP/DQ/DG/TGxP=FFFF NFrqRd=   0 IEInf=0 SqF1=F DoCFld=F IF1Alg=4.
 End of G2Drv F.D. properties file   721 does not exist.
 End of G2Drv F.D. properties file   722 does not exist.
 End of G2Drv F.D. properties file   788 does not exist.
          IDoAtm=11111111111
 NEqPCM:  Using equilibrium solvation (IEInf=0, Eps=   7.4257, EpsInf=   1.9740)
          Differentiating once with respect to nuclear coordinates.
 Keep R1 ints in memory in canonical form, NReq=183859871.
          There are    36 degrees of freedom in the 1st order CPHF.  IDoFFX=6 NUNeed=     0.
     30 vectors produced by pass  0 Test12= 1.26D-14 2.78D-09 XBig12= 1.75D-01 1.37D-01.
 AX will form    30 AO Fock derivatives at one time.
     30 vectors produced by pass  1 Test12= 1.26D-14 2.78D-09 XBig12= 1.58D-02 3.99D-02.
     30 vectors produced by pass  2 Test12= 1.26D-14 2.78D-09 XBig12= 5.29D-04 5.45D-03.
     30 vectors produced by pass  3 Test12= 1.26D-14 2.78D-09 XBig12= 4.80D-06 4.47D-04.
     30 vectors produced by pass  4 Test12= 1.26D-14 2.78D-09 XBig12= 3.43D-08 4.22D-05.
     30 vectors produced by pass  5 Test12= 1.26D-14 2.78D-09 XBig12= 2.16D-10 3.40D-06.
     29 vectors produced by pass  6 Test12= 1.26D-14 2.78D-09 XBig12= 1.28D-12 1.80D-07.
     13 vectors produced by pass  7 Test12= 1.26D-14 2.78D-09 XBig12= 6.64D-15 1.18D-08.
 InvSVY:  IOpt=1 It=  1 EMax= 2.22D-15
 Solved reduced A of dimension   222 with    30 vectors.
 End of Minotr F.D. properties file   721 does not exist.
 End of Minotr F.D. properties file   722 does not exist.
 End of Minotr F.D. properties file   788 does not exist.

 **********************************************************************

            Population analysis using the SCF Density.

 **********************************************************************

 Alpha  occ. eigenvalues -- -102.63318 -10.54782 -10.51442 -10.50874 -10.50597
 Alpha  occ. eigenvalues --  -10.49559 -10.44290  -9.77671  -7.50128  -7.49543
 Alpha  occ. eigenvalues --   -7.49524  -0.94637  -0.89396  -0.79810  -0.77263
 Alpha  occ. eigenvalues --   -0.64240  -0.62416  -0.54299  -0.48377  -0.47839
 Alpha  occ. eigenvalues --   -0.45528  -0.42440  -0.41170  -0.37709  -0.36440
 Alpha  occ. eigenvalues --   -0.33843  -0.27040  -0.25313  -0.18179
 Alpha virt. eigenvalues --    0.03804   0.04595   0.04713   0.05649   0.06362
 Alpha virt. eigenvalues --    0.06841   0.08372   0.08478   0.08959   0.10094
 Alpha virt. eigenvalues --    0.10730   0.11355   0.11797   0.13105   0.14823
 Alpha virt. eigenvalues --    0.16088   0.16243   0.16904   0.17492   0.17753
 Alpha virt. eigenvalues --    0.18525   0.18757   0.20732   0.21074   0.22427
 Alpha virt. eigenvalues --    0.23389   0.23742   0.24053   0.25666   0.26613
 Alpha virt. eigenvalues --    0.26746   0.26996   0.27496   0.28574   0.29818
 Alpha virt. eigenvalues --    0.30526   0.37922   0.39039   0.39729   0.42339
 Alpha virt. eigenvalues --    0.48397   0.49951   0.51121   0.54107   0.56636
 Alpha virt. eigenvalues --    0.58780   0.59470   0.60673   0.61763   0.63594
 Alpha virt. eigenvalues --    0.64935   0.66423   0.68223   0.68880   0.69113
 Alpha virt. eigenvalues --    0.69558   0.75134   0.75454   0.77072   0.78791
 Alpha virt. eigenvalues --    0.80218   0.82322   0.85353   0.88489   0.89170
 Alpha virt. eigenvalues --    0.89857   0.92758   0.93667   0.94455   0.95569
 Alpha virt. eigenvalues --    0.97359   0.99000   1.02131   1.03938   1.04432
 Alpha virt. eigenvalues --    1.08375   1.10347   1.10936   1.18364   1.22249
 Alpha virt. eigenvalues --    1.24347   1.26568   1.30631   1.33590   1.40011
 Alpha virt. eigenvalues --    1.44189   1.56524   1.58740   1.61107   1.64228
 Alpha virt. eigenvalues --    1.65515   1.67010   1.72200   1.73717   1.79168
 Alpha virt. eigenvalues --    1.81154   1.81660   1.86523   1.89901   1.96372
 Alpha virt. eigenvalues --    1.99085   2.00866   2.01093   2.02999   2.03758
 Alpha virt. eigenvalues --    2.07680   2.10541   2.12439   2.15662   2.30527
 Alpha virt. eigenvalues --    2.34227   2.36935   2.42712   2.42798   2.46889
 Alpha virt. eigenvalues --    2.47912   2.55084   2.57121   2.61788   2.65325
 Alpha virt. eigenvalues --    2.72799   2.76122   2.76201   2.77922   2.79997
 Alpha virt. eigenvalues --    2.83454   2.88124   2.89247   2.89632   2.93078
 Alpha virt. eigenvalues --    2.99350   3.00137   3.16734   3.18928   3.25249
 Alpha virt. eigenvalues --    3.31673   3.44792   3.48376   3.58509   3.64640
 Alpha virt. eigenvalues --    3.80178   3.96669   4.10869   4.16170   4.22438
 Alpha virt. eigenvalues --    4.89744  10.00760  23.61207  24.03933  24.09114
 Alpha virt. eigenvalues --   24.18971  24.24085  24.33365  25.97339  26.24312
 Alpha virt. eigenvalues --   26.69986 216.10850
          Condensed to atoms (all electrons):
               1          2          3          4          5          6
     1  C   12.464211   1.152597  -0.143794   0.391994  -0.039330  -0.882735
     2  C    1.152597   7.170555   0.505074  -0.319280   0.061468   0.187994
     3  H   -0.143794   0.505074   0.543413  -0.146614  -0.000902   0.021543
     4  C    0.391994  -0.319280  -0.146614   6.639433   0.282767   0.359302
     5  H   -0.039330   0.061468  -0.000902   0.282767   0.504038   0.025359
     6  C   -0.882735   0.187994   0.021543   0.359302   0.025359   5.681587
     7  C   -3.522167  -2.267594  -0.034240   1.067117  -0.038404   0.897042
     8  H   -0.018606   0.030758   0.000154  -0.052270   0.000055   0.018459
     9  C   -1.772649  -0.169107   0.093586  -1.964512   0.048543  -0.469049
    10  H   -0.002085  -0.014978  -0.000194   0.019730  -0.005643   0.372018
    11  Cl  -0.542299   0.112306   0.002957  -0.033704   0.001199   0.193302
               7          8          9         10         11
     1  C   -3.522167  -0.018606  -1.772649  -0.002085  -0.542299
     2  C   -2.267594   0.030758  -0.169107  -0.014978   0.112306
     3  H   -0.034240   0.000154   0.093586  -0.000194   0.002957
     4  C    1.067117  -0.052270  -1.964512   0.019730  -0.033704
     5  H   -0.038404   0.000055   0.048543  -0.005643   0.001199
     6  C    0.897042   0.018459  -0.469049   0.372018   0.193302
     7  C   12.488588   0.177857  -2.527895  -0.007577   0.362358
     8  H    0.177857   0.497450   0.169871  -0.006103   0.005753
     9  C   -2.527895   0.169871  12.386203  -0.012369  -0.738759
    10  H   -0.007577  -0.006103  -0.012369   0.483235   0.000731
    11  Cl   0.362358   0.005753  -0.738759   0.000731  17.483216
 Mulliken charges:
               1
     1  C   -1.085135
     2  C   -0.449794
     3  H    0.159017
     4  C   -0.243963
     5  H    0.160851
     6  C   -0.404822
     7  C   -0.595085
     8  H    0.176621
     9  C    0.956137
    10  H    0.173236
    11  Cl   0.152939
 Sum of Mulliken charges =  -1.00000
 Mulliken charges with hydrogens summed into heavy atoms:
               1
     1  C   -1.085135
     2  C   -0.290776
     4  C   -0.083113
     6  C   -0.231586
     7  C   -0.418465
     9  C    0.956137
    11  Cl   0.152939
 APT charges:
               1
     1  C   -2.142627
     2  C   -0.820826
     3  H    0.064134
     4  C   -0.854608
     5  H   -0.866780
     6  C   -0.893419
     7  C   -2.250810
     8  H    1.339037
     9  C    6.863482
    10  H   -0.196651
    11  Cl  -1.240932
 Sum of APT charges =  -1.00000
 APT charges with hydrogens summed into heavy atoms:
               1
     1  C   -2.142627
     2  C   -0.756692
     4  C   -1.721388
     6  C   -1.090070
     7  C   -0.911773
     9  C    6.863482
    11  Cl  -1.240932
 Electronic spatial extent (au):  <R**2>=          25186.6701
 Charge=             -1.0000 electrons
 Dipole moment (field-independent basis, Debye):
    X=            -32.2714    Y=            -36.1878    Z=            -24.7525  Tot=             54.4397
 Quadrupole moment (field-independent basis, Debye-Ang):
   XX=           -271.2847   YY=           -328.2025   ZZ=           -182.8335
   XY=           -244.0683   XZ=           -165.6001   YZ=           -186.8400
 Traceless Quadrupole moment (field-independent basis, Debye-Ang):
   XX=            -10.5111   YY=            -67.4289   ZZ=             77.9401
   XY=           -244.0683   XZ=           -165.6001   YZ=           -186.8400
 Octapole moment (field-independent basis, Debye-Ang**2):
  XXX=          -2385.7137  YYY=          -3378.9489  ZZZ=          -1429.0429  XYY=          -2168.4939
  XXY=          -2074.9748  XXZ=          -1368.1693  XZZ=          -1161.4814  YZZ=          -1398.1627
  YYZ=          -1668.7975  XYZ=          -1250.5934
 Hexadecapole moment (field-independent basis, Debye-Ang**3):
 XXXX=         -20966.4589 YYYY=         -37115.4073 ZZZZ=         -10704.5239 XXXY=         -18554.5140
 XXXZ=         -11890.9677 YYYX=         -21799.7681 YYYZ=         -16789.2383 ZZZX=          -8766.5254
 ZZZY=         -11000.0070 XXYY=         -17951.3892 XXZZ=          -8793.8990 YYZZ=         -12020.8098
 XXYZ=         -10414.9381 YYXZ=         -10959.2532 ZZXY=          -8908.9139
 N-N= 3.036314181595D+02 E-N=-2.248727402047D+03  KE= 6.894935306330D+02
  Exact polarizability:       0.000       0.000       0.000       0.000       0.000       0.000
 Approx polarizability:     126.959      13.989     131.448      14.606     -13.933      81.994
 D2PCM: PCM CHGder 2nd derivatives, FixD1E=F FixD2E=F DoIter=F DoCFld=F I1PDM=0
 Calling FoFJK, ICntrl=    100127 FMM=F ISym2X=0 I1Cent= 0 IOpClX= 0 NMat=1 NMatS=1 NMatT=0.
 -------------------------------------------------------------------
 Center     Atomic                   Forces (Hartrees/Bohr)
 Number     Number              X              Y              Z
 -------------------------------------------------------------------
      1        6           0.067039870   -0.003435693    0.024750458
      2        6          -0.024103354    0.017370293   -0.014279108
      3        1          -0.001641583   -0.002753143    0.000303280
      4        6          -0.004889423   -0.009734204    0.001396845
      5        1          -0.004944974    0.000109872   -0.001764275
      6        6          -0.003886572   -0.001011006   -0.001106290
      7        6           0.006891618    0.014404497   -0.002121710
      8        1          -0.004552900    0.001797974   -0.002145433
      9        6          -0.039076833   -0.032828740   -0.003161575
     10        1          -0.000841420    0.000419284   -0.000429470
     11       17           0.010005571    0.015660867   -0.001442721
 -------------------------------------------------------------------
 Cartesian Forces:  Max     0.067039870 RMS     0.017084928
 FormGI is forming the generalized inverse of G from B-inverse, IUseBI=4.

 GradGradGradGradGradGradGradGradGradGradGradGradGradGradGradGradGradGrad
 Berny optimization.
 Internal  Forces:  Max     0.045666631 RMS     0.010856197
 Search for a local minimum.
 Step number   1 out of a maximum of   57
 All quantities printed in internal units (Hartrees-Bohrs-Radians)
 Mixed Optimization -- RFO/linear search
 Second derivative matrix not updated -- analytic derivatives used.
 ITU=  0
     Eigenvalues ---    0.00734   0.01804   0.02177   0.02508   0.02655
     Eigenvalues ---    0.02980   0.03661   0.04444   0.10467   0.11309
     Eigenvalues ---    0.11889   0.12077   0.14920   0.17397   0.18839
     Eigenvalues ---    0.20409   0.23831   0.29225   0.35350   0.36088
     Eigenvalues ---    0.36205   0.36458   0.42978   0.43189   0.47335
     Eigenvalues ---    0.50573   0.53373
 RFO step:  Lambda=-2.49799963D-02 EMin= 7.33599220D-03
 Linear search not attempted -- first point.
 Maximum step size (   0.300) exceeded in Quadratic search.
    -- Step size scaled by   0.863
 Iteration  1 RMS(Cart)=  0.04688780 RMS(Int)=  0.00264472
 Iteration  2 RMS(Cart)=  0.00370267 RMS(Int)=  0.00079206
 Iteration  3 RMS(Cart)=  0.00000251 RMS(Int)=  0.00079206
 Iteration  4 RMS(Cart)=  0.00000000 RMS(Int)=  0.00079206
 Variable       Old X    -DE/DX   Delta X   Delta X   Delta X     New X
                                 (Linear)    (Quad)   (Total)
    R1        2.59217   0.02622   0.00000   0.05829   0.05919   2.65135
    R2        2.58743   0.01008   0.00000   0.02492   0.02605   2.61348
    R3        2.04866   0.00234   0.00000   0.00782   0.00782   2.05649
    R4        2.64369   0.00767   0.00000  -0.00503  -0.00524   2.63845
    R5        2.04818   0.00358   0.00000   0.00363   0.00363   2.05181
    R6        2.63268  -0.00361   0.00000  -0.00275  -0.00390   2.62878
    R7        2.63226  -0.00093   0.00000  -0.00322  -0.00415   2.62811
    R8        2.04734   0.00101   0.00000   0.00201   0.00201   2.04934
    R9        2.04840   0.00314   0.00000   0.00130   0.00130   2.04970
   R10        2.63266   0.00703   0.00000   0.00124   0.00150   2.63416
   R11        3.30229   0.01786   0.00000   0.08147   0.08147   3.38377
    A1        2.17488  -0.04567   0.00000  -0.18825  -0.18521   1.98967
    A2        2.12740  -0.01008   0.00000  -0.04761  -0.04788   2.07952
    A3        2.03866   0.02464   0.00000   0.10977   0.11031   2.14898
    A4        2.11712  -0.01457   0.00000  -0.06216  -0.06244   2.05468
    A5        2.08807   0.00448   0.00000   0.00763   0.00842   2.09649
    A6        2.09749  -0.00115   0.00000  -0.00391  -0.00549   2.09200
    A7        2.09762  -0.00333   0.00000  -0.00371  -0.00293   2.09470
    A8        2.11333  -0.00444   0.00000  -0.02854  -0.03085   2.08248
    A9        2.09143   0.00240   0.00000   0.01504   0.01619   2.10762
   A10        2.07842   0.00204   0.00000   0.01350   0.01466   2.09308
   A11        2.11490  -0.00476   0.00000  -0.00802  -0.00757   2.10733
   A12        2.07305   0.00062   0.00000  -0.00950  -0.01041   2.06263
   A13        2.09524   0.00414   0.00000   0.01752   0.01798   2.11322
   A14        2.06896   0.02600   0.00000   0.12044   0.12163   2.19059
   A15        2.10584  -0.00413   0.00000  -0.02809  -0.02869   2.07715
   A16        2.10838  -0.02187   0.00000  -0.09235  -0.09295   2.01543
    D1        3.14147   0.00002   0.00000   0.00277   0.00270  -3.13902
    D2       -0.00035  -0.00007   0.00000   0.00014  -0.00001  -0.00035
    D3        0.00007   0.00004   0.00000  -0.00493  -0.00491  -0.00484
    D4        3.14131   0.00005   0.00000  -0.01054  -0.01050   3.13081
    D5       -3.14135   0.00008   0.00000   0.00391   0.00398  -3.13737
    D6        0.00035   0.00007   0.00000   0.00410   0.00406   0.00441
    D7        0.00002  -0.00002   0.00000   0.00130   0.00132   0.00134
    D8       -3.14147  -0.00002   0.00000   0.00149   0.00139  -3.14008
    D9       -0.00009  -0.00002   0.00000  -0.00351  -0.00338  -0.00347
   D10        3.14139  -0.00001   0.00000  -0.00174  -0.00154   3.13985
   D11       -3.14158  -0.00003   0.00000  -0.00332  -0.00330   3.13830
   D12       -0.00010  -0.00001   0.00000  -0.00155  -0.00147  -0.00157
   D13        3.14115  -0.00001   0.00000   0.00144   0.00161  -3.14042
   D14       -0.00019  -0.00002   0.00000  -0.00132  -0.00108  -0.00127
   D15       -0.00033  -0.00003   0.00000  -0.00031  -0.00021  -0.00054
   D16        3.14151  -0.00003   0.00000  -0.00307  -0.00290   3.13862
   D17        0.00021   0.00001   0.00000   0.00536   0.00556   0.00577
   D18       -3.14104  -0.00001   0.00000   0.01097   0.01097  -3.13007
   D19       -3.14114   0.00001   0.00000   0.00263   0.00287  -3.13827
   D20        0.00080  -0.00001   0.00000   0.00824   0.00827   0.00907
         Item               Value     Threshold  Converged?
 Maximum Force            0.045667     0.000015     NO 
 RMS     Force            0.010856     0.000010     NO 
 Maximum Displacement     0.204186     0.000060     NO 
 RMS     Displacement     0.047055     0.000040     NO 
 Predicted change in Energy=-1.338134D-02
 GradGradGradGradGradGradGradGradGradGradGradGradGradGradGradGradGradGrad

                          Input orientation:                          
 ---------------------------------------------------------------------
 Center     Atomic      Atomic             Coordinates (Angstroms)
 Number     Number       Type             X           Y           Z
 ---------------------------------------------------------------------
      1          6           0        6.308231    7.039702    5.161374
      2          6           0        5.248970    6.122729    5.086289
      3          1           0        5.395570    5.111674    5.461194
      4          6           0        3.999161    6.442694    4.552433
      5          1           0        3.212139    5.695317    4.522018
      6          6           0        3.763657    7.721777    4.058857
      7          6           0        4.780845    8.668875    4.108656
      8          1           0        4.622105    9.673340    3.731390
      9          6           0        6.005063    8.291788    4.658347
     10          1           0        2.798933    7.985531    3.639566
     11         17           0        7.256269    9.571935    4.703056
 ---------------------------------------------------------------------
                    Distance matrix (angstroms):
                    1          2          3          4          5
     1  C    0.000000
     2  C    1.403037   0.000000
     3  H    2.154098   1.088245   0.000000
     4  C    2.461510   1.396210   2.132468   0.000000
     5  H    3.435394   2.156331   2.447460   1.085773   0.000000
     6  C    2.855806   2.412203   3.382651   1.391090   2.150635
     7  C    2.468872   2.767267   3.854987   2.400801   3.387293
     8  H    3.438594   3.851694   4.939562   3.391053   4.293922
     9  C    1.382992   2.336585   3.336041   2.730202   3.815845
    10  H    3.940263   3.400841   4.280176   2.157364   2.488883
    11  Cl   2.742451   4.009132   4.891923   4.519246   5.604992
                    6          7          8          9         10
     6  C    0.000000
     7  C    1.390735   0.000000
     8  H    2.157027   1.084656   0.000000
     9  C    2.389183   1.393938   2.163448   0.000000
    10  H    1.084465   2.148250   2.486180   3.378014   0.000000
    11  Cl   4.004549   2.701214   2.809490   1.790613   4.849282
                   11
    11  Cl   0.000000
 Symmetry turned off by external request.
 Stoichiometry    C6H4Cl(1-)
 Framework group  C1[X(C6H4Cl)]
 Deg. of freedom    27
 Full point group                 C1      NOp   1
 Rotational constants (GHZ):           5.9256567           1.5724332           1.2426917
 Standard basis: 6-311+G(d,p) (5D, 7F)
   186 basis functions,   301 primitive gaussians,   193 cartesian basis functions
    29 alpha electrons       29 beta electrons
       nuclear repulsion energy       302.4624630612 Hartrees.
 NAtoms=   11 NActive=   11 NUniq=   11 SFac= 1.00D+00 NAtFMM=   60 NAOKFM=F Big=F
 Integral buffers will be    131072 words long.
 Raffenetti 2 integral format.
 Two-electron integral symmetry is turned off.
 ------------------------------------------------------------------------------
 Polarizable Continuum Model (PCM)
 =================================
 Model                : PCM.
 Atomic radii         : SMD-Coulomb.
 Polarization charges : Total charges.
 Charge compensation  : None.
 Solution method      : Matrix inversion.
 Cavity type          : VdW (van der Waals Surface) (Alpha=1.000).
 Cavity algorithm     : GePol (No added spheres)
                        Default sphere list used, NSphG=   11.
                        Lebedev-Laikov grids with approx.  5.0 points / Ang**2.
                        Smoothing algorithm: York/Karplus (Gamma=1.0000).
                        Polarization charges: spherical gaussians, with
                                              point-specific exponents (IZeta= 3).
                        Self-potential: point-specific (ISelfS= 7).
                        Self-field    : sphere-specific E.n sum rule (ISelfD= 2).
 1st derivatives      : Analytical E(r).r(x)/FMM algorithm (CHGder, D1EAlg=3).
                        Cavity 1st derivative terms included.
 Solvent              : TetraHydroFuran, Eps=   7.425700 Eps(inf)=   1.974025
 ------------------------------------------------------------------------------
 Spheres list:
 ISph  on   Nord     Re0    Alpha      Xe            Ye            Ze
    1   C      1    1.8500  1.000      6.308231      7.039702      5.161374
    2   C      2    1.8500  1.000      5.248970      6.122729      5.086289
    3   H      3    1.2000  1.000      5.395570      5.111674      5.461194
    4   C      4    1.8500  1.000      3.999161      6.442694      4.552433
    5   H      5    1.2000  1.000      3.212139      5.695317      4.522018
    6   C      6    1.8500  1.000      3.763657      7.721777      4.058857
    7   C      7    1.8500  1.000      4.780845      8.668875      4.108656
    8   H      8    1.2000  1.000      4.622105      9.673340      3.731390
    9   C      9    1.8500  1.000      6.005063      8.291788      4.658347
   10   H     10    1.2000  1.000      2.798933      7.985531      3.639566
   11  Cl     11    2.3800  1.000      7.256269      9.571935      4.703056
 ------------------------------------------------------------------------------
 ------------------------------------------------------------------------------
 Atomic radii for non-electrostatic terms: SMD-CDS.
 ------------------------------------------------------------------------------
 Nuclear repulsion after PCM non-electrostatic terms =      302.4589597081 Hartrees.
 One-electron integrals computed using PRISM.
 NBasis=   186 RedAO= T EigKep=  4.35D-06  NBF=   186
 NBsUse=   186 1.00D-06 EigRej= -1.00D+00 NBFU=   186
 Initial guess from the checkpoint file:  "2-cl-ph-anion-opt-freq-thf.chk"
 B after Tr=     0.161062   -0.141247    0.057449
         Rot=    0.999978    0.001262   -0.001142   -0.006349 Ang=   0.75 deg.
 ExpMin= 4.38D-02 ExpMax= 1.06D+05 ExpMxC= 3.62D+03 IAcc=3 IRadAn=         5 AccDes= 0.00D+00
 Harris functional with IExCor= 1009 and IRadAn=       5 diagonalized for initial guess.
 HarFok:  IExCor= 1009 AccDes= 0.00D+00 IRadAn=         5 IDoV= 1 UseB2=F ITyADJ=14
 ICtDFT=  3500011 ScaDFX=  1.000000  1.000000  1.000000  1.000000
 FoFCou: FMM=F IPFlag=           0 FMFlag=      100000 FMFlg1=           0
         NFxFlg=           0 DoJE=T BraDBF=F KetDBF=T FulRan=T
         wScrn=  0.000000 ICntrl=       500 IOpCl=  0 I1Cent=   200000004 NGrid=           0
         NMat0=    1 NMatS0=      1 NMatT0=    0 NMatD0=    1 NMtDS0=    0 NMtDT0=    0
 Symmetry not used in FoFCou.
 Keep R1 ints in memory in canonical form, NReq=183961021.
 Requested convergence on RMS density matrix=1.00D-08 within 128 cycles.
 Requested convergence on MAX density matrix=1.00D-06.
 Requested convergence on             energy=1.00D-06.
 Level shift goal  0.100 maximum shift  0.100.
 No special actions if energy rises.
 Dynamic level shift is on during FON iterations.
 Inv3:  Mode=1 IEnd=     4191372.
 Iteration    1 A*A^-1 deviation from unit magnitude is 3.33D-15 for   1175.
 Iteration    1 A*A^-1 deviation from orthogonality  is 2.29D-15 for    349     17.
 Iteration    1 A^-1*A deviation from unit magnitude is 3.33D-15 for   1175.
 Iteration    1 A^-1*A deviation from orthogonality  is 1.47D-14 for    938    401.
 Error on total polarization charges =  0.04298
 SCF Done:  E(RM062X) =  -691.259369208     A.U. after   14 cycles
            NFock= 14  Conv=0.44D-08     -V/T= 2.0027
 SMD-CDS (non-electrostatic) energy       (kcal/mol) =      -2.20
 (included in total energy above)
 D1PCM: PCM CHGder 1st derivatives, ID1Alg=3 FixD1E=F DoIter=F DoCFld=F I1PDM=0.
 Calling FoFJK, ICntrl=      2127 FMM=F ISym2X=0 I1Cent= 0 IOpClX= 0 NMat=1 NMatS=1 NMatT=0.
 -------------------------------------------------------------------
 Center     Atomic                   Forces (Hartrees/Bohr)
 Number     Number              X              Y              Z
 -------------------------------------------------------------------
      1        6           0.014671443    0.001296270    0.004566933
      2        6          -0.004402116    0.003060761   -0.002468588
      3        1          -0.000717157   -0.001274083    0.000049956
      4        6          -0.001761014   -0.003747288    0.000515481
      5        1          -0.001219320    0.000028132   -0.000486420
      6        6          -0.001951995    0.000334072   -0.000825068
      7        6           0.002230161    0.004618239   -0.000528751
      8        1          -0.000940533    0.000407934   -0.000416521
      9        6          -0.010642216   -0.010953918   -0.000062089
     10        1          -0.000096313    0.000248663   -0.000156581
     11       17           0.004829060    0.005981217   -0.000188352
 -------------------------------------------------------------------
 Cartesian Forces:  Max     0.014671443 RMS     0.004330252

 GradGradGradGradGradGradGradGradGradGradGradGradGradGradGradGradGradGrad
 Berny optimization.
 Using GEDIIS/GDIIS optimizer.
 FormGI is forming the generalized inverse of G from B-inverse, IUseBI=4.
 Internal  Forces:  Max     0.008484158 RMS     0.002528214
 Search for a local minimum.
 Step number   2 out of a maximum of   57
 All quantities printed in internal units (Hartrees-Bohrs-Radians)
 Mixed Optimization -- RFO/linear search
 Update second derivatives using D2CorX and points    1    2
 DE= -1.33D-02 DEPred=-1.34D-02 R= 9.91D-01
 TightC=F SS=  1.41D+00  RLast= 3.01D-01 DXNew= 5.0454D-01 9.0177D-01
 Trust test= 9.91D-01 RLast= 3.01D-01 DXMaxT set to 5.05D-01
 ITU=  1  0
 Use linear search instead of GDIIS.
     Eigenvalues ---    0.00734   0.01803   0.02175   0.02505   0.02653
     Eigenvalues ---    0.02977   0.03649   0.04436   0.10470   0.11331
     Eigenvalues ---    0.11914   0.12073   0.14453   0.18215   0.18841
     Eigenvalues ---    0.20666   0.24103   0.29222   0.35362   0.36079
     Eigenvalues ---    0.36204   0.36457   0.42934   0.43208   0.47262
     Eigenvalues ---    0.50535   0.52692
 RFO step:  Lambda=-2.05641944D-04 EMin= 7.33724921D-03
 Quartic linear search produced a step of  0.26252.
 Iteration  1 RMS(Cart)=  0.01193538 RMS(Int)=  0.00028576
 Iteration  2 RMS(Cart)=  0.00020693 RMS(Int)=  0.00024334
 Iteration  3 RMS(Cart)=  0.00000002 RMS(Int)=  0.00024334
 Variable       Old X    -DE/DX   Delta X   Delta X   Delta X     New X
                                 (Linear)    (Quad)   (Total)
    R1        2.65135   0.00738   0.01554   0.00378   0.01956   2.67092
    R2        2.61348   0.00169   0.00684  -0.00764  -0.00045   2.61302
    R3        2.05649   0.00110   0.00205   0.00185   0.00390   2.06038
    R4        2.63845   0.00276  -0.00138   0.00349   0.00202   2.64047
    R5        2.05181   0.00087   0.00095   0.00045   0.00140   2.05322
    R6        2.62878   0.00113  -0.00102   0.00604   0.00465   2.63343
    R7        2.62811   0.00128  -0.00109   0.00395   0.00260   2.63071
    R8        2.04934   0.00021   0.00053  -0.00001   0.00051   2.04986
    R9        2.04970   0.00066   0.00034  -0.00022   0.00012   2.04982
   R10        2.63416   0.00194   0.00039   0.00064   0.00115   2.63531
   R11        3.38377   0.00765   0.02139   0.02704   0.04843   3.43220
    A1        1.98967  -0.00848  -0.04862   0.00534  -0.04235   1.94732
    A2        2.07952  -0.00138  -0.01257   0.00753  -0.00510   2.07442
    A3        2.14898   0.00458   0.02896  -0.00591   0.02316   2.17214
    A4        2.05468  -0.00321  -0.01639  -0.00161  -0.01806   2.03663
    A5        2.09649   0.00132   0.00221   0.00275   0.00522   2.10171
    A6        2.09200  -0.00076  -0.00144  -0.00038  -0.00235   2.08965
    A7        2.09470  -0.00056  -0.00077  -0.00237  -0.00288   2.09182
    A8        2.08248  -0.00099  -0.00810   0.00257  -0.00623   2.07624
    A9        2.10762   0.00067   0.00425  -0.00022   0.00439   2.11201
   A10        2.09308   0.00032   0.00385  -0.00235   0.00185   2.09493
   A11        2.10733  -0.00086  -0.00199   0.00106  -0.00081   2.10652
   A12        2.06263  -0.00022  -0.00273  -0.00504  -0.00800   2.05463
   A13        2.11322   0.00108   0.00472   0.00399   0.00882   2.12204
   A14        2.19059   0.00588   0.03193   0.00346   0.03579   2.22638
   A15        2.07715  -0.00142  -0.00753  -0.00222  -0.00995   2.06720
   A16        2.01543  -0.00446  -0.02440  -0.00122  -0.02582   1.98961
    D1       -3.13902  -0.00001   0.00071   0.00081   0.00148  -3.13754
    D2       -0.00035   0.00004   0.00000   0.00388   0.00386   0.00351
    D3       -0.00484  -0.00004  -0.00129   0.00250   0.00124  -0.00361
    D4        3.13081   0.00011  -0.00276   0.00826   0.00553   3.13634
    D5       -3.13737  -0.00003   0.00105  -0.00602  -0.00500   3.14082
    D6        0.00441  -0.00003   0.00106  -0.00628  -0.00525  -0.00085
    D7        0.00134   0.00002   0.00035  -0.00298  -0.00265  -0.00131
    D8       -3.14008   0.00003   0.00036  -0.00323  -0.00290   3.14021
    D9       -0.00347  -0.00001  -0.00089   0.00216   0.00126  -0.00221
   D10        3.13985  -0.00002  -0.00040   0.00115   0.00075   3.14060
   D11        3.13830  -0.00001  -0.00087   0.00191   0.00101   3.13931
   D12       -0.00157  -0.00002  -0.00039   0.00089   0.00050  -0.00107
   D13       -3.14042  -0.00003   0.00042   0.00047   0.00093  -3.13950
   D14       -0.00127   0.00004  -0.00028   0.00373   0.00347   0.00219
   D15       -0.00054  -0.00001  -0.00005   0.00148   0.00143   0.00090
   D16        3.13862   0.00006  -0.00076   0.00474   0.00397  -3.14060
   D17        0.00577   0.00001   0.00146  -0.00635  -0.00485   0.00092
   D18       -3.13007  -0.00014   0.00288  -0.01192  -0.00902  -3.13909
   D19       -3.13827   0.00008   0.00075  -0.00308  -0.00230  -3.14057
   D20        0.00907  -0.00007   0.00217  -0.00866  -0.00647   0.00260
         Item               Value     Threshold  Converged?
 Maximum Force            0.008484     0.000015     NO 
 RMS     Force            0.002528     0.000010     NO 
 Maximum Displacement     0.046404     0.000060     NO 
 RMS     Displacement     0.011952     0.000040     NO 
 Predicted change in Energy=-7.582636D-04
 GradGradGradGradGradGradGradGradGradGradGradGradGradGradGradGradGradGrad

                          Input orientation:                          
 ---------------------------------------------------------------------
 Center     Atomic      Atomic             Coordinates (Angstroms)
 Number     Number       Type             X           Y           Z
 ---------------------------------------------------------------------
      1          6           0        6.332788    7.033781    5.173117
      2          6           0        5.250589    6.128724    5.087167
      3          1           0        5.383283    5.112895    5.460340
      4          6           0        3.998916    6.441811    4.550812
      5          1           0        3.212183    5.693214    4.516650
      6          6           0        3.759492    7.722754    4.057009
      7          6           0        4.779811    8.668185    4.112534
      8          1           0        4.623539    9.674142    3.738045
      9          6           0        5.999239    8.275028    4.663158
     10          1           0        2.795933    7.988046    3.635312
     11         17           0        7.255170    9.586781    4.689036
 ---------------------------------------------------------------------
                    Distance matrix (angstroms):
                    1          2          3          4          5
     1  C    0.000000
     2  C    1.413390   0.000000
     3  H    2.161911   1.090309   0.000000
     4  C    2.486895   1.397278   2.123613   0.000000
     5  H    3.459226   2.161078   2.437416   1.086515   0.000000
     6  C    2.888292   2.413613   3.378964   1.393550   2.151709
     7  C    2.491555   2.760508   3.849785   2.399713   3.386919
     8  H    3.457235   3.844908   4.934419   3.390975   4.294874
     9  C    1.382753   2.312333   3.318732   2.715621   3.801961
    10  H    3.973010   3.404453   4.276868   2.162441   2.493246
    11  Cl   2.757342   4.016842   4.910654   4.529143   5.615633
                    6          7          8          9         10
     6  C    0.000000
     7  C    1.392111   0.000000
     8  H    2.157830   1.084718   0.000000
     9  C    2.385139   1.394547   2.169310   0.000000
    10  H    1.084737   2.150838   2.488698   3.376388   0.000000
    11  Cl   4.011711   2.702513   2.799553   1.816241   4.852946
                   11
    11  Cl   0.000000
 Symmetry turned off by external request.
 Stoichiometry    C6H4Cl(1-)
 Framework group  C1[X(C6H4Cl)]
 Deg. of freedom    27
 Full point group                 C1      NOp   1
 Rotational constants (GHZ):           5.8751345           1.5668273           1.2369504
 Standard basis: 6-311+G(d,p) (5D, 7F)
   186 basis functions,   301 primitive gaussians,   193 cartesian basis functions
    29 alpha electrons       29 beta electrons
       nuclear repulsion energy       301.5944209604 Hartrees.
 NAtoms=   11 NActive=   11 NUniq=   11 SFac= 1.00D+00 NAtFMM=   60 NAOKFM=F Big=F
 Integral buffers will be    131072 words long.
 Raffenetti 2 integral format.
 Two-electron integral symmetry is turned off.
 ------------------------------------------------------------------------------
 Polarizable Continuum Model (PCM)
 =================================
 Model                : PCM.
 Atomic radii         : SMD-Coulomb.
 Polarization charges : Total charges.
 Charge compensation  : None.
 Solution method      : Matrix inversion.
 Cavity type          : VdW (van der Waals Surface) (Alpha=1.000).
 Cavity algorithm     : GePol (No added spheres)
                        Default sphere list used, NSphG=   11.
                        Lebedev-Laikov grids with approx.  5.0 points / Ang**2.
                        Smoothing algorithm: York/Karplus (Gamma=1.0000).
                        Polarization charges: spherical gaussians, with
                                              point-specific exponents (IZeta= 3).
                        Self-potential: point-specific (ISelfS= 7).
                        Self-field    : sphere-specific E.n sum rule (ISelfD= 2).
 1st derivatives      : Analytical E(r).r(x)/FMM algorithm (CHGder, D1EAlg=3).
                        Cavity 1st derivative terms included.
 Solvent              : TetraHydroFuran, Eps=   7.425700 Eps(inf)=   1.974025
 ------------------------------------------------------------------------------
 Spheres list:
 ISph  on   Nord     Re0    Alpha      Xe            Ye            Ze
    1   C      1    1.8500  1.000      6.332788      7.033781      5.173117
    2   C      2    1.8500  1.000      5.250589      6.128724      5.087167
    3   H      3    1.2000  1.000      5.383283      5.112895      5.460340
    4   C      4    1.8500  1.000      3.998916      6.441811      4.550812
    5   H      5    1.2000  1.000      3.212183      5.693214      4.516650
    6   C      6    1.8500  1.000      3.759492      7.722754      4.057009
    7   C      7    1.8500  1.000      4.779811      8.668185      4.112534
    8   H      8    1.2000  1.000      4.623539      9.674142      3.738045
    9   C      9    1.8500  1.000      5.999239      8.275028      4.663158
   10   H     10    1.2000  1.000      2.795933      7.988046      3.635312
   11  Cl     11    2.3800  1.000      7.255170      9.586781      4.689036
 ------------------------------------------------------------------------------
 ------------------------------------------------------------------------------
 Atomic radii for non-electrostatic terms: SMD-CDS.
 ------------------------------------------------------------------------------
 Nuclear repulsion after PCM non-electrostatic terms =      301.5909373585 Hartrees.
 One-electron integrals computed using PRISM.
 NBasis=   186 RedAO= T EigKep=  4.66D-06  NBF=   186
 NBsUse=   186 1.00D-06 EigRej= -1.00D+00 NBFU=   186
 Initial guess from the checkpoint file:  "2-cl-ph-anion-opt-freq-thf.chk"
 B after Tr=     0.015627   -0.034647    0.047946
         Rot=    0.999998    0.001006   -0.001033   -0.001045 Ang=   0.20 deg.
 ExpMin= 4.38D-02 ExpMax= 1.06D+05 ExpMxC= 3.62D+03 IAcc=3 IRadAn=         5 AccDes= 0.00D+00
 Harris functional with IExCor= 1009 and IRadAn=       5 diagonalized for initial guess.
 HarFok:  IExCor= 1009 AccDes= 0.00D+00 IRadAn=         5 IDoV= 1 UseB2=F ITyADJ=14
 ICtDFT=  3500011 ScaDFX=  1.000000  1.000000  1.000000  1.000000
 FoFCou: FMM=F IPFlag=           0 FMFlag=      100000 FMFlg1=           0
         NFxFlg=           0 DoJE=T BraDBF=F KetDBF=T FulRan=T
         wScrn=  0.000000 ICntrl=       500 IOpCl=  0 I1Cent=   200000004 NGrid=           0
         NMat0=    1 NMatS0=      1 NMatT0=    0 NMatD0=    1 NMtDS0=    0 NMtDT0=    0
 Symmetry not used in FoFCou.
 Keep R1 ints in memory in canonical form, NReq=183961021.
 Requested convergence on RMS density matrix=1.00D-08 within 128 cycles.
 Requested convergence on MAX density matrix=1.00D-06.
 Requested convergence on             energy=1.00D-06.
 Level shift goal  0.100 maximum shift  0.100.
 No special actions if energy rises.
 Dynamic level shift is on during FON iterations.
 Inv3:  Mode=1 IEnd=     4177200.
 Iteration    1 A*A^-1 deviation from unit magnitude is 3.11D-15 for   1169.
 Iteration    1 A*A^-1 deviation from orthogonality  is 1.63D-15 for    360    244.
 Iteration    1 A^-1*A deviation from unit magnitude is 3.00D-15 for   1167.
 Iteration    1 A^-1*A deviation from orthogonality  is 1.17D-14 for    916    400.
 Error on total polarization charges =  0.04250
 SCF Done:  E(RM062X) =  -691.260189569     A.U. after   14 cycles
            NFock= 14  Conv=0.57D-08     -V/T= 2.0028
 SMD-CDS (non-electrostatic) energy       (kcal/mol) =      -2.19
 (included in total energy above)
 D1PCM: PCM CHGder 1st derivatives, ID1Alg=3 FixD1E=F DoIter=F DoCFld=F I1PDM=0.
 Calling FoFJK, ICntrl=      2127 FMM=F ISym2X=0 I1Cent= 0 IOpClX= 0 NMat=1 NMatS=1 NMatT=0.
 -------------------------------------------------------------------
 Center     Atomic                   Forces (Hartrees/Bohr)
 Number     Number              X              Y              Z
 -------------------------------------------------------------------
      1        6           0.001849281    0.000399332    0.000403969
      2        6          -0.000935826   -0.000470467   -0.000223534
      3        1          -0.000011642   -0.000185179   -0.000081792
      4        6          -0.000317038   -0.000320163   -0.000008482
      5        1          -0.000087137    0.000020967   -0.000047470
      6        6          -0.000214208    0.000126629   -0.000081046
      7        6           0.000229398    0.000460309   -0.000085468
      8        1          -0.000005207    0.000035217    0.000002243
      9        6          -0.001803671   -0.002077191    0.000054041
     10        1           0.000028768    0.000078581    0.000002150
     11       17           0.001267282    0.001931964    0.000065389
 -------------------------------------------------------------------
 Cartesian Forces:  Max     0.002077191 RMS     0.000746837

 GradGradGradGradGradGradGradGradGradGradGradGradGradGradGradGradGradGrad
 Berny optimization.
 Using GEDIIS/GDIIS optimizer.
 FormGI is forming the generalized inverse of G from B-inverse, IUseBI=4.
 Internal  Forces:  Max     0.002274748 RMS     0.000464600
 Search for a local minimum.
 Step number   3 out of a maximum of   57
 All quantities printed in internal units (Hartrees-Bohrs-Radians)
 Mixed Optimization -- En-DIIS/RFO-DIIS
 Update second derivatives using D2CorX and points    1    2    3
 DE= -8.20D-04 DEPred=-7.58D-04 R= 1.08D+00
 TightC=F SS=  1.41D+00  RLast= 8.98D-02 DXNew= 8.4853D-01 2.6928D-01
 Trust test= 1.08D+00 RLast= 8.98D-02 DXMaxT set to 5.05D-01
 ITU=  1  1  0
 Use linear search instead of GDIIS.
     Eigenvalues ---    0.00736   0.01803   0.02173   0.02503   0.02652
     Eigenvalues ---    0.02976   0.03644   0.04433   0.10462   0.11329
     Eigenvalues ---    0.11864   0.12056   0.12788   0.18532   0.19212
     Eigenvalues ---    0.20551   0.24480   0.29230   0.35355   0.36083
     Eigenvalues ---    0.36199   0.36459   0.42735   0.43037   0.47361
     Eigenvalues ---    0.50525   0.51857
 RFO step:  Lambda=-3.04917430D-05 EMin= 7.36281143D-03
 Quartic linear search produced a step of  0.18821.
 Iteration  1 RMS(Cart)=  0.00808015 RMS(Int)=  0.00004144
 Iteration  2 RMS(Cart)=  0.00005096 RMS(Int)=  0.00001184
 Iteration  3 RMS(Cart)=  0.00000000 RMS(Int)=  0.00001184
 Variable       Old X    -DE/DX   Delta X   Delta X   Delta X     New X
                                 (Linear)    (Quad)   (Total)
    R1        2.67092   0.00155   0.00368   0.00140   0.00509   2.67601
    R2        2.61302   0.00042  -0.00009  -0.00152  -0.00159   2.61143
    R3        2.06038   0.00014   0.00073  -0.00022   0.00052   2.06090
    R4        2.64047   0.00042   0.00038   0.00003   0.00041   2.64088
    R5        2.05322   0.00005   0.00026  -0.00015   0.00011   2.05332
    R6        2.63343   0.00023   0.00087   0.00037   0.00123   2.63466
    R7        2.63071   0.00012   0.00049  -0.00052  -0.00004   2.63067
    R8        2.04986  -0.00001   0.00010  -0.00012  -0.00002   2.04983
    R9        2.04982   0.00003   0.00002  -0.00019  -0.00016   2.04966
   R10        2.63531   0.00011   0.00022  -0.00024  -0.00001   2.63530
   R11        3.43220   0.00227   0.00911   0.00786   0.01697   3.44917
    A1        1.94732  -0.00079  -0.00797   0.00196  -0.00599   1.94133
    A2        2.07442  -0.00006  -0.00096   0.00038  -0.00057   2.07385
    A3        2.17214   0.00023   0.00436  -0.00234   0.00201   2.17415
    A4        2.03663  -0.00017  -0.00340   0.00195  -0.00144   2.03519
    A5        2.10171   0.00010   0.00098  -0.00053   0.00047   2.10218
    A6        2.08965  -0.00006  -0.00044   0.00063   0.00015   2.08980
    A7        2.09182  -0.00004  -0.00054  -0.00010  -0.00062   2.09120
    A8        2.07624  -0.00001  -0.00117   0.00040  -0.00081   2.07543
    A9        2.11201   0.00007   0.00083   0.00009   0.00093   2.11294
   A10        2.09493  -0.00006   0.00035  -0.00049  -0.00012   2.09481
   A11        2.10652  -0.00008  -0.00015   0.00094   0.00079   2.10731
   A12        2.05463   0.00014  -0.00151  -0.00011  -0.00163   2.05300
   A13        2.12204  -0.00005   0.00166  -0.00084   0.00083   2.12287
   A14        2.22638   0.00049   0.00674  -0.00055   0.00619   2.23257
   A15        2.06720   0.00042  -0.00187   0.00378   0.00190   2.06910
   A16        1.98961  -0.00092  -0.00486  -0.00323  -0.00810   1.98151
    D1       -3.13754   0.00000   0.00028  -0.00216  -0.00190  -3.13944
    D2        0.00351  -0.00002   0.00073  -0.00329  -0.00258   0.00093
    D3       -0.00361  -0.00005   0.00023  -0.00861  -0.00838  -0.01199
    D4        3.13634  -0.00013   0.00104  -0.01308  -0.01204   3.12430
    D5        3.14082   0.00005  -0.00094   0.00892   0.00798  -3.13439
    D6       -0.00085   0.00006  -0.00099   0.01021   0.00922   0.00837
    D7       -0.00131   0.00003  -0.00050   0.00782   0.00732   0.00600
    D8        3.14021   0.00004  -0.00055   0.00911   0.00855  -3.13442
    D9       -0.00221  -0.00004   0.00024  -0.00559  -0.00535  -0.00756
   D10        3.14060  -0.00002   0.00014  -0.00539  -0.00523   3.13536
   D11        3.13931  -0.00003   0.00019  -0.00430  -0.00412   3.13519
   D12       -0.00107  -0.00001   0.00009  -0.00410  -0.00400  -0.00507
   D13       -3.13950   0.00002   0.00017  -0.00259  -0.00240   3.14129
   D14        0.00219  -0.00002   0.00065  -0.00490  -0.00424  -0.00205
   D15        0.00090   0.00000   0.00027  -0.00279  -0.00251  -0.00162
   D16       -3.14060  -0.00004   0.00075  -0.00511  -0.00435   3.13823
   D17        0.00092   0.00008  -0.00091   0.01296   0.01206   0.01298
   D18       -3.13909   0.00015  -0.00170   0.01726   0.01556  -3.12353
   D19       -3.14057   0.00003  -0.00043   0.01062   0.01021  -3.13037
   D20        0.00260   0.00011  -0.00122   0.01492   0.01370   0.01630
         Item               Value     Threshold  Converged?
 Maximum Force            0.002275     0.000015     NO 
 RMS     Force            0.000465     0.000010     NO 
 Maximum Displacement     0.025041     0.000060     NO 
 RMS     Displacement     0.008098     0.000040     NO 
 Predicted change in Energy=-3.525212D-05
 GradGradGradGradGradGradGradGradGradGradGradGradGradGradGradGradGradGrad

                          Input orientation:                          
 ---------------------------------------------------------------------
 Center     Atomic      Atomic             Coordinates (Angstroms)
 Number     Number       Type             X           Y           Z
 ---------------------------------------------------------------------
      1          6           0        6.337949    7.030574    5.170146
      2          6           0        5.251227    6.126724    5.084236
      3          1           0        5.383467    5.108936    5.453002
      4          6           0        3.997056    6.442641    4.554861
      5          1           0        3.207111    5.697055    4.527900
      6          6           0        3.759164    7.722977    4.056922
      7          6           0        4.782127    8.665773    4.107852
      8          1           0        4.629520    9.670446    3.728681
      9          6           0        5.998863    8.270480    4.662866
     10          1           0        2.795677    7.989724    3.636008
     11         17           0        7.248780    9.600032    4.700707
 ---------------------------------------------------------------------
                    Distance matrix (angstroms):
                    1          2          3          4          5
     1  C    0.000000
     2  C    1.416083   0.000000
     3  H    2.164194   1.090582   0.000000
     4  C    2.490787   1.397493   2.123102   0.000000
     5  H    3.463077   2.161605   2.436847   1.086572   0.000000
     6  C    2.892892   2.414467   3.379439   1.394200   2.151962
     7  C    2.494580   2.760462   3.849952   2.399681   3.386798
     8  H    3.459114   3.844738   4.934479   3.391357   4.295327
     9  C    1.381911   2.309156   3.316381   2.712911   3.799291
    10  H    3.977593   3.405563   4.277507   2.163578   2.494210
    11  Cl   2.766243   4.025069   4.920903   4.534765   5.621226
                    6          7          8          9         10
     6  C    0.000000
     7  C    1.392089   0.000000
     8  H    2.158217   1.084632   0.000000
     9  C    2.383943   1.394541   2.169724   0.000000
    10  H    1.084725   2.150735   2.489256   3.375450   0.000000
    11  Cl   4.014377   2.703460   2.794694   1.825222   4.853535
                   11
    11  Cl   0.000000
 Symmetry turned off by external request.
 Stoichiometry    C6H4Cl(1-)
 Framework group  C1[X(C6H4Cl)]
 Deg. of freedom    27
 Full point group                 C1      NOp   1
 Rotational constants (GHZ):           5.8664264           1.5627928           1.2340918
 Standard basis: 6-311+G(d,p) (5D, 7F)
   186 basis functions,   301 primitive gaussians,   193 cartesian basis functions
    29 alpha electrons       29 beta electrons
       nuclear repulsion energy       301.2844689596 Hartrees.
 NAtoms=   11 NActive=   11 NUniq=   11 SFac= 1.00D+00 NAtFMM=   60 NAOKFM=F Big=F
 Integral buffers will be    131072 words long.
 Raffenetti 2 integral format.
 Two-electron integral symmetry is turned off.
 ------------------------------------------------------------------------------
 Polarizable Continuum Model (PCM)
 =================================
 Model                : PCM.
 Atomic radii         : SMD-Coulomb.
 Polarization charges : Total charges.
 Charge compensation  : None.
 Solution method      : Matrix inversion.
 Cavity type          : VdW (van der Waals Surface) (Alpha=1.000).
 Cavity algorithm     : GePol (No added spheres)
                        Default sphere list used, NSphG=   11.
                        Lebedev-Laikov grids with approx.  5.0 points / Ang**2.
                        Smoothing algorithm: York/Karplus (Gamma=1.0000).
                        Polarization charges: spherical gaussians, with
                                              point-specific exponents (IZeta= 3).
                        Self-potential: point-specific (ISelfS= 7).
                        Self-field    : sphere-specific E.n sum rule (ISelfD= 2).
 1st derivatives      : Analytical E(r).r(x)/FMM algorithm (CHGder, D1EAlg=3).
                        Cavity 1st derivative terms included.
 Solvent              : TetraHydroFuran, Eps=   7.425700 Eps(inf)=   1.974025
 ------------------------------------------------------------------------------
 Spheres list:
 ISph  on   Nord     Re0    Alpha      Xe            Ye            Ze
    1   C      1    1.8500  1.000      6.337949      7.030574      5.170146
    2   C      2    1.8500  1.000      5.251227      6.126724      5.084236
    3   H      3    1.2000  1.000      5.383467      5.108936      5.453002
    4   C      4    1.8500  1.000      3.997056      6.442641      4.554861
    5   H      5    1.2000  1.000      3.207111      5.697055      4.527900
    6   C      6    1.8500  1.000      3.759164      7.722977      4.056922
    7   C      7    1.8500  1.000      4.782127      8.665773      4.107852
    8   H      8    1.2000  1.000      4.629520      9.670446      3.728681
    9   C      9    1.8500  1.000      5.998863      8.270480      4.662866
   10   H     10    1.2000  1.000      2.795677      7.989724      3.636008
   11  Cl     11    2.3800  1.000      7.248780      9.600032      4.700707
 ------------------------------------------------------------------------------
 ------------------------------------------------------------------------------
 Atomic radii for non-electrostatic terms: SMD-CDS.
 ------------------------------------------------------------------------------
 Nuclear repulsion after PCM non-electrostatic terms =      301.2809882897 Hartrees.
 One-electron integrals computed using PRISM.
 NBasis=   186 RedAO= T EigKep=  4.70D-06  NBF=   186
 NBsUse=   186 1.00D-06 EigRej= -1.00D+00 NBFU=   186
 Initial guess from the checkpoint file:  "2-cl-ph-anion-opt-freq-thf.chk"
 B after Tr=     0.051547   -0.005629   -0.041612
         Rot=    0.999998   -0.000971    0.000813   -0.001313 Ang=  -0.21 deg.
 ExpMin= 4.38D-02 ExpMax= 1.06D+05 ExpMxC= 3.62D+03 IAcc=3 IRadAn=         5 AccDes= 0.00D+00
 Harris functional with IExCor= 1009 and IRadAn=       5 diagonalized for initial guess.
 HarFok:  IExCor= 1009 AccDes= 0.00D+00 IRadAn=         5 IDoV= 1 UseB2=F ITyADJ=14
 ICtDFT=  3500011 ScaDFX=  1.000000  1.000000  1.000000  1.000000
 FoFCou: FMM=F IPFlag=           0 FMFlag=      100000 FMFlg1=           0
         NFxFlg=           0 DoJE=T BraDBF=F KetDBF=T FulRan=T
         wScrn=  0.000000 ICntrl=       500 IOpCl=  0 I1Cent=   200000004 NGrid=           0
         NMat0=    1 NMatS0=      1 NMatT0=    0 NMatD0=    1 NMtDS0=    0 NMtDT0=    0
 Symmetry not used in FoFCou.
 Keep R1 ints in memory in canonical form, NReq=183961021.
 Requested convergence on RMS density matrix=1.00D-08 within 128 cycles.
 Requested convergence on MAX density matrix=1.00D-06.
 Requested convergence on             energy=1.00D-06.
 Level shift goal  0.100 maximum shift  0.100.
 No special actions if energy rises.
 Dynamic level shift is on during FON iterations.
 Inv3:  Mode=1 IEnd=     4184283.
 Iteration    1 A*A^-1 deviation from unit magnitude is 4.22D-15 for   1173.
 Iteration    1 A*A^-1 deviation from orthogonality  is 2.58D-15 for    461     66.
 Iteration    1 A^-1*A deviation from unit magnitude is 4.11D-15 for   1173.
 Iteration    1 A^-1*A deviation from orthogonality  is 9.75D-15 for    518    517.
 Error on total polarization charges =  0.04234
 SCF Done:  E(RM062X) =  -691.260222823     A.U. after   13 cycles
            NFock= 13  Conv=0.85D-08     -V/T= 2.0028
 SMD-CDS (non-electrostatic) energy       (kcal/mol) =      -2.18
 (included in total energy above)
 D1PCM: PCM CHGder 1st derivatives, ID1Alg=3 FixD1E=F DoIter=F DoCFld=F I1PDM=0.
 Calling FoFJK, ICntrl=      2127 FMM=F ISym2X=0 I1Cent= 0 IOpClX= 0 NMat=1 NMatS=1 NMatT=0.
 -------------------------------------------------------------------
 Center     Atomic                   Forces (Hartrees/Bohr)
 Number     Number              X              Y              Z
 -------------------------------------------------------------------
      1        6          -0.000090487    0.000060374   -0.000044381
      2        6          -0.000077944   -0.000211478   -0.000054047
      3        1           0.000030887    0.000052210   -0.000011098
      4        6           0.000059421    0.000073495   -0.000135256
      5        1           0.000082258   -0.000040931   -0.000112955
      6        6           0.000076527   -0.000022170    0.000008544
      7        6          -0.000121839   -0.000084503    0.000172448
      8        1          -0.000033152    0.000032305    0.000153935
      9        6          -0.000255969   -0.000088276   -0.000032679
     10        1           0.000006284    0.000000638    0.000008467
     11       17           0.000324014    0.000228335    0.000047022
 -------------------------------------------------------------------
 Cartesian Forces:  Max     0.000324014 RMS     0.000115150

 GradGradGradGradGradGradGradGradGradGradGradGradGradGradGradGradGradGrad
 Berny optimization.
 Using GEDIIS/GDIIS optimizer.
 FormGI is forming the generalized inverse of G from B-inverse, IUseBI=4.
 Internal  Forces:  Max     0.000389183 RMS     0.000084540
 Search for a local minimum.
 Step number   4 out of a maximum of   57
 All quantities printed in internal units (Hartrees-Bohrs-Radians)
 Mixed Optimization -- En-DIIS/RFO-DIIS
 Swapping is turned off.
 Update second derivatives using D2CorX and points    1    2    3    4
 DE= -3.33D-05 DEPred=-3.53D-05 R= 9.43D-01
 TightC=F SS=  1.41D+00  RLast= 4.23D-02 DXNew= 8.4853D-01 1.2703D-01
 Trust test= 9.43D-01 RLast= 4.23D-02 DXMaxT set to 5.05D-01
 ITU=  1  1  1  0
     Eigenvalues ---    0.00910   0.01803   0.02173   0.02515   0.02657
     Eigenvalues ---    0.02976   0.03647   0.04445   0.10150   0.10655
     Eigenvalues ---    0.11341   0.11930   0.12101   0.18231   0.19009
     Eigenvalues ---    0.20826   0.24151   0.29261   0.35343   0.36094
     Eigenvalues ---    0.36195   0.36459   0.42586   0.43001   0.47361
     Eigenvalues ---    0.50529   0.51703
 En-DIIS/RFO-DIIS/Sim-DIIS IScMMF=       -3 using points:     4    3
 RFO step:  Lambda=-8.46018010D-06.
 DidBck=T Rises=F RFO-DIIS coefs:    0.49282    0.50718
 Iteration  1 RMS(Cart)=  0.00549139 RMS(Int)=  0.00001435
 Iteration  2 RMS(Cart)=  0.00001776 RMS(Int)=  0.00000431
 Iteration  3 RMS(Cart)=  0.00000000 RMS(Int)=  0.00000431
 Variable       Old X    -DE/DX   Delta X   Delta X   Delta X     New X
                                 (Linear)    (Quad)   (Total)
    R1        2.67601   0.00002  -0.00258   0.00323   0.00065   2.67666
    R2        2.61143  -0.00002   0.00081  -0.00131  -0.00051   2.61093
    R3        2.06090  -0.00005  -0.00026   0.00017  -0.00009   2.06081
    R4        2.64088  -0.00008  -0.00021   0.00009  -0.00011   2.64076
    R5        2.05332  -0.00003  -0.00006   0.00002  -0.00004   2.05328
    R6        2.63466  -0.00005  -0.00062   0.00065   0.00002   2.63468
    R7        2.63067  -0.00004   0.00002  -0.00006  -0.00004   2.63062
    R8        2.04983  -0.00001   0.00001  -0.00003  -0.00002   2.04981
    R9        2.04966  -0.00002   0.00008  -0.00012  -0.00003   2.04962
   R10        2.63530  -0.00004   0.00001  -0.00013  -0.00012   2.63518
   R11        3.44917   0.00039  -0.00861   0.01219   0.00358   3.45275
    A1        1.94133   0.00012   0.00304  -0.00327  -0.00023   1.94110
    A2        2.07385   0.00000   0.00029  -0.00057  -0.00028   2.07357
    A3        2.17415  -0.00009  -0.00102   0.00085  -0.00017   2.17398
    A4        2.03519   0.00009   0.00073  -0.00028   0.00045   2.03564
    A5        2.10218  -0.00004  -0.00024   0.00007  -0.00017   2.10201
    A6        2.08980   0.00002  -0.00008   0.00015   0.00007   2.08988
    A7        2.09120   0.00003   0.00032  -0.00021   0.00010   2.09130
    A8        2.07543   0.00004   0.00041  -0.00028   0.00013   2.07556
    A9        2.11294  -0.00002  -0.00047   0.00043  -0.00004   2.11290
   A10        2.09481  -0.00002   0.00006  -0.00015  -0.00009   2.09472
   A11        2.10731   0.00000  -0.00040   0.00051   0.00011   2.10742
   A12        2.05300   0.00002   0.00082  -0.00114  -0.00032   2.05269
   A13        2.12287  -0.00002  -0.00042   0.00063   0.00021   2.12307
   A14        2.23257  -0.00011  -0.00314   0.00372   0.00058   2.23315
   A15        2.06910  -0.00009  -0.00096   0.00034  -0.00063   2.06847
   A16        1.98151   0.00020   0.00411  -0.00406   0.00005   1.98156
    D1       -3.13944   0.00005   0.00096   0.00276   0.00373  -3.13571
    D2        0.00093   0.00004   0.00131   0.00221   0.00352   0.00445
    D3       -0.01199   0.00004   0.00425   0.00091   0.00516  -0.00682
    D4        3.12430   0.00009   0.00611   0.00109   0.00719   3.13150
    D5       -3.13439  -0.00005  -0.00405  -0.00234  -0.00639  -3.14078
    D6        0.00837  -0.00008  -0.00468  -0.00308  -0.00775   0.00062
    D7        0.00600  -0.00005  -0.00371  -0.00288  -0.00659  -0.00059
    D8       -3.13442  -0.00008  -0.00434  -0.00362  -0.00795   3.14081
    D9       -0.00756   0.00003   0.00271   0.00071   0.00341  -0.00414
   D10        3.13536   0.00003   0.00266   0.00113   0.00378   3.13914
   D11        3.13519   0.00000   0.00209  -0.00003   0.00206   3.13726
   D12       -0.00507   0.00000   0.00203   0.00040   0.00242  -0.00265
   D13        3.14129  -0.00001   0.00122   0.00136   0.00257  -3.13932
   D14       -0.00205   0.00005   0.00215   0.00209   0.00423   0.00219
   D15       -0.00162  -0.00001   0.00128   0.00094   0.00222   0.00060
   D16        3.13823   0.00005   0.00221   0.00168   0.00388  -3.14107
   D17        0.01298  -0.00009  -0.00612  -0.00306  -0.00918   0.00380
   D18       -3.12353  -0.00014  -0.00789  -0.00324  -0.01113  -3.13466
   D19       -3.13037  -0.00003  -0.00518  -0.00232  -0.00751  -3.13788
   D20        0.01630  -0.00008  -0.00695  -0.00250  -0.00945   0.00685
         Item               Value     Threshold  Converged?
 Maximum Force            0.000389     0.000015     NO 
 RMS     Force            0.000085     0.000010     NO 
 Maximum Displacement     0.018995     0.000060     NO 
 RMS     Displacement     0.005493     0.000040     NO 
 Predicted change in Energy=-4.231022D-06
 GradGradGradGradGradGradGradGradGradGradGradGradGradGradGradGradGradGrad

                          Input orientation:                          
 ---------------------------------------------------------------------
 Center     Atomic      Atomic             Coordinates (Angstroms)
 Number     Number       Type             X           Y           Z
 ---------------------------------------------------------------------
      1          6           0        6.337189    7.031341    5.172184
      2          6           0        5.250284    6.127172    5.086247
      3          1           0        5.381349    5.110946    5.459571
      4          6           0        3.998007    6.441516    4.551638
      5          1           0        3.209878    5.694242    4.519605
      6          6           0        3.759181    7.722793    4.056540
      7          6           0        4.780565    8.667029    4.111688
      8          1           0        4.626433    9.673124    3.736981
      9          6           0        5.998353    8.270323    4.663213
     10          1           0        2.795972    7.989288    3.634858
     11         17           0        7.253732    9.597588    4.690655
 ---------------------------------------------------------------------
                    Distance matrix (angstroms):
                    1          2          3          4          5
     1  C    0.000000
     2  C    1.416429   0.000000
     3  H    2.164287   1.090533   0.000000
     4  C    2.490932   1.397432   2.123298   0.000000
     5  H    3.463202   2.161428   2.437018   1.086551   0.000000
     6  C    2.892904   2.414476   3.379596   1.394213   2.152018
     7  C    2.494635   2.760666   3.850124   2.399762   3.386874
     8  H    3.459120   3.844930   4.934640   3.391441   4.295420
     9  C    1.381643   2.309040   3.316104   2.712631   3.799002
    10  H    3.977594   3.405533   4.277687   2.163555   2.494260
    11  Cl   2.767227   4.026672   4.922094   4.536503   5.623000
                    6          7          8          9         10
     6  C    0.000000
     7  C    1.392066   0.000000
     8  H    2.158248   1.084615   0.000000
     9  C    2.383639   1.394475   2.169774   0.000000
    10  H    1.084715   2.150653   2.489241   3.375165   0.000000
    11  Cl   4.016074   2.705125   2.796051   1.827119   4.855200
                   11
    11  Cl   0.000000
 Symmetry turned off by external request.
 Stoichiometry    C6H4Cl(1-)
 Framework group  C1[X(C6H4Cl)]
 Deg. of freedom    27
 Full point group                 C1      NOp   1
 Rotational constants (GHZ):           5.8666337           1.5615645           1.2333005
 Standard basis: 6-311+G(d,p) (5D, 7F)
   186 basis functions,   301 primitive gaussians,   193 cartesian basis functions
[...]
    A7        2.09137   0.00000   0.00000   0.00000   0.00000   2.09137
    A8        2.07564   0.00000   0.00000   0.00000   0.00000   2.07564
    A9        2.11282   0.00000   0.00000   0.00000   0.00000   2.11281
   A10        2.09473   0.00000   0.00000   0.00000   0.00000   2.09473
   A11        2.10746   0.00000   0.00000   0.00000   0.00000   2.10746
   A12        2.05281   0.00000   0.00000  -0.00001  -0.00001   2.05281
   A13        2.12291   0.00000   0.00000   0.00001   0.00001   2.12292
   A14        2.23252   0.00000   0.00000   0.00000   0.00000   2.23252
   A15        2.06862   0.00000   0.00000  -0.00001  -0.00001   2.06861
   A16        1.98204   0.00000   0.00000   0.00000   0.00000   1.98204
    D1       -3.13733   0.00000   0.00000   0.00000   0.00000  -3.13733
    D2        0.00288   0.00000   0.00000   0.00000   0.00000   0.00287
    D3       -0.00852   0.00000   0.00000   0.00001   0.00001  -0.00851
    D4        3.12902   0.00000   0.00000   0.00001   0.00001   3.12903
    D5       -3.13825   0.00000   0.00000   0.00000   0.00000  -3.13825
    D6        0.00364   0.00000   0.00000   0.00000   0.00000   0.00364
    D7        0.00198   0.00000   0.00000   0.00000   0.00000   0.00198
    D8       -3.13931   0.00000   0.00000   0.00000   0.00000  -3.13932
    D9       -0.00534   0.00000   0.00000   0.00000   0.00000  -0.00534
   D10        3.13775   0.00000   0.00000   0.00000   0.00000   3.13776
   D11        3.13655   0.00000   0.00000   0.00000   0.00000   3.13655
   D12       -0.00354   0.00000   0.00000   0.00000   0.00000  -0.00354
   D13       -3.14044   0.00000   0.00000   0.00000   0.00000  -3.14044
   D14        0.00050   0.00000   0.00000   0.00000   0.00000   0.00050
   D15       -0.00033   0.00000   0.00000   0.00000   0.00000  -0.00033
   D16        3.14060   0.00000   0.00000   0.00000   0.00000   3.14060
   D17        0.00717   0.00000   0.00000  -0.00001  -0.00001   0.00716
   D18       -3.13054   0.00000   0.00000  -0.00001  -0.00001  -3.13055
   D19       -3.13509   0.00000   0.00000  -0.00001  -0.00001  -3.13509
   D20        0.01039   0.00000   0.00000   0.00000   0.00000   0.01038
         Item               Value     Threshold  Converged?
 Maximum Force            0.000007     0.000015     YES
 RMS     Force            0.000001     0.000010     YES
 Maximum Displacement     0.000024     0.000060     YES
 RMS     Displacement     0.000006     0.000040     YES
 Predicted change in Energy=-1.291085D-10
 Optimization completed.
    -- Stationary point found.
                           ----------------------------
                           !   Optimized Parameters   !
                           ! (Angstroms and Degrees)  !
 --------------------------                            --------------------------
 ! Name  Definition              Value          Derivative Info.                !
 --------------------------------------------------------------------------------
 ! R1    R(1,2)                  1.4161         -DE/DX =    0.0                 !
 ! R2    R(1,9)                  1.3817         -DE/DX =    0.0                 !
 ! R3    R(2,3)                  1.0905         -DE/DX =    0.0                 !
 ! R4    R(2,4)                  1.3974         -DE/DX =    0.0                 !
 ! R5    R(4,5)                  1.0865         -DE/DX =    0.0                 !
 ! R6    R(4,6)                  1.3941         -DE/DX =    0.0                 !
 ! R7    R(6,7)                  1.392          -DE/DX =    0.0                 !
 ! R8    R(6,10)                 1.0847         -DE/DX =    0.0                 !
 ! R9    R(7,8)                  1.0846         -DE/DX =    0.0                 !
 ! R10   R(7,9)                  1.3944         -DE/DX =    0.0                 !
 ! R11   R(9,11)                 1.8267         -DE/DX =    0.0                 !
 ! A1    A(2,1,9)              111.258          -DE/DX =    0.0                 !
 ! A2    A(1,2,3)              118.8144         -DE/DX =    0.0                 !
 ! A3    A(1,2,4)              124.5388         -DE/DX =    0.0                 !
 ! A4    A(3,2,4)              116.6467         -DE/DX =    0.0                 !
 ! A5    A(2,4,5)              120.4291         -DE/DX =    0.0                 !
 ! A6    A(2,4,6)              119.7442         -DE/DX =    0.0                 !
 ! A7    A(5,4,6)              119.8267         -DE/DX =    0.0                 !
 ! A8    A(4,6,7)              118.9255         -DE/DX =    0.0                 !
 ! A9    A(4,6,10)             121.0555         -DE/DX =    0.0                 !
 ! A10   A(7,6,10)             120.0189         -DE/DX =    0.0                 !
 ! A11   A(6,7,8)              120.7485         -DE/DX =    0.0                 !
 ! A12   A(6,7,9)              117.6176         -DE/DX =    0.0                 !
 ! A13   A(8,7,9)              121.634          -DE/DX =    0.0                 !
 ! A14   A(1,9,7)              127.9139         -DE/DX =    0.0                 !
 ! A15   A(1,9,11)             118.5231         -DE/DX =    0.0                 !
 ! A16   A(7,9,11)             113.5626         -DE/DX =    0.0                 !
 ! D1    D(9,1,2,3)           -179.7556         -DE/DX =    0.0                 !
 ! D2    D(9,1,2,4)              0.1649         -DE/DX =    0.0                 !
 ! D3    D(2,1,9,7)             -0.4883         -DE/DX =    0.0                 !
 ! D4    D(2,1,9,11)           179.2796         -DE/DX =    0.0                 !
 ! D5    D(1,2,4,5)           -179.8087         -DE/DX =    0.0                 !
 ! D6    D(1,2,4,6)              0.2086         -DE/DX =    0.0                 !
 ! D7    D(3,2,4,5)              0.1133         -DE/DX =    0.0                 !
 ! D8    D(3,2,4,6)           -179.8694         -DE/DX =    0.0                 !
 ! D9    D(2,4,6,7)             -0.3062         -DE/DX =    0.0                 !
 ! D10   D(2,4,6,10)           179.7801         -DE/DX =    0.0                 !
 ! D11   D(5,4,6,7)            179.711          -DE/DX =    0.0                 !
 ! D12   D(5,4,6,10)            -0.2028         -DE/DX =    0.0                 !
 ! D13   D(4,6,7,8)           -179.9338         -DE/DX =    0.0                 !
 ! D14   D(4,6,7,9)              0.0285         -DE/DX =    0.0                 !
 ! D15   D(10,6,7,8)            -0.0192         -DE/DX =    0.0                 !
 ! D16   D(10,6,7,9)           179.9432         -DE/DX =    0.0                 !
 ! D17   D(6,7,9,1)              0.4107         -DE/DX =    0.0                 !
 ! D18   D(6,7,9,11)          -179.3668         -DE/DX =    0.0                 !
 ! D19   D(8,7,9,1)           -179.6273         -DE/DX =    0.0                 !
 ! D20   D(8,7,9,11)             0.5952         -DE/DX =    0.0                 !
 --------------------------------------------------------------------------------
 GradGradGradGradGradGradGradGradGradGradGradGradGradGradGradGradGradGrad


 ----------------------------------------------------------------------

 Electric dipole moment (input orientation):
 (Debye = 10**-18 statcoulomb cm , SI units = C m)
                  (au)            (Debye)         (10**-30 SI)
   Tot        0.216772D+02      0.550979D+02      0.183787D+03
   x         -0.129371D+02     -0.328829D+02     -0.109685D+03
   y         -0.143940D+02     -0.365860D+02     -0.122038D+03
   z         -0.976434D+01     -0.248185D+02     -0.827855D+02

 Dipole polarizability, Alpha (input orientation).
 (esu units = cm**3 , SI units = C**2 m**2 J**-1)
 Alpha(0;0):
               (au)            (10**-24 esu)      (10**-40 SI)
   iso        0.123903D+03      0.183605D+02      0.204288D+02
   aniso      0.740547D+02      0.109738D+02      0.122100D+02
   xx         0.143361D+03      0.212439D+02      0.236371D+02
   yx         0.144138D+02      0.213590D+01      0.237651D+01
   yy         0.141156D+03      0.209172D+02      0.232735D+02
   zx         0.190590D+02      0.282425D+01      0.314240D+01
   zy        -0.156523D+02     -0.231944D+01     -0.258072D+01
   zz         0.871909D+02      0.129204D+02      0.143758D+02

 ----------------------------------------------------------------------

 Dipole orientation:
     6         -0.42826714          0.51301881        -20.37163780
     6         -1.41329655          1.03375702        -17.93852582
     1         -1.11944018          2.90532782        -17.12771968
     6         -2.76142608         -0.69588999        -16.46743195
     1         -3.46638895         -0.15881127        -14.61528848
     6         -3.20323131         -3.12619675        -17.38350318
     6         -2.29396076         -3.77279548        -19.76573783
     1         -2.60745167         -5.64699689        -20.53382605
     6         -0.97739979         -1.92973006        -21.11234711
     1         -4.23904076         -4.50284806        -16.27280774
    17          0.08932032         -2.98916855        -24.21970021

 Electric dipole moment (dipole orientation):
 (Debye = 10**-18 statcoulomb cm , SI units = C m)
                  (au)            (Debye)         (10**-30 SI)
   Tot        0.216772D+02      0.550979D+02      0.183787D+03
   x          0.000000D+00      0.000000D+00      0.000000D+00
   y          0.000000D+00      0.000000D+00      0.000000D+00
   z          0.216772D+02      0.550979D+02      0.183787D+03

 Dipole polarizability, Alpha (dipole orientation).
 (esu units = cm**3 , SI units = C**2 m**2 J**-1)
 Alpha(0;0):
               (au)            (10**-24 esu)      (10**-40 SI)
   iso        0.123903D+03      0.183605D+02      0.204288D+02
   aniso      0.740547D+02      0.109738D+02      0.122100D+02
   xx         0.949805D+02      0.140747D+02      0.156602D+02
   yx         0.159739D+02      0.236709D+01      0.263374D+01
   yy         0.133428D+03      0.197720D+02      0.219993D+02
   zx        -0.281882D+02     -0.417705D+01     -0.464760D+01
   zy         0.112496D+02      0.166702D+01      0.185481D+01
   zz         0.143300D+03      0.212349D+02      0.236270D+02

 ----------------------------------------------------------------------
 Unable to Open any file for archive entry.
 1\1\GINC-CN013\Freq\RM062X\6-311+G(d,p)\C6H4Cl1(1-)\TAHMINAAFROZ\30-Ma
 y-2025\0\\#N Geom=AllCheck Guess=TCheck SCRF=Check GenChk RM062X/6-311
 +G(d,p) Freq\\2-cl-ph-anion-opt-freq-thf\\-1,1\C,6.336914839,7.0312256
 804,5.171391341\C,5.2505329922,6.1268938918,5.0854926052\H,5.382378554
 ,5.1101806436,5.4570594834\C,3.9976469346,6.4419422574,4.5528297667\H,
 3.2089182982,5.6952420895,4.5227050628\C,3.7591970334,7.722824159,4.05
 67485614\C,4.7810685772,8.6665878948,4.1102206236\H,4.6275129333,9.672
 0984662,3.7337478921\C,5.9984354614,8.2705885426,4.6630340385\H,2.7958
 552865,7.9893418533,3.6353925745\Cl,7.2524810903,9.5984365215,4.694558
 051\\Version=AS64L-G16RevC.01\HF=-691.2602257\RMSD=3.170e-09\RMSF=3.73
 9e-05\ZeroPoint=0.0774249\Thermal=0.08297\ETot=-691.1772557\HTot=-691.
 1763115\GTot=-691.2126557\Dipole=-2.3264876,0.7635675,-1.0452501\Dipol
 eDeriv=-0.4994729,-0.0328081,0.0892289,-0.2429125,-1.321342,0.1015735,
 0.1590397,0.1765483,-0.7112339,-0.007429,0.1580329,0.0084946,0.1231039
 ,0.3162851,-0.1126432,0.0191527,-0.10196,-0.1368496,0.054256,0.0005757
 ,-0.0205068,-0.0550607,-0.2300272,0.0904813,-0.0033147,0.1116256,0.076
 985,-0.1142458,-0.0770779,0.0346341,-0.0194964,0.047983,-0.0719289,0.0
 201241,-0.092223,-0.1141001,-0.0826166,-0.156753,-0.0403052,-0.1513218
 ,-0.025428,0.0140436,-0.0402334,0.0131286,0.1613753,-0.1300218,-0.0469
 532,0.0521528,0.0385846,-0.1040434,-0.029923,0.0234102,-0.0612598,-0.2
 125947,-0.091133,-0.0557825,0.0270745,-0.0595758,-0.2420634,0.0142931,
 0.0287493,0.0121462,-0.1196016,0.0881369,0.0360251,-0.0446116,0.041580
 7,-0.0812059,0.0989742,-0.0486699,0.0991639,0.1358074,0.6009797,0.8892
 456,-0.0599372,0.8742612,1.6677185,-0.2073832,-0.0559488,-0.2037766,0.
 0424307,-0.0911441,0.0295286,-0.1051797,0.0284095,0.0738609,0.0451042,
 -0.1047603,0.0472665,0.1324549,-0.7273093,-0.7440333,0.0589557,-0.5775
 727,-1.1017377,0.0574082,0.0024511,-0.0006596,-0.2546733\Polar=143.361
 1995,14.4137674,141.1562401,19.0589642,-15.6523252,87.1909347\Quadrupo
 le=-9.2464306,-51.9914961,61.2379267,-187.1846295,-125.3622163,-140.61
 80163\PG=C01 [X(C6H4Cl1)]\NImag=0\\0.33203201,0.08100019,0.48348542,0.
 06667396,-0.10323299,0.12259440,-0.20007816,-0.09091571,-0.02260461,0.
 55793874,-0.11261215,-0.17278674,-0.00028559,0.02220914,0.63499463,-0.
 01563238,0.00763530,-0.05947673,0.13585218,-0.14992138,0.23740479,0.00
 098812,-0.02226786,0.00839782,-0.05813292,0.03248555,-0.01636377,0.062
 82344,-0.00327317,-0.01619764,0.00327058,0.03775583,-0.27940292,0.0896
 6029,-0.03190603,0.30206677,0.00210136,-0.00340912,-0.00075466,-0.0178
 5059,0.08787775,-0.07455503,0.02264844,-0.09937215,0.06591321,-0.04049
 031,-0.05078699,-0.00489687,-0.27713081,0.07069719,-0.09437293,-0.0015
 2870,-0.00147507,-0.00186682,0.63804691,-0.00284293,0.05158376,-0.0108
 1337,0.00089576,-0.13340317,0.02126174,0.02767150,-0.00596866,0.013115
 13,0.08642449,0.65906991,-0.02005518,-0.02773338,0.02208269,-0.0721347
 2,0.04567621,-0.10682611,-0.01111582,0.00299249,0.00015906,0.14473913,
 -0.13911486,0.23014919,-0.00359014,0.00052352,-0.00343817,-0.01352188,
 -0.02158950,0.00100292,0.00057633,0.00069666,0.00129153,-0.20227330,-0
 .14101119,-0.01140463,0.21017774,0.00060084,0.00148478,0.00167855,0.00
 683512,0.00812359,0.00094982,-0.00016642,0.00026935,-0.00138985,-0.139
 70246,-0.18762375,0.00055723,0.15269042,0.19553035,-0.00349931,0.00154
 061,0.00431107,-0.00813405,-0.00879643,0.00381669,0.00158063,-0.001090
 97,-0.00296802,-0.01181046,0.00013451,-0.04119645,0.01436867,-0.002390
 39,0.03111953,-0.00480854,-0.02257192,0.00779123,0.01393972,0.03161090
 ,-0.00839974,-0.00381714,0.00175709,-0.00459396,-0.12671350,0.05985950
 ,-0.04018065,0.00708897,-0.02241428,0.00874000,0.67820086,-0.02054868,
 -0.06312281,0.01063341,0.08545282,0.00385662,0.03136298,0.00021416,0.0
 0241200,0.00174425,-0.00406925,-0.29972242,0.07416117,0.00604516,-0.01
 401786,0.00747712,0.02957133,0.62236637,0.00736703,0.01013308,-0.00757
 257,-0.02556520,0.01255413,-0.00394113,-0.00409390,0.00237290,0.005713
 89,-0.01964917,0.09647494,-0.10330948,-0.00045524,-0.00233039,0.003343
 21,0.17992599,-0.14754382,0.24328017,0.02066557,0.07078279,-0.02202566
 ,-0.06719685,-0.00936557,-0.01827870,-0.00118686,-0.00064729,0.0003509
 8,0.04664926,-0.05999350,0.03251875,0.00178216,0.00158730,-0.00247547,
 -0.23652763,-0.08105088,-0.03449444,0.59585780,0.02708173,0.00166726,0
 .01486738,-0.01832057,-0.00561268,-0.00668799,-0.00055719,0.00025782,-
 0.00067260,-0.01005135,-0.04665743,0.01405167,0.00089501,-0.00350919,0
 .00383910,-0.14858133,-0.22251146,0.00011784,0.04373285,0.69976960,-0.
 00814208,0.02996367,0.00659599,-0.01521967,-0.00351650,-0.01061692,0.0
 0024314,-0.00076297,-0.00102481,0.01658624,-0.00316712,0.01481504,-0.0
 0222211,0.00408365,0.00530974,-0.01303911,0.02344803,-0.07423159,0.148
 58639,-0.16724868,0.23734144,-0.00422550,0.00192285,-0.00380457,-0.001
 07715,-0.00098722,-0.00002190,0.00001907,0.00023496,0.00060897,-0.0020
 9648,-0.00374372,-0.00254090,0.00025171,-0.00118312,0.00032877,0.00776
 653,-0.02168687,0.00838645,-0.05960250,0.03570996,-0.01938182,0.058509
 59,0.00185575,0.00136792,0.00181245,-0.00004290,0.00070019,-0.00028496
 ,0.00023481,-0.00024594,-0.00046108,-0.00449059,0.00041878,0.00108051,
 0.00032881,-0.00071931,0.00048693,0.00540893,-0.01360053,0.00741238,0.
 03721946,-0.29913970,0.09724033,-0.03678087,0.31526580,-0.00387647,0.0
 0198000,0.00304041,-0.00037439,-0.00067464,-0.00007133,0.00059509,-0.0
 0046301,-0.00157329,-0.00225127,0.00125968,0.00740877,-0.00016151,-0.0
 0005202,0.00039242,-0.00021839,-0.00194802,0.00414811,-0.01997311,0.09
 672319,-0.07483302,0.02328997,-0.10615547,0.06665876,-0.10974910,0.057
 68929,-0.03782877,0.04126536,-0.01351265,0.02039045,0.00072918,-0.0027
 2650,-0.00250838,-0.03311202,0.03639870,-0.01995432,-0.00016340,0.0009
 9608,-0.00069967,-0.05356793,-0.06002361,-0.00259090,-0.25104365,0.097
 93547,-0.09628919,-0.00013146,-0.00343832,0.00024716,0.46470250,0.0467
 6254,-0.23498272,0.07274359,-0.04356206,-0.05195496,0.00007468,-0.0060
 9755,-0.00171929,0.00183765,0.02929541,-0.03541072,0.01853239,0.002308
 10,-0.00021675,0.00109441,0.00746414,0.05433559,-0.01205943,0.02880018
 ,-0.12136634,0.02780171,0.02388232,-0.00535850,0.01084517,-0.08726703,
 0.42007857,-0.03452768,0.07630608,-0.08968720,0.02979623,0.01042702,0.
 00301323,-0.00142833,0.00296835,0.00898987,-0.01756871,0.02095585,-0.0
 2207833,-0.00103433,0.00065825,0.00015270,-0.02389746,-0.03535354,0.01
 157086,-0.07416895,0.05203749,-0.10910434,-0.00869756,0.00140606,-0.00
 053940,0.14656775,-0.12360208,0.21501012,-0.00015919,-0.00012497,0.000
 94033,0.00231037,0.00045706,-0.00174461,-0.00020704,-0.00006339,-0.000
 13033,-0.00046508,-0.00160506,-0.00074212,0.00011678,0.00081970,0.0011
 7845,-0.27924034,0.05975781,-0.10429036,-0.01530129,0.00833714,-0.0090
 8535,0.00042680,0.00037973,0.00159358,0.00057868,-0.00343803,-0.001379
 09,0.29343697,-0.00010313,-0.00068624,-0.00069708,-0.00094322,-0.00448
 851,0.00334241,0.00136877,-0.00047518,0.00068706,0.02659948,-0.0008473
 3,0.01054025,-0.00020693,0.00071960,-0.00160534,0.06007473,-0.07323704
 ,0.03327466,-0.01989423,0.00881165,-0.00875701,0.00120871,0.00046484,-
 0.00116722,-0.00280285,-0.00081400,0.00175594,-0.06378089,0.07126012,0
 .00096104,-0.00063918,-0.00218400,-0.00132091,0.00382235,0.00517836,-0
 .00059821,0.00020499,-0.00004634,-0.00980689,0.00063841,-0.00043851,0.
 00149626,-0.00125166,-0.00309677,-0.10435029,0.03329346,-0.08209492,-0
 .00011928,0.00100436,0.00273682,0.00132972,-0.00146189,-0.00354951,-0.
 00152807,0.00148235,0.00667413,0.11406190,-0.03714309,0.07660596,0.009
 41522,-0.02525120,0.01079531,0.00168357,0.00060724,-0.00243153,-0.0002
 6348,-0.00035309,-0.00005121,-0.00088596,-0.00205354,0.00087048,-0.000
 44498,-0.00006318,0.00042245,-0.00232101,0.00633801,-0.00454026,-0.034
 09602,-0.03618172,-0.00203642,0.00015938,-0.00067479,0.00112934,-0.059
 50817,0.00185199,-0.01366188,-0.00149666,-0.00152044,-0.00012527,0.087
 75812,-0.01792098,-0.05181299,0.01002307,0.00063579,-0.00002604,0.0026
 0710,-0.00097975,-0.00099631,0.00004295,-0.00244085,-0.00143896,-0.000
 74369,-0.00068006,-0.00004082,-0.00068954,-0.00217910,0.00324155,-0.00
 040629,-0.01117112,-0.01170953,0.00091488,0.00142300,0.00084644,-0.000
 34767,-0.02324859,-0.02259087,-0.00755942,-0.00073909,-0.00070791,0.00
 004989,0.05730074,0.08523545,0.00862971,0.00745593,0.00105060,-0.00244
 426,0.00283708,0.00607419,0.00013491,0.00021949,0.00014612,0.00089775,
 -0.00074491,-0.00076587,0.00055660,-0.00051319,-0.00118411,-0.00177760
 ,0.00272493,0.00309345,-0.00992050,-0.00803178,0.00301164,0.00050287,-
 0.00107526,-0.00108192,-0.00580606,0.00124957,-0.02400163,-0.00040240,
 -0.00023057,0.00021479,0.00962899,-0.00389129,0.01344273\\0.00000235,0
 .00001285,0.00001240,-0.00002004,0.00001276,0.00005277,-0.00002560,0.0
 0003096,0.00009269,-0.00001279,0.00001220,0.00004458,-0.00002177,0.000
 02032,0.00007738,0.00000145,-0.00000450,-0.00000565,0.00001214,-0.0000
 1680,-0.00004692,0.00002419,-0.00002862,-0.00008628,0.00001274,-0.0000
 0554,-0.00003516,0.00000298,-0.00000989,-0.00001254,0.00002435,-0.0000
 2376,-0.00009329\\\@
 The archive entry for this job was punched.


 The earth never tires,
 The earth is rude, silent, incomprehensible at first,
 Nature is rude and incomprehensible at first,
 Be not discouraged, keep on,
 There are divine things well envelop'd,
 I swear to you there are divine things more beautiful than words can tell.
                                 -- Walt Whitman
 Job cpu time:       0 days  0 hours 16 minutes 13.8 seconds.
 Elapsed time:       0 days  0 hours  0 minutes 32.7 seconds.
 File lengths (MBytes):  RWF=     70 Int=      0 D2E=      0 Chk=     10 Scr=      1
 Normal termination of Gaussian 16 at Fri May 30 05:11:59 2025.
