/home/tahminaafroz
cn013.cluster.local
tahminaafroz
Fri May 30 05:22:44 CDT 2025
 Entering Gaussian System, Link 0=g16
 Initial command:
 /home/apps/g16/l1.exe "/tmp/2-6-diisopropyl-ph-anion-opt-freq-2-thf/Gau-1785657.inp" -scrdir="/tmp/2-6-diisopropyl-ph-anion-opt-freq-2-thf/"
 Entering Link 1 = /home/apps/g16/l1.exe PID=   1785658.
  
 Copyright (c) 1988-2019, Gaussian, Inc.  All Rights Reserved.
  
 This is part of the Gaussian(R) 16 program.  It is based on
 the Gaussian(R) 09 system (copyright 2009, Gaussian, Inc.),
 the Gaussian(R) 03 system (copyright 2003, Gaussian, Inc.),
 the Gaussian(R) 98 system (copyright 1998, Gaussian, Inc.),
 the Gaussian(R) 94 system (copyright 1995, Gaussian, Inc.),
 the Gaussian 92(TM) system (copyright 1992, Gaussian, Inc.),
 the Gaussian 90(TM) system (copyright 1990, Gaussian, Inc.),
 the Gaussian 88(TM) system (copyright 1988, Gaussian, Inc.),
 the Gaussian 86(TM) system (copyright 1986, Carnegie Mellon
 University), and the Gaussian 82(TM) system (copyright 1983,
 Carnegie Mellon University). Gaussian is a federally registered
 trademark of Gaussian, Inc.
  
 This software contains proprietary and confidential information,
 including trade secrets, belonging to Gaussian, Inc.
  
 This software is provided under written license and may be
 used, copied, transmitted, or stored only in accord with that
 written license.
  
 The following legend is applicable only to US Government
 contracts under FAR:
  
                    RESTRICTED RIGHTS LEGEND
  
 Use, reproduction and disclosure by the US Government is
 subject to restrictions as set forth in subparagraphs (a)
 and (c) of the Commercial Computer Software - Restricted
 Rights clause in FAR 52.227-19.
  
 Gaussian, Inc.
 340 Quinnipiac St., Bldg. 40, Wallingford CT 06492
  
  
 ---------------------------------------------------------------
 Warning -- This program may not be used in any manner that
 competes with the business of Gaussian, Inc. or will provide
 assistance to any competitor of Gaussian, Inc.  The licensee
 of this program is prohibited from giving any competitor of
 Gaussian, Inc. access to this program.  By using this program,
 the user acknowledges that Gaussian, Inc. is engaged in the
 business of creating and licensing software in the field of
 computational chemistry and represents and warrants to the
 licensee that it is not a competitor of Gaussian, Inc. and that
 it will not use this program in any manner prohibited above.
 ---------------------------------------------------------------
  

 Cite this work as:
 Gaussian 16, Revision C.01,
 M. J. Frisch, G. W. Trucks, H. B. Schlegel, G. E. Scuseria, 
 M. A. Robb, J. R. Cheeseman, G. Scalmani, V. Barone, 
 G. A. Petersson, H. Nakatsuji, X. Li, M. Caricato, A. V. Marenich, 
 J. Bloino, B. G. Janesko, R. Gomperts, B. Mennucci, H. P. Hratchian, 
 J. V. Ortiz, A. F. Izmaylov, J. L. Sonnenberg, D. Williams-Young, 
 F. Ding, F. Lipparini, F. Egidi, J. Goings, B. Peng, A. Petrone, 
 T. Henderson, D. Ranasinghe, V. G. Zakrzewski, J. Gao, N. Rega, 
 G. Zheng, W. Liang, M. Hada, M. Ehara, K. Toyota, R. Fukuda, 
 J. Hasegawa, M. Ishida, T. Nakajima, Y. Honda, O. Kitao, H. Nakai, 
 T. Vreven, K. Throssell, J. A. Montgomery, Jr., J. E. Peralta, 
 F. Ogliaro, M. J. Bearpark, J. J. Heyd, E. N. Brothers, K. N. Kudin, 
 V. N. Staroverov, T. A. Keith, R. Kobayashi, J. Normand, 
 K. Raghavachari, A. P. Rendell, J. C. Burant, S. S. Iyengar, 
 J. Tomasi, M. Cossi, J. M. Millam, M. Klene, C. Adamo, R. Cammi, 
 J. W. Ochterski, R. L. Martin, K. Morokuma, O. Farkas, 
 J. B. Foresman, and D. J. Fox, Gaussian, Inc., Wallingford CT, 2019.
 
 ******************************************
 Gaussian 16:  AS64L-G16RevC.01  3-Jul-2019
                30-May-2025 
 ******************************************
 %mem=20GB
 %nprocshared=32
 Will use up to   32 processors via shared memory.
 %chk=2-6-diisopropyl-ph-anion-opt-freq-2-thf.chk
 ----------------------------------------------------------------------
 # opt=(calcfc,tight) freq 6-311+g(d,p) scrf=(smd,solvent=thf) nosymm s
 cf=(qc,fermi,xqc) geom=connectivity int=ultrafine m062x
 ----------------------------------------------------------------------
 1/7=10,10=4,18=20,19=15,26=6,38=1,57=2/1,3;
 2/9=110,12=2,15=1,17=6,18=5,40=1/2;
 3/5=4,6=6,7=111,11=2,25=1,30=1,70=32201,71=2,72=20,74=-55,75=-5,140=1/1,2,3;
 4//1;
 5/5=2,22=13,38=5,53=20/2;
 8/6=4,10=90,11=11/1;
 11/6=1,8=1,9=11,15=111,16=1,31=1/1,2,10;
 10/6=1,13=1,31=1/2;
 6/7=2,8=2,9=2,10=2,28=1/1;
 7/10=1,25=1,30=1/1,2,3,16;
 1/7=10,10=4,18=20,19=15,26=6/3(2);
 2/9=110,15=1/2;
 99//99;
 2/9=110,15=1/2;
 3/5=4,6=6,7=111,11=2,25=1,30=1,70=32205,71=1,72=20,74=-55,75=-5/1,2,3;
 4/5=5,16=3,69=1/1;
 5/5=2,22=13,38=5,53=20/2;
 7/30=1/1,2,3,16;
 1/7=10,18=20,19=15,26=6/3(-5);
 2/9=110,15=1/2;
 6/7=2,8=2,9=2,10=2,19=2,28=1/1;
 99/9=1/99;
 ---------------------------------------
 2-6-diisopropyl-ph-anion-opt-freq-2-thf
 ---------------------------------------
 Symbolic Z-matrix:
 Charge = -1 Multiplicity = 1
 C                     6.20086   6.98876   5.16477 
 C                     5.06358   6.51546   5.78002 
 C                     3.8582    6.87537   5.15905 
 H                     2.91524   6.54243   5.58249 
 C                     3.86303   7.65561   4.00486 
 C                     5.0586    8.09601   3.44143 
 H                     5.04088   8.70336   2.54128 
 C                     6.28806   7.76069   4.02793 
 H                     2.92203   7.92389   3.53771 
 C                     7.61397   8.22185   3.45191 
 H                     8.40225   7.79689   4.08035 
 C                     5.10656   5.67515   7.04283 
 H                     6.1611    5.50653   7.28033 
 C                     7.72865   9.74855   3.49963 
 H                     8.70453   10.06872   3.12495 
 H                     6.95888   10.2139   2.877 
 H                     7.61238   10.12251   4.51965 
 C                     7.80434   7.70677   2.02246 
 H                     7.04149   8.11946   1.35593 
 H                     8.78328   8.0059    1.63867 
 H                     7.73755   6.61696   1.98191 
 C                     4.43547   4.31573   6.82757 
 H                     4.8978    3.77221   6.00015 
 H                     4.51905   3.70449   7.73002 
 H                     3.37217   4.43854   6.60233 
 C                     4.46052   6.42109   8.21451 
 H                     3.40083   6.60714   8.01628 
 H                     4.53381   5.82843   9.13025 
 H                     4.94772   7.38364   8.38758 
 

 GradGradGradGradGradGradGradGradGradGradGradGradGradGradGradGradGradGrad
 Berny optimization.
 Initialization pass.
                           ----------------------------
                           !    Initial Parameters    !
                           ! (Angstroms and Degrees)  !
 --------------------------                            --------------------------
 ! Name  Definition              Value          Derivative Info.                !
 --------------------------------------------------------------------------------
 ! R1    R(1,2)                  1.3769         calculate D2E/DX2 analytically  !
 ! R2    R(1,8)                  1.3769         calculate D2E/DX2 analytically  !
 ! R3    R(2,3)                  1.4029         calculate D2E/DX2 analytically  !
 ! R4    R(2,12)                 1.5174         calculate D2E/DX2 analytically  !
 ! R5    R(3,4)                  1.086          calculate D2E/DX2 analytically  !
 ! R6    R(3,5)                  1.3932         calculate D2E/DX2 analytically  !
 ! R7    R(5,6)                  1.3931         calculate D2E/DX2 analytically  !
 ! R8    R(5,9)                  1.0843         calculate D2E/DX2 analytically  !
 ! R9    R(6,7)                  1.086          calculate D2E/DX2 analytically  !
 ! R10   R(6,8)                  1.4029         calculate D2E/DX2 analytically  !
 ! R11   R(8,10)                 1.5174         calculate D2E/DX2 analytically  !
 ! R12   R(10,11)                1.094          calculate D2E/DX2 analytically  !
 ! R13   R(10,14)                1.5318         calculate D2E/DX2 analytically  !
 ! R14   R(10,18)                1.5313         calculate D2E/DX2 analytically  !
 ! R15   R(12,13)                1.094          calculate D2E/DX2 analytically  !
 ! R16   R(12,22)                1.5313         calculate D2E/DX2 analytically  !
 ! R17   R(12,26)                1.5319         calculate D2E/DX2 analytically  !
 ! R18   R(14,15)                1.0933         calculate D2E/DX2 analytically  !
 ! R19   R(14,16)                1.094          calculate D2E/DX2 analytically  !
 ! R20   R(14,17)                1.0926         calculate D2E/DX2 analytically  !
 ! R21   R(18,19)                1.0939         calculate D2E/DX2 analytically  !
 ! R22   R(18,20)                1.0932         calculate D2E/DX2 analytically  !
 ! R23   R(18,21)                1.0926         calculate D2E/DX2 analytically  !
 ! R24   R(22,23)                1.0926         calculate D2E/DX2 analytically  !
 ! R25   R(22,24)                1.0932         calculate D2E/DX2 analytically  !
 ! R26   R(22,25)                1.0938         calculate D2E/DX2 analytically  !
 ! R27   R(26,27)                1.094          calculate D2E/DX2 analytically  !
 ! R28   R(26,28)                1.0932         calculate D2E/DX2 analytically  !
 ! R29   R(26,29)                1.0926         calculate D2E/DX2 analytically  !
 ! A1    A(2,1,8)              127.8745         calculate D2E/DX2 analytically  !
 ! A2    A(1,2,3)              115.0683         calculate D2E/DX2 analytically  !
 ! A3    A(1,2,12)             122.6018         calculate D2E/DX2 analytically  !
 ! A4    A(3,2,12)             122.3284         calculate D2E/DX2 analytically  !
 ! A5    A(2,3,4)              119.6577         calculate D2E/DX2 analytically  !
 ! A6    A(2,3,5)              120.4915         calculate D2E/DX2 analytically  !
 ! A7    A(4,3,5)              119.8508         calculate D2E/DX2 analytically  !
 ! A8    A(3,5,6)              121.0029         calculate D2E/DX2 analytically  !
 ! A9    A(3,5,9)              119.5046         calculate D2E/DX2 analytically  !
 ! A10   A(6,5,9)              119.4925         calculate D2E/DX2 analytically  !
 ! A11   A(5,6,7)              119.8683         calculate D2E/DX2 analytically  !
 ! A12   A(5,6,8)              120.4954         calculate D2E/DX2 analytically  !
 ! A13   A(7,6,8)              119.6363         calculate D2E/DX2 analytically  !
 ! A14   A(1,8,6)              115.0673         calculate D2E/DX2 analytically  !
 ! A15   A(1,8,10)             122.6254         calculate D2E/DX2 analytically  !
 ! A16   A(6,8,10)             122.3068         calculate D2E/DX2 analytically  !
 ! A17   A(8,10,11)            107.0668         calculate D2E/DX2 analytically  !
 ! A18   A(8,10,14)            110.8858         calculate D2E/DX2 analytically  !
 ! A19   A(8,10,18)            111.1471         calculate D2E/DX2 analytically  !
 ! A20   A(11,10,14)           108.3798         calculate D2E/DX2 analytically  !
 ! A21   A(11,10,18)           108.421          calculate D2E/DX2 analytically  !
 ! A22   A(14,10,18)           110.7953         calculate D2E/DX2 analytically  !
 ! A23   A(2,12,13)            107.0563         calculate D2E/DX2 analytically  !
 ! A24   A(2,12,22)            111.2367         calculate D2E/DX2 analytically  !
 ! A25   A(2,12,26)            110.7888         calculate D2E/DX2 analytically  !
 ! A26   A(13,12,22)           108.429          calculate D2E/DX2 analytically  !
 ! A27   A(13,12,26)           108.392          calculate D2E/DX2 analytically  !
 ! A28   A(22,12,26)           110.7932         calculate D2E/DX2 analytically  !
 ! A29   A(10,14,15)           110.3676         calculate D2E/DX2 analytically  !
 ! A30   A(10,14,16)           110.7054         calculate D2E/DX2 analytically  !
 ! A31   A(10,14,17)           111.2381         calculate D2E/DX2 analytically  !
 ! A32   A(15,14,16)           107.9673         calculate D2E/DX2 analytically  !
 ! A33   A(15,14,17)           108.3427         calculate D2E/DX2 analytically  !
 ! A34   A(16,14,17)           108.1116         calculate D2E/DX2 analytically  !
 ! A35   A(10,18,19)           110.8066         calculate D2E/DX2 analytically  !
 ! A36   A(10,18,20)           110.3048         calculate D2E/DX2 analytically  !
 ! A37   A(10,18,21)           111.2568         calculate D2E/DX2 analytically  !
 ! A38   A(19,18,20)           107.8996         calculate D2E/DX2 analytically  !
 ! A39   A(19,18,21)           108.1233         calculate D2E/DX2 analytically  !
 ! A40   A(20,18,21)           108.3384         calculate D2E/DX2 analytically  !
 ! A41   A(12,22,23)           111.262          calculate D2E/DX2 analytically  !
 ! A42   A(12,22,24)           110.2942         calculate D2E/DX2 analytically  !
 ! A43   A(12,22,25)           110.812          calculate D2E/DX2 analytically  !
 ! A44   A(23,22,24)           108.341          calculate D2E/DX2 analytically  !
 ! A45   A(23,22,25)           108.1354         calculate D2E/DX2 analytically  !
 ! A46   A(24,22,25)           107.8846         calculate D2E/DX2 analytically  !
 ! A47   A(12,26,27)           110.6538         calculate D2E/DX2 analytically  !
 ! A48   A(12,26,28)           110.3918         calculate D2E/DX2 analytically  !
 ! A49   A(12,26,29)           111.2282         calculate D2E/DX2 analytically  !
 ! A50   A(27,26,28)           107.9928         calculate D2E/DX2 analytically  !
 ! A51   A(27,26,29)           108.1071         calculate D2E/DX2 analytically  !
 ! A52   A(28,26,29)           108.3606         calculate D2E/DX2 analytically  !
 ! D1    D(8,1,2,3)             -0.0784         calculate D2E/DX2 analytically  !
 ! D2    D(8,1,2,12)          -179.6276         calculate D2E/DX2 analytically  !
 ! D3    D(2,1,8,6)              0.0752         calculate D2E/DX2 analytically  !
 ! D4    D(2,1,8,10)           179.8241         calculate D2E/DX2 analytically  !
 ! D5    D(1,2,3,4)           -179.9588         calculate D2E/DX2 analytically  !
 ! D6    D(1,2,3,5)              0.0438         calculate D2E/DX2 analytically  !
 ! D7    D(12,2,3,4)            -0.4083         calculate D2E/DX2 analytically  !
 ! D8    D(12,2,3,5)           179.5944         calculate D2E/DX2 analytically  !
 ! D9    D(1,2,12,13)           -3.1108         calculate D2E/DX2 analytically  !
 ! D10   D(1,2,12,22)         -121.4047         calculate D2E/DX2 analytically  !
 ! D11   D(1,2,12,26)          114.8904         calculate D2E/DX2 analytically  !
 ! D12   D(3,2,12,13)          177.3724         calculate D2E/DX2 analytically  !
 ! D13   D(3,2,12,22)           59.0785         calculate D2E/DX2 analytically  !
 ! D14   D(3,2,12,26)          -64.6263         calculate D2E/DX2 analytically  !
 ! D15   D(2,3,5,6)             -0.0155         calculate D2E/DX2 analytically  !
 ! D16   D(2,3,5,9)            179.9604         calculate D2E/DX2 analytically  !
 ! D17   D(4,3,5,6)            179.9871         calculate D2E/DX2 analytically  !
 ! D18   D(4,3,5,9)             -0.037          calculate D2E/DX2 analytically  !
 ! D19   D(3,5,6,7)            179.9958         calculate D2E/DX2 analytically  !
 ! D20   D(3,5,6,8)              0.012          calculate D2E/DX2 analytically  !
 ! D21   D(9,5,6,7)              0.0199         calculate D2E/DX2 analytically  !
 ! D22   D(9,5,6,8)           -179.9639         calculate D2E/DX2 analytically  !
 ! D23   D(5,6,8,1)             -0.0373         calculate D2E/DX2 analytically  !
 ! D24   D(5,6,8,10)          -179.787          calculate D2E/DX2 analytically  !
 ! D25   D(7,6,8,1)            179.979          calculate D2E/DX2 analytically  !
 ! D26   D(7,6,8,10)             0.2292         calculate D2E/DX2 analytically  !
 ! D27   D(1,8,10,11)            1.9938         calculate D2E/DX2 analytically  !
 ! D28   D(1,8,10,14)         -116.0524         calculate D2E/DX2 analytically  !
 ! D29   D(1,8,10,18)          120.2343         calculate D2E/DX2 analytically  !
 ! D30   D(6,8,10,11)         -178.2753         calculate D2E/DX2 analytically  !
 ! D31   D(6,8,10,14)           63.6785         calculate D2E/DX2 analytically  !
 ! D32   D(6,8,10,18)          -60.0348         calculate D2E/DX2 analytically  !
 ! D33   D(8,10,14,15)         177.4342         calculate D2E/DX2 analytically  !
 ! D34   D(8,10,14,16)         -63.0877         calculate D2E/DX2 analytically  !
 ! D35   D(8,10,14,17)          57.1406         calculate D2E/DX2 analytically  !
 ! D36   D(11,10,14,15)         60.1891         calculate D2E/DX2 analytically  !
 ! D37   D(11,10,14,16)        179.6672         calculate D2E/DX2 analytically  !
 ! D38   D(11,10,14,17)        -60.1045         calculate D2E/DX2 analytically  !
 ! D39   D(18,10,14,15)        -58.6512         calculate D2E/DX2 analytically  !
 ! D40   D(18,10,14,16)         60.8269         calculate D2E/DX2 analytically  !
 ! D41   D(18,10,14,17)       -178.9448         calculate D2E/DX2 analytically  !
 ! D42   D(8,10,18,19)          63.312          calculate D2E/DX2 analytically  !
 ! D43   D(8,10,18,20)        -177.27           calculate D2E/DX2 analytically  !
 ! D44   D(8,10,18,21)         -57.0114         calculate D2E/DX2 analytically  !
 ! D45   D(11,10,18,19)       -179.2683         calculate D2E/DX2 analytically  !
 ! D46   D(11,10,18,20)        -59.8503         calculate D2E/DX2 analytically  !
 ! D47   D(11,10,18,21)         60.4083         calculate D2E/DX2 analytically  !
 ! D48   D(14,10,18,19)        -60.4529         calculate D2E/DX2 analytically  !
 ! D49   D(14,10,18,20)         58.9651         calculate D2E/DX2 analytically  !
 ! D50   D(14,10,18,21)        179.2237         calculate D2E/DX2 analytically  !
 ! D51   D(2,12,22,23)          56.9204         calculate D2E/DX2 analytically  !
 ! D52   D(2,12,22,24)         177.1786         calculate D2E/DX2 analytically  !
 ! D53   D(2,12,22,25)         -63.4255         calculate D2E/DX2 analytically  !
 ! D54   D(13,12,22,23)        -60.5431         calculate D2E/DX2 analytically  !
 ! D55   D(13,12,22,24)         59.7151         calculate D2E/DX2 analytically  !
 ! D56   D(13,12,22,25)        179.111          calculate D2E/DX2 analytically  !
 ! D57   D(26,12,22,23)       -179.3773         calculate D2E/DX2 analytically  !
 ! D58   D(26,12,22,24)        -59.1191         calculate D2E/DX2 analytically  !
 ! D59   D(26,12,22,25)         60.2769         calculate D2E/DX2 analytically  !
 ! D60   D(2,12,26,27)          62.968          calculate D2E/DX2 analytically  !
 ! D61   D(2,12,26,28)        -177.5395         calculate D2E/DX2 analytically  !
 ! D62   D(2,12,26,29)         -57.2136         calculate D2E/DX2 analytically  !
 ! D63   D(13,12,26,27)       -179.8476         calculate D2E/DX2 analytically  !
 ! D64   D(13,12,26,28)        -60.355          calculate D2E/DX2 analytically  !
 ! D65   D(13,12,26,29)         59.9708         calculate D2E/DX2 analytically  !
 ! D66   D(22,12,26,27)        -60.9911         calculate D2E/DX2 analytically  !
 ! D67   D(22,12,26,28)         58.5015         calculate D2E/DX2 analytically  !
 ! D68   D(22,12,26,29)        178.8273         calculate D2E/DX2 analytically  !
 --------------------------------------------------------------------------------
 Trust Radius=3.00D-01 FncErr=5.00D-06 GrdErr=5.00D-06 EigMax=2.50D+02 EigMin=1.00D-04
 Number of steps in this run=    159 maximum allowed number of steps=    174.
 GradGradGradGradGradGradGradGradGradGradGradGradGradGradGradGradGradGrad

                          Input orientation:                          
 ---------------------------------------------------------------------
 Center     Atomic      Atomic             Coordinates (Angstroms)
 Number     Number       Type             X           Y           Z
 ---------------------------------------------------------------------
      1          6           0        6.200860    6.988756    5.164769
      2          6           0        5.063575    6.515457    5.780023
      3          6           0        3.858196    6.875374    5.159048
      4          1           0        2.915240    6.542434    5.582485
      5          6           0        3.863027    7.655606    4.004864
      6          6           0        5.058599    8.096014    3.441428
      7          1           0        5.040881    8.703361    2.541281
      8          6           0        6.288064    7.760687    4.027926
      9          1           0        2.922027    7.923888    3.537705
     10          6           0        7.613974    8.221846    3.451908
     11          1           0        8.402249    7.796889    4.080353
     12          6           0        5.106557    5.675153    7.042829
     13          1           0        6.161103    5.506533    7.280330
     14          6           0        7.728652    9.748554    3.499626
     15          1           0        8.704526   10.068719    3.124952
     16          1           0        6.958878   10.213900    2.876996
     17          1           0        7.612383   10.122508    4.519648
     18          6           0        7.804340    7.706774    2.022464
     19          1           0        7.041488    8.119456    1.355933
     20          1           0        8.783278    8.005896    1.638666
     21          1           0        7.737550    6.616959    1.981914
     22          6           0        4.435466    4.315726    6.827570
     23          1           0        4.897804    3.772211    6.000152
     24          1           0        4.519048    3.704486    7.730023
     25          1           0        3.372165    4.438540    6.602334
     26          6           0        4.460522    6.421085    8.214509
     27          1           0        3.400828    6.607135    8.016278
     28          1           0        4.533806    5.828431    9.130251
     29          1           0        4.947720    7.383638    8.387582
 ---------------------------------------------------------------------
                    Distance matrix (angstroms):
                    1          2          3          4          5
     1  C    0.000000
     2  C    1.376941   0.000000
     3  C    2.345413   1.402886   0.000000
     4  H    3.342004   2.157566   1.085962   0.000000
     5  C    2.693609   2.427436   1.393171   2.150893   0.000000
     6  C    2.345354   2.822625   2.425108   3.404662   1.393130
     7  H    3.341872   3.908566   3.404847   4.293818   2.151094
     8  C    1.376915   2.473826   2.822672   3.908547   2.427422
     9  H    3.777904   3.405568   2.145821   2.467709   1.084294
    10  C    2.539940   3.851807   4.339721   5.425669   3.833535
    11  H    2.583631   3.959506   4.760377   5.825575   4.542048
    12  C    2.539717   1.517444   2.558821   2.772481   3.833770
    13  H    2.583440   2.115045   3.417154   3.806757   4.541844
    14  C    3.566978   4.770300   5.097968   6.147068   4.424789
    15  H    4.462664   5.738606   6.149952   7.210408   5.480645
    16  H    4.026171   5.069341   5.095856   6.095108   4.171480
    17  H    3.496996   4.593015   5.004661   6.000809   4.517552
    18  C    3.600108   4.801071   5.108957   6.158956   4.412083
    19  H    4.061080   5.104657   5.113196   6.113646   4.163485
    20  H    4.487411   5.762676   6.158539   7.220062   5.470874
    21  H    3.553901   4.646082   5.020991   6.018666   4.492554
    22  C    3.609240   2.516087   3.109502   2.969773   4.410233
    23  H    3.569591   2.757052   3.379033   3.432075   4.486947
    24  H    4.493935   3.464184   4.135356   3.903597   5.469783
    25  H    4.070837   2.801901   2.873580   2.382277   4.163810
    26  C    3.556957   2.509841   3.147224   3.054533   4.427432
    27  H    4.014588   2.788184   2.906011   2.482606   4.171854
    28  H    4.455387   3.460735   4.162090   3.964366   5.482527
    29  H    3.480347   2.750732   3.445116   3.564712   4.523134
                    6          7          8          9         10
     6  C    0.000000
     7  H    1.086024   0.000000
     8  C    1.402857   2.157363   0.000000
     9  H    2.145655   2.467789   3.405460   0.000000
    10  C    2.558493   2.771625   1.517400   4.702181   0.000000
    11  H    3.417264   3.806472   2.115145   5.508487   1.094033
    12  C    4.339696   5.425707   3.851630   4.702645   5.066310
    13  H    4.760052   5.825220   3.959225   5.508399   4.913306
    14  C    3.140614   3.038909   2.511177   5.141449   1.531752
    15  H    4.157464   3.953121   3.461454   6.181259   2.169595
    16  H    2.900877   2.464375   2.791574   4.687948   2.174386
    17  H    3.433810   3.541262   2.752056   5.272341   2.180043
    18  C    3.115134   2.983130   2.514732   5.116647   1.531290
    19  H    2.877792   2.397587   2.799269   4.665655   2.175163
    20  H    4.138998   3.912379   3.463349   6.161764   2.168353
    21  H    3.390363   3.455139   2.755955   5.226644   2.179866
    22  C    5.113202   6.163614   4.810185   5.112000   6.062655
    23  H    5.026748   6.024990   4.661592   5.215723   5.802618
    24  H    6.161873   7.223857   5.769550   6.158682   6.948912
    25  H    5.119815   6.120904   5.115340   4.662856   6.498579
    26  C    5.093661   6.142566   4.760454   5.147609   5.989104
    27  H    5.088636   6.087654   5.057051   4.692622   6.418050
    28  H    6.146548   7.206724   5.731034   6.185899   6.889082
    29  H    4.998421   5.994129   4.576602   5.283617   5.672070
                   11         12         13         14         15
    11  H    0.000000
    12  C    4.913208   0.000000
    13  H    4.528611   1.094032   0.000000
    14  C    2.144755   6.001855   5.894546   0.000000
    15  H    2.483017   6.899171   6.674557   1.093259   0.000000
    16  H    3.061589   6.433155   6.495006   1.093968   1.769137
    17  H    2.495070   5.694258   5.570889   1.092614   1.772243
    18  C    2.144883   6.050585   5.931816   2.521230   2.757644
    19  H    3.062382   6.485319   6.534594   2.778772   3.113639
    20  H    2.480061   6.939425   6.704550   2.759033   2.543715
    21  H    2.497500   5.781175   5.638390   3.480002   3.762476
    22  C    5.949879   1.531255   2.144956   7.171883   8.064191
    23  H    5.671402   2.179895   2.498530   7.069866   7.899615
    24  H    6.719159   2.168163   2.479101   8.045407   8.901032
    25  H    6.552911   2.175170   3.062428   7.536712   8.498540
    26  C    5.875482   1.531865   2.145011   6.631956   7.564416
    27  H    6.474661   2.173869   3.061382   6.999909   8.002303
    28  H    6.658915   2.169993   2.484738   7.568246   8.452134
    29  H    5.536855   2.180025   2.494359   6.100699   7.001323
                   16         17         18         19         20
    16  H    0.000000
    17  H    1.770234   0.000000
    18  C    2.780416   3.479734   0.000000
    19  H    2.589817   3.787774   1.093852   0.000000
    20  H    3.120445   3.761795   1.093204   1.768238   0.000000
    21  H    3.787544   4.329507   1.092612   1.770269   1.772149
    22  C    7.534129   7.009852   6.777725   7.155314   7.710094
    23  H    7.449664   7.063080   6.304819   6.712875   7.214122
    24  H    8.478037   7.814489   7.706340   8.153753   8.590135
    25  H    7.752254   7.390840   7.162453   7.384971   8.163588
    26  C    7.008300   6.106288   7.153708   7.522361   8.027425
    27  H    7.216695   6.505495   7.518373   7.739620   8.461751
    28  H    8.013520   7.012446   8.046440   8.483943   8.883874
    29  H    6.513194   5.437164   6.984227   7.373560   7.787591
                   21         22         23         24         25
    21  H    0.000000
    22  C    6.299192   0.000000
    23  H    5.683572   1.092605   0.000000
    24  H    7.202917   1.093170   1.772145   0.000000
    25  H    6.719403   1.093811   1.770365   1.768010   0.000000
    26  C    7.044325   2.521262   3.480104   2.760084   2.777429
    27  H    7.431070   2.781017   3.787149   3.123736   2.588989
    28  H    7.873022   2.756862   3.762719   2.544012   3.109915
    29  H    7.028765   3.479673   4.329517   3.761955   3.787227
                   26         27         28         29
    26  C    0.000000
    27  H    1.094012   0.000000
    28  H    1.093249   1.769450   0.000000
    29  H    1.092623   1.770226   1.772442   0.000000
 Symmetry turned off by external request.
 Stoichiometry    C12H17(1-)
 Framework group  C1[X(C12H17)]
 Deg. of freedom    81
 Full point group                 C1      NOp   1
 Rotational constants (GHZ):           1.8581502           0.4807759           0.4564138
 Standard basis: 6-311+G(d,p) (5D, 7F)
   366 basis functions,   568 primitive gaussians,   378 cartesian basis functions
    45 alpha electrons       45 beta electrons
       nuclear repulsion energy       672.3434331329 Hartrees.
 NAtoms=   29 NActive=   29 NUniq=   29 SFac= 1.00D+00 NAtFMM=   60 NAOKFM=F Big=F
 Integral buffers will be    131072 words long.
 Raffenetti 2 integral format.
 Two-electron integral symmetry is turned off.
 Force inversion solution in PCM.
 ------------------------------------------------------------------------------
 Polarizable Continuum Model (PCM)
 =================================
 Model                : PCM.
 Atomic radii         : SMD-Coulomb.
 Polarization charges : Total charges.
 Charge compensation  : None.
 Solution method      : Matrix inversion.
 Cavity type          : VdW (van der Waals Surface) (Alpha=1.000).
 Cavity algorithm     : GePol (No added spheres)
                        Default sphere list used, NSphG=   29.
                        Lebedev-Laikov grids with approx.  5.0 points / Ang**2.
                        Smoothing algorithm: York/Karplus (Gamma=1.0000).
                        Polarization charges: spherical gaussians, with
                                              point-specific exponents (IZeta= 3).
                        Self-potential: point-specific (ISelfS= 7).
                        Self-field    : sphere-specific E.n sum rule (ISelfD= 2).
 1st derivatives      : Analytical E(r).r(x)/FMM algorithm (CHGder, D1EAlg=3).
                        Cavity 1st derivative terms included.
 2nd derivatives      : Analytical E(r).r(xy)/FMM algorithm (CHGder, D2EAlg=3).
                        Cavity 2nd derivative terms included.
 Solvent              : TetraHydroFuran, Eps=   7.425700 Eps(inf)=   1.974025
 ------------------------------------------------------------------------------
 ------------------------------------------------------------------------------
 Atomic radii for non-electrostatic terms: SMD-CDS.
 ------------------------------------------------------------------------------
 Nuclear repulsion after PCM non-electrostatic terms =      672.3390979190 Hartrees.
 One-electron integrals computed using PRISM.
 NBasis=   366 RedAO= T EigKep=  2.20D-06  NBF=   366
 NBsUse=   365 1.00D-06 EigRej=  5.43D-07 NBFU=   365
 ExpMin= 4.38D-02 ExpMax= 4.56D+03 ExpMxC= 6.82D+02 IAcc=3 IRadAn=         5 AccDes= 0.00D+00
 Harris functional with IExCor= 1009 and IRadAn=       5 diagonalized for initial guess.
 HarFok:  IExCor= 1009 AccDes= 0.00D+00 IRadAn=         5 IDoV= 1 UseB2=F ITyADJ=14
 ICtDFT=  3500011 ScaDFX=  1.000000  1.000000  1.000000  1.000000
 FoFCou: FMM=F IPFlag=           0 FMFlag=      100000 FMFlg1=           0
         NFxFlg=           0 DoJE=T BraDBF=F KetDBF=T FulRan=T
         wScrn=  0.000000 ICntrl=       500 IOpCl=  0 I1Cent=   200000004 NGrid=           0
         NMat0=    1 NMatS0=      1 NMatT0=    0 NMatD0=    1 NMtDS0=    0 NMtDT0=    0
 Symmetry not used in FoFCou.
 Requested convergence on RMS density matrix=1.00D-08 within 128 cycles.
 Requested convergence on MAX density matrix=1.00D-06.
 Requested convergence on             energy=1.00D-06.
 Level shift goal  0.100 maximum shift  0.100.
 No special actions if energy rises.
 Dynamic level shift is on during FON iterations.
 Inv3:  Mode=1 IEnd=    12941787.
 Iteration    1 A*A^-1 deviation from unit magnitude is 4.44D-15 for     68.
 Iteration    1 A*A^-1 deviation from orthogonality  is 2.14D-15 for   2060   2035.
 Iteration    1 A^-1*A deviation from unit magnitude is 4.55D-15 for   2077.
 Iteration    1 A^-1*A deviation from orthogonality  is 2.14D-15 for   2062   1860.
 Error on total polarization charges =  0.07215
 SCF Done:  E(RM062X) =  -467.459170059     A.U. after   16 cycles
            NFock= 16  Conv=0.28D-08     -V/T= 2.0042
 SMD-CDS (non-electrostatic) energy       (kcal/mol) =      -2.72
 (included in total energy above)
 DoSCS=F DFT=T ScalE2(SS,OS)=  1.000000  1.000000
 Range of M.O.s used for correlation:     1   365
 NBasis=   366 NAE=    45 NBE=    45 NFC=     0 NFV=     0
 NROrb=    365 NOA=    45 NOB=    45 NVA=   320 NVB=   320

 **** Warning!!: The largest alpha MO coefficient is  0.13574291D+03

 Symmetrizing basis deriv contribution to polar:
 IMax=3 JMax=2 DiffMx= 0.00D+00
 G2DrvN: will do    30 centers at a time, making    1 passes.
 Calling FoFCou, ICntrl=  3107 FMM=F I1Cent=   0 AccDes= 0.00D+00.
 NEqPCM:  Using equilibrium solvation (IEInf=0, Eps=   7.4257, EpsInf=   1.9740)
 G2PCM: DoFxE=T DoFxN=T DoGrad=T DoDP/DQ/DG/TGxP=FFFF NFrqRd=   0 IEInf=0 SqF1=F DoCFld=F IF1Alg=4.
 End of G2Drv F.D. properties file   721 does not exist.
 End of G2Drv F.D. properties file   722 does not exist.
 End of G2Drv F.D. properties file   788 does not exist.
          IDoAtm=11111111111111111111111111111
 NEqPCM:  Using equilibrium solvation (IEInf=0, Eps=   7.4257, EpsInf=   1.9740)
          Differentiating once with respect to nuclear coordinates.
 Keep R1 ints in memory in canonical form, NReq=2292359929.
          There are    90 degrees of freedom in the 1st order CPHF.  IDoFFX=6 NUNeed=     0.
     84 vectors produced by pass  0 Test12= 1.60D-14 1.11D-09 XBig12= 1.46D-01 8.03D-02.
 AX will form    84 AO Fock derivatives at one time.
     84 vectors produced by pass  1 Test12= 1.60D-14 1.11D-09 XBig12= 1.39D-02 2.86D-02.
     84 vectors produced by pass  2 Test12= 1.60D-14 1.11D-09 XBig12= 4.64D-04 2.56D-03.
     84 vectors produced by pass  3 Test12= 1.60D-14 1.11D-09 XBig12= 3.23D-06 2.68D-04.
     84 vectors produced by pass  4 Test12= 1.60D-14 1.11D-09 XBig12= 1.79D-08 1.36D-05.
     84 vectors produced by pass  5 Test12= 1.60D-14 1.11D-09 XBig12= 7.72D-11 9.19D-07.
     55 vectors produced by pass  6 Test12= 1.60D-14 1.11D-09 XBig12= 3.11D-13 5.99D-08.
     11 vectors produced by pass  7 Test12= 1.60D-14 1.11D-09 XBig12= 1.20D-15 2.78D-09.
 InvSVY:  IOpt=1 It=  1 EMax= 3.89D-16
 Solved reduced A of dimension   570 with    90 vectors.
 End of Minotr F.D. properties file   721 does not exist.
 End of Minotr F.D. properties file   722 does not exist.
 End of Minotr F.D. properties file   788 does not exist.

 **********************************************************************

            Population analysis using the SCF Density.

 **********************************************************************

 Alpha  occ. eigenvalues --  -10.50306 -10.50302 -10.49786 -10.49532 -10.49529
 Alpha  occ. eigenvalues --  -10.49527 -10.49526 -10.49495 -10.49483 -10.48848
 Alpha  occ. eigenvalues --  -10.48845 -10.42962  -0.91681  -0.87691  -0.85248
 Alpha  occ. eigenvalues --   -0.77636  -0.76789  -0.74672  -0.74665  -0.67101
 Alpha  occ. eigenvalues --   -0.63793  -0.61630  -0.57449  -0.52332  -0.50995
 Alpha  occ. eigenvalues --   -0.48429  -0.47665  -0.47344  -0.45133  -0.44508
 Alpha  occ. eigenvalues --   -0.44172  -0.42365  -0.42250  -0.41749  -0.40362
 Alpha  occ. eigenvalues --   -0.38750  -0.37676  -0.37308  -0.36094  -0.35522
 Alpha  occ. eigenvalues --   -0.34829  -0.32652  -0.25050  -0.24412  -0.16207
 Alpha virt. eigenvalues --    0.03461   0.04025   0.04682   0.05382   0.05625
 Alpha virt. eigenvalues --    0.05813   0.06264   0.06639   0.07006   0.07077
 Alpha virt. eigenvalues --    0.08243   0.08533   0.08573   0.08903   0.09554
 Alpha virt. eigenvalues --    0.10137   0.10201   0.11751   0.11904   0.12147
 Alpha virt. eigenvalues --    0.12951   0.13058   0.13321   0.14136   0.14307
 Alpha virt. eigenvalues --    0.14905   0.15944   0.16233   0.17124   0.18940
 Alpha virt. eigenvalues --    0.19025   0.19317   0.19635   0.21089   0.21182
 Alpha virt. eigenvalues --    0.21298   0.21616   0.22226   0.22516   0.23046
 Alpha virt. eigenvalues --    0.23859   0.23875   0.25333   0.25719   0.25876
 Alpha virt. eigenvalues --    0.26314   0.26672   0.27143   0.27376   0.27645
 Alpha virt. eigenvalues --    0.28024   0.28801   0.29503   0.29582   0.29939
 Alpha virt. eigenvalues --    0.30309   0.30792   0.30921   0.30983   0.31955
 Alpha virt. eigenvalues --    0.32398   0.32843   0.33408   0.33863   0.34588
 Alpha virt. eigenvalues --    0.34660   0.35402   0.35540   0.35763   0.35895
 Alpha virt. eigenvalues --    0.38532   0.39738   0.43667   0.43689   0.45762
 Alpha virt. eigenvalues --    0.46291   0.46788   0.47570   0.49218   0.49970
 Alpha virt. eigenvalues --    0.50541   0.54500   0.55136   0.55397   0.56143
 Alpha virt. eigenvalues --    0.56292   0.57402   0.58002   0.59882   0.60721
 Alpha virt. eigenvalues --    0.64086   0.64884   0.65017   0.65950   0.66568
 Alpha virt. eigenvalues --    0.68184   0.68583   0.68710   0.69289   0.69745
 Alpha virt. eigenvalues --    0.71281   0.71383   0.72551   0.72755   0.74169
 Alpha virt. eigenvalues --    0.74724   0.75634   0.75706   0.76440   0.76751
 Alpha virt. eigenvalues --    0.76858   0.77998   0.78324   0.79307   0.79454
 Alpha virt. eigenvalues --    0.80351   0.80891   0.81445   0.82196   0.83030
 Alpha virt. eigenvalues --    0.83348   0.83607   0.84652   0.85188   0.85602
 Alpha virt. eigenvalues --    0.86536   0.89721   0.92205   0.92263   0.92770
 Alpha virt. eigenvalues --    0.97319   0.98060   0.98909   1.00534   1.04509
 Alpha virt. eigenvalues --    1.05151   1.07250   1.07521   1.07799   1.08974
 Alpha virt. eigenvalues --    1.09273   1.09982   1.16217   1.17105   1.17447
 Alpha virt. eigenvalues --    1.18742   1.23062   1.26399   1.27508   1.27616
 Alpha virt. eigenvalues --    1.29178   1.30896   1.34694   1.37404   1.39697
 Alpha virt. eigenvalues --    1.40085   1.47843   1.48216   1.51620   1.54012
 Alpha virt. eigenvalues --    1.54055   1.55267   1.55531   1.56681   1.56744
 Alpha virt. eigenvalues --    1.58406   1.58845   1.59743   1.60572   1.61740
 Alpha virt. eigenvalues --    1.61743   1.63947   1.64829   1.65698   1.66432
 Alpha virt. eigenvalues --    1.66487   1.68140   1.68325   1.70955   1.71006
 Alpha virt. eigenvalues --    1.71187   1.71492   1.72633   1.73495   1.76614
 Alpha virt. eigenvalues --    1.76741   1.77198   1.78117   1.79838   1.81742
 Alpha virt. eigenvalues --    1.81752   1.82078   1.82814   1.82880   1.86228
 Alpha virt. eigenvalues --    1.86531   1.91027   1.92496   1.93305   1.96213
 Alpha virt. eigenvalues --    1.97298   1.98021   1.98904   2.00117   2.01156
 Alpha virt. eigenvalues --    2.01681   2.04181   2.04522   2.05103   2.05805
 Alpha virt. eigenvalues --    2.11351   2.12772   2.14679   2.16793   2.17439
 Alpha virt. eigenvalues --    2.18732   2.19433   2.19795   2.22225   2.24811
 Alpha virt. eigenvalues --    2.26117   2.30004   2.30973   2.34408   2.36796
 Alpha virt. eigenvalues --    2.38568   2.39070   2.42770   2.45065   2.47186
 Alpha virt. eigenvalues --    2.48734   2.49803   2.50510   2.51479   2.55951
 Alpha virt. eigenvalues --    2.57017   2.57574   2.57782   2.57895   2.58053
 Alpha virt. eigenvalues --    2.59736   2.60181   2.61075   2.62125   2.62522
 Alpha virt. eigenvalues --    2.62912   2.64714   2.68648   2.69568   2.73080
 Alpha virt. eigenvalues --    2.73177   2.73700   2.73765   2.74957   2.76580
 Alpha virt. eigenvalues --    2.77072   2.78869   2.79012   2.83334   2.83751
 Alpha virt. eigenvalues --    2.85187   2.88366   2.88851   2.91292   2.91489
 Alpha virt. eigenvalues --    2.92081   2.95365   2.97266   2.97701   2.99365
 Alpha virt. eigenvalues --    3.01341   3.01588   3.02922   3.04325   3.08441
 Alpha virt. eigenvalues --    3.13821   3.19278   3.20178   3.22429   3.23303
 Alpha virt. eigenvalues --    3.26756   3.31433   3.38426   3.49488   3.51767
 Alpha virt. eigenvalues --    3.54463   3.56512   3.64108   3.74791   3.80461
 Alpha virt. eigenvalues --    3.85041   3.85272   3.86540   3.86645   3.90602
 Alpha virt. eigenvalues --    3.91047   3.92689   3.92838   4.03941   4.14231
 Alpha virt. eigenvalues --    4.17015   4.18796   4.23522   4.37094   4.37346
 Alpha virt. eigenvalues --    4.42977   4.52379   4.90338  23.67670  23.97992
 Alpha virt. eigenvalues --   23.98169  24.06695  24.07852  24.08372  24.09440
 Alpha virt. eigenvalues --   24.10661  24.13183  24.21212  24.26138  24.34444
          Condensed to atoms (all electrons):
               1          2          3          4          5          6
     1  C    8.145088   0.688354  -1.324712   0.064121   0.197171  -1.313346
     2  C    0.688354   9.928218  -0.681111   0.148183   0.609071  -1.690632
     3  C   -1.324712  -0.681111  10.600203   0.100586  -1.012566   1.271088
     4  H    0.064121   0.148183   0.100586   0.518151   0.003127  -0.074163
     5  C    0.197171   0.609071  -1.012566   0.003127   6.488947  -1.011463
     6  C   -1.313346  -1.690632   1.271088  -0.074163  -1.011463  10.568446
     7  H    0.064107   0.047311  -0.074602  -0.000081   0.003957   0.099828
     8  C    0.686635  -0.408901  -1.699321   0.046913   0.612629  -0.676956
     9  H   -0.013154  -0.020979   0.035463  -0.006341   0.327290   0.035641
    10  C   -0.306354  -0.218739  -0.101247   0.003757  -0.042485  -0.784470
    11  H   -0.002521   0.013334  -0.009208  -0.000004   0.002279  -0.028769
    12  C   -0.300846  -2.054635  -0.788049   0.053634  -0.043303  -0.100277
    13  H   -0.001911  -0.064569  -0.028616  -0.000354   0.002280  -0.009207
    14  C    0.025675   0.006941  -0.044593   0.000276   0.061609  -0.073322
    15  H    0.012752   0.002664   0.000452   0.000000   0.001886  -0.000714
    16  H   -0.067569  -0.003167  -0.007165   0.000000   0.007178   0.036334
    17  H    0.065071   0.009892   0.008829  -0.000003  -0.008477  -0.012827
    18  C    0.034821  -0.002618  -0.007204   0.000115   0.043062   0.024879
    19  H   -0.064934  -0.003568  -0.007853   0.000000   0.007119   0.027977
    20  H    0.010556   0.002574   0.000277   0.000000   0.002278   0.001756
    21  H    0.064829   0.009469   0.007904  -0.000003  -0.008740  -0.018348
    22  C    0.022467  -0.008259   0.045103  -0.007033   0.044818  -0.001180
    23  H    0.064307  -0.089440  -0.019340  -0.000116  -0.008997   0.007697
    24  H    0.010716   0.095302   0.002201   0.000000   0.002180   0.000266
    25  H   -0.063794  -0.025159   0.025316  -0.002288   0.007129  -0.007985
    26  C    0.036739   0.007252  -0.091714   0.002029   0.059170  -0.050026
    27  H   -0.068579  -0.022255   0.039482  -0.002706   0.007003  -0.006949
    28  H    0.012583   0.088766  -0.001495  -0.000038   0.002002   0.000449
    29  H    0.065539  -0.108643  -0.011631  -0.000070  -0.008242   0.008999
               7          8          9         10         11         12
     1  C    0.064107   0.686635  -0.013154  -0.306354  -0.002521  -0.300846
     2  C    0.047311  -0.408901  -0.020979  -0.218739   0.013334  -2.054635
     3  C   -0.074602  -1.699321   0.035463  -0.101247  -0.009208  -0.788049
     4  H   -0.000081   0.046913  -0.006341   0.003757  -0.000004   0.053634
     5  C    0.003957   0.612629   0.327290  -0.042485   0.002279  -0.043303
     6  C    0.099828  -0.676956   0.035641  -0.784470  -0.028769  -0.100277
     7  H    0.518141   0.148280  -0.006351   0.053497  -0.000352   0.003789
     8  C    0.148280   9.922329  -0.021072  -2.050284  -0.064116  -0.214427
     9  H   -0.006351  -0.021072   0.503562   0.002827   0.000015   0.002819
    10  C    0.053497  -2.050284   0.002827   8.730194   0.518775  -0.054849
    11  H   -0.000352  -0.064116   0.000015   0.518775   0.486968  -0.001310
    12  C    0.003789  -0.214427   0.002819  -0.054849  -0.001310   8.728523
    13  H   -0.000004   0.013881   0.000015  -0.001266   0.000096   0.518072
    14  C    0.000708   0.011598  -0.000271   0.084456  -0.039316   0.001727
    15  H   -0.000038   0.090854  -0.000001  -0.178141  -0.006494   0.000358
    16  H   -0.002636  -0.023075   0.000038   0.051616   0.005274   0.000142
    17  H   -0.000078  -0.104859   0.000003   0.038995  -0.005607  -0.001762
    18  C   -0.005628  -0.011711  -0.000128   0.005532  -0.038571  -0.006854
    19  H   -0.002387  -0.024319   0.000038   0.057567   0.005411   0.000154
    20  H   -0.000008   0.093729  -0.000001  -0.179861  -0.006712   0.000379
    21  H   -0.000108  -0.093347   0.000003   0.032878  -0.005645  -0.001644
    22  C    0.000075  -0.019233  -0.000110  -0.009200  -0.000040   0.005385
    23  H   -0.000003   0.009425   0.000003  -0.001542   0.000002   0.030314
    24  H    0.000000   0.002958  -0.000001   0.000397   0.000000  -0.181716
    25  H    0.000000  -0.003747   0.000038   0.000126   0.000001   0.059365
    26  C    0.000317   0.022557  -0.000281   0.004002  -0.000156   0.083877
    27  H    0.000000  -0.002801   0.000039   0.000177   0.000001   0.049413
    28  H    0.000000   0.002200  -0.000001   0.000335   0.000000  -0.175472
    29  H   -0.000003   0.009830   0.000003  -0.001882   0.000001   0.041106
              13         14         15         16         17         18
     1  C   -0.001911   0.025675   0.012752  -0.067569   0.065071   0.034821
     2  C   -0.064569   0.006941   0.002664  -0.003167   0.009892  -0.002618
     3  C   -0.028616  -0.044593   0.000452  -0.007165   0.008829  -0.007204
     4  H   -0.000354   0.000276   0.000000   0.000000  -0.000003   0.000115
     5  C    0.002280   0.061609   0.001886   0.007178  -0.008477   0.043062
     6  C   -0.009207  -0.073322  -0.000714   0.036334  -0.012827   0.024879
     7  H   -0.000004   0.000708  -0.000038  -0.002636  -0.000078  -0.005628
     8  C    0.013881   0.011598   0.090854  -0.023075  -0.104859  -0.011711
     9  H    0.000015  -0.000271  -0.000001   0.000038   0.000003  -0.000128
    10  C   -0.001266   0.084456  -0.178141   0.051616   0.038995   0.005532
    11  H    0.000096  -0.039316  -0.006494   0.005274  -0.005607  -0.038571
    12  C    0.518072   0.001727   0.000358   0.000142  -0.001762  -0.006854
    13  H    0.487290  -0.000128   0.000000   0.000001   0.000001  -0.000060
    14  C   -0.000128   5.672570   0.428348   0.393415   0.381047  -0.316071
    15  H    0.000000   0.428348   0.526108  -0.031785  -0.023796   0.014076
    16  H    0.000001   0.393415  -0.031785   0.507419  -0.029784  -0.007774
    17  H    0.000001   0.381047  -0.023796  -0.029784   0.502384   0.007771
    18  C   -0.000060  -0.316071   0.014076  -0.007774   0.007771   5.684306
    19  H    0.000001  -0.006371  -0.001135   0.001549  -0.000297   0.392819
    20  H    0.000000   0.013336   0.002941  -0.001128   0.000140   0.427637
    21  H    0.000002   0.007756   0.000127  -0.000292  -0.000254   0.383664
    22  C   -0.038771  -0.004088   0.000006   0.000015  -0.000004   0.008388
    23  H   -0.005640  -0.000038   0.000000   0.000000   0.000000   0.000044
    24  H   -0.006785   0.000007   0.000000   0.000000   0.000000  -0.000012
    25  H    0.005458   0.000015   0.000000   0.000000   0.000000  -0.000063
    26  C   -0.039429   0.009063  -0.000008  -0.000068  -0.000037  -0.003874
    27  H    0.005231  -0.000076   0.000000   0.000000   0.000000   0.000015
    28  H   -0.006391  -0.000009   0.000000   0.000000   0.000000   0.000007
    29  H   -0.005589  -0.000014   0.000000   0.000000   0.000002  -0.000008
              19         20         21         22         23         24
     1  C   -0.064934   0.010556   0.064829   0.022467   0.064307   0.010716
     2  C   -0.003568   0.002574   0.009469  -0.008259  -0.089440   0.095302
     3  C   -0.007853   0.000277   0.007904   0.045103  -0.019340   0.002201
     4  H    0.000000   0.000000  -0.000003  -0.007033  -0.000116   0.000000
     5  C    0.007119   0.002278  -0.008740   0.044818  -0.008997   0.002180
     6  C    0.027977   0.001756  -0.018348  -0.001180   0.007697   0.000266
     7  H   -0.002387  -0.000008  -0.000108   0.000075  -0.000003   0.000000
     8  C   -0.024319   0.093729  -0.093347  -0.019233   0.009425   0.002958
     9  H    0.000038  -0.000001   0.000003  -0.000110   0.000003  -0.000001
    10  C    0.057567  -0.179861   0.032878  -0.009200  -0.001542   0.000397
    11  H    0.005411  -0.006712  -0.005645  -0.000040   0.000002   0.000000
    12  C    0.000154   0.000379  -0.001644   0.005385   0.030314  -0.181716
    13  H    0.000001   0.000000   0.000002  -0.038771  -0.005640  -0.006785
    14  C   -0.006371   0.013336   0.007756  -0.004088  -0.000038   0.000007
    15  H   -0.001135   0.002941   0.000127   0.000006   0.000000   0.000000
    16  H    0.001549  -0.001128  -0.000292   0.000015   0.000000   0.000000
    17  H   -0.000297   0.000140  -0.000254  -0.000004   0.000000   0.000000
    18  C    0.392819   0.427637   0.383664   0.008388   0.000044  -0.000012
    19  H    0.511132  -0.031805  -0.030223  -0.000068   0.000000   0.000000
    20  H   -0.031805   0.525880  -0.023820  -0.000013   0.000000   0.000000
    21  H   -0.030223  -0.023820   0.501902   0.000062   0.000000   0.000000
    22  C   -0.000068  -0.000013   0.000062   5.689020   0.384444   0.427584
    23  H    0.000000   0.000000   0.000000   0.384444   0.501662  -0.023816
    24  H    0.000000   0.000000   0.000000   0.427584  -0.023816   0.525393
    25  H    0.000000   0.000000   0.000000   0.392859  -0.030334  -0.031784
    26  C    0.000014   0.000008  -0.000041  -0.317459   0.007803   0.012986
    27  H    0.000000   0.000000   0.000000  -0.008157  -0.000290  -0.001135
    28  H    0.000000   0.000000   0.000000   0.014336   0.000125   0.002942
    29  H    0.000000   0.000000   0.000000   0.007695  -0.000253   0.000140
              25         26         27         28         29
     1  C   -0.063794   0.036739  -0.068579   0.012583   0.065539
     2  C   -0.025159   0.007252  -0.022255   0.088766  -0.108643
     3  C    0.025316  -0.091714   0.039482  -0.001495  -0.011631
     4  H   -0.002288   0.002029  -0.002706  -0.000038  -0.000070
     5  C    0.007129   0.059170   0.007003   0.002002  -0.008242
     6  C   -0.007985  -0.050026  -0.006949   0.000449   0.008999
     7  H    0.000000   0.000317   0.000000   0.000000  -0.000003
     8  C   -0.003747   0.022557  -0.002801   0.002200   0.009830
     9  H    0.000038  -0.000281   0.000039  -0.000001   0.000003
    10  C    0.000126   0.004002   0.000177   0.000335  -0.001882
    11  H    0.000001  -0.000156   0.000001   0.000000   0.000001
    12  C    0.059365   0.083877   0.049413  -0.175472   0.041106
    13  H    0.005458  -0.039429   0.005231  -0.006391  -0.005589
    14  C    0.000015   0.009063  -0.000076  -0.000009  -0.000014
    15  H    0.000000  -0.000008   0.000000   0.000000   0.000000
    16  H    0.000000  -0.000068   0.000000   0.000000   0.000000
    17  H    0.000000  -0.000037   0.000000   0.000000   0.000002
    18  C   -0.000063  -0.003874   0.000015   0.000007  -0.000008
    19  H    0.000000   0.000014   0.000000   0.000000   0.000000
    20  H    0.000000   0.000008   0.000000   0.000000   0.000000
    21  H    0.000000  -0.000041   0.000000   0.000000   0.000000
    22  C    0.392859  -0.317459  -0.008157   0.014336   0.007695
    23  H   -0.030334   0.007803  -0.000290   0.000125  -0.000253
    24  H   -0.031784   0.012986  -0.001135   0.002942   0.000140
    25  H    0.512114  -0.005980   0.001558  -0.001125  -0.000299
    26  C   -0.005980   5.673581   0.392997   0.428605   0.380692
    27  H    0.001558   0.392997   0.506238  -0.031728  -0.029612
    28  H   -0.001125   0.428605  -0.031728   0.526402  -0.023800
    29  H   -0.000299   0.380692  -0.029612  -0.023800   0.502279
 Mulliken charges:
               1
     1  C   -0.743809
     2  C   -0.254656
     3  C   -0.226475
     4  H    0.152309
     5  C   -0.347910
     6  C   -0.222728
     7  H    0.152269
     8  C   -0.255648
     9  H    0.160893
    10  C    0.345187
    11  H    0.176665
    12  C    0.346087
    13  H    0.176393
    14  C   -0.614250
    15  H    0.161539
    16  H    0.171464
    17  H    0.173651
    18  C   -0.626561
    19  H    0.169179
    20  H    0.161858
    21  H    0.173870
    22  C   -0.628642
    23  H    0.173983
    24  H    0.162176
    25  H    0.168578
    26  C   -0.612621
    27  H    0.172134
    28  H    0.161306
    29  H    0.173761
 Sum of Mulliken charges =  -1.00000
 Mulliken charges with hydrogens summed into heavy atoms:
               1
     1  C   -0.743809
     2  C   -0.254656
     3  C   -0.074166
     5  C   -0.187018
     6  C   -0.070460
     8  C   -0.255648
    10  C    0.521851
    12  C    0.522480
    14  C   -0.107596
    18  C   -0.121655
    22  C   -0.123906
    26  C   -0.105420
 APT charges:
               1
     1  C   -1.101630
     2  C    0.434978
     3  C   -1.132017
     4  H   -0.223639
     5  C   -0.152019
     6  C   -2.675339
     7  H    0.555168
     8  C    3.567608
     9  H   -0.199819
    10  C   -0.707894
    11  H    0.967149
    12  C   -0.709579
    13  H    1.118441
    14  C   -3.400049
    15  H    1.455562
    16  H   -0.109463
    17  H    1.116493
    18  C   -0.082057
    19  H   -0.226001
    20  H    1.416266
    21  H   -0.889393
    22  C    0.709666
    23  H   -0.495369
    24  H    0.773068
    25  H   -0.429735
    26  C   -2.639094
    27  H   -0.309776
    28  H    0.805965
    29  H    1.562507
 Sum of APT charges =  -1.00000
 APT charges with hydrogens summed into heavy atoms:
               1
     1  C   -1.101630
     2  C    0.434978
     3  C   -1.355656
     5  C   -0.351837
     6  C   -2.120170
     8  C    3.567608
    10  C    0.259255
    12  C    0.408862
    14  C   -0.937457
    18  C    0.218816
    22  C    0.557630
    26  C   -0.580399
 Electronic spatial extent (au):  <R**2>=          37271.5441
 Charge=             -1.0000 electrons
 Dipole moment (field-independent basis, Debye):
    X=            -30.1405    Y=            -33.4749    Z=            -24.9927  Tot=             51.5136
 Quadrupole moment (field-independent basis, Debye-Ang):
   XX=           -274.8999   YY=           -318.4670   ZZ=           -214.7233
   XY=           -209.2763   XZ=           -158.0841   YZ=           -175.0482
 Traceless Quadrupole moment (field-independent basis, Debye-Ang):
   XX=             -5.5365   YY=            -49.1036   ZZ=             54.6401
   XY=           -209.2763   XZ=           -158.0841   YZ=           -175.0482
 Octapole moment (field-independent basis, Debye-Ang**2):
  XXX=          -2654.2987  YYY=          -3455.8330  ZZZ=          -1922.7738  XYY=          -1934.0170
  XXY=          -1919.4939  XXZ=          -1425.1574  XZZ=          -1309.7193  YZZ=          -1519.4860
  YYZ=          -1644.3716  XYZ=          -1100.4039
 Hexadecapole moment (field-independent basis, Debye-Ang**3):
 XXXX=         -25377.6483 YYYY=         -38693.2802 ZZZZ=         -17563.9168 XXXY=         -18928.8036
 XXXZ=         -13199.9981 YYYX=         -20741.6657 YYYZ=         -17102.2114 ZZZX=         -10984.7632
 ZZZY=         -13234.0713 XXYY=         -16524.6532 XXZZ=         -10635.3142 YYZZ=         -13280.7681
 XXYZ=          -9801.6561 YYXZ=          -9876.7347 ZZXY=          -9324.5219
 N-N= 6.723390979190D+02 E-N=-2.442696352616D+03  KE= 4.655090889951D+02
  Exact polarizability:       0.000       0.000       0.000       0.000       0.000       0.000
 Approx polarizability:     204.833       3.387     170.039      -0.893     -25.676     190.714
 D2PCM: PCM CHGder 2nd derivatives, FixD1E=F FixD2E=F DoIter=F DoCFld=F I1PDM=0
 Calling FoFJK, ICntrl=    100127 FMM=F ISym2X=0 I1Cent= 0 IOpClX= 0 NMat=1 NMatS=1 NMatT=0.
 -------------------------------------------------------------------
 Center     Atomic                   Forces (Hartrees/Bohr)
 Number     Number              X              Y              Z
 -------------------------------------------------------------------
      1        6           0.067814074   -0.019112228    0.034206714
      2        6          -0.016792059    0.012449065   -0.020382472
      3        6          -0.006046905   -0.006316639    0.008743709
      4        1          -0.005415429    0.000883038   -0.001633704
      5        6          -0.003321395    0.000855339   -0.001607608
      6        6           0.006365901    0.006176400   -0.008860892
      7        1          -0.004399978    0.001933691   -0.003121886
      8        6          -0.028898846    0.000214713   -0.002635900
      9        1          -0.000977505    0.000289999   -0.000462008
     10        6          -0.004376899    0.001184842   -0.002040535
     11        1          -0.001640813   -0.000362263    0.000625398
     12        6          -0.004253565    0.001293562   -0.002336376
     13        1          -0.000138940    0.001081602   -0.001509760
     14        6           0.001533162   -0.001048982   -0.002026759
     15        1           0.000708765    0.001419060   -0.000207662
     16        1          -0.000348154    0.000500013   -0.000178810
     17        1          -0.000106895   -0.000290740    0.000464682
     18        6           0.001443743    0.002372131    0.000214871
     19        1          -0.000278767   -0.000042693   -0.000555142
     20        1           0.000779783   -0.000235413   -0.001394975
     21        1          -0.000138859   -0.000340642    0.000450839
     22        6          -0.000277317    0.000590382    0.002590361
     23        1           0.000410220    0.000167859   -0.000351431
     24        1          -0.000469767   -0.001488949    0.000400578
     25        1          -0.000529379   -0.000331988   -0.000227744
     26        6          -0.000064935   -0.002534039    0.000512871
     27        1          -0.000525916    0.000290883    0.000163216
     28        1          -0.000451889    0.000202487    0.001528830
     29        1           0.000398564    0.000199508   -0.000368407
 -------------------------------------------------------------------
 Cartesian Forces:  Max     0.067814074 RMS     0.009778604
 FormGI is forming the generalized inverse of G from B-inverse, IUseBI=4.

 GradGradGradGradGradGradGradGradGradGradGradGradGradGradGradGradGradGrad
 Berny optimization.
 Internal  Forces:  Max     0.049163981 RMS     0.006356714
 Search for a local minimum.
 Step number   1 out of a maximum of  159
 All quantities printed in internal units (Hartrees-Bohrs-Radians)
 Mixed Optimization -- RFO/linear search
 Second derivative matrix not updated -- analytic derivatives used.
 ITU=  0
     Eigenvalues ---   -0.00160   0.00042   0.00267   0.00274   0.00353
     Eigenvalues ---    0.00355   0.00522   0.01818   0.01980   0.02277
     Eigenvalues ---    0.02395   0.02463   0.02558   0.02802   0.03974
     Eigenvalues ---    0.04014   0.04263   0.04355   0.04374   0.04384
     Eigenvalues ---    0.04476   0.04489   0.04536   0.04545   0.04604
     Eigenvalues ---    0.04611   0.04954   0.04984   0.10731   0.11590
     Eigenvalues ---    0.11799   0.11816   0.12095   0.12135   0.12157
     Eigenvalues ---    0.12320   0.12468   0.12729   0.12754   0.14044
     Eigenvalues ---    0.14049   0.14689   0.14696   0.16987   0.17053
     Eigenvalues ---    0.17555   0.17874   0.18663   0.18987   0.19049
     Eigenvalues ---    0.20167   0.20468   0.28432   0.28603   0.28975
     Eigenvalues ---    0.29037   0.29586   0.31443   0.31512   0.33539
     Eigenvalues ---    0.33722   0.33760   0.33768   0.33883   0.33885
     Eigenvalues ---    0.33912   0.34002   0.34044   0.34076   0.34656
     Eigenvalues ---    0.34659   0.34790   0.34794   0.35632   0.35762
     Eigenvalues ---    0.36151   0.42463   0.43445   0.46219   0.50074
     Eigenvalues ---    0.52493
 RFO step:  Lambda=-2.41669000D-02 EMin=-1.59972320D-03
 Linear search not attempted -- first point.
 Maximum step size (   0.300) exceeded in Quadratic search.
    -- Step size scaled by   0.895
 Iteration  1 RMS(Cart)=  0.15098090 RMS(Int)=  0.01675648
 Iteration  2 RMS(Cart)=  0.05423650 RMS(Int)=  0.00097492
 Iteration  3 RMS(Cart)=  0.00138823 RMS(Int)=  0.00057349
 Iteration  4 RMS(Cart)=  0.00000080 RMS(Int)=  0.00057349
 Variable       Old X    -DE/DX   Delta X   Delta X   Delta X     New X
                                 (Linear)    (Quad)   (Total)
    R1        2.60204   0.02481   0.00000   0.05641   0.05755   2.65959
    R2        2.60199   0.02501   0.00000   0.05716   0.05835   2.66034
    R3        2.65107   0.00763   0.00000  -0.00146  -0.00150   2.64957
    R4        2.86755   0.00045   0.00000   0.01079   0.01079   2.87834
    R5        2.05217   0.00379   0.00000   0.00378   0.00378   2.05595
    R6        2.63271  -0.00222   0.00000  -0.00523  -0.00643   2.62629
    R7        2.63263  -0.00209   0.00000  -0.00374  -0.00490   2.62774
    R8        2.04902   0.00112   0.00000   0.00261   0.00261   2.05163
    R9        2.05229   0.00374   0.00000   0.00335   0.00335   2.05564
   R10        2.65102   0.00767   0.00000  -0.00206  -0.00202   2.64900
   R11        2.86747   0.00062   0.00000   0.01150   0.01150   2.87897
   R12        2.06742  -0.00068   0.00000  -0.00240  -0.00240   2.06503
   R13        2.89459   0.00062   0.00000   0.00392   0.00392   2.89852
   R14        2.89372   0.00086   0.00000  -0.00034  -0.00034   2.89338
   R15        2.06742  -0.00063   0.00000  -0.00041  -0.00041   2.06701
   R16        2.89365   0.00099   0.00000   0.00276   0.00276   2.89641
   R17        2.89480   0.00078   0.00000   0.00192   0.00192   2.89673
   R18        2.06596   0.00113   0.00000   0.00313   0.00313   2.06909
   R19        2.06730   0.00055   0.00000   0.00215   0.00215   2.06946
   R20        2.06474   0.00034   0.00000   0.00188   0.00188   2.06662
   R21        2.06708   0.00052   0.00000  -0.00006  -0.00006   2.06702
   R22        2.06586   0.00112   0.00000   0.00216   0.00216   2.06802
   R23        2.06474   0.00034   0.00000   0.00111   0.00111   2.06584
   R24        2.06472   0.00035   0.00000   0.00138   0.00138   2.06610
   R25        2.06579   0.00112   0.00000   0.00255   0.00255   2.06834
   R26        2.06700   0.00054   0.00000   0.00127   0.00127   2.06827
   R27        2.06738   0.00052   0.00000   0.00126   0.00126   2.06864
   R28        2.06594   0.00114   0.00000   0.00268   0.00268   2.06862
   R29        2.06476   0.00030   0.00000   0.00115   0.00115   2.06591
    A1        2.23183  -0.04916   0.00000  -0.19204  -0.18856   2.04328
    A2        2.00832   0.02537   0.00000   0.11048   0.11147   2.11979
    A3        2.13980  -0.00750   0.00000  -0.04246  -0.04296   2.09685
    A4        2.13503  -0.01788   0.00000  -0.06801  -0.06851   2.06653
    A5        2.08842   0.00397   0.00000   0.01142   0.01213   2.10055
    A6        2.10297   0.00087   0.00000  -0.00077  -0.00218   2.10079
    A7        2.09179  -0.00483   0.00000  -0.01065  -0.00995   2.08184
    A8        2.11190  -0.00323   0.00000  -0.02719  -0.02974   2.08216
    A9        2.08575   0.00161   0.00000   0.01385   0.01512   2.10087
   A10        2.08554   0.00162   0.00000   0.01334   0.01462   2.10015
   A11        2.09210  -0.00493   0.00000  -0.01204  -0.01140   2.08070
   A12        2.10304   0.00095   0.00000  -0.00010  -0.00139   2.10165
   A13        2.08805   0.00398   0.00000   0.01214   0.01278   2.10082
   A14        2.00830   0.02521   0.00000   0.10963   0.11039   2.11869
   A15        2.14022  -0.00704   0.00000  -0.04069  -0.04148   2.09874
   A16        2.13466  -0.01817   0.00000  -0.06910  -0.06990   2.06476
   A17        1.86867  -0.00175   0.00000  -0.00916  -0.00946   1.85921
   A18        1.93532   0.00159   0.00000  -0.01138  -0.01144   1.92389
   A19        1.93988   0.00146   0.00000   0.03498   0.03498   1.97486
   A20        1.89158   0.00059   0.00000  -0.01065  -0.01076   1.88082
   A21        1.89230   0.00070   0.00000   0.00365   0.00356   1.89586
   A22        1.93374  -0.00259   0.00000  -0.00827  -0.00823   1.92552
   A23        1.86849  -0.00180   0.00000  -0.01294  -0.01291   1.85558
   A24        1.94145   0.00149   0.00000   0.00983   0.00984   1.95128
   A25        1.93363   0.00151   0.00000   0.01361   0.01362   1.94725
   A26        1.89244   0.00069   0.00000  -0.00033  -0.00033   1.89211
   A27        1.89180   0.00054   0.00000  -0.00198  -0.00197   1.88983
   A28        1.93371  -0.00244   0.00000  -0.00890  -0.00901   1.92470
   A29        1.92628   0.00175   0.00000   0.01311   0.01313   1.93941
   A30        1.93217   0.00027   0.00000  -0.00475  -0.00479   1.92738
   A31        1.94147  -0.00106   0.00000  -0.01080  -0.01081   1.93066
   A32        1.88438  -0.00074   0.00000   0.00274   0.00273   1.88711
   A33        1.89094  -0.00036   0.00000   0.00019   0.00023   1.89117
   A34        1.88690   0.00010   0.00000  -0.00029  -0.00037   1.88654
   A35        1.93394   0.00033   0.00000   0.01183   0.01181   1.94575
   A36        1.92518   0.00183   0.00000   0.00438   0.00437   1.92955
   A37        1.94180  -0.00112   0.00000   0.00027   0.00026   1.94206
   A38        1.88320  -0.00078   0.00000  -0.00956  -0.00958   1.87362
   A39        1.88711   0.00007   0.00000  -0.00400  -0.00402   1.88309
   A40        1.89086  -0.00036   0.00000  -0.00370  -0.00370   1.88716
   A41        1.94189  -0.00107   0.00000  -0.00412  -0.00411   1.93778
   A42        1.92500   0.00178   0.00000   0.01024   0.01023   1.93523
   A43        1.93403   0.00040   0.00000   0.00239   0.00238   1.93641
   A44        1.89091  -0.00037   0.00000  -0.00229  -0.00228   1.88863
   A45        1.88732   0.00002   0.00000  -0.00339  -0.00339   1.88392
   A46        1.88294  -0.00081   0.00000  -0.00317  -0.00320   1.87974
   A47        1.93127   0.00034   0.00000   0.00279   0.00278   1.93406
   A48        1.92670   0.00177   0.00000   0.00830   0.00829   1.93499
   A49        1.94130  -0.00115   0.00000  -0.00418  -0.00417   1.93713
   A50        1.88483  -0.00077   0.00000  -0.00303  -0.00305   1.88178
   A51        1.88683   0.00009   0.00000  -0.00202  -0.00202   1.88480
   A52        1.89125  -0.00032   0.00000  -0.00215  -0.00214   1.88911
    D1       -0.00137  -0.00015   0.00000  -0.00296  -0.00327  -0.00464
    D2       -3.13509  -0.00002   0.00000  -0.00453  -0.00479  -3.13989
    D3        0.00131   0.00011   0.00000   0.00155   0.00231   0.00362
    D4        3.13852   0.00009   0.00000  -0.04053  -0.04206   3.09646
    D5       -3.14087   0.00010   0.00000   0.00169   0.00185  -3.13903
    D6        0.00076   0.00011   0.00000   0.00355   0.00357   0.00433
    D7       -0.00713   0.00003   0.00000   0.00338   0.00346  -0.00367
    D8        3.13451   0.00003   0.00000   0.00524   0.00518   3.13969
    D9       -0.05429  -0.00001   0.00000   0.00417   0.00408  -0.05021
   D10       -2.11891  -0.00058   0.00000   0.00694   0.00691  -2.11200
   D11        2.00522   0.00041   0.00000   0.00159   0.00142   2.00663
   D12        3.09573  -0.00007   0.00000   0.00169   0.00180   3.09753
   D13        1.03112  -0.00064   0.00000   0.00446   0.00462   1.03574
   D14       -1.12794   0.00035   0.00000  -0.00090  -0.00087  -1.12881
   D15       -0.00027   0.00002   0.00000  -0.00282  -0.00251  -0.00279
   D16        3.14090   0.00000   0.00000   0.00146   0.00173  -3.14056
   D17        3.14137   0.00002   0.00000  -0.00096  -0.00081   3.14055
   D18       -0.00065   0.00001   0.00000   0.00333   0.00343   0.00278
   D19        3.14152  -0.00003   0.00000   0.00726   0.00727  -3.13440
   D20        0.00021  -0.00006   0.00000   0.00132   0.00157   0.00178
   D21        0.00035  -0.00001   0.00000   0.00297   0.00303   0.00338
   D22       -3.14096  -0.00005   0.00000  -0.00296  -0.00267   3.13956
   D23       -0.00065  -0.00002   0.00000  -0.00072  -0.00164  -0.00229
   D24       -3.13788  -0.00003   0.00000   0.04115   0.04183  -3.09605
   D25        3.14123  -0.00006   0.00000  -0.00663  -0.00739   3.13383
   D26        0.00400  -0.00006   0.00000   0.03523   0.03607   0.04007
   D27        0.03480  -0.00008   0.00000   0.27646   0.27549   0.31029
   D28       -2.02550  -0.00063   0.00000   0.30102   0.29992  -1.72558
   D29        2.09849   0.00052   0.00000   0.29480   0.29374   2.39222
   D30       -3.11149   0.00001   0.00000   0.23180   0.23292  -2.87857
   D31        1.11140  -0.00054   0.00000   0.25636   0.25735   1.36875
   D32       -1.04780   0.00060   0.00000   0.25014   0.25117  -0.79663
   D33        3.09681  -0.00078   0.00000  -0.01148  -0.01146   3.08535
   D34       -1.10109  -0.00040   0.00000  -0.00266  -0.00265  -1.10373
   D35        0.99729  -0.00080   0.00000  -0.01338  -0.01331   0.98398
   D36        1.05050   0.00009   0.00000   0.01251   0.01250   1.06300
   D37        3.13578   0.00046   0.00000   0.02133   0.02131  -3.12609
   D38       -1.04902   0.00006   0.00000   0.01061   0.01065  -1.03838
   D39       -1.02366   0.00039   0.00000   0.01949   0.01944  -1.00422
   D40        1.06163   0.00077   0.00000   0.02831   0.02825   1.08988
   D41       -3.12318   0.00037   0.00000   0.01759   0.01759  -3.10559
   D42        1.10500   0.00041   0.00000   0.02524   0.02519   1.13019
   D43       -3.09395   0.00083   0.00000   0.02371   0.02367  -3.07028
   D44       -0.99504   0.00085   0.00000   0.02216   0.02210  -0.97294
   D45       -3.12882  -0.00045   0.00000   0.03646   0.03653  -3.09229
   D46       -1.04458  -0.00004   0.00000   0.03493   0.03502  -1.00957
   D47        1.05432  -0.00002   0.00000   0.03338   0.03345   1.08777
   D48       -1.05510  -0.00082   0.00000   0.02083   0.02080  -1.03430
   D49        1.02914  -0.00041   0.00000   0.01930   0.01928   1.04842
   D50        3.12804  -0.00038   0.00000   0.01774   0.01771  -3.13743
   D51        0.99345  -0.00085   0.00000  -0.01318  -0.01316   0.98029
   D52        3.09235  -0.00084   0.00000  -0.01193  -0.01192   3.08043
   D53       -1.10698  -0.00044   0.00000  -0.00775  -0.00773  -1.11471
   D54       -1.05668   0.00005   0.00000  -0.00289  -0.00288  -1.05956
   D55        1.04222   0.00007   0.00000  -0.00164  -0.00164   1.04058
   D56        3.12608   0.00047   0.00000   0.00254   0.00255   3.12863
   D57       -3.13072   0.00040   0.00000   0.00499   0.00497  -3.12575
   D58       -1.03182   0.00041   0.00000   0.00624   0.00621  -1.02561
   D59        1.05203   0.00081   0.00000   0.01042   0.01041   1.06244
   D60        1.09900   0.00048   0.00000   0.00352   0.00350   1.10250
   D61       -3.09865   0.00088   0.00000   0.00688   0.00687  -3.09177
   D62       -0.99857   0.00090   0.00000   0.00697   0.00695  -0.99161
   D63       -3.13893  -0.00052   0.00000  -0.00560  -0.00561   3.13864
   D64       -1.05339  -0.00012   0.00000  -0.00224  -0.00224  -1.05564
   D65        1.04669  -0.00010   0.00000  -0.00215  -0.00216   1.04453
   D66       -1.06449  -0.00078   0.00000  -0.01247  -0.01246  -1.07696
   D67        1.02104  -0.00038   0.00000  -0.00912  -0.00909   1.01195
   D68        3.12113  -0.00036   0.00000  -0.00903  -0.00901   3.11212
         Item               Value     Threshold  Converged?
 Maximum Force            0.049164     0.000015     NO 
 RMS     Force            0.006357     0.000010     NO 
 Maximum Displacement     0.736411     0.000060     NO 
 RMS     Displacement     0.197440     0.000040     NO 
 Predicted change in Energy=-1.334897D-02
 GradGradGradGradGradGradGradGradGradGradGradGradGradGradGradGradGradGrad

                          Input orientation:                          
 ---------------------------------------------------------------------
 Center     Atomic      Atomic             Coordinates (Angstroms)
 Number     Number       Type             X           Y           Z
 ---------------------------------------------------------------------
      1          6           0        6.366907    6.912712    5.220469
      2          6           0        5.135232    6.503407    5.764714
      3          6           0        3.920981    6.792036    5.125850
      4          1           0        2.978933    6.468985    5.563846
      5          6           0        3.907767    7.491994    3.925289
      6          6           0        5.111521    7.906153    3.365782
      7          1           0        5.099179    8.459809    2.429503
      8          6           0        6.326422    7.619553    4.003665
      9          1           0        2.967526    7.716361    3.431027
     10          6           0        7.611991    8.148088    3.379994
     11          1           0        8.433311    7.603475    3.852188
     12          6           0        5.097468    5.735968    7.079859
     13          1           0        6.139171    5.581543    7.375564
     14          6           0        7.787731    9.636161    3.707688
     15          1           0        8.735790   10.017447    3.314436
     16          1           0        6.975268   10.223260    3.266688
     17          1           0        7.774184    9.796505    4.789395
     18          6           0        7.683162    7.924729    1.866936
     19          1           0        6.908971    8.491303    1.341516
     20          1           0        8.650671    8.253361    1.475114
     21          1           0        7.555394    6.868537    1.615509
     22          6           0        4.431355    4.364867    6.919879
     23          1           0        4.930486    3.774016    6.147129
     24          1           0        4.467536    3.801771    7.857741
     25          1           0        3.379696    4.471473    6.636091
     26          6           0        4.399055    6.540538    8.181954
     27          1           0        3.350330    6.722003    7.925891
     28          1           0        4.422826    6.000311    9.133735
     29          1           0        4.883941    7.509649    8.326397
 ---------------------------------------------------------------------
                    Distance matrix (angstroms):
                    1          2          3          4          5
     1  C    0.000000
     2  C    1.407394   0.000000
     3  C    2.450728   1.402091   0.000000
     4  H    3.434119   2.165908   1.087960   0.000000
     5  C    2.839090   2.422284   1.389771   2.143397   0.000000
     6  C    2.450057   2.779052   2.399267   3.383027   1.390540
     7  H    3.433676   3.866838   3.382293   4.275855   2.143246
     8  C    1.407791   2.401252   2.780329   3.868289   2.423284
     9  H    3.924760   3.408269   2.153109   2.470829   1.085674
    10  C    2.542388   3.811325   4.302377   5.390160   3.801195
    11  H    2.572814   3.968026   4.758336   5.828128   4.527507
    12  C    2.540381   1.523153   2.513474   2.706252   3.801359
    13  H    2.543288   2.110111   3.383323   3.749264   4.531379
    14  C    3.424095   4.591433   5.005196   6.049865   4.438347
    15  H    4.345566   5.596102   6.071810   7.126909   5.482779
    16  H    3.891927   4.843880   4.955649   5.944932   4.159704
    17  H    3.237671   4.331260   4.897674   5.887835   4.583299
    18  C    3.742043   4.868755   5.104657   6.157606   4.321769
    19  H    4.222802   5.163580   5.112413   6.112531   4.084326
    20  H    4.587003   5.815610   6.150878   7.215978   5.392418
    21  H    3.796075   4.817303   5.053444   6.057475   4.362220
    22  C    3.622964   2.530455   3.061074   2.894075   4.361266
    23  H    3.573992   2.763646   3.342238   3.378112   4.450381
    24  H    4.498974   3.482157   4.087008   3.819938   5.421741
    25  H    4.109387   2.823112   2.821140   2.302254   4.092781
    26  C    3.575101   2.527130   3.103479   2.979322   4.389286
    27  H    4.056528   2.811467   2.858458   2.404415   4.111988
    28  H    4.463807   3.480076   4.116044   3.879251   5.442271
    29  H    3.493180   2.763673   3.418445   3.513364   4.508102
                    6          7          8          9         10
     6  C    0.000000
     7  H    1.087799   0.000000
     8  C    1.401791   2.165673   0.000000
     9  H    2.153368   2.469759   3.408734   0.000000
    10  C    2.512187   2.704594   1.523484   4.664767   0.000000
    11  H    3.370829   3.724751   2.112388   5.483148   1.092765
    12  C    4.301658   5.389353   3.810668   4.666110   5.082337
    13  H    4.747445   5.816315   3.944396   5.493283   4.972015
    14  C    3.204985   3.200918   2.507935   5.195821   1.533829
    15  H    4.194701   4.053921   3.468427   6.211397   2.182138
    16  H    2.975291   2.707462   2.782702   4.730069   2.173614
    17  H    3.562285   3.809396   2.729928   5.410741   2.174856
    18  C    2.976613   2.698103   2.549409   4.972627   1.531111
    19  H    2.769635   2.111883   2.861179   4.527866   2.183444
    20  H    4.027500   3.683282   3.492479   6.034243   2.172212
    21  H    3.180034   3.037716   2.788850   5.006340   2.180335
    22  C    5.063096   6.113756   4.763252   5.054443   6.079473
    23  H    4.984298   5.983800   4.618575   5.174216   5.829238
    24  H    6.118690   7.180672   5.734529   6.096708   6.987724
    25  H    5.048878   6.046390   5.052056   4.579478   6.483208
    26  C    5.056483   6.104463   4.726216   5.099328   5.997166
    27  H    5.029771   6.024013   5.004656   4.619425   6.392234
    28  H    6.113576   7.173096   5.706421   6.130546   6.920206
    29  H    4.981637   5.976829   4.558382   5.261181   5.684783
                   11         12         13         14         15
    11  H    0.000000
    12  C    5.003328   0.000000
    13  H    4.665348   1.093817   0.000000
    14  C    2.137631   5.815545   5.710604   0.000000
    15  H    2.491572   6.763642   6.550759   1.094916   0.000000
    16  H    3.054828   6.180793   6.255195   1.095108   1.773154
    17  H    2.474305   5.375778   5.208402   1.093610   1.774544
    18  C    2.146428   6.216997   6.182186   2.515612   2.753680
    19  H    3.068440   6.618307   6.743073   2.771586   3.091730
    20  H    2.473879   7.097583   6.947054   2.764270   2.549970
    21  H    2.512688   6.097806   6.069619   3.477202   3.767668
    22  C    5.992909   1.532716   2.145829   7.026377   7.967373
    23  H    5.674619   2.178790   2.497424   6.962720   7.841232
    24  H    6.798881   2.177850   2.488864   7.892195   8.803081
    25  H    6.564951   2.178674   3.064927   7.394615   8.395175
    26  C    6.012648   1.532882   2.144281   6.409764   7.388430
    27  H    6.573336   2.177275   3.062866   6.780567   7.818481
    28  H    6.822672   2.177940   2.492462   7.347379   8.282709
    29  H    5.711863   2.178392   2.489433   5.855470   6.800407
                   16         17         18         19         20
    16  H    0.000000
    17  H    1.771729   0.000000
    18  C    2.782745   3.471685   0.000000
    19  H    2.590436   3.786821   1.093821   0.000000
    20  H    3.145984   3.759519   1.094347   1.762948   0.000000
    21  H    3.783795   4.323704   1.093197   1.768136   1.771180
    22  C    7.357858   6.724296   6.984204   7.367780   7.910024
    23  H    7.353287   6.797091   6.567016   7.018626   7.465389
    24  H    8.282633   7.502366   7.951652   8.391275   8.834772
    25  H    7.573907   7.146872   7.293123   7.526442   8.289845
    26  C    6.660267   5.788115   7.251262   7.542993   8.123528
    27  H    6.863465   6.233832   7.545259   7.690796   8.488298
    28  H    7.666192   6.672029   8.193872   8.550124   9.033569
    29  H    6.110482   5.108189   7.052132   7.338457   7.853753
                   21         22         23         24         25
    21  H    0.000000
    22  C    6.645624   0.000000
[...]
 0402,0.00000012,0.00000267,0.00001015,0.00000403,-0.00000275,0.0000024
 2,-0.00000293,0.00000192,-0.00000226,-0.00000523,0.00000385,-0.0000041
 2,-0.00000016,-0.10379017,0.06543443,0.08876480,0.10835603,-0.00027026
 ,0.00020133,0.00030943,0.00074577,0.00120697,-0.00147186,0.00028388,0.
 00005914,0.00035655,-0.00009169,-0.00001008,-0.00004274,0.00004755,-0.
 00003962,-0.00000332,-0.00003295,-0.00002406,-0.00003760,-0.00000666,0
 .00000499,0.00000511,-0.00003465,-0.00011341,0.00007869,0.00000170,-0.
 00001704,0.00001209,0.00000012,0.00000531,0.00001987,-0.00000316,-0.00
 000115,-0.00000411,0.01465221,-0.01481908,-0.01944192,-0.00006679,0.00
 127057,0.00022231,0.00000204,-0.00000157,-0.00001096,0.00000198,0.0000
 0551,0.00000064,-0.00000102,0.00000186,-0.00000195,0.00000280,0.000001
 39,0.00000425,-0.00000120,-0.00001095,0.00000052,-0.00000181,0.0000011
 2,0.00000025,0.00000457,0.00000360,0.00000033,-0.00000288,0.00001077,0
 .00000807,0.06441180,-0.11823352,-0.09854697,-0.06877471,0.12946644,-0
 .00034123,-0.00027506,0.00045619,-0.00034532,0.00135150,0.00031512,0.0
 0005337,-0.00022676,0.00033995,-0.00005168,0.00004943,0.00006411,0.000
 08935,-0.00010200,-0.00015114,-0.00004104,-0.00001004,0.00004780,0.000
 00422,0.00001975,0.00002719,-0.00000309,-0.00011120,-0.00002566,0.0000
 0632,-0.00000683,0.00001469,0.00003125,-0.00001726,0.00001673,-0.00000
 532,0.00000147,-0.00000394,0.00122432,-0.00065716,-0.00308721,-0.00011
 360,-0.00000947,-0.00007478,-0.00001163,0.00000299,0.00000656,-0.00000
 528,-0.00000780,0.00000163,0.00000031,0.00000069,-0.00000089,0.0000028
 3,0.00000245,-0.00000034,-0.00001375,-0.00000871,-0.00000456,0.0000008
 3,0.00000176,0.00000009,-0.00000450,-0.00000056,0.00000830,0.00000279,
 0.00000379,0.00000249,0.08843393,-0.09987949,-0.18544005,-0.09676247,0
 .11012029,0.19774670,-0.00005750,-0.00041913,0.00062523,-0.00048024,-0
 .00238859,-0.00200666,-0.00023993,0.00018614,0.00000352,0.00034866,-0.
 00016657,-0.00017319,-0.00002073,0.00013277,0.00046429,0.00037431,-0.0
 0010124,0.00011537,0.00002305,-0.00006200,-0.00003517,-0.00028841,0.00
 042353,-0.00014972,0.00000933,-0.00000483,0.00004638,0.00003070,-0.000
 05227,0.00000352,-0.00000290,0.00000150,-0.00000655,-0.00026054,-0.008
 79806,0.01346567,0.00038185,0.00070445,0.00038529,-0.00000870,-0.00000
 255,0.00001706,-0.00000466,-0.00000913,0.00000297,-0.00000195,-0.00000
 120,-0.00000149,0.00000166,0.00000378,-0.00000014,0.00000094,-0.000006
 59,-0.00000062,0.00000109,0.00000135,-0.00000032,-0.00000645,-0.000000
 33,0.00000536,0.00000134,0.00000225,0.00000047,-0.04750056,0.00767285,
 -0.01034018,0.00040744,-0.00880733,0.01237633,0.04710176,0.00009707,-0
 .00102873,0.00100134,-0.00274348,-0.00355115,-0.00314862,-0.00041529,-
 0.00006968,0.00030496,0.00001701,0.00011611,-0.00005828,-0.00002842,0.
 00007181,0.00003746,0.00006036,-0.00021014,0.00027922,0.00000584,-0.00
 006192,0.00000801,-0.00037993,0.00041764,0.00028436,0.00004959,-0.0000
 5113,0.00007412,0.00011379,-0.00005481,0.00007932,-0.00001707,0.000002
 68,-0.00001157,0.00286537,-0.01517384,0.02520754,-0.00002054,0.0013076
 3,-0.00026663,-0.00003791,0.00000716,0.00004328,-0.00001954,-0.0000311
 3,0.00000562,0.00000074,0.00000014,-0.00000197,0.00000513,0.00000891,-
 0.00000338,-0.00005501,-0.00004479,-0.00000105,0.00000554,0.00000430,-
 0.00000296,-0.00002385,0.00000166,0.00003441,0.00000382,0.00000618,-0.
 00000122,0.00727185,-0.11687671,0.11568873,-0.00206621,0.00948265,-0.0
 1432471,-0.00516685,0.12703289,-0.00035027,0.00016136,0.00016069,0.000
 12203,-0.00029981,0.00084020,0.00025960,0.00011151,0.00028749,0.000094
 46,-0.00010176,-0.00006205,0.00004823,0.00005724,0.00004941,0.00003143
 ,0.00002371,-0.00007035,0.00000719,-0.00000358,-0.00002453,0.00001330,
 0.00000775,-0.00001361,-0.00001692,0.00000394,-0.00002483,-0.00003927,
 0.00000224,-0.00002547,0.00000782,-0.00000181,-0.00000058,0.00057657,-
 0.00359965,0.00284320,0.00042167,0.00039238,0.00036926,0.00001751,-0.0
 0000358,-0.00001502,0.00001055,0.00001405,-0.00000258,-0.00000008,-0.0
 0000046,0.00000103,-0.00000311,-0.00000222,0.00000236,0.00002456,0.000
 01304,0.00000116,-0.00000289,-0.00000224,0.00000140,0.00001070,0.00000
 275,-0.00001425,-0.00000515,0.00000251,0.00000431,-0.01043336,0.116819
 83,-0.23909323,-0.00216869,0.01168734,-0.01803457,0.01176035,-0.127976
 44,0.25786526,-0.00026740,-0.00040226,0.00066201,0.00037294,0.00079748
 ,-0.00135732,-0.00047361,0.00073391,0.00003171,0.00070245,0.00037018,-
 0.00039687,0.00022185,-0.00005108,0.00053391,0.00042483,-0.00004746,-0
 .00004469,0.00005409,-0.00003363,-0.00003483,-0.00014101,0.00022665,-0
 .00027222,-0.00001032,0.00001095,0.00004483,-0.00000162,-0.00001093,0.
 00000933,0.00002055,0.00000263,-0.00000582,-0.01575437,0.00117384,-0.0
 0347620,0.00027963,-0.00332040,-0.00028012,0.00001426,-0.00000073,-0.0
 0000109,0.00000179,0.00000427,0.00000035,0.00000112,-0.00000726,0.0000
 0265,-0.00000117,0.00000490,0.00000112,0.00001773,-0.00000148,-0.00000
 161,0.00000258,-0.00000465,0.00000872,0.00000274,0.00000185,-0.0000027
 7,-0.00000342,0.00000324,-0.00000013,-0.28968785,0.02910873,-0.0631842
 7,-0.01301682,0.00131414,-0.00389205,0.00003783,0.00024572,-0.00007575
 ,0.31550789,-0.00026536,-0.00006766,0.00074352,0.00051906,0.00159712,-
 0.00058796,-0.00038940,-0.00035022,0.00001499,0.00043577,-0.00137236,0
 .00066358,0.00002716,-0.00014819,0.00031888,0.00032757,0.00004248,-0.0
 0003262,0.00003562,-0.00002496,0.00000271,-0.00004579,0.00010185,-0.00
 023200,-0.00001179,-0.00003321,-0.00001129,0.00000663,0.00000374,-0.00
 000128,0.00000374,0.00000235,-0.00000696,-0.02919685,0.00279790,-0.008
 47127,-0.00245449,-0.00519521,-0.00079493,-0.00000011,0.00000304,-0.00
 000131,0.00000168,-0.00000032,0.00000188,0.00000168,-0.00000394,0.0000
 0238,-0.00000093,0.00000281,0.00000109,0.00000728,0.00000004,-0.000003
 38,0.00000095,-0.00000057,0.00000400,0.00000251,0.00000021,-0.00000130
 ,0.00000070,0.00000135,0.00000190,0.02979744,-0.04835508,0.00747052,0.
 01521033,-0.00246503,0.00536117,0.01579825,-0.00265178,0.00291803,-0.0
 3018025,0.05392620,0.00002362,-0.00003374,0.00006214,0.00055134,-0.000
 40974,-0.00011060,-0.00013271,0.00039166,-0.00007986,-0.00001240,0.000
 85498,-0.00025539,0.00009515,0.00001396,-0.00001413,0.00001066,-0.0000
 5171,0.00002088,0.00000317,0.00000008,0.00000325,-0.00000786,0.0000247
 6,0.00001798,0.00000331,0.00002400,0.00004404,0.00001442,-0.00002216,0
 .00000147,0.00000101,-0.00000019,-0.00000119,-0.00360449,0.00047423,-0
 .00186542,-0.00014598,-0.00085706,0.00064186,-0.00000721,-0.00000059,0
 .00000828,-0.00000367,-0.00000586,0.00000036,-0.00000031,-0.00000004,0
 .00000009,0.00000029,0.00000189,-0.00000145,-0.00000255,-0.00000580,-0
 .00000071,0.00000160,0.00000236,0.00000047,-0.00000453,-0.00000106,0.0
 0000327,0.00000185,-0.00000023,-0.00000026,-0.06394814,0.00736106,-0.0
 6355844,0.02273979,-0.00194678,0.00670292,-0.02660542,0.00239469,-0.00
 624481,0.07156381,-0.00837397,0.06447903,-0.00008662,-0.00033326,0.000
 36055,-0.00041163,-0.00330780,0.00449686,-0.00039690,0.00123674,-0.001
 62288,-0.00022326,-0.00004209,-0.00012005,-0.00021024,-0.00028759,0.00
 032799,0.00006163,0.00017564,-0.00030693,0.00000708,0.00009661,0.00011
 935,0.00033218,-0.00043358,-0.00001330,-0.00001382,0.00012692,0.000004
 87,-0.00000291,-0.00004436,-0.00007388,0.00000545,0.00000193,0.0000079
 0,-0.10248620,0.03176775,0.03658236,-0.01371371,0.01775195,0.02500164,
 -0.00001535,0.00000918,0.00002411,0.00000210,-0.00001039,-0.00000241,0
 .00000641,-0.00000485,0.00000306,-0.00000800,-0.00000440,-0.00000508,-
 0.00000755,0.00000625,-0.00001718,0.00000389,-0.00000267,0.00000262,0.
 00000486,-0.00000082,0.00000280,-0.00000265,-0.00000118,-0.00000416,0.
 00672075,-0.00839703,-0.01130708,-0.00066219,-0.00401182,-0.00106523,0
 .00012228,0.00027617,-0.00022033,0.00103639,-0.00058647,-0.00068781,0.
 54739453,-0.00062052,-0.00189443,0.00289382,-0.00776944,0.01185789,0.0
 0682703,-0.00001248,-0.00054885,0.00177356,-0.00000819,0.00001661,0.00
 002506,-0.00009186,-0.00017385,-0.00023060,0.00029894,-0.00035819,0.00
 080629,0.00001724,0.00005222,0.00009364,-0.00056978,-0.00082679,-0.000
 79123,0.00008233,-0.00008694,0.00009356,0.00020738,0.00001511,0.000200
 98,-0.00003522,0.00002237,-0.00000792,0.02749606,-0.10616331,-0.039243
 87,0.00324522,-0.00401279,-0.00503726,-0.00002381,0.00002293,0.0000797
 7,-0.00003544,-0.00004506,-0.00000965,-0.00000966,0.00000003,-0.000002
 75,-0.00000658,-0.00000398,-0.00002152,-0.00009143,-0.00008658,-0.0000
 1656,0.00000988,0.00001021,-0.00000043,-0.00002999,0.00000308,0.000054
 48,0.00000814,0.00000621,-0.00000701,0.01451093,-0.02398435,-0.0258911
 2,-0.00272774,-0.00536654,-0.00102780,0.00083287,0.00123218,-0.0003346
 0,0.00060174,0.00211781,0.00029609,0.02773199,0.55098844,-0.00140068,-
 0.00048557,-0.00105794,0.01404569,-0.01171236,-0.02911314,0.00098237,-
 0.00019814,-0.00037526,0.00003945,0.00012535,-0.00046043,0.00050220,0.
 00025820,0.00077673,0.00017615,0.00015438,-0.00042432,0.00002325,-0.00
 009799,-0.00006690,0.00015622,0.00150825,0.00055823,-0.00004868,-0.000
 07266,-0.00000011,-0.00011159,0.00000551,-0.00011859,0.00003686,-0.000
 01158,-0.00000491,0.03627914,-0.04653072,-0.13355841,-0.00219956,0.003
 75515,0.00444607,0.00002082,0.00001772,-0.00000480,0.00003031,0.000012
 89,0.00000324,0.00001189,-0.00001471,0.00000921,-0.00001287,-0.0000024
 7,0.00000073,0.00004250,0.00003314,0.00001525,-0.00000352,-0.00000716,
 0.00000558,0.00001419,-0.00000044,-0.00002127,-0.00000512,-0.00000428,
 -0.00000239,0.00229830,-0.00796424,-0.00588692,-0.00014484,0.00014635,
 0.00074863,0.00031204,0.00126579,0.00067384,0.00059793,0.00076166,0.00
 014470,0.03360918,-0.03814634,0.51576771,-0.00030551,-0.00047838,0.000
 65522,0.00057624,0.00078053,-0.00145262,-0.00017906,-0.00035883,-0.000
 50399,0.00004186,0.00016347,-0.00014172,0.00010114,-0.00047059,0.00037
 379,0.00048502,0.00007224,0.00007469,0.00003978,0.00004346,0.00002220,
 -0.00016667,0.00015672,-0.00040089,-0.00000289,-0.00004286,0.00001463,
 -0.00000370,0.00001171,0.00002592,0.00001954,-0.00000109,-0.00000660,-
 0.01640230,0.00262914,-0.00300782,0.00013903,0.00191822,0.00287897,0.0
 0002357,0.00000331,-0.00000552,0.00000454,0.00000378,0.00000071,0.0000
 0292,-0.00000948,0.00000686,-0.00000474,0.00000599,-0.00000127,0.00000
 499,-0.00000448,0.00000084,0.00000162,-0.00000207,0.00000711,-0.000000
 39,0.00000213,-0.00000067,-0.00000065,0.00000116,-0.00000042,0.0010198
 7,-0.00081794,-0.00027461,0.00024412,-0.00008069,0.00015813,-0.0000116
 7,0.00003653,0.00008393,0.00043135,0.00065700,0.00002681,-0.28698430,0
 .04148264,-0.06000502,0.31322237,0.00005686,0.00035554,-0.00021530,-0.
 00083232,-0.00013154,0.00050878,0.00036234,0.00002577,0.00013028,-0.00
 018763,-0.00029964,-0.00010199,-0.00006146,0.00010956,-0.00015140,-0.0
 0020384,-0.00003308,-0.00003683,-0.00001701,-0.00000402,-0.00001131,0.
 00005151,-0.00008145,0.00014347,0.00000188,0.00003215,-0.00001135,-0.0
 0000811,-0.00000290,-0.00001265,-0.00000402,-0.00000157,0.00000102,0.0
 1691581,-0.00415841,0.00425204,0.00133453,-0.00131660,-0.00287127,-0.0
 0000502,-0.00000200,-0.00000504,0.00000180,0.00000077,-0.00000212,-0.0
 0000008,0.00000286,0.00000325,-0.00000209,-0.00000001,-0.00000084,0.00
 000538,0.00000557,0.00000054,-0.00000101,0.00000046,-0.00000101,0.0000
 0195,-0.00000052,-0.00000401,0.00000054,-0.00000141,0.00000049,0.00084
 436,0.00101686,0.00089580,-0.00022175,0.00017133,0.00003668,-0.0000235
 7,-0.00008139,0.00003430,-0.00033747,-0.00003817,-0.00022199,0.0418338
 9,-0.05369068,0.01141891,-0.04835374,0.05532825,0.00018209,0.00055148,
 -0.00025681,-0.00004898,0.00020426,0.00170670,0.00023453,-0.00018487,-
 0.00016919,-0.00009815,-0.00031538,-0.00121600,0.00001544,0.00018109,-
 0.00027426,-0.00026536,-0.00004212,0.00007823,-0.00002383,-0.00000785,
 -0.00001771,0.00006750,-0.00016544,0.00015318,0.00001618,-0.00004602,-
 0.00002288,0.00000344,0.00001675,0.00001903,-0.00000515,-0.00000006,-0
 .00000113,0.02382527,-0.00466252,0.00509019,0.00220214,-0.00286500,-0.
 00317093,-0.00000101,-0.00000462,-0.00000393,-0.00000429,0.00000137,-0
 .00000069,-0.00000231,0.00000369,-0.00000163,0.00000141,0.00000104,0.0
 0000140,-0.00000123,-0.00000591,0.00000430,-0.00000063,0.00000191,-0.0
 0000303,-0.00000314,0.00000018,0.00000141,0.00000079,-0.00000010,-0.00
 000054,0.00016700,0.00134269,0.00119455,-0.00008849,0.00026948,-0.0000
 3774,-0.00010541,-0.00007930,-0.00000690,-0.00057581,0.00007064,0.0000
 5657,-0.06100107,0.01145437,-0.06009674,0.06475540,-0.00977372,0.06502
 496,-0.00012645,-0.00042475,0.00067814,-0.00038954,0.00291687,0.001172
 46,-0.00012161,-0.00009447,-0.00016230,0.00022095,0.00026091,0.0001151
 7,-0.00006544,-0.00054428,0.00016920,0.00046492,-0.00003191,0.00018583
 ,0.00001133,0.00005982,0.00004390,-0.00029097,-0.00001837,-0.00055452,
 0.00001392,-0.00004435,0.00002864,0.00003218,0.00002324,0.00005671,-0.
 00000443,0.00000262,-0.00000189,-0.00038157,-0.00800901,0.01428522,0.0
 0039914,-0.00067203,-0.00049330,0.00001096,0.00000178,0.00000509,-0.00
 000533,-0.00000400,0.00000266,-0.00000322,-0.00000310,-0.00000080,0.00
 000202,0.00000233,-0.00000206,-0.00001672,-0.00001747,-0.00000129,0.00
 000072,0.00000295,0.00000031,-0.00000637,0.00000064,0.00001097,0.00000
 240,0.00000171,-0.00000053,0.00015949,-0.00068982,-0.00057504,-0.00017
 304,-0.00004401,-0.00007347,0.00021047,0.00008743,-0.00023668,-0.00001
 354,0.00011311,-0.00002566,-0.04739681,0.00362791,-0.00847788,0.000563
 97,0.01595956,-0.02624946,0.04672135,0.00029660,0.00036027,-0.00052937
 ,0.00119700,-0.00154753,-0.00120705,-0.00012195,0.00040481,-0.00024541
 ,-0.00006220,-0.00008274,-0.00000010,-0.00005721,0.00006229,0.00010203
 ,-0.00000104,0.00003181,-0.00011674,-0.00000289,-0.00003475,-0.0000242
 0,0.00009992,0.00026511,0.00012176,-0.00000853,-0.00000177,-0.00002775
 ,-0.00002558,0.,-0.00002943,0.00000147,-0.00000372,0.00000215,-0.00158
 204,0.00778589,-0.01580070,-0.00037164,0.00061408,0.00079658,-0.000004
 84,-0.00000563,-0.00000843,0.00000036,0.00000360,0.00000587,0.00000135
 ,0.00000147,-0.00000398,0.00000776,0.00000359,0.00000594,0.00000674,0.
 00000809,0.00000190,-0.00000115,-0.00000106,-0.00000047,0.00000093,-0.
 00000130,-0.00000309,-0.00000057,0.00000035,0.00000151,0.00008149,0.00
 116580,-0.00031181,0.00001607,0.00029176,0.00012186,0.00017057,-0.0001
 3687,-0.00002808,-0.00010517,-0.00003105,0.00003065,0.00384854,-0.1160
 0847,0.11624023,-0.00012142,-0.00322673,0.00317609,-0.00579878,0.12306
 892,-0.00019314,0.00019191,-0.00118195,0.00256187,-0.00416329,-0.00128
 570,0.00053774,0.00008351,-0.00020062,-0.00002234,0.00003015,0.0001228
 5,0.00004462,0.00007186,0.00004636,-0.00005801,0.00015207,-0.00033723,
 0.00000217,-0.00001617,-0.00006007,0.00026367,0.00041254,0.00026370,-0
 .00005263,0.00004558,-0.00008084,-0.00012743,0.00006104,-0.00007174,0.
 00002015,-0.00000900,0.00000399,-0.00198684,0.01285398,-0.01989512,0.0
 0019459,0.00008692,0.00101835,0.00004448,-0.00000299,-0.00004702,0.000
 02763,0.00003488,-0.00000094,0.00000232,-0.00000268,0.00000368,-0.0000
 0553,-0.00000638,0.00000716,0.00004726,0.00004407,0.00001315,-0.000006
 74,-0.00000545,0.00000071,0.00002234,0.00000033,-0.00003328,-0.0000060
 8,-0.00000423,0.00000298,-0.00039551,0.00126742,0.00072986,0.00016976,
 -0.00011684,0.00034475,-0.00016632,-0.00068288,0.00023221,-0.00000097,
 -0.00010186,-0.00004843,-0.00820183,0.11523083,-0.24022359,-0.00009748
 ,0.00299519,-0.00605767,0.00663833,-0.12600692,0.26198541,0.00039491,0
 .00004631,-0.00054256,0.00040013,0.00021290,-0.00006381,-0.00030526,-0
 .00002437,-0.00007834,0.00008810,-0.00007667,-0.00002284,0.00010250,0.
 00012560,-0.00007321,-0.00008736,0.00009011,-0.00006138,-0.00000877,-0
 .00000443,-0.00003010,-0.00006952,-0.00000236,0.00009244,-0.00000820,-
 0.00002039,-0.00001076,-0.00001446,-0.00001537,-0.00000931,-0.00000378
 ,-0.00000133,0.00000389,0.00698878,0.01385830,0.00177681,0.00064705,-0
 .00030905,-0.00082480,-0.00000073,-0.00000716,-0.00000835,0.00000016,0
 .00000591,0.00000273,-0.00000241,0.00000339,-0.00000731,0.00000824,-0.
 00000162,0.00000425,0.00000380,0.00000923,0.00000123,-0.00000197,-0.00
 000031,-0.00000313,0.00000198,-0.00000050,-0.00000384,-0.00000077,0.00
 000046,0.00000229,-0.00073050,0.00144826,0.00242419,0.00054200,0.00076
 305,0.00034568,-0.00016848,-0.00016785,0.00006262,0.00024110,0.0001849
 6,0.00015192,-0.10307542,-0.10812113,-0.01676874,-0.01286007,-0.027111
 29,-0.00299689,0.00018122,0.00253618,0.00074390,0.10773774,0.00036001,
 0.00038585,-0.00029329,0.00000914,0.00032031,0.00180916,-0.00017213,0.
 00037331,-0.00046331,0.00005930,0.00006820,0.00006035,-0.00012037,-0.0
 0023707,0.00005176,0.00014950,0.00001373,-0.00003435,-0.00000218,0.000
 02592,0.00000342,-0.00001470,0.00002596,-0.00021914,-0.00000614,0.0000
 1112,-0.00001838,-0.00002944,0.00002076,-0.00001004,0.00000397,-0.0000
 0633,0.00000071,-0.00783829,-0.01405389,-0.00133316,0.00011214,0.00032
 642,0.00051258,0.00000849,-0.00000956,-0.00001840,0.00000147,0.0000084
 9,0.00000337,0.00000040,0.00000062,0.00000091,0.00000445,0.00000893,0.
 00000581,0.00000856,0.00000159,0.00000091,-0.00000091,-0.00000038,0.00
 000147,0.00000270,0.00000091,-0.00000379,-0.00000156,0.00000331,0.0000
 0309,0.00282878,-0.00091023,-0.00336191,-0.00063854,-0.00108269,-0.000
 40897,0.00007991,0.00033214,0.00010225,-0.00009749,0.00014084,0.000060
 55,-0.10739526,-0.25309424,-0.03045486,0.00277354,0.00602102,0.0008778
 8,-0.00666450,-0.01298620,-0.00244359,0.11657916,0.27429116,0.00001894
 ,0.00017583,0.00023228,-0.00072008,-0.00110107,0.00108358,-0.00025246,
 0.00019166,0.00001875,0.00007434,-0.00005703,0.00000062,-0.00002543,0.
 00002331,0.00000529,0.00006219,-0.00005459,0.00001933,0.00000996,-0.00
 000709,0.00000073,0.00001272,0.00009412,-0.00011275,0.00000285,-0.0000
 0074,-0.00001111,0.00001588,0.00000615,0.00000747,-0.00000402,0.000001
 13,-0.00000352,-0.01213422,-0.01966681,-0.00408329,-0.00002106,0.00074
 584,0.00091026,-0.00001024,-0.00000672,-0.00000775,-0.00000808,-0.0000
 0147,0.00000799,-0.00000042,0.00000159,-0.00000494,0.00001172,0.000009
 27,0.00001034,-0.00000697,-0.00000733,-0.00000145,0.00000108,0.0000004
 4,0.00000055,-0.00000411,-0.00000052,0.00000710,0.00000058,0.00000443,
 0.00000204,0.00301861,-0.00211242,-0.00358444,-0.00047030,-0.00161652,
 0.00001700,0.00000733,-0.00014983,0.00030096,0.00014612,0.00028319,-0.
 00000663,-0.01589407,-0.02906084,-0.05173420,-0.00318658,-0.00699992,-
 0.00199276,0.01346226,0.02373697,0.00474902,0.01589344,0.03556898,0.05
 416956\\-0.00000090,-0.00000501,-0.00000191,-0.00000265,0.00000099,-0.
 00000132,-0.00000145,0.00001015,0.00000170,-0.00000297,0.00001454,0.00
 000230,0.00000103,0.00001397,0.00000422,0.00000258,0.00000811,0.000003
 72,0.00000454,0.00001124,0.00000527,0.00000117,-0.00000083,0.00000049,
 0.00000150,0.00002117,0.00000627,0.00000361,-0.00000707,0.00000035,0.0
 0000137,-0.00001348,-0.00000278,-0.00000523,-0.00000255,-0.00000357,-0
 .00000584,-0.00001005,-0.00000553,0.00001329,-0.00000870,0.00000445,0.
 00001490,-0.00001323,0.00000402,0.00001594,-0.00000225,0.00000741,0.00
 001638,-0.00001165,0.00000510,-0.00000051,-0.00000294,-0.00000101,0.00
 000199,0.00000335,0.00000185,0.00000071,-0.00000785,-0.00000166,-0.000
 00728,-0.00000161,-0.00000405,-0.00001394,0.00000186,-0.00000659,-0.00
 001870,0.00000123,-0.00000904,-0.00001595,-0.00000124,-0.00000832,-0.0
 0001371,0.00000915,-0.00000451,0.00000124,-0.00000198,0.00000010,0.000
 00205,0.00000516,0.00000238,-0.00000057,-0.00000504,-0.00000162,0.0000
 0738,-0.00000544,0.00000228\\\@
 The archive entry for this job was punched.


 THE REASON MAN'S BEST FRIEND IS A DOG IS BECAUSE
 HE WAGS HIS TAIL INSTEAD OF HIS TONGUE.
 Job cpu time:       0 days  2 hours 30 minutes 21.8 seconds.
 Elapsed time:       0 days  0 hours  4 minutes 54.2 seconds.
 File lengths (MBytes):  RWF=    424 Int=      0 D2E=      0 Chk=     25 Scr=      1
 Normal termination of Gaussian 16 at Fri May 30 05:44:12 2025.
