/home/tahminaafroz
cn007.cluster.local
tahminaafroz
Fri May  9 02:33:07 CDT 2025
 Entering Gaussian System, Link 0=g16
 Initial command:
 /home/apps/g16/l1.exe "/tmp/2-6-diisopropyl-phboh2-opt-freq-2-thf/Gau-2437564.inp" -scrdir="/tmp/2-6-diisopropyl-phboh2-opt-freq-2-thf/"
 Entering Link 1 = /home/apps/g16/l1.exe PID=   2437565.
  
 Copyright (c) 1988-2019, Gaussian, Inc.  All Rights Reserved.
  
 This is part of the Gaussian(R) 16 program.  It is based on
 the Gaussian(R) 09 system (copyright 2009, Gaussian, Inc.),
 the Gaussian(R) 03 system (copyright 2003, Gaussian, Inc.),
 the Gaussian(R) 98 system (copyright 1998, Gaussian, Inc.),
 the Gaussian(R) 94 system (copyright 1995, Gaussian, Inc.),
 the Gaussian 92(TM) system (copyright 1992, Gaussian, Inc.),
 the Gaussian 90(TM) system (copyright 1990, Gaussian, Inc.),
 the Gaussian 88(TM) system (copyright 1988, Gaussian, Inc.),
 the Gaussian 86(TM) system (copyright 1986, Carnegie Mellon
 University), and the Gaussian 82(TM) system (copyright 1983,
 Carnegie Mellon University). Gaussian is a federally registered
 trademark of Gaussian, Inc.
  
 This software contains proprietary and confidential information,
 including trade secrets, belonging to Gaussian, Inc.
  
 This software is provided under written license and may be
 used, copied, transmitted, or stored only in accord with that
 written license.
  
 The following legend is applicable only to US Government
 contracts under FAR:
  
                    RESTRICTED RIGHTS LEGEND
  
 Use, reproduction and disclosure by the US Government is
 subject to restrictions as set forth in subparagraphs (a)
 and (c) of the Commercial Computer Software - Restricted
 Rights clause in FAR 52.227-19.
  
 Gaussian, Inc.
 340 Quinnipiac St., Bldg. 40, Wallingford CT 06492
  
  
 ---------------------------------------------------------------
 Warning -- This program may not be used in any manner that
 competes with the business of Gaussian, Inc. or will provide
 assistance to any competitor of Gaussian, Inc.  The licensee
 of this program is prohibited from giving any competitor of
 Gaussian, Inc. access to this program.  By using this program,
 the user acknowledges that Gaussian, Inc. is engaged in the
 business of creating and licensing software in the field of
 computational chemistry and represents and warrants to the
 licensee that it is not a competitor of Gaussian, Inc. and that
 it will not use this program in any manner prohibited above.
 ---------------------------------------------------------------
  

 Cite this work as:
 Gaussian 16, Revision C.01,
 M. J. Frisch, G. W. Trucks, H. B. Schlegel, G. E. Scuseria, 
 M. A. Robb, J. R. Cheeseman, G. Scalmani, V. Barone, 
 G. A. Petersson, H. Nakatsuji, X. Li, M. Caricato, A. V. Marenich, 
 J. Bloino, B. G. Janesko, R. Gomperts, B. Mennucci, H. P. Hratchian, 
 J. V. Ortiz, A. F. Izmaylov, J. L. Sonnenberg, D. Williams-Young, 
 F. Ding, F. Lipparini, F. Egidi, J. Goings, B. Peng, A. Petrone, 
 T. Henderson, D. Ranasinghe, V. G. Zakrzewski, J. Gao, N. Rega, 
 G. Zheng, W. Liang, M. Hada, M. Ehara, K. Toyota, R. Fukuda, 
 J. Hasegawa, M. Ishida, T. Nakajima, Y. Honda, O. Kitao, H. Nakai, 
 T. Vreven, K. Throssell, J. A. Montgomery, Jr., J. E. Peralta, 
 F. Ogliaro, M. J. Bearpark, J. J. Heyd, E. N. Brothers, K. N. Kudin, 
 V. N. Staroverov, T. A. Keith, R. Kobayashi, J. Normand, 
 K. Raghavachari, A. P. Rendell, J. C. Burant, S. S. Iyengar, 
 J. Tomasi, M. Cossi, J. M. Millam, M. Klene, C. Adamo, R. Cammi, 
 J. W. Ochterski, R. L. Martin, K. Morokuma, O. Farkas, 
 J. B. Foresman, and D. J. Fox, Gaussian, Inc., Wallingford CT, 2019.
 
 ******************************************
 Gaussian 16:  AS64L-G16RevC.01  3-Jul-2019
                 9-May-2025 
 ******************************************
 %mem=20GB
 %nprocshared=32
 Will use up to   32 processors via shared memory.
 %chk=2-6-diisopropyl-phboh2-opt-freq-2-thf.chk
 ----------------------------------------------------------------------
 # opt=(calcfc,tight) freq 6-311+g(d,p) scrf=(smd,solvent=thf) nosymm s
 cf=(qc,fermi,xqc) geom=connectivity int=ultrafine m062x
 ----------------------------------------------------------------------
 1/7=10,10=4,18=20,19=15,26=6,38=1,57=2/1,3;
 2/9=110,12=2,15=1,17=6,18=5,40=1/2;
 3/5=4,6=6,7=111,11=2,25=1,30=1,70=32201,71=2,72=20,74=-55,75=-5,140=1/1,2,3;
 4//1;
 5/5=2,22=13,38=5,53=20/2;
 8/6=4,10=90,11=11/1;
 11/6=1,8=1,9=11,15=111,16=1,31=1/1,2,10;
 10/6=1,13=1,31=1/2;
 6/7=2,8=2,9=2,10=2,28=1/1;
 7/10=1,25=1,30=1/1,2,3,16;
 1/7=10,10=4,18=20,19=15,26=6/3(2);
 2/9=110,15=1/2;
 99//99;
 2/9=110,15=1/2;
 3/5=4,6=6,7=111,11=2,25=1,30=1,70=32205,71=1,72=20,74=-55,75=-5/1,2,3;
 4/5=5,16=3,69=1/1;
 5/5=2,22=13,38=5,53=20/2;
 7/30=1/1,2,3,16;
 1/7=10,18=20,19=15,26=6/3(-5);
 2/9=110,15=1/2;
 6/7=2,8=2,9=2,10=2,19=2,28=1/1;
 99/9=1/99;
 -------------------------------------
 2-6-diisopropyl-phboh2-opt-freq-2-thf
 -------------------------------------
 Symbolic Z-matrix:
 Charge =  0 Multiplicity = 1
 O                     8.34936   7.49701   6.58148 
 H                     9.17938   7.15726   6.93182 
 C                     6.31144   6.90649   5.15963 
 B                     7.6899    6.56216   5.84253 
 O                     8.27519   5.3273    5.72073 
 H                     7.75872   4.72716   5.17812 
 C                     5.11068   6.49596   5.75822 
 C                     3.89841   6.77506   5.12297 
 H                     2.96375   6.46234   5.5768 
 C                     3.87804   7.45248   3.91294 
 C                     5.0679    7.86482   3.32194 
 H                     5.03483   8.39612   2.37784 
 C                     6.29081   7.59882   3.93409 
 H                     2.93244   7.663     3.4263 
 C                     7.59165   8.10418   3.32962 
 H                     8.40013   7.45225   3.68308 
 C                     5.10708   5.76355   7.09101 
 H                     6.14312   5.67095   7.43503 
 C                     7.88261   9.52305   3.83813 
 H                     8.83171   9.88919   3.43748 
 H                     7.08912   10.20365   3.51625 
 H                     7.93242   9.54179   4.928 
 C                     7.6145    8.06273   1.79999 
 H                     6.93332   8.80208   1.37157 
 H                     8.61699   8.29782   1.43548 
 H                     7.33137   7.07833   1.42105 
 C                     4.53968   4.34661   6.95029 
 H                     5.09529   3.76935   6.20735 
 H                     4.58706   3.81607   7.90445 
 H                     3.49381   4.37782   6.63364 
 C                     4.34508   6.55462   8.16005 
 H                     3.28892   6.65047   7.89514 
 H                     4.40372   6.04683   9.12594 
 H                     4.75886   7.55882   8.26971 
 

 GradGradGradGradGradGradGradGradGradGradGradGradGradGradGradGradGradGrad
 Berny optimization.
 Initialization pass.
                           ----------------------------
                           !    Initial Parameters    !
                           ! (Angstroms and Degrees)  !
 --------------------------                            --------------------------
 ! Name  Definition              Value          Derivative Info.                !
 --------------------------------------------------------------------------------
 ! R1    R(1,2)                  0.9629         calculate D2E/DX2 analytically  !
 ! R2    R(1,4)                  1.3619         calculate D2E/DX2 analytically  !
 ! R3    R(3,4)                  1.5764         calculate D2E/DX2 analytically  !
 ! R4    R(3,7)                  1.4031         calculate D2E/DX2 analytically  !
 ! R5    R(3,13)                 1.4077         calculate D2E/DX2 analytically  !
 ! R6    R(4,5)                  1.372          calculate D2E/DX2 analytically  !
 ! R7    R(5,6)                  0.9599         calculate D2E/DX2 analytically  !
 ! R8    R(7,8)                  1.3968         calculate D2E/DX2 analytically  !
 ! R9    R(7,17)                 1.5208         calculate D2E/DX2 analytically  !
 ! R10   R(8,9)                  1.0851         calculate D2E/DX2 analytically  !
 ! R11   R(8,10)                 1.3869         calculate D2E/DX2 analytically  !
 ! R12   R(10,11)                1.3911         calculate D2E/DX2 analytically  !
 ! R13   R(10,14)                1.0841         calculate D2E/DX2 analytically  !
 ! R14   R(11,12)                1.0838         calculate D2E/DX2 analytically  !
 ! R15   R(11,13)                1.3932         calculate D2E/DX2 analytically  !
 ! R16   R(13,15)                1.5208         calculate D2E/DX2 analytically  !
 ! R17   R(15,16)                1.0971         calculate D2E/DX2 analytically  !
 ! R18   R(15,19)                1.5351         calculate D2E/DX2 analytically  !
 ! R19   R(15,23)                1.5304         calculate D2E/DX2 analytically  !
 ! R20   R(17,18)                1.0956         calculate D2E/DX2 analytically  !
 ! R21   R(17,27)                1.5328         calculate D2E/DX2 analytically  !
 ! R22   R(17,31)                1.5327         calculate D2E/DX2 analytically  !
 ! R23   R(19,20)                1.0933         calculate D2E/DX2 analytically  !
 ! R24   R(19,21)                1.0938         calculate D2E/DX2 analytically  !
 ! R25   R(19,22)                1.0912         calculate D2E/DX2 analytically  !
 ! R26   R(23,24)                1.0928         calculate D2E/DX2 analytically  !
 ! R27   R(23,25)                1.0923         calculate D2E/DX2 analytically  !
 ! R28   R(23,26)                1.0922         calculate D2E/DX2 analytically  !
 ! R29   R(27,28)                1.0926         calculate D2E/DX2 analytically  !
 ! R30   R(27,29)                1.0928         calculate D2E/DX2 analytically  !
 ! R31   R(27,30)                1.0932         calculate D2E/DX2 analytically  !
 ! R32   R(31,32)                1.0931         calculate D2E/DX2 analytically  !
 ! R33   R(31,33)                1.0928         calculate D2E/DX2 analytically  !
 ! R34   R(31,34)                1.0916         calculate D2E/DX2 analytically  !
 ! A1    A(2,1,4)              111.8769         calculate D2E/DX2 analytically  !
 ! A2    A(4,3,7)              119.974          calculate D2E/DX2 analytically  !
 ! A3    A(4,3,13)             119.8265         calculate D2E/DX2 analytically  !
 ! A4    A(7,3,13)             120.1832         calculate D2E/DX2 analytically  !
 ! A5    A(1,4,3)              120.565          calculate D2E/DX2 analytically  !
 ! A6    A(1,4,5)              117.3501         calculate D2E/DX2 analytically  !
 ! A7    A(3,4,5)              122.0847         calculate D2E/DX2 analytically  !
 ! A8    A(4,5,6)              112.5449         calculate D2E/DX2 analytically  !
 ! A9    A(3,7,8)              119.3571         calculate D2E/DX2 analytically  !
 ! A10   A(3,7,17)             121.1197         calculate D2E/DX2 analytically  !
 ! A11   A(8,7,17)             119.5212         calculate D2E/DX2 analytically  !
 ! A12   A(7,8,9)              119.9866         calculate D2E/DX2 analytically  !
 ! A13   A(7,8,10)             120.4733         calculate D2E/DX2 analytically  !
 ! A14   A(9,8,10)             119.54           calculate D2E/DX2 analytically  !
 ! A15   A(8,10,11)            120.1917         calculate D2E/DX2 analytically  !
 ! A16   A(8,10,14)            119.954          calculate D2E/DX2 analytically  !
 ! A17   A(11,10,14)           119.8542         calculate D2E/DX2 analytically  !
 ! A18   A(10,11,12)           119.2938         calculate D2E/DX2 analytically  !
 ! A19   A(10,11,13)           120.5001         calculate D2E/DX2 analytically  !
 ! A20   A(12,11,13)           120.206          calculate D2E/DX2 analytically  !
 ! A21   A(3,13,11)            119.2934         calculate D2E/DX2 analytically  !
 ! A22   A(3,13,15)            119.7956         calculate D2E/DX2 analytically  !
 ! A23   A(11,13,15)           120.845          calculate D2E/DX2 analytically  !
 ! A24   A(13,15,16)           107.7471         calculate D2E/DX2 analytically  !
 ! A25   A(13,15,19)           109.7308         calculate D2E/DX2 analytically  !
 ! A26   A(13,15,23)           113.6429         calculate D2E/DX2 analytically  !
 ! A27   A(16,15,19)           107.6288         calculate D2E/DX2 analytically  !
 ! A28   A(16,15,23)           107.1535         calculate D2E/DX2 analytically  !
 ! A29   A(19,15,23)           110.6901         calculate D2E/DX2 analytically  !
 ! A30   A(7,17,18)            108.2797         calculate D2E/DX2 analytically  !
 ! A31   A(7,17,27)            111.4459         calculate D2E/DX2 analytically  !
 ! A32   A(7,17,31)            111.3378         calculate D2E/DX2 analytically  !
 ! A33   A(18,17,27)           107.5028         calculate D2E/DX2 analytically  !
 ! A34   A(18,17,31)           107.1419         calculate D2E/DX2 analytically  !
 ! A35   A(27,17,31)           110.9228         calculate D2E/DX2 analytically  !
 ! A36   A(15,19,20)           110.6517         calculate D2E/DX2 analytically  !
 ! A37   A(15,19,21)           109.8854         calculate D2E/DX2 analytically  !
 ! A38   A(15,19,22)           110.8181         calculate D2E/DX2 analytically  !
 ! A39   A(20,19,21)           108.2713         calculate D2E/DX2 analytically  !
 ! A40   A(20,19,22)           108.7015         calculate D2E/DX2 analytically  !
 ! A41   A(21,19,22)           108.4419         calculate D2E/DX2 analytically  !
 ! A42   A(15,23,24)           111.3601         calculate D2E/DX2 analytically  !
 ! A43   A(15,23,25)           109.9636         calculate D2E/DX2 analytically  !
 ! A44   A(15,23,26)           111.5516         calculate D2E/DX2 analytically  !
 ! A45   A(24,23,25)           107.1961         calculate D2E/DX2 analytically  !
 ! A46   A(24,23,26)           108.1921         calculate D2E/DX2 analytically  !
 ! A47   A(25,23,26)           108.4287         calculate D2E/DX2 analytically  !
 ! A48   A(17,27,28)           111.258          calculate D2E/DX2 analytically  !
 ! A49   A(17,27,29)           110.646          calculate D2E/DX2 analytically  !
 ! A50   A(17,27,30)           110.7531         calculate D2E/DX2 analytically  !
 ! A51   A(28,27,29)           108.3705         calculate D2E/DX2 analytically  !
 ! A52   A(28,27,30)           107.7349         calculate D2E/DX2 analytically  !
 ! A53   A(29,27,30)           107.9545         calculate D2E/DX2 analytically  !
 ! A54   A(17,31,32)           110.8905         calculate D2E/DX2 analytically  !
 ! A55   A(17,31,33)           110.4856         calculate D2E/DX2 analytically  !
 ! A56   A(17,31,34)           110.8797         calculate D2E/DX2 analytically  !
 ! A57   A(32,31,33)           107.8653         calculate D2E/DX2 analytically  !
 ! A58   A(32,31,34)           108.0548         calculate D2E/DX2 analytically  !
 ! A59   A(33,31,34)           108.5614         calculate D2E/DX2 analytically  !
 ! D1    D(2,1,4,3)           -179.4102         calculate D2E/DX2 analytically  !
 ! D2    D(2,1,4,5)              0.4507         calculate D2E/DX2 analytically  !
 ! D3    D(7,3,4,1)           -100.0125         calculate D2E/DX2 analytically  !
 ! D4    D(7,3,4,5)             80.1333         calculate D2E/DX2 analytically  !
 ! D5    D(13,3,4,1)            81.4497         calculate D2E/DX2 analytically  !
 ! D6    D(13,3,4,5)           -98.4045         calculate D2E/DX2 analytically  !
 ! D7    D(4,3,7,8)           -178.207          calculate D2E/DX2 analytically  !
 ! D8    D(4,3,7,17)             2.3114         calculate D2E/DX2 analytically  !
 ! D9    D(13,3,7,8)             0.3255         calculate D2E/DX2 analytically  !
 ! D10   D(13,3,7,17)         -179.1561         calculate D2E/DX2 analytically  !
 ! D11   D(4,3,13,11)          178.2338         calculate D2E/DX2 analytically  !
 ! D12   D(4,3,13,15)           -4.6943         calculate D2E/DX2 analytically  !
 ! D13   D(7,3,13,11)           -0.3009         calculate D2E/DX2 analytically  !
 ! D14   D(7,3,13,15)          176.771          calculate D2E/DX2 analytically  !
 ! D15   D(1,4,5,6)           -179.2786         calculate D2E/DX2 analytically  !
 ! D16   D(3,4,5,6)              0.5801         calculate D2E/DX2 analytically  !
 ! D17   D(3,7,8,9)           -179.997          calculate D2E/DX2 analytically  !
 ! D18   D(3,7,8,10)            -0.0703         calculate D2E/DX2 analytically  !
 ! D19   D(17,7,8,9)            -0.507          calculate D2E/DX2 analytically  !
 ! D20   D(17,7,8,10)          179.4197         calculate D2E/DX2 analytically  !
 ! D21   D(3,7,17,18)            1.2487         calculate D2E/DX2 analytically  !
 ! D22   D(3,7,17,27)         -116.7892         calculate D2E/DX2 analytically  !
 ! D23   D(3,7,17,31)          118.7834         calculate D2E/DX2 analytically  !
 ! D24   D(8,7,17,18)         -178.2321         calculate D2E/DX2 analytically  !
 ! D25   D(8,7,17,27)           63.73           calculate D2E/DX2 analytically  !
 ! D26   D(8,7,17,31)          -60.6974         calculate D2E/DX2 analytically  !
 ! D27   D(7,8,10,11)           -0.2095         calculate D2E/DX2 analytically  !
 ! D28   D(7,8,10,14)          179.8828         calculate D2E/DX2 analytically  !
 ! D29   D(9,8,10,11)          179.7175         calculate D2E/DX2 analytically  !
 ! D30   D(9,8,10,14)           -0.1902         calculate D2E/DX2 analytically  !
 ! D31   D(8,10,11,12)        -179.793          calculate D2E/DX2 analytically  !
 ! D32   D(8,10,11,13)           0.2346         calculate D2E/DX2 analytically  !
 ! D33   D(14,10,11,12)          0.1147         calculate D2E/DX2 analytically  !
 ! D34   D(14,10,11,13)       -179.8576         calculate D2E/DX2 analytically  !
 ! D35   D(10,11,13,3)           0.0207         calculate D2E/DX2 analytically  !
 ! D36   D(10,11,13,15)       -177.0197         calculate D2E/DX2 analytically  !
 ! D37   D(12,11,13,3)        -179.9515         calculate D2E/DX2 analytically  !
 ! D38   D(12,11,13,15)          3.0082         calculate D2E/DX2 analytically  !
 ! D39   D(3,13,15,16)          27.2157         calculate D2E/DX2 analytically  !
 ! D40   D(3,13,15,19)         -89.6951         calculate D2E/DX2 analytically  !
 ! D41   D(3,13,15,23)         145.7806         calculate D2E/DX2 analytically  !
 ! D42   D(11,13,15,16)       -155.7587         calculate D2E/DX2 analytically  !
 ! D43   D(11,13,15,19)         87.3306         calculate D2E/DX2 analytically  !
 ! D44   D(11,13,15,23)        -37.1938         calculate D2E/DX2 analytically  !
 ! D45   D(13,15,19,20)        178.1971         calculate D2E/DX2 analytically  !
 ! D46   D(13,15,19,21)        -62.29           calculate D2E/DX2 analytically  !
 ! D47   D(13,15,19,22)         57.54           calculate D2E/DX2 analytically  !
 ! D48   D(16,15,19,20)         61.2122         calculate D2E/DX2 analytically  !
 ! D49   D(16,15,19,21)       -179.2749         calculate D2E/DX2 analytically  !
 ! D50   D(16,15,19,22)        -59.4449         calculate D2E/DX2 analytically  !
 ! D51   D(23,15,19,20)        -55.5836         calculate D2E/DX2 analytically  !
 ! D52   D(23,15,19,21)         63.9292         calculate D2E/DX2 analytically  !
 ! D53   D(23,15,19,22)       -176.2408         calculate D2E/DX2 analytically  !
 ! D54   D(13,15,23,24)         69.5129         calculate D2E/DX2 analytically  !
 ! D55   D(13,15,23,25)       -171.8142         calculate D2E/DX2 analytically  !
 ! D56   D(13,15,23,26)        -51.4774         calculate D2E/DX2 analytically  !
 ! D57   D(16,15,23,24)       -171.5819         calculate D2E/DX2 analytically  !
 ! D58   D(16,15,23,25)        -52.909          calculate D2E/DX2 analytically  !
 ! D59   D(16,15,23,26)         67.4278         calculate D2E/DX2 analytically  !
 ! D60   D(19,15,23,24)        -54.4932         calculate D2E/DX2 analytically  !
 ! D61   D(19,15,23,25)         64.1798         calculate D2E/DX2 analytically  !
 ! D62   D(19,15,23,26)       -175.4834         calculate D2E/DX2 analytically  !
 ! D63   D(7,17,27,28)          56.7802         calculate D2E/DX2 analytically  !
 ! D64   D(7,17,27,29)         177.3086         calculate D2E/DX2 analytically  !
 ! D65   D(7,17,27,30)         -63.0183         calculate D2E/DX2 analytically  !
 ! D66   D(18,17,27,28)        -61.724          calculate D2E/DX2 analytically  !
 ! D67   D(18,17,27,29)         58.8044         calculate D2E/DX2 analytically  !
 ! D68   D(18,17,27,30)        178.4775         calculate D2E/DX2 analytically  !
 ! D69   D(31,17,27,28)       -178.5594         calculate D2E/DX2 analytically  !
 ! D70   D(31,17,27,29)        -58.0309         calculate D2E/DX2 analytically  !
 ! D71   D(31,17,27,30)         61.6422         calculate D2E/DX2 analytically  !
 ! D72   D(7,17,31,32)          63.9565         calculate D2E/DX2 analytically  !
 ! D73   D(7,17,31,33)        -176.4972         calculate D2E/DX2 analytically  !
 ! D74   D(7,17,31,34)         -56.0859         calculate D2E/DX2 analytically  !
 ! D75   D(18,17,31,32)       -177.8219         calculate D2E/DX2 analytically  !
 ! D76   D(18,17,31,33)        -58.2757         calculate D2E/DX2 analytically  !
 ! D77   D(18,17,31,34)         62.1357         calculate D2E/DX2 analytically  !
 ! D78   D(27,17,31,32)        -60.7651         calculate D2E/DX2 analytically  !
 ! D79   D(27,17,31,33)         58.7811         calculate D2E/DX2 analytically  !
 ! D80   D(27,17,31,34)        179.1925         calculate D2E/DX2 analytically  !
 --------------------------------------------------------------------------------
 Trust Radius=3.00D-01 FncErr=5.00D-06 GrdErr=5.00D-06 EigMax=2.50D+02 EigMin=1.00D-04
 Number of steps in this run=    183 maximum allowed number of steps=    204.
 GradGradGradGradGradGradGradGradGradGradGradGradGradGradGradGradGradGrad

                          Input orientation:                          
 ---------------------------------------------------------------------
 Center     Atomic      Atomic             Coordinates (Angstroms)
 Number     Number       Type             X           Y           Z
 ---------------------------------------------------------------------
      1          8           0        8.349359    7.497009    6.581479
      2          1           0        9.179385    7.157256    6.931821
      3          6           0        6.311443    6.906488    5.159627
      4          5           0        7.689904    6.562160    5.842534
      5          8           0        8.275185    5.327303    5.720733
      6          1           0        7.758716    4.727156    5.178123
      7          6           0        5.110682    6.495961    5.758224
      8          6           0        3.898409    6.775055    5.122973
      9          1           0        2.963747    6.462340    5.576800
     10          6           0        3.878037    7.452475    3.912943
     11          6           0        5.067900    7.864821    3.321939
     12          1           0        5.034831    8.396117    2.377842
     13          6           0        6.290813    7.598821    3.934087
     14          1           0        2.932442    7.662995    3.426299
     15          6           0        7.591650    8.104185    3.329619
     16          1           0        8.400132    7.452250    3.683082
     17          6           0        5.107079    5.763549    7.091011
     18          1           0        6.143122    5.670953    7.435034
     19          6           0        7.882614    9.523047    3.838132
     20          1           0        8.831711    9.889191    3.437480
     21          1           0        7.089123   10.203652    3.516251
     22          1           0        7.932421    9.541792    4.928004
     23          6           0        7.614496    8.062734    1.799990
     24          1           0        6.933318    8.802081    1.371566
     25          1           0        8.616987    8.297823    1.435476
     26          1           0        7.331370    7.078325    1.421053
     27          6           0        4.539680    4.346606    6.950292
     28          1           0        5.095287    3.769351    6.207353
     29          1           0        4.587058    3.816071    7.904449
     30          1           0        3.493812    4.377821    6.633637
     31          6           0        4.345084    6.554621    8.160045
     32          1           0        3.288923    6.650466    7.895143
     33          1           0        4.403716    6.046831    9.125941
     34          1           0        4.758863    7.558824    8.269707
 ---------------------------------------------------------------------
                    Distance matrix (angstroms):
                    1          2          3          4          5
     1  O    0.000000
     2  H    0.962868   0.000000
     3  C    2.554110   3.380628   0.000000
     4  B    1.361934   1.938876   1.576413   0.000000
     5  O    2.335382   2.373403   2.581656   1.371955   0.000000
     6  H    3.160752   3.316496   2.616186   1.952797   0.959866
     7  C    3.488391   4.285905   1.403096   2.581449   3.373610
     8  C    4.739136   5.595240   2.416889   3.865039   4.648599
     9  H    5.575369   6.399465   3.402700   4.734674   5.433268
    10  C    5.207282   6.107788   2.788151   4.364208   5.207626
    11  C    4.639812   5.516902   2.417002   3.863318   4.741296
    12  H    5.428172   6.280990   3.403977   4.734649   5.576059
    13  C    3.355095   4.186315   1.407728   2.583465   3.505657
    14  H    6.271021   7.181139   3.872257   5.448254   6.266162
    15  C    3.393726   4.048881   2.534233   2.949955   3.727696
    16  H    2.899187   3.353888   2.615466   2.441294   2.946699
    17  C    3.711723   4.307138   2.546968   2.977828   3.479205
    18  H    2.988397   3.417779   2.594678   2.392246   2.757284
    19  C    3.442184   4.104813   3.325855   3.580728   4.615470
    20  H    3.979941   4.449131   4.267793   4.261120   5.131646
    21  H    4.278987   5.031485   3.765204   4.362682   5.481356
    22  H    2.662509   3.355028   3.102587   3.126242   4.302072
    23  C    4.870596   5.440998   3.784444   4.312722   4.826108
    24  H    5.554420   6.218256   4.281286   5.057591   5.726250
    25  H    5.214813   5.641542   4.595720   4.826403   5.225346
    26  H    5.276513   5.812913   3.879009   4.465923   4.737522
    27  C    4.957289   5.424662   3.591465   4.007458   4.053095
    28  H    4.962297   5.355615   3.523974   3.829479   3.574320
    29  H    5.427197   5.761856   4.478641   4.628191   4.544746
    30  H    5.771342   6.335607   4.062746   4.796287   4.959480
    31  C    4.406153   5.024159   3.604565   4.069243   4.785629
    32  H    5.296259   5.990189   4.084632   4.856916   5.598359
    33  H    4.913797   5.371612   4.484426   4.673902   5.205904
    34  H    3.968072   4.635969   3.536756   3.933892   4.882773
                    6          7          8          9         10
     6  H    0.000000
     7  C    3.236861   0.000000
     8  C    4.370229   1.396797   0.000000
     9  H    5.114835   2.154849   1.085054   0.000000
    10  C    4.907924   2.416484   1.386898   2.141194   0.000000
    11  C    4.531098   2.794833   2.408116   3.388039   1.391075
    12  H    5.359328   3.878573   3.384530   4.273431   2.141300
    13  C    3.456707   2.436490   2.795646   3.880652   2.417303
    14  H    5.914470   3.397730   2.144815   2.463170   1.084108
    15  C    3.853466   3.826187   4.315407   5.400274   3.815221
    16  H    3.173752   4.005145   4.774661   5.841265   4.527933
    17  C    3.429931   1.520777   2.521349   2.715698   3.803042
    18  H    2.931645   2.135009   3.406377   3.766663   4.550775
    19  C    4.981114   4.531403   5.007611   6.048648   4.508825
    20  H    5.552275   5.544900   6.072578   7.124114   5.540987
    21  H    5.762133   4.763155   4.951514   5.938182   4.247048
    22  H    4.824257   4.234213   4.895518   5.881469   4.672646
    23  C    4.749596   4.938773   5.148751   6.201211   4.335679
    24  H    5.637036   5.280432   5.233790   6.238259   4.196996
    25  H    5.243443   5.850387   6.179113   7.244217   5.413881
    26  H    4.452662   4.907306   5.057806   6.060182   4.274928
    27  C    3.694265   2.523251   3.106073   2.974286   4.394278
    28  H    3.011737   2.763396   3.412133   3.491883   4.506819
    29  H    4.280461   3.473078   4.119033   3.880184   5.445940
    30  H    4.519952   2.804841   2.862261   2.396475   4.123506
    31  C    4.887164   2.521572   3.077648   2.930830   4.366022
    32  H    5.573183   2.812312   2.841113   2.348584   4.104655
    33  H    5.346292   3.470308   4.099927   3.852604   5.424714
    34  H    5.155129   2.749727   3.355087   3.417085   4.446185
                   11         12         13         14         15
    11  C    0.000000
    12  H    1.083830   0.000000
    13  C    1.393197   2.152921   0.000000
    14  H    2.147511   2.461050   3.397149   0.000000
    15  C    2.535087   2.743798   1.520839   4.681048   0.000000
    16  H    3.377041   3.730923   2.129252   5.477772   1.097086
    17  C    4.315412   5.399037   3.838700   4.665518   5.079344
    18  H    4.784006   5.850643   3.999390   5.508780   4.987312
    19  C    3.307383   3.392976   2.499137   5.304112   1.535062
    20  H    4.275242   4.215258   3.456671   6.305351   2.176151
    21  H    3.097294   2.963659   2.756271   4.872476   2.166824
    22  H    3.687432   4.026404   2.730913   5.548404   2.176620
    23  C    2.973323   2.664532   2.553766   4.972555   1.530361
    24  H    2.856956   2.186699   2.902957   4.639661   2.180466
    25  H    4.042555   3.705342   3.484644   6.056437   2.162542
    26  H    3.058634   2.815335   2.769299   4.869643   2.182375
    27  C    5.081515   6.127888   4.768738   5.099037   6.045097
    28  H    5.009914   6.006311   4.611059   5.250964   5.770959
    29  H    6.133758   7.191711   5.742452   6.131102   6.953026
    30  H    5.060066   6.052539   5.048329   4.625421   6.449388
    31  C    5.064223   6.107432   4.768117   5.062845   6.022819
    32  H    5.055058   6.044510   5.059712   4.595961   6.439780
    33  H    6.118224   7.173165   5.738045   6.104306   6.927696
    34  H    4.966845   5.957457   4.598486   5.177380   5.720714
                   16         17         18         19         20
    16  H    0.000000
    17  C    5.030893   0.000000
    18  H    4.726971   1.095587   0.000000
    19  C    2.140109   5.693737   5.549970   0.000000
    20  H    2.487019   6.651473   6.403318   1.093329   0.000000
    21  H    3.052342   6.035058   6.066064   1.093827   1.772485
    22  H    2.476847   5.190017   4.946735   1.091171   1.775125
    23  C    2.129777   6.290333   6.295973   2.521592   2.738418
    24  H    3.052326   6.729032   6.869790   2.739508   3.008937
    25  H    2.411172   7.122294   7.001082   2.795216   2.566433
    26  H    2.529594   6.230933   6.289722   3.481782   3.770672
    27  C    5.934878   1.532798   2.135391   6.903353   7.841022
    28  H    5.554970   2.181242   2.494243   6.818168   7.686709
    29  H    6.751390   2.173654   2.466226   7.743720   8.651802
    30  H    6.498451   2.175331   3.055040   7.317772   8.311666
    31  C    6.106746   1.532731   2.130599   6.324919   7.317909
    32  H    6.671490   2.176911   3.052474   6.768534   7.815536
    33  H    6.897192   2.171614   2.454788   7.221339   8.168810
    34  H    5.857246   2.175682   2.485339   5.766702   6.735660
                   21         22         23         24         25
    21  H    0.000000
    22  H    1.772641   0.000000
    23  C    2.793761   3.474645   0.000000
    24  H    2.566778   3.767443   1.092788   0.000000
    25  H    3.208766   3.770125   1.092303   1.758722   0.000000
    26  H    3.770439   4.327660   1.092161   1.769810   1.772059
    27  C    7.252399   6.526124   7.056182   7.530136   7.915159
    28  H    7.253802   6.557983   6.648639   7.217449   7.461919
    29  H    8.143574   7.268739   8.028944   8.546566   8.841608
    30  H    7.522278   7.019760   7.343212   7.687241   8.284577
    31  C    6.512296   5.677875   7.308472   7.604833   8.155228
    32  H    6.800099   6.223002   7.606311   7.776125   8.534011
    33  H    7.480588   6.503014   8.248790   8.609333   9.053279
    34  H    5.917818   5.017032   7.089838   7.338821   7.882763
                   26         27         28         29         30
    26  H    0.000000
    27  C    6.769661   0.000000
    28  H    6.233622   1.092649   0.000000
    29  H    7.759380   1.092761   1.772178   0.000000
    30  H    7.013601   1.093199   1.765411   1.767969   0.000000
    31  C    7.389600   2.525213   3.483323   2.761075   2.791602
    32  H    7.644494   2.786558   3.796368   3.117537   2.607353
    33  H    8.306650   2.764543   3.766078   2.549892   3.134501
    34  H    7.331626   3.479546   4.327423   3.764456   3.794188
                   31         32         33         34
    31  C    0.000000
    32  H    1.093085   0.000000
    33  H    1.092814   1.766919   0.000000
    34  H    1.091633   1.768088   1.773524   0.000000
 Symmetry turned off by external request.
 Stoichiometry    C12H19BO2
 Framework group  C1[X(C12H19BO2)]
 Deg. of freedom    96
 Full point group                 C1      NOp   1
 Rotational constants (GHZ):           0.8261991           0.4637236           0.3599980
 Standard basis: 6-311+G(d,p) (5D, 7F)
   444 basis functions,   692 primitive gaussians,   459 cartesian basis functions
    56 alpha electrons       56 beta electrons
       nuclear repulsion energy      1013.7159246882 Hartrees.
 NAtoms=   34 NActive=   34 NUniq=   34 SFac= 1.00D+00 NAtFMM=   60 NAOKFM=F Big=F
 Integral buffers will be    131072 words long.
 Raffenetti 2 integral format.
 Two-electron integral symmetry is turned off.
 Force inversion solution in PCM.
 ------------------------------------------------------------------------------
 Polarizable Continuum Model (PCM)
 =================================
 Model                : PCM.
 Atomic radii         : SMD-Coulomb.
 Polarization charges : Total charges.
 Charge compensation  : None.
 Solution method      : Matrix inversion.
 Cavity type          : VdW (van der Waals Surface) (Alpha=1.000).
 Cavity algorithm     : GePol (No added spheres)
                        Default sphere list used, NSphG=   34.
                        Lebedev-Laikov grids with approx.  5.0 points / Ang**2.
                        Smoothing algorithm: York/Karplus (Gamma=1.0000).
                        Polarization charges: spherical gaussians, with
                                              point-specific exponents (IZeta= 3).
                        Self-potential: point-specific (ISelfS= 7).
                        Self-field    : sphere-specific E.n sum rule (ISelfD= 2).
 1st derivatives      : Analytical E(r).r(x)/FMM algorithm (CHGder, D1EAlg=3).
                        Cavity 1st derivative terms included.
 2nd derivatives      : Analytical E(r).r(xy)/FMM algorithm (CHGder, D2EAlg=3).
                        Cavity 2nd derivative terms included.
 Solvent              : TetraHydroFuran, Eps=   7.425700 Eps(inf)=   1.974025
 ------------------------------------------------------------------------------
 ------------------------------------------------------------------------------
 Atomic radii for non-electrostatic terms: SMD-CDS.
 ------------------------------------------------------------------------------
 Nuclear repulsion after PCM non-electrostatic terms =     1013.7103899442 Hartrees.
 One-electron integrals computed using PRISM.
 NBasis=   444 RedAO= T EigKep=  2.70D-06  NBF=   444
 NBsUse=   441 1.00D-06 EigRej=  8.37D-07 NBFU=   441
 ExpMin= 3.15D-02 ExpMax= 8.59D+03 ExpMxC= 1.30D+03 IAcc=3 IRadAn=         5 AccDes= 0.00D+00
 Harris functional with IExCor= 1009 and IRadAn=       5 diagonalized for initial guess.
 HarFok:  IExCor= 1009 AccDes= 0.00D+00 IRadAn=         5 IDoV= 1 UseB2=F ITyADJ=14
 ICtDFT=  3500011 ScaDFX=  1.000000  1.000000  1.000000  1.000000
 FoFCou: FMM=F IPFlag=           0 FMFlag=      100000 FMFlg1=           0
         NFxFlg=           0 DoJE=T BraDBF=F KetDBF=T FulRan=T
         wScrn=  0.000000 ICntrl=       500 IOpCl=  0 I1Cent=   200000004 NGrid=           0
         NMat0=    1 NMatS0=      1 NMatT0=    0 NMatD0=    1 NMtDS0=    0 NMtDT0=    0
 Symmetry not used in FoFCou.
 Requested convergence on RMS density matrix=1.00D-08 within 128 cycles.
 Requested convergence on MAX density matrix=1.00D-06.
 Requested convergence on             energy=1.00D-06.
 Level shift goal  0.100 maximum shift  0.100.
 No special actions if energy rises.
 Dynamic level shift is on during FON iterations.
 Inv3:  Mode=1 IEnd=    17323227.
 Iteration    1 A*A^-1 deviation from unit magnitude is 1.03D-14 for   2402.
 Iteration    1 A*A^-1 deviation from orthogonality  is 2.17D-15 for   2402   2180.
 Iteration    1 A^-1*A deviation from unit magnitude is 1.04D-14 for   2402.
 Iteration    1 A^-1*A deviation from orthogonality  is 2.05D-15 for   2402   2272.
 Error on total polarization charges =  0.04665
 SCF Done:  E(RM062X) =  -644.065060573     A.U. after   14 cycles
            NFock= 14  Conv=0.24D-08     -V/T= 2.0041
 SMD-CDS (non-electrostatic) energy       (kcal/mol) =      -3.47
 (included in total energy above)
 DoSCS=F DFT=T ScalE2(SS,OS)=  1.000000  1.000000
 Range of M.O.s used for correlation:     1   441
 NBasis=   444 NAE=    56 NBE=    56 NFC=     0 NFV=     0
 NROrb=    441 NOA=    56 NOB=    56 NVA=   385 NVB=   385

 **** Warning!!: The largest alpha MO coefficient is  0.10484213D+03

 Symmetrizing basis deriv contribution to polar:
 IMax=3 JMax=2 DiffMx= 0.00D+00
 G2DrvN: will do    35 centers at a time, making    1 passes.
 Calling FoFCou, ICntrl=  3107 FMM=F I1Cent=   0 AccDes= 0.00D+00.
 NEqPCM:  Using equilibrium solvation (IEInf=0, Eps=   7.4257, EpsInf=   1.9740)
 G2PCM: DoFxE=T DoFxN=T DoGrad=T DoDP/DQ/DG/TGxP=FFFF NFrqRd=   0 IEInf=0 SqF1=F DoCFld=F IF1Alg=4.
 End of G2Drv F.D. properties file   721 does not exist.
 End of G2Drv F.D. properties file   722 does not exist.
 End of G2Drv F.D. properties file   788 does not exist.
          IDoAtm=1111111111111111111111111111111111
 NEqPCM:  Using equilibrium solvation (IEInf=0, Eps=   7.4257, EpsInf=   1.9740)
          Differentiating once with respect to nuclear coordinates.
 CalDSu exits because no D1Ps are significant.
          There are   105 degrees of freedom in the 1st order CPHF.  IDoFFX=6 NUNeed=     0.
     99 vectors produced by pass  0 Test12= 2.16D-14 1.00D-09 XBig12= 1.30D-01 7.66D-02.
 AX will form    99 AO Fock derivatives at one time.
     99 vectors produced by pass  1 Test12= 2.16D-14 1.00D-09 XBig12= 9.89D-03 2.11D-02.
     99 vectors produced by pass  2 Test12= 2.16D-14 1.00D-09 XBig12= 2.27D-04 2.77D-03.
     99 vectors produced by pass  3 Test12= 2.16D-14 1.00D-09 XBig12= 1.68D-06 1.85D-04.
     99 vectors produced by pass  4 Test12= 2.16D-14 1.00D-09 XBig12= 1.07D-08 7.99D-06.
     99 vectors produced by pass  5 Test12= 2.16D-14 1.00D-09 XBig12= 4.25D-11 6.54D-07.
     70 vectors produced by pass  6 Test12= 2.16D-14 1.00D-09 XBig12= 1.58D-13 5.64D-08.
      5 vectors produced by pass  7 Test12= 2.16D-14 1.00D-09 XBig12= 6.84D-16 2.94D-09.
 InvSVY:  IOpt=1 It=  1 EMax= 7.22D-16
 Solved reduced A of dimension   669 with   105 vectors.
 End of Minotr F.D. properties file   721 does not exist.
 End of Minotr F.D. properties file   722 does not exist.
 End of Minotr F.D. properties file   788 does not exist.

 **********************************************************************

            Population analysis using the SCF Density.

 **********************************************************************

 Alpha  occ. eigenvalues --  -19.63476 -19.63167 -10.54599 -10.54581 -10.54111
 Alpha  occ. eigenvalues --  -10.54039 -10.53789 -10.53253 -10.53222 -10.52220
 Alpha  occ. eigenvalues --  -10.51884 -10.51721 -10.51706 -10.51541  -7.08414
 Alpha  occ. eigenvalues --   -1.16684  -1.12936  -0.96593  -0.91233  -0.88453
 Alpha  occ. eigenvalues --   -0.82975  -0.81340  -0.76974  -0.76848  -0.71026
 Alpha  occ. eigenvalues --   -0.69140  -0.66890  -0.64513  -0.62075  -0.60918
 Alpha  occ. eigenvalues --   -0.57308  -0.55083  -0.52836  -0.50485  -0.50380
 Alpha  occ. eigenvalues --   -0.50107  -0.48888  -0.47832  -0.47012  -0.46790
 Alpha  occ. eigenvalues --   -0.45756  -0.45403  -0.44563  -0.44360  -0.43134
 Alpha  occ. eigenvalues --   -0.42021  -0.41516  -0.40376  -0.39718  -0.39133
 Alpha  occ. eigenvalues --   -0.38846  -0.38364  -0.36332  -0.36097  -0.29852
 Alpha  occ. eigenvalues --   -0.28977
 Alpha virt. eigenvalues --    0.00181   0.01613   0.01983   0.02217   0.02307
 Alpha virt. eigenvalues --    0.02506   0.03745   0.03785   0.04019   0.04711
 Alpha virt. eigenvalues --    0.05599   0.06068   0.06445   0.06851   0.07205
 Alpha virt. eigenvalues --    0.07703   0.08504   0.08822   0.09029   0.09563
 Alpha virt. eigenvalues --    0.09881   0.10030   0.10264   0.11267   0.11806
 Alpha virt. eigenvalues --    0.12130   0.12333   0.12877   0.13925   0.14246
 Alpha virt. eigenvalues --    0.14624   0.15121   0.15645   0.16078   0.16157
 Alpha virt. eigenvalues --    0.16832   0.17076   0.18341   0.18582   0.19025
 Alpha virt. eigenvalues --    0.19363   0.19924   0.20400   0.20638   0.21012
 Alpha virt. eigenvalues --    0.21684   0.21943   0.22334   0.22778   0.23326
 Alpha virt. eigenvalues --    0.23742   0.23769   0.24511   0.24794   0.25347
 Alpha virt. eigenvalues --    0.25452   0.26336   0.26888   0.27292   0.27322
 Alpha virt. eigenvalues --    0.27824   0.28124   0.28375   0.28773   0.29230
 Alpha virt. eigenvalues --    0.29629   0.29925   0.30498   0.30818   0.31453
 Alpha virt. eigenvalues --    0.31579   0.31956   0.32215   0.32530   0.32901
 Alpha virt. eigenvalues --    0.33076   0.33519   0.34704   0.35702   0.35819
 Alpha virt. eigenvalues --    0.37109   0.37336   0.38679   0.39210   0.40067
 Alpha virt. eigenvalues --    0.42251   0.42838   0.43285   0.43322   0.44436
 Alpha virt. eigenvalues --    0.46295   0.46360   0.46589   0.47334   0.47663
 Alpha virt. eigenvalues --    0.48776   0.49486   0.51123   0.52923   0.53948
 Alpha virt. eigenvalues --    0.54532   0.54975   0.56143   0.56936   0.57732
 Alpha virt. eigenvalues --    0.58051   0.59544   0.59894   0.60328   0.61669
 Alpha virt. eigenvalues --    0.61865   0.62676   0.63098   0.64042   0.64825
 Alpha virt. eigenvalues --    0.65258   0.66741   0.67535   0.68018   0.69231
 Alpha virt. eigenvalues --    0.69625   0.70733   0.70940   0.71803   0.72571
 Alpha virt. eigenvalues --    0.73122   0.73649   0.73784   0.74614   0.74789
 Alpha virt. eigenvalues --    0.75433   0.76244   0.77039   0.77422   0.78145
 Alpha virt. eigenvalues --    0.78448   0.79140   0.79696   0.80471   0.81065
 Alpha virt. eigenvalues --    0.81630   0.82165   0.83097   0.83438   0.84560
 Alpha virt. eigenvalues --    0.86221   0.86969   0.87858   0.90450   0.91623
 Alpha virt. eigenvalues --    0.92549   0.93840   0.95493   0.97056   0.97891
 Alpha virt. eigenvalues --    0.98567   1.00335   1.01416   1.03542   1.04380
 Alpha virt. eigenvalues --    1.04895   1.05991   1.08512   1.09101   1.09642
 Alpha virt. eigenvalues --    1.11726   1.13239   1.14992   1.15218   1.15825
 Alpha virt. eigenvalues --    1.17748   1.19584   1.20351   1.20727   1.22110
 Alpha virt. eigenvalues --    1.23727   1.25988   1.28044   1.29882   1.30692
 Alpha virt. eigenvalues --    1.31500   1.32691   1.34199   1.35231   1.38843
 Alpha virt. eigenvalues --    1.40607   1.42839   1.44526   1.47241   1.48763
 Alpha virt. eigenvalues --    1.49258   1.50764   1.52338   1.52602   1.53024
 Alpha virt. eigenvalues --    1.53682   1.54145   1.55724   1.55982   1.56791
 Alpha virt. eigenvalues --    1.58251   1.58829   1.59229   1.59716   1.60637
 Alpha virt. eigenvalues --    1.61302   1.61870   1.63219   1.63645   1.64279
 Alpha virt. eigenvalues --    1.64958   1.65657   1.66153   1.67043   1.68016
 Alpha virt. eigenvalues --    1.69698   1.70088   1.70389   1.71266   1.72746
 Alpha virt. eigenvalues --    1.73742   1.74471   1.74881   1.76760   1.78347
 Alpha virt. eigenvalues --    1.79017   1.79514   1.80470   1.81392   1.81746
 Alpha virt. eigenvalues --    1.82492   1.84819   1.86126   1.87519   1.88564
 Alpha virt. eigenvalues --    1.90630   1.92367   1.94353   1.94836   1.96014
 Alpha virt. eigenvalues --    1.97554   1.98291   1.99172   2.00315   2.01654
 Alpha virt. eigenvalues --    2.02744   2.03293   2.04330   2.05627   2.09503
 Alpha virt. eigenvalues --    2.11051   2.12182   2.13699   2.14574   2.15960
 Alpha virt. eigenvalues --    2.16213   2.17407   2.18070   2.19174   2.21504
 Alpha virt. eigenvalues --    2.22381   2.22996   2.23206   2.28429   2.30238
 Alpha virt. eigenvalues --    2.33693   2.34302   2.38351   2.38726   2.40876
 Alpha virt. eigenvalues --    2.42724   2.43779   2.45873   2.47016   2.49186
 Alpha virt. eigenvalues --    2.50270   2.52931   2.53554   2.54838   2.55691
 Alpha virt. eigenvalues --    2.55823   2.56143   2.56734   2.58245   2.58555
 Alpha virt. eigenvalues --    2.59781   2.60407   2.61548   2.62027   2.63535
 Alpha virt. eigenvalues --    2.65634   2.65837   2.67079   2.69161   2.70974
 Alpha virt. eigenvalues --    2.71685   2.72078   2.72661   2.74208   2.74299
 Alpha virt. eigenvalues --    2.75577   2.76262   2.77988   2.79673   2.80120
 Alpha virt. eigenvalues --    2.80944   2.82255   2.83899   2.86883   2.89518
 Alpha virt. eigenvalues --    2.91748   2.93875   2.94963   2.95941   2.96020
 Alpha virt. eigenvalues --    2.96709   2.97353   2.99683   3.02649   3.03756
 Alpha virt. eigenvalues --    3.07211   3.08521   3.10601   3.12561   3.18540
 Alpha virt. eigenvalues --    3.21227   3.23103   3.24092   3.25997   3.28180
 Alpha virt. eigenvalues --    3.29584   3.30853   3.33621   3.45500   3.48098
 Alpha virt. eigenvalues --    3.48393   3.52404   3.53583   3.56559   3.61955
 Alpha virt. eigenvalues --    3.63549   3.68294   3.75800   3.80549   3.83141
 Alpha virt. eigenvalues --    3.83945   3.84594   3.86559   3.89084   3.89734
 Alpha virt. eigenvalues --    3.90145   3.91077   3.92811   3.99629   4.06901
 Alpha virt. eigenvalues --    4.12171   4.13896   4.15422   4.20553   4.33332
 Alpha virt. eigenvalues --    4.34573   4.41898   4.47429   4.90346   5.14810
 Alpha virt. eigenvalues --    5.21162   5.38241   5.52701   5.68543   5.74873
 Alpha virt. eigenvalues --   14.86209  23.67506  23.94072  23.94481  24.05003
 Alpha virt. eigenvalues --   24.06230  24.06293  24.07143  24.08510  24.08866
 Alpha virt. eigenvalues --   24.18114  24.18483  24.27911  50.04856  50.05726
          Condensed to atoms (all electrons):
               1          2          3          4          5          6
     1  O    7.754063   0.283756  -0.125640   0.440941  -0.106316   0.016092
     2  H    0.283756   0.414881  -0.000756   0.001793  -0.011610   0.002249
     3  C   -0.125640  -0.000756   6.377292   0.389400   0.090367   0.005098
     4  B    0.440941   0.001793   0.389400   3.676263   0.356715   0.001515
     5  O   -0.106316  -0.011610   0.090367   0.356715   7.731157   0.288774
     6  H    0.016092   0.002249   0.005098   0.001515   0.288774   0.389364
     7  C    0.005647  -0.001732   0.299081  -0.086354   0.024860  -0.006207
     8  C    0.005312  -0.000662   0.134640   0.003372   0.042517  -0.001896
     9  H    0.000070  -0.000001   0.013353   0.001853   0.000064  -0.000005
    10  C    0.021158   0.000019   0.498617   0.071659   0.012937   0.005796
    11  C   -0.054728  -0.000837   0.411401  -0.011183   0.010479   0.002931
    12  H    0.000084  -0.000001   0.007859   0.000831   0.000058   0.000000
    13  C    0.018733  -0.003924  -0.102033  -0.109187   0.005278   0.000904
    14  H   -0.000017   0.000000  -0.014429  -0.000280  -0.000016   0.000000
    15  C    0.057501   0.002727  -0.711839   0.029545  -0.058583  -0.003081
    16  H   -0.004905   0.000647  -0.059251   0.027766  -0.004890   0.000250
    17  C   -0.019915   0.007980  -0.479701  -0.088319  -0.072692   0.005371
    18  H   -0.001671   0.000335  -0.066111   0.038531  -0.009242   0.000504
    19  C    0.001999   0.000672   0.056294  -0.042414  -0.006409   0.002421
    20  H   -0.000446   0.000021   0.008360   0.000135   0.000079  -0.000006
    21  H    0.000107   0.000018  -0.027033  -0.000067  -0.000069  -0.000003
    22  H   -0.006761  -0.000553   0.026492   0.004645   0.000757  -0.000037
    23  C    0.004460   0.000870  -0.057071   0.015660  -0.000707  -0.003007
    24  H    0.000074   0.000000  -0.010642   0.001941  -0.000039   0.000006
    25  H   -0.000008  -0.000003   0.008900  -0.001944   0.000059  -0.000002
    26  H   -0.000068  -0.000001   0.011482  -0.002170   0.000093  -0.000013
    27  C   -0.007122   0.000560  -0.001972  -0.038616  -0.039849  -0.011146
    28  H    0.000063  -0.000008   0.009965  -0.001104  -0.000724  -0.000515
    29  H    0.000059  -0.000005   0.004816   0.000337   0.000278   0.000041
    30  H    0.000089   0.000001  -0.011581   0.002754  -0.000271   0.000074
    31  C   -0.001044  -0.002136   0.084545   0.009954   0.012371   0.003266
    32  H   -0.000028   0.000003  -0.013473   0.001372   0.000024   0.000010
    33  H   -0.000020   0.000007   0.007583  -0.000902   0.000025  -0.000006
    34  H   -0.001063   0.000005   0.008057  -0.001606   0.000054  -0.000016
               7          8          9         10         11         12
     1  O    0.005647   0.005312   0.000070   0.021158  -0.054728   0.000084
     2  H   -0.001732  -0.000662  -0.000001   0.000019  -0.000837  -0.000001
     3  C    0.299081   0.134640   0.013353   0.498617   0.411401   0.007859
     4  B   -0.086354   0.003372   0.001853   0.071659  -0.011183   0.000831
     5  O    0.024860   0.042517   0.000064   0.012937   0.010479   0.000058
     6  H   -0.006207  -0.001896  -0.000005   0.005796   0.002931   0.000000
     7  C   11.834734  -2.685850  -0.002234  -1.235097   1.802644  -0.015173
     8  C   -2.685850   8.790559   0.382394   0.828215  -1.979037  -0.002067
     9  H   -0.002234   0.382394   0.465519  -0.033459  -0.011014  -0.000283
    10  C   -1.235097   0.828215  -0.033459   6.904892   0.174402  -0.027436
    11  C    1.802644  -1.979037  -0.011014   0.174402   8.550517   0.387589
    12  H   -0.015173  -0.002067  -0.000283  -0.027436   0.387589   0.474213
    13  C   -2.031847   1.843871  -0.007921  -1.010082  -2.390015  -0.011669
    14  H    0.026108  -0.040534  -0.005858   0.375314  -0.040064  -0.005747
    15  C   -1.079502   0.352162   0.001441   0.071976  -0.786383   0.025539
    16  H    0.025636  -0.002395  -0.000001  -0.005342  -0.029816  -0.000091
    17  C   -1.113985  -1.188457   0.036586  -0.320063   0.385751   0.000533
    18  H   -0.096249  -0.045894  -0.000024  -0.001310   0.000816  -0.000003
    19  C    0.065333   0.007962  -0.000326  -0.009258   0.008273   0.000901
    20  H   -0.004616   0.001972   0.000000   0.001470   0.001519  -0.000003
    21  H    0.015783  -0.005350   0.000000  -0.002530  -0.011984  -0.000795
    22  H   -0.016853  -0.006018   0.000000   0.000811   0.030490   0.000041
    23  C   -0.143529   0.083815  -0.000145  -0.061460  -0.270812  -0.015584
    24  H   -0.005156  -0.004020   0.000000   0.004928  -0.003135  -0.000821
    25  H    0.004853   0.000277   0.000000   0.004029   0.016904   0.000388
    26  H    0.004219  -0.001791   0.000000  -0.018306  -0.012587  -0.000273
    27  C    0.498250  -0.664257  -0.008260  -0.110053   0.199530  -0.000230
    28  H   -0.046196   0.021704   0.000178  -0.004983  -0.000773   0.000000
    29  H    0.066782   0.005369  -0.000064   0.002143   0.001445   0.000000
    30  H   -0.017384  -0.016910  -0.001844   0.004776  -0.008545   0.000000
    31  C   -0.273767   0.532648  -0.017085   0.133116  -0.103176  -0.000143
    32  H   -0.033704  -0.017717  -0.001715   0.004973  -0.004305   0.000000
    33  H    0.075012   0.006654  -0.000041   0.001153   0.001058   0.000000
    34  H   -0.036294   0.009619   0.000116  -0.007044  -0.001068   0.000000
              13         14         15         16         17         18
     1  O    0.018733  -0.000017   0.057501  -0.004905  -0.019915  -0.001671
     2  H   -0.003924   0.000000   0.002727   0.000647   0.007980   0.000335
     3  C   -0.102033  -0.014429  -0.711839  -0.059251  -0.479701  -0.066111
     4  B   -0.109187  -0.000280   0.029545   0.027766  -0.088319   0.038531
     5  O    0.005278  -0.000016  -0.058583  -0.004890  -0.072692  -0.009242
     6  H    0.000904   0.000000  -0.003081   0.000250   0.005371   0.000504
     7  C   -2.031847   0.026108  -1.079502   0.025636  -1.113985  -0.096249
     8  C    1.843871  -0.040534   0.352162  -0.002395  -1.188457  -0.045894
     9  H   -0.007921  -0.005858   0.001441  -0.000001   0.036586  -0.000024
    10  C   -1.010082   0.375314   0.071976  -0.005342  -0.320063  -0.001310
    11  C   -2.390015  -0.040064  -0.786383  -0.029816   0.385751   0.000816
    12  H   -0.011669  -0.005747   0.025539  -0.000091   0.000533  -0.000003
    13  C   11.568142   0.036669  -1.251963  -0.075435  -1.172326   0.005126
    14  H    0.036669   0.475000   0.004814   0.000016   0.004481   0.000014
    15  C   -1.251963   0.004814   9.274110   0.546671  -0.278759   0.001353
    16  H   -0.075435   0.000016   0.546671   0.498008   0.002794   0.000102
    17  C   -1.172326   0.004481  -0.278759   0.002794   9.981887   0.566117
    18  H    0.005126   0.000014   0.001353   0.000102   0.566117   0.505866
    19  C    0.211512   0.000241  -0.184402  -0.028756  -0.000890  -0.000742
    20  H    0.029237  -0.000001  -0.111708  -0.006045  -0.000172  -0.000001
    21  H   -0.011435   0.000023   0.025041   0.004143   0.001147   0.000004
    22  H   -0.079932   0.000002   0.065945  -0.005919  -0.000403  -0.000025
    23  C    0.222954  -0.000020  -0.009852  -0.067400  -0.032533  -0.000080
    24  H   -0.066848   0.000023   0.114398   0.007371  -0.000366   0.000001
    25  H    0.065642  -0.000002  -0.160542  -0.008416   0.000403   0.000000
    26  H    0.046821   0.000006  -0.076013  -0.006340   0.000298   0.000001
    27  C   -0.302834   0.000331  -0.074097   0.000005   0.304553  -0.025435
    28  H   -0.009853   0.000003  -0.000834   0.000004   0.056230  -0.006668
    29  H    0.000486  -0.000001  -0.000014   0.000000  -0.151732  -0.006802
    30  H    0.005079   0.000028   0.000520   0.000001   0.028095   0.005814
    31  C    0.215208  -0.000068   0.036938  -0.000295  -0.606920  -0.038916
    32  H   -0.004072   0.000030  -0.000417   0.000001   0.058977   0.006371
    33  H    0.003392  -0.000001   0.000376   0.000000  -0.165969  -0.007301
    34  H   -0.002582   0.000006   0.000034  -0.000001   0.039629  -0.005903
              19         20         21         22         23         24
     1  O    0.001999  -0.000446   0.000107  -0.006761   0.004460   0.000074
     2  H    0.000672   0.000021   0.000018  -0.000553   0.000870   0.000000
     3  C    0.056294   0.008360  -0.027033   0.026492  -0.057071  -0.010642
     4  B   -0.042414   0.000135  -0.000067   0.004645   0.015660   0.001941
     5  O   -0.006409   0.000079  -0.000069   0.000757  -0.000707  -0.000039
     6  H    0.002421  -0.000006  -0.000003  -0.000037  -0.003007   0.000006
     7  C    0.065333  -0.004616   0.015783  -0.016853  -0.143529  -0.005156
     8  C    0.007962   0.001972  -0.005350  -0.006018   0.083815  -0.004020
     9  H   -0.000326   0.000000   0.000000   0.000000  -0.000145   0.000000
    10  C   -0.009258   0.001470  -0.002530   0.000811  -0.061460   0.004928
    11  C    0.008273   0.001519  -0.011984   0.030490  -0.270812  -0.003135
    12  H    0.000901  -0.000003  -0.000795   0.000041  -0.015584  -0.000821
    13  C    0.211512   0.029237  -0.011435  -0.079932   0.222954  -0.066848
    14  H    0.000241  -0.000001   0.000023   0.000002  -0.000020   0.000023
    15  C   -0.184402  -0.111708   0.025041   0.065945  -0.009852   0.114398
    16  H   -0.028756  -0.006045   0.004143  -0.005919  -0.067400   0.007371
    17  C   -0.000890  -0.000172   0.001147  -0.000403  -0.032533  -0.000366
    18  H   -0.000742  -0.000001   0.000004  -0.000025  -0.000080   0.000001
    19  C    5.794744   0.445058   0.389649   0.358772  -0.347196   0.007001
    20  H    0.445058   0.502055  -0.027635  -0.021714   0.003190  -0.001139
    21  H    0.389649  -0.027635   0.473486  -0.026571   0.012560   0.001287
    22  H    0.358772  -0.021714  -0.026571   0.491818  -0.003124  -0.000098
    23  C   -0.347196   0.003190   0.012560  -0.003124   6.128279   0.328977
    24  H    0.007001  -0.001139   0.001287  -0.000098   0.328977   0.509737
    25  H    0.001153   0.002946  -0.000602   0.000065   0.438218  -0.028465
    26  H    0.008453   0.000285  -0.000466  -0.000254   0.424701  -0.029277
    27  C   -0.001024   0.000002   0.000039  -0.000097   0.000245   0.000006
    28  H    0.000065   0.000000   0.000000   0.000000   0.000070   0.000000
    29  H   -0.000027   0.000000   0.000000   0.000000  -0.000005   0.000000
    30  H   -0.000021   0.000000   0.000000   0.000000  -0.000068   0.000000
    31  C    0.006448  -0.000018  -0.000245   0.000560  -0.002002   0.000001
    32  H   -0.000055   0.000000   0.000000  -0.000002   0.000028   0.000000
    33  H    0.000003   0.000000   0.000000   0.000000   0.000005   0.000000
    34  H    0.000290   0.000000  -0.000001   0.000012  -0.000065   0.000000
              25         26         27         28         29         30
     1  O   -0.000008  -0.000068  -0.007122   0.000063   0.000059   0.000089
     2  H   -0.000003  -0.000001   0.000560  -0.000008  -0.000005   0.000001
     3  C    0.008900   0.011482  -0.001972   0.009965   0.004816  -0.011581
     4  B   -0.001944  -0.002170  -0.038616  -0.001104   0.000337   0.002754
     5  O    0.000059   0.000093  -0.039849  -0.000724   0.000278  -0.000271
     6  H   -0.000002  -0.000013  -0.011146  -0.000515   0.000041   0.000074
     7  C    0.004853   0.004219   0.498250  -0.046196   0.066782  -0.017384
     8  C    0.000277  -0.001791  -0.664257   0.021704   0.005369  -0.016910
     9  H    0.000000   0.000000  -0.008260   0.000178  -0.000064  -0.001844
    10  C    0.004029  -0.018306  -0.110053  -0.004983   0.002143   0.004776
    11  C    0.016904  -0.012587   0.199530  -0.000773   0.001445  -0.008545
    12  H    0.000388  -0.000273  -0.000230   0.000000   0.000000   0.000000
    13  C    0.065642   0.046821  -0.302834  -0.009853   0.000486   0.005079
    14  H   -0.000002   0.000006   0.000331   0.000003  -0.000001   0.000028
    15  C   -0.160542  -0.076013  -0.074097  -0.000834  -0.000014   0.000520
    16  H   -0.008416  -0.006340   0.000005   0.000004   0.000000   0.000001
    17  C    0.000403   0.000298   0.304553   0.056230  -0.151732   0.028095
    18  H    0.000000   0.000001  -0.025435  -0.006668  -0.006802   0.005814
    19  C    0.001153   0.008453  -0.001024   0.000065  -0.000027  -0.000021
    20  H    0.002946   0.000285   0.000002   0.000000   0.000000   0.000000
    21  H   -0.000602  -0.000466   0.000039   0.000000   0.000000   0.000000
    22  H    0.000065  -0.000254  -0.000097   0.000000   0.000000   0.000000
    23  C    0.438218   0.424701   0.000245   0.000070  -0.000005  -0.000068
    24  H   -0.028465  -0.029277   0.000006   0.000000   0.000000   0.000000
    25  H    0.493481  -0.021358   0.000014   0.000000   0.000000   0.000000
    26  H   -0.021358   0.483547   0.000143  -0.000001   0.000000   0.000000
    27  C    0.000014   0.000143   6.534392   0.345776   0.444048   0.378173
    28  H    0.000000  -0.000001   0.345776   0.502237  -0.021763  -0.028380
    29  H    0.000000   0.000000   0.444048  -0.021763   0.496692  -0.027467
    30  H    0.000000   0.000000   0.378173  -0.028380  -0.027467   0.489230
    31  C   -0.000009  -0.000038  -0.843443   0.011404   0.002814   0.012573
    32  H    0.000000   0.000000   0.016816  -0.000222  -0.001024   0.000780
    33  H    0.000000   0.000000   0.003899   0.000127   0.003113  -0.000949
    34  H    0.000000   0.000000   0.012571  -0.000330   0.000171  -0.000217
              31         32         33         34
     1  O   -0.001044  -0.000028  -0.000020  -0.001063
     2  H   -0.002136   0.000003   0.000007   0.000005
     3  C    0.084545  -0.013473   0.007583   0.008057
     4  B    0.009954   0.001372  -0.000902  -0.001606
     5  O    0.012371   0.000024   0.000025   0.000054
     6  H    0.003266   0.000010  -0.000006  -0.000016
     7  C   -0.273767  -0.033704   0.075012  -0.036294
     8  C    0.532648  -0.017717   0.006654   0.009619
     9  H   -0.017085  -0.001715  -0.000041   0.000116
    10  C    0.133116   0.004973   0.001153  -0.007044
    11  C   -0.103176  -0.004305   0.001058  -0.001068
    12  H   -0.000143   0.000000   0.000000   0.000000
    13  C    0.215208  -0.004072   0.003392  -0.002582
    14  H   -0.000068   0.000030  -0.000001   0.000006
    15  C    0.036938  -0.000417   0.000376   0.000034
    16  H   -0.000295   0.000001   0.000000  -0.000001
    17  C   -0.606920   0.058977  -0.165969   0.039629
    18  H   -0.038916   0.006371  -0.007301  -0.005903
    19  C    0.006448  -0.000055   0.000003   0.000290
    20  H   -0.000018   0.000000   0.000000   0.000000
    21  H   -0.000245   0.000000   0.000000  -0.000001
    22  H    0.000560  -0.000002   0.000000   0.000012
    23  C   -0.002002   0.000028   0.000005  -0.000065
    24  H    0.000001   0.000000   0.000000   0.000000
    25  H   -0.000009   0.000000   0.000000   0.000000
    26  H   -0.000038   0.000000   0.000000   0.000000
    27  C   -0.843443   0.016816   0.003899   0.012571
    28  H    0.011404  -0.000222   0.000127  -0.000330
    29  H    0.002814  -0.001024   0.003113   0.000171
    30  H    0.012573   0.000780  -0.000949  -0.000217
    31  C    6.363878   0.365152   0.444442   0.363058
    32  H    0.365152   0.496551  -0.028018  -0.027942
    33  H    0.444442  -0.028018   0.499348  -0.021676
    34  H    0.363058  -0.027942  -0.021676   0.490477
 Mulliken charges:
               1
     1  O   -0.280454
     2  H    0.305684
     3  C   -0.772067
     4  B    0.307163
     5  O   -0.265525
     6  H    0.301276
     7  C    0.182787
     8  C   -0.390208
     9  H    0.188704
    10  C   -0.275962
    11  C   -0.266286
    12  H    0.182285
    13  C    0.364901
    14  H    0.183929
    15  C    0.176897
    16  H    0.191882
    17  C    0.212370
    18  H    0.181421
    19  C   -0.745722
    20  H    0.177174
    21  H    0.191497
    22  H    0.187950
    23  C   -0.649371
    24  H    0.174256
    25  H    0.184019
    26  H    0.188908
    27  C   -0.610915
    28  H    0.174528
    29  H    0.180308
    30  H    0.185651
    31  C   -0.709072
    32  H    0.181604
    33  H    0.178684
    34  H    0.181707
 Sum of Mulliken charges =   0.00000
 Mulliken charges with hydrogens summed into heavy atoms:
               1
     1  O    0.025230
     3  C   -0.772067
     4  B    0.307163
     5  O    0.035750
     7  C    0.182787
     8  C   -0.201504
    10  C   -0.092033
    11  C   -0.084001
    13  C    0.364901
    15  C    0.368780
    17  C    0.393790
    19  C   -0.189101
    23  C   -0.102187
    27  C   -0.070429
    31  C   -0.167078
 APT charges:
               1
     1  O   -0.097957
     2  H    2.099228
     3  C   -0.366112
     4  B   -0.771069
     5  O    1.723943
     6  H   -1.714757
     7  C    0.426575
     8  C   -0.533233
     9  H   -0.241761
    10  C   -0.396252
    11  C   -0.564969
    12  H    0.426572
    13  C    2.494091
    14  H   -0.288493
    15  C   -1.882734
    16  H    0.656619
    17  C   -2.122580
    18  H    1.284334
    19  C   -3.242812
    20  H    1.536114
    21  H    0.228440
    22  H    0.957259
    23  C   -0.074417
    24  H    0.285058
    25  H    1.451852
    26  H   -1.105178
    27  C    0.595405
    28  H   -0.409357
    29  H    0.871001
    30  H   -0.585558
    31  C   -2.716571
    32  H   -0.414350
    33  H    0.963568
    34  H    1.528099
 Sum of APT charges =   0.00000
 APT charges with hydrogens summed into heavy atoms:
               1
     1  O    2.001271
     3  C   -0.366112
     4  B   -0.771069
     5  O    0.009186
     7  C    0.426575
     8  C   -0.774994
    10  C   -0.684745
    11  C   -0.138397
    13  C    2.494091
    15  C   -1.226115
    17  C   -0.838246
    19  C   -0.520999
    23  C    0.557315
    27  C    0.471491
    31  C   -0.639253
 Electronic spatial extent (au):  <R**2>=          48732.8875
 Charge=              0.0000 electrons
 Dipole moment (field-independent basis, Debye):
    X=              0.0039    Y=             -1.4650    Z=             -0.4700  Tot=              1.5386
 Quadrupole moment (field-independent basis, Debye-Ang):
   XX=            -86.3786   YY=           -113.5453   ZZ=            -93.2735
   XY=             -8.1265   XZ=             -3.4708   YZ=            -15.1154
 Traceless Quadrupole moment (field-independent basis, Debye-Ang):
   XX=             11.3539   YY=            -15.8129   ZZ=              4.4590
   XY=             -8.1265   XZ=             -3.4708   YZ=            -15.1154
 Octapole moment (field-independent basis, Debye-Ang**2):
  XXX=          -1586.2667  YYY=          -2180.1015  ZZZ=          -1386.9678  XYY=           -684.2429
  XXY=           -642.7159  XXZ=           -462.0266  XZZ=           -572.9783  YZZ=           -733.7165
  YYZ=           -669.9090  XYZ=            -86.4967
 Hexadecapole moment (field-independent basis, Debye-Ang**3):
 XXXX=         -20947.5100 YYYY=         -30785.4256 ZZZZ=         -15891.3303 XXXY=         -11418.0780
 XXXZ=          -7888.1601 YYYX=         -13484.8764 YYYZ=         -11612.5576 ZZZX=          -8189.4680
 ZZZY=          -9810.2025 XXYY=          -8756.4438 XXZZ=          -6288.7633 YYZZ=          -8688.0535
 XXYZ=          -3380.4831 YYXZ=          -3919.8697 ZZXY=          -4501.6798
 N-N= 1.013710389944D+03 E-N=-3.527089981987D+03  KE= 6.414233844275D+02
  Exact polarizability:       0.000       0.000       0.000       0.000       0.000       0.000
 Approx polarizability:     207.169       4.340     170.592       1.415     -22.000     193.877
 D2PCM: PCM CHGder 2nd derivatives, FixD1E=F FixD2E=F DoIter=F DoCFld=F I1PDM=0
 Calling FoFJK, ICntrl=    100127 FMM=F ISym2X=0 I1Cent= 0 IOpClX= 0 NMat=1 NMatS=1 NMatT=0.
 -------------------------------------------------------------------
 Center     Atomic                   Forces (Hartrees/Bohr)
 Number     Number              X              Y              Z
 -------------------------------------------------------------------
      1        8          -0.001969033    0.001683619   -0.000075130
      2        1           0.002346907   -0.000644670    0.001134485
      3        6           0.000216130    0.000269088    0.000216261
      4        5           0.000829454   -0.001899208   -0.000329633
      5        8           0.001184169    0.002191204    0.001367309
      6        1          -0.001432886   -0.002128683   -0.001621965
      7        6           0.000098588   -0.000418678    0.001111224
      8        6          -0.001143291   -0.000250766    0.000409693
      9        1          -0.000126648   -0.000209378    0.000238526
     10        6          -0.000568851    0.000105344   -0.000340796
     11        6          -0.000009434    0.000531703   -0.001068992
     12        1           0.000041671    0.000299478   -0.000306806
     13        6           0.000887899    0.000423384   -0.000051203
     14        1          -0.000340827    0.000082389   -0.000201452
     15        6           0.000759713   -0.000371755   -0.000334901
     16        1          -0.000043527    0.000074045   -0.000149271
     17        6           0.000064513   -0.000520250    0.000587602
     18        1          -0.000151990   -0.000087345    0.000052049
     19        6          -0.000605192   -0.000852310   -0.000875869
     20        1           0.000259554    0.000056263    0.000049199
     21        1          -0.000106115    0.000469816   -0.000074158
     22        1           0.000132825    0.000383592    0.000376086
     23        6          -0.000472687    0.000816014    0.000648878
     24        1          -0.000373398    0.000088276   -0.000094899
     25        1           0.000429365   -0.000191173    0.000056596
     26        1           0.000165940   -0.000463751   -0.000209831
     27        6          -0.000176820    0.000737221   -0.000438672
     28        1           0.000509713   -0.000276211   -0.000121510
     29        1           0.000179550   -0.000029442    0.000285461
     30        1          -0.000501240    0.000229514    0.000075877
     31        6          -0.000210825   -0.000568337   -0.000951897
     32        1          -0.000401600   -0.000100380   -0.000038870
     33        1           0.000260140   -0.000088022    0.000198846
     34        1           0.000268233    0.000659408    0.000477764
 -------------------------------------------------------------------
 Cartesian Forces:  Max     0.002346907 RMS     0.000713039
 FormGI is forming the generalized inverse of G from B-inverse, IUseBI=4.

 GradGradGradGradGradGradGradGradGradGradGradGradGradGradGradGradGradGrad
 Berny optimization.
 Internal  Forces:  Max     0.003016669 RMS     0.000499049
 Search for a local minimum.
 Step number   1 out of a maximum of  183
 All quantities printed in internal units (Hartrees-Bohrs-Radians)
 Mixed Optimization -- En-DIIS/RFO-DIIS
 Second derivative matrix not updated -- analytic derivatives used.
 ITU=  0
     Eigenvalues ---   -0.00026   0.00156   0.00254   0.00263   0.00326
     Eigenvalues ---    0.00339   0.00398   0.01351   0.01419   0.01586
     Eigenvalues ---    0.01628   0.01783   0.02031   0.02233   0.02240
     Eigenvalues ---    0.02490   0.02526   0.02853   0.03712   0.04036
     Eigenvalues ---    0.04186   0.04327   0.04346   0.04431   0.04491
     Eigenvalues ---    0.04511   0.04548   0.04598   0.04617   0.04643
     Eigenvalues ---    0.04810   0.04878   0.05217   0.10901   0.10931
     Eigenvalues ---    0.11643   0.11785   0.11895   0.11948   0.12131
     Eigenvalues ---    0.12206   0.12250   0.12616   0.12931   0.13157
     Eigenvalues ---    0.13301   0.13981   0.14121   0.14263   0.14379
     Eigenvalues ---    0.14793   0.14837   0.16972   0.17154   0.18396
     Eigenvalues ---    0.18765   0.18925   0.19161   0.19376   0.19543
     Eigenvalues ---    0.21836   0.24795   0.26732   0.29001   0.29167
     Eigenvalues ---    0.29220   0.29545   0.31524   0.32008   0.32110
     Eigenvalues ---    0.33610   0.33886   0.33972   0.33988   0.34043
     Eigenvalues ---    0.34118   0.34171   0.34239   0.34262   0.34457
     Eigenvalues ---    0.34804   0.34919   0.34939   0.34993   0.36252
     Eigenvalues ---    0.36414   0.36861   0.37860   0.43377   0.43748
     Eigenvalues ---    0.47790   0.48127   0.48764   0.51405   0.54061
     Eigenvalues ---    0.55099
 RFO step:  Lambda=-4.11958139D-04 EMin=-2.59417932D-04
 Linear search not attempted -- first point.
 Iteration  1 RMS(Cart)=  0.15638932 RMS(Int)=  0.01886872
 Iteration  2 RMS(Cart)=  0.06441244 RMS(Int)=  0.00139064
 Iteration  3 RMS(Cart)=  0.00236053 RMS(Int)=  0.00010222
 Iteration  4 RMS(Cart)=  0.00000192 RMS(Int)=  0.00010221
 Iteration  5 RMS(Cart)=  0.00000000 RMS(Int)=  0.00010221
 Variable       Old X    -DE/DX   Delta X   Delta X   Delta X     New X
                                 (Linear)    (Quad)   (Total)
    R1        1.81956   0.00266   0.00000   0.00473   0.00473   1.82429
    R2        2.57368   0.00147   0.00000   0.00310   0.00310   2.57678
    R3        2.97899   0.00122   0.00000   0.00439   0.00439   2.98338
    R4        2.65147   0.00148   0.00000   0.00369   0.00377   2.65524
    R5        2.66022   0.00173   0.00000   0.00099   0.00099   2.66121
    R6        2.59262  -0.00014   0.00000  -0.00193  -0.00193   2.59069
    R7        1.81388   0.00302   0.00000   0.00517   0.00517   1.81906
    R8        2.63956   0.00123   0.00000   0.00163   0.00171   2.64127
    R9        2.87385   0.00014   0.00000   0.00048   0.00048   2.87434
   R10        2.05046   0.00027   0.00000   0.00022   0.00022   2.05067
   R11        2.62086   0.00123   0.00000   0.00345   0.00344   2.62430
   R12        2.62875   0.00122   0.00000   0.00129   0.00121   2.62996
   R13        2.04867   0.00040   0.00000   0.00111   0.00111   2.04978
   R14        2.04814   0.00041   0.00000   0.00122   0.00122   2.04936
   R15        2.63276   0.00131   0.00000   0.00384   0.00376   2.63652
   R16        2.87397   0.00036   0.00000   0.00052   0.00052   2.87449
   R17        2.07319  -0.00013   0.00000  -0.00131  -0.00131   2.07188
   R18        2.90085  -0.00018   0.00000  -0.00244  -0.00244   2.89841
   R19        2.89196  -0.00041   0.00000   0.00007   0.00007   2.89204
   R20        2.07036  -0.00012   0.00000   0.00012   0.00012   2.07048
   R21        2.89657  -0.00060   0.00000   0.00035   0.00035   2.89692
   R22        2.89644  -0.00023   0.00000  -0.00375  -0.00375   2.89269
   R23        2.06609   0.00022   0.00000   0.00072   0.00072   2.06682
   R24        2.06703   0.00039   0.00000   0.00107   0.00107   2.06811
   R25        2.06201   0.00039   0.00000   0.00199   0.00199   2.06400
   R26        2.06507   0.00033   0.00000   0.00032   0.00032   2.06539
   R27        2.06415   0.00033   0.00000   0.00126   0.00126   2.06541
   R28        2.06388   0.00045   0.00000   0.00154   0.00154   2.06542
   R29        2.06481   0.00049   0.00000   0.00172   0.00172   2.06653
   R30        2.06502   0.00027   0.00000   0.00124   0.00124   2.06626
   R31        2.06585   0.00046   0.00000   0.00217   0.00217   2.06802
   R32        2.06563   0.00039   0.00000  -0.00007  -0.00007   2.06557
   R33        2.06512   0.00023   0.00000   0.00047   0.00047   2.06559
   R34        2.06289   0.00076   0.00000   0.00144   0.00144   2.06433
    A1        1.95262   0.00063   0.00000   0.00498   0.00498   1.95760
    A2        2.09394  -0.00032   0.00000  -0.00085  -0.00094   2.09300
    A3        2.09137   0.00055   0.00000   0.00153   0.00144   2.09281
    A4        2.09759  -0.00024   0.00000  -0.00069  -0.00051   2.09709
    A5        2.10426  -0.00072   0.00000  -0.01005  -0.01005   2.09420
    A6        2.04814   0.00048   0.00000   0.00467   0.00467   2.05282
    A7        2.13078   0.00024   0.00000   0.00539   0.00538   2.13617
    A8        1.96428   0.00057   0.00000   0.00273   0.00273   1.96701
    A9        2.08317   0.00014   0.00000   0.00080   0.00045   2.08362
   A10        2.11394   0.00041   0.00000  -0.00003  -0.00078   2.11316
   A11        2.08604  -0.00056   0.00000  -0.00026  -0.00101   2.08503
   A12        2.09416  -0.00020   0.00000  -0.00136  -0.00145   2.09271
   A13        2.10266  -0.00002   0.00000  -0.00061  -0.00044   2.10222
   A14        2.08637   0.00022   0.00000   0.00197   0.00188   2.08825
   A15        2.09774   0.00007   0.00000   0.00021   0.00022   2.09796
   A16        2.09359  -0.00001   0.00000   0.00006   0.00006   2.09365
   A17        2.09185  -0.00006   0.00000  -0.00027  -0.00028   2.09158
   A18        2.08207   0.00004   0.00000   0.00032   0.00036   2.08243
   A19        2.10312   0.00003   0.00000  -0.00009  -0.00016   2.10296
   A20        2.09799  -0.00008   0.00000  -0.00023  -0.00020   2.09780
   A21        2.08206   0.00001   0.00000   0.00038   0.00038   2.08245
   A22        2.09083   0.00102   0.00000   0.00560   0.00559   2.09641
   A23        2.10914  -0.00102   0.00000  -0.00561  -0.00563   2.10351
   A24        1.88054  -0.00001   0.00000   0.00213   0.00213   1.88267
   A25        1.91516   0.00034   0.00000   0.00279   0.00279   1.91795
   A26        1.98344  -0.00005   0.00000  -0.00327  -0.00326   1.98018
   A27        1.87848   0.00019   0.00000   0.00030   0.00029   1.87877
   A28        1.87018   0.00009   0.00000  -0.00090  -0.00090   1.86928
   A29        1.93191  -0.00053   0.00000  -0.00090  -0.00090   1.93101
   A30        1.88984   0.00006   0.00000   0.00086   0.00066   1.89050
   A31        1.94510  -0.00024   0.00000  -0.03397  -0.03385   1.91125
   A32        1.94321   0.00028   0.00000   0.03432   0.03415   1.97736
   A33        1.87628   0.00011   0.00000   0.00875   0.00869   1.88497
   A34        1.86998   0.00002   0.00000  -0.00178  -0.00192   1.86806
   A35        1.93597  -0.00020   0.00000  -0.00754  -0.00726   1.92871
   A36        1.93124  -0.00013   0.00000   0.00011   0.00011   1.93135
   A37        1.91786   0.00033   0.00000   0.00410   0.00410   1.92196
   A38        1.93414   0.00051   0.00000   0.00241   0.00240   1.93654
   A39        1.88969  -0.00014   0.00000  -0.00143  -0.00143   1.88826
   A40        1.89720  -0.00027   0.00000  -0.00317  -0.00317   1.89403
   A41        1.89267  -0.00031   0.00000  -0.00222  -0.00223   1.89044
   A42        1.94360   0.00005   0.00000   0.00295   0.00295   1.94655
   A43        1.91923  -0.00027   0.00000  -0.00203  -0.00204   1.91719
   A44        1.94694   0.00008   0.00000  -0.00088  -0.00088   1.94606
   A45        1.87093   0.00025   0.00000   0.00322   0.00322   1.87415
   A46        1.88831   0.00000   0.00000   0.00045   0.00045   1.88876
   A47        1.89244  -0.00010   0.00000  -0.00368  -0.00369   1.88875
   A48        1.94182  -0.00004   0.00000   0.00022   0.00018   1.94200
   A49        1.93114  -0.00026   0.00000   0.00616   0.00617   1.93731
   A50        1.93301  -0.00018   0.00000  -0.01447  -0.01448   1.91852
   A51        1.89142   0.00003   0.00000   0.00034   0.00033   1.89176
   A52        1.88033   0.00031   0.00000  -0.00038  -0.00042   1.87990
   A53        1.88416   0.00017   0.00000   0.00849   0.00852   1.89268
   A54        1.93540   0.00000   0.00000   0.00855   0.00849   1.94390
   A55        1.92834  -0.00032   0.00000  -0.01044  -0.01042   1.91792
   A56        1.93522   0.00046   0.00000   0.00887   0.00882   1.94403
   A57        1.88261   0.00011   0.00000  -0.00745  -0.00743   1.87518
   A58        1.88591  -0.00003   0.00000   0.00500   0.00487   1.89078
   A59        1.89475  -0.00022   0.00000  -0.00491  -0.00489   1.88986
    D1       -3.13130  -0.00009   0.00000  -0.00109  -0.00109  -3.13239
    D2        0.00787   0.00006   0.00000   0.00062   0.00062   0.00849
    D3       -1.74555   0.00023   0.00000  -0.02321  -0.02321  -1.76875
    D4        1.39859   0.00008   0.00000  -0.02500  -0.02500   1.37359
    D5        1.42157   0.00041   0.00000  -0.02279  -0.02279   1.39877
    D6       -1.71748   0.00026   0.00000  -0.02458  -0.02458  -1.74207
    D7       -3.11030   0.00010   0.00000   0.00334   0.00335  -3.10695
    D8        0.04034  -0.00001   0.00000  -0.06221  -0.06222  -0.02187
    D9        0.00568  -0.00006   0.00000   0.00295   0.00296   0.00864
   D10       -3.12686  -0.00018   0.00000  -0.06260  -0.06260   3.09372
   D11        3.11077  -0.00013   0.00000   0.00639   0.00638   3.11715
   D12       -0.08193   0.00003   0.00000   0.01442   0.01444  -0.06749
   D13       -0.00525   0.00005   0.00000   0.00681   0.00680   0.00155
   D14        3.08524   0.00021   0.00000   0.01484   0.01487   3.10010
   D15       -3.12900  -0.00011   0.00000  -0.00264  -0.00265  -3.13165
   D16        0.01013   0.00003   0.00000  -0.00092  -0.00092   0.00921
   D17       -3.14154  -0.00005   0.00000  -0.01456  -0.01456   3.12709
   D18       -0.00123   0.00002   0.00000  -0.01068  -0.01069  -0.01191
   D19       -0.00885   0.00007   0.00000   0.04993   0.04994   0.04109
   D20        3.13146   0.00014   0.00000   0.05381   0.05381  -3.09791
   D21        0.02179   0.00004   0.00000   0.31021   0.31019   0.33198
   D22       -2.03836   0.00002   0.00000   0.31880   0.31859  -1.71976
[...]
 004367,0.00002591,0.00004606,-0.00001895,-0.00003331,0.00000639,0.0000
 0106,0.00000173,-0.00000657,0.00000607,0.00000211,-0.00000347,-0.00006
 567,-0.00005985,0.00000201,0.00000113,0.00000362,-0.00000559,-0.000025
 29,0.00001215,0.00003881,0.00000350,0.00000751,-0.00000210,0.00795192,
 -0.12960036,0.12284380,-0.00186650,0.00958765,-0.01307506,-0.00587788,
 0.14128270,0.00007178,0.00001690,0.00005896,-0.00000863,0.00000539,-0.
 00001258,-0.00018339,0.00005284,0.00034148,-0.00015918,-0.00001978,-0.
 00006867,0.00008965,-0.00004147,0.00002132,-0.00006135,0.00001578,-0.0
 0000120,-0.00019961,-0.00080103,0.00041134,0.00018266,0.00003627,0.000
 30581,0.00007065,-0.00007493,-0.00006900,0.00003165,0.00005194,0.00006
 149,0.00006610,-0.00000734,-0.00001549,0.00000278,0.00000004,-0.000011
 64,-0.00008893,0.00005115,-0.00004301,-0.00000632,-0.00000643,-0.00001
 567,-0.00002729,-0.00001260,-0.00000553,0.00000615,-0.00000117,0.00000
 056,0.00067711,-0.00485795,0.00434962,0.00041121,0.00042008,0.00034483
 ,0.00001513,-0.00000709,-0.00000706,0.00000651,0.00001039,-0.00000306,
 -0.00000062,-0.00000134,0.00000091,-0.00000185,0.00000002,0.00000162,0
 .00002064,0.00000704,0.00000089,-0.00000162,-0.00000318,0.00000206,0.0
 0000745,0.00000309,-0.00001041,-0.00000766,0.00000396,0.00000359,-0.01
 056569,0.12482833,-0.23188654,-0.00220700,0.01279189,-0.01774925,0.012
 06619,-0.13525041,0.24869062,-0.00015396,-0.00014348,0.00003399,0.0000
 6026,0.00001701,0.00000547,-0.00021496,-0.00033077,0.00050563,0.000338
 93,0.00023738,-0.00032750,-0.00009189,-0.00001381,0.00013768,0.0000262
 2,0.00000739,-0.00007925,0.00032559,0.00081208,-0.00116037,-0.00038301
 ,0.00047551,0.00017057,0.00048698,0.00033445,-0.00037692,0.00015240,-0
 .00005673,0.00044388,0.00035771,-0.00006833,-0.00003556,0.00003703,-0.
 00002288,-0.00003189,-0.00012752,0.00023417,-0.00023865,-0.00000657,0.
 00001528,0.00004277,-0.00001374,-0.00001276,-0.00000983,0.00001997,0.0
 0000193,-0.00000072,-0.01477902,0.00100716,-0.00329435,0.00006196,-0.0
 0302597,-0.00013402,0.00001448,-0.00000348,0.00000055,0.00000065,0.000
 00494,-0.00000173,-0.00000065,-0.00000550,0.00000170,-0.00000068,0.000
 00043,0.00000041,0.00002513,0.00000464,0.00000029,0.00000059,-0.000002
 44,0.00000746,0.00000319,-0.00000015,-0.00000558,-0.00000361,0.0000018
 8,-0.00000019,-0.29291315,0.03088730,-0.06412407,-0.01291311,0.0014088
 6,-0.00391536,0.00021793,0.00020390,0.00009364,0.31787524,-0.00023451,
 -0.00015476,0.00010667,0.00006581,-0.00000160,0.00001542,-0.00021767,-
 0.00016357,0.00066264,0.00044678,0.00011070,-0.00056081,-0.00008296,0.
 00013231,0.00014079,-0.00003638,-0.00004748,0.00000247,0.00029222,0.00
 166587,-0.00059261,-0.00036863,-0.00056272,0.00012141,0.00044610,-0.00
 183244,0.00066816,-0.00003292,-0.00019156,0.00035092,0.00040470,0.0000
 6257,-0.00000223,0.00002824,-0.00002116,-0.00000702,-0.00014028,0.0002
 3227,-0.00032508,-0.00000899,-0.00003432,-0.00001027,-0.00000894,-0.00
 002125,-0.00001885,0.00001050,0.00000022,-0.00000260,-0.02946344,0.002
 36240,-0.00821548,-0.00276732,-0.00512902,-0.00089023,0.00000090,0.000
 00068,0.00000231,0.00000122,-0.00000153,0.00000050,0.00000083,-0.00000
 484,0.00000257,-0.00000113,0.00000099,-0.00000040,0.00001396,-0.000000
 18,-0.00000580,0.00000095,0.00000123,0.00000549,0.00000235,-0.00000127
 ,-0.00000188,0.00000037,0.00000070,0.00000083,0.03229153,-0.04922796,0
 .00838246,0.01392143,-0.00241592,0.00497224,0.01715232,-0.00256078,0.0
 0305647,-0.03207790,0.05572714,-0.00008064,-0.00002810,0.00000629,0.00
 001266,0.00000335,0.00000055,-0.00000776,-0.00000264,-0.00000406,0.000
 18201,-0.00002970,-0.00009277,-0.00008308,0.00007900,0.00003881,-0.000
 04156,-0.00004634,0.00002103,0.00070983,-0.00028604,-0.00012007,-0.000
 10757,0.00050061,-0.00010643,-0.00005573,0.00090414,-0.00024906,0.0001
 1688,0.00001947,-0.00001425,-0.00000987,-0.00004321,0.00000287,0.00000
 484,-0.00000059,-0.00000233,0.00000627,0.00001530,0.00004593,0.0000008
 7,0.00001760,0.00004025,0.00001223,-0.00001015,-0.00000438,0.00000156,
 0.00000026,-0.00000047,-0.00508777,0.00078110,-0.00232999,-0.00037104,
 -0.00113809,0.00060818,-0.00000597,0.00000249,0.00000730,-0.00000248,-
 0.00000489,0.00000036,0.00000010,0.00000042,-0.00000038,-0.00000024,0.
 00000037,-0.00000134,-0.00000223,-0.00000458,0.00000140,0.00000003,0.0
 0000295,0.00000010,-0.00000374,-0.00000085,0.00000242,0.00000231,-0.00
 000152,-0.00000013,-0.06452534,0.00801964,-0.06367486,0.02344181,-0.00
 216093,0.00689325,-0.02570626,0.00220236,-0.00586300,0.07210571,-0.008
 99696,0.06464944,-0.00001060,-0.00033200,-0.00001806,0.00006153,0.0000
 2974,0.00003423,0.00025383,-0.00022907,0.00027067,0.00067129,0.0012654
 9,-0.00080716,-0.00033655,-0.00009879,0.00051750,-0.00002132,-0.000033
 19,-0.00012643,-0.00011018,-0.00418187,0.00486133,-0.00014888,0.001293
 75,-0.00170521,-0.00029022,0.00001703,-0.00012096,-0.00037487,-0.00045
 842,0.00053424,0.00041274,0.00012563,-0.00036383,0.00000565,0.00004957
 ,0.00008349,-0.00002284,-0.00007325,-0.00031394,-0.00001510,0.00010856
 ,0.00002305,-0.00004375,0.00002352,0.00000675,0.00001878,0.00000503,0.
 00000314,-0.10328045,0.03019462,0.03938769,-0.01556869,0.01602210,0.02
 611362,0.00000302,0.00000988,-0.00000154,0.00000902,-0.00000048,-0.000
 00004,0.00000641,-0.00000839,0.00000613,-0.00000593,-0.00000306,-0.000
 00149,-0.00000453,-0.00000041,-0.00000754,0.00000468,-0.00000315,0.000
 00802,0.00000790,0.00000013,0.00000366,-0.00000547,-0.00000302,-0.0000
 0257,0.00734030,-0.00728426,-0.01143365,-0.00069722,-0.00388833,-0.001
 17695,0.00012372,0.00031925,-0.00021392,0.00097990,-0.00052070,-0.0006
 9820,0.55310310,-0.00038599,-0.00011174,-0.00042244,0.00000826,-0.0000
 1147,-0.00000583,-0.00012510,-0.00185891,0.00229631,0.00122200,0.00006
 680,0.00095872,-0.00045667,0.00040564,-0.00016981,0.00002879,-0.000206
 51,-0.00005544,-0.00995569,0.01150702,0.01064910,0.00033095,-0.0006253
 6,0.00206684,-0.00001750,0.00001236,0.00010650,0.00017742,0.00022241,-
 0.00081077,-0.00054693,-0.00042004,0.00070338,0.00001371,0.00002913,0.
 00005980,-0.00014540,-0.00122986,-0.00026801,0.00007990,-0.00003929,0.
 00008651,0.00020588,-0.00002556,0.00015363,-0.00002773,0.00001504,-0.0
 0000275,0.02633578,-0.10090390,-0.03818934,0.00351941,-0.00370403,-0.0
 0534492,-0.00009798,0.00003288,0.00009788,-0.00004405,-0.00006983,-0.0
 0000362,-0.00000321,0.00001277,-0.00001243,0.00000285,-0.00000901,-0.0
 0001765,-0.00008359,-0.00010901,-0.00000894,0.00000163,0.00001206,-0.0
 0000436,-0.00003330,0.00001186,0.00006098,0.00001060,0.00000635,-0.000
 00798,0.01464629,-0.02151069,-0.02670051,-0.00263663,-0.00521188,-0.00
 128393,0.00085785,0.00120807,-0.00030515,0.00058395,0.00207217,0.00037
 850,0.02546000,0.56044554,-0.00018838,-0.00025084,0.00012432,0.0000651
 6,0.00000224,0.00002898,-0.00165507,-0.00057545,-0.00039061,0.00032259
 ,0.00051995,-0.00109949,-0.00002443,-0.00019113,0.00037229,0.00000039,
 0.00004883,-0.00006749,0.01448495,-0.00884242,-0.03039591,0.00055820,0
 .00013735,-0.00018179,-0.00000352,0.00005848,-0.00053419,0.00028369,-0
 .00007365,0.00106671,0.00078499,0.00009580,-0.00022334,0.00001297,-0.0
 0002577,-0.00001807,-0.00015148,0.00150933,-0.00024690,-0.00004058,-0.
 00013695,-0.00001623,-0.00011616,0.00009946,-0.00003948,0.00003265,-0.
 00000462,0.00000034,0.03919286,-0.04435032,-0.13895153,-0.00234893,0.0
 0279731,0.00480073,0.00008181,0.00002177,-0.00002692,0.00002827,0.0000
 2951,-0.00000030,0.00000145,-0.00002164,0.00001071,-0.00000970,-0.0000
 0532,-0.00000219,0.00001687,0.00002900,0.00001014,0.00000091,-0.000005
 28,0.00000564,0.00000990,-0.00000042,-0.00001522,-0.00000414,-0.000005
 34,-0.00000239,0.00298489,-0.00899183,-0.00739015,-0.00022414,-0.00005
 690,0.00069621,0.00036911,0.00128311,0.00069200,0.00060144,0.00095814,
 0.00017444,0.03602149,-0.03800030,0.51665321,-0.00014152,-0.00013002,0
 .00005515,0.00005611,0.00001477,0.00000393,-0.00022733,-0.00038467,0.0
 0051375,0.00035185,0.00023119,-0.00035059,-0.00009551,0.00003082,0.000
 14115,0.00000321,-0.00001902,-0.00005181,0.00035293,0.00078016,-0.0012
 3175,-0.00029722,-0.00032103,-0.00050658,0.00047986,0.00020118,-0.0002
 4463,0.00014756,-0.00040633,0.00024194,0.00038087,0.00006983,0.0000661
 8,0.00003534,0.00004147,0.00001214,-0.00013182,0.00013896,-0.00033589,
 -0.00000467,-0.00004489,0.00000302,-0.00001447,0.00001705,0.00000870,0
 .00002049,0.00000053,-0.00000161,-0.01574041,0.00251584,-0.00263756,-0
 .00015637,0.00137237,0.00292952,0.00002684,-0.00000030,-0.00000322,0.0
 0000346,0.00000597,-0.00000211,0.00000055,-0.00000668,0.00000498,-0.00
 000403,-0.00000087,-0.00000231,0.00001392,0.00000141,0.00000454,-0.000
 00082,0.00000036,0.00000575,0.00000114,-0.00000008,-0.00000556,-0.0000
 0063,-0.00000104,0.00000004,0.00101746,-0.00079805,-0.00035318,0.00024
 308,-0.00009764,0.00013295,-0.00000730,0.00003886,0.00010119,0.0003882
 7,0.00061041,0.00004735,-0.29295038,0.04143980,-0.05776389,0.31810133,
 0.00012621,0.00010723,0.00005631,-0.00002005,-0.00000371,-0.00000993,0
 .00007868,0.00019997,-0.00014571,-0.00031146,-0.00026382,0.00011157,0.
 00011861,0.00000555,-0.00008872,-0.00000901,0.00002536,0.00004243,-0.0
 0077712,-0.00016856,0.00039954,0.00019947,0.00006746,0.00027179,-0.000
 10459,0.00001979,0.00005675,-0.00008371,0.00007911,-0.00009569,-0.0001
 4077,-0.00000701,-0.00001855,-0.00001337,-0.00000729,-0.00000644,0.000
 04255,-0.00003459,0.00012690,0.00000137,0.00003041,-0.00000999,-0.0000
 0446,-0.00001732,-0.00001285,-0.00000503,-0.00000150,0.00000069,0.0154
 7020,-0.00387861,0.00363816,0.00146691,-0.00084994,-0.00275916,-0.0000
 0314,-0.00000287,-0.00000328,0.00000256,0.00000089,-0.00000157,-0.0000
 0042,0.00000290,0.00000230,-0.00000239,-0.00000015,-0.00000113,0.00000
 433,0.00000804,-0.00000082,-0.00000035,-0.00000006,-0.00000164,0.00000
 190,-0.00000118,-0.00000487,0.00000058,-0.00000094,0.00000092,0.000807
 50,0.00091906,0.00089761,-0.00022582,0.00014627,0.00005278,-0.00002700
 ,-0.00008566,0.00002559,-0.00028445,-0.00006181,-0.00025730,0.04135020
 ,-0.05388351,0.01008022,-0.04783212,0.05473525,0.00008511,0.00012939,0
 .00003352,-0.00002370,-0.00000654,-0.00002525,0.00018390,0.00055488,-0
 .00035748,-0.00032685,-0.00039353,0.00027220,0.00012155,0.00004224,-0.
 00014773,-0.00000873,0.00000895,0.00004827,0.00004070,0.00012351,0.001
 67852,0.00026350,-0.00018573,-0.00071319,-0.00029362,-0.00005388,-0.00
 145406,0.00006840,0.00025530,-0.00029784,-0.00039542,-0.00000327,0.000
 06534,-0.00002446,-0.00001522,-0.00001654,0.00014009,-0.00022113,0.000
 33143,0.00001250,-0.00003874,-0.00002499,0.00001468,-0.00002066,-0.000
 00814,-0.00000952,-0.00000191,0.00000099,0.02528942,-0.00488035,0.0046
 7799,0.00261346,-0.00253558,-0.00353501,-0.00001423,-0.00000565,0.0000
 0410,-0.00000394,-0.00000341,-0.00000012,-0.00000123,0.00000513,-0.000
 00185,0.00000043,0.00000110,0.00000061,-0.00000355,-0.00000139,-0.0000
 0028,-0.00000055,0.00000102,-0.00000513,-0.00000254,0.00000058,0.00000
 069,0.00000113,0.00000067,0.00000084,0.00016514,0.00138737,0.00137680,
 -0.00010498,0.00027050,-0.00003038,-0.00011186,-0.00009088,0.00000025,
 -0.00056531,0.00001517,0.00001181,-0.05939243,0.01042603,-0.05960718,0
 .06217923,-0.00891287,0.06531894,-0.00011007,0.00000375,-0.00014313,-0
 .00001543,-0.00001458,0.00002642,-0.00010446,-0.00038325,0.00044714,0.
 00029087,-0.00004696,0.00026442,-0.00011007,0.00011057,-0.00007737,0.0
 0001756,-0.00004197,-0.00000504,-0.00076059,0.00268270,0.00152508,-0.0
 0004821,-0.00015081,-0.00001084,0.00023688,0.00023117,0.00014685,0.000
 02964,-0.00037651,-0.00005910,0.00016880,-0.00005222,0.00017541,0.0000
 1363,0.00004699,0.00003154,-0.00009586,-0.00013563,-0.00029897,0.00001
 311,-0.00003079,0.00002519,0.00003600,0.00002152,0.00003749,-0.0000030
 6,0.00000307,-0.00000254,-0.00049188,-0.00854505,0.01429781,0.00045599
 ,-0.00068966,-0.00043778,-0.00000161,0.00000320,0.00000990,-0.00000771
 ,-0.00000700,0.00000112,-0.00000176,0.00000107,-0.00000191,0.00000177,
 -0.00000006,-0.00000227,-0.00001058,-0.00002013,0.00000302,-0.00000155
 ,0.00000358,-0.00000093,-0.00000639,0.00000111,0.00001014,0.00000255,0
 .00000094,-0.00000113,0.00016132,-0.00070744,-0.00065049,-0.00016709,-
 0.00004229,-0.00007278,0.00020672,0.00009191,-0.00022883,-0.00000778,0
 .00011210,-0.00001984,-0.04765034,0.00655579,-0.01150313,0.00030281,0.
 01740683,-0.02550841,0.04734621,0.00000230,0.00001587,0.00001850,-0.00
 000264,-0.00000068,0.00002313,0.00008137,0.00044941,-0.00037634,-0.000
 08281,-0.00003664,-0.00011256,0.00003863,-0.00003846,0.00001505,-0.000
 00075,0.00001714,0.00000544,0.00142167,-0.00129539,-0.00171466,-0.0000
 9891,0.00039709,-0.00021166,-0.00006933,-0.00009002,-0.00000082,-0.000
 07692,0.00002252,0.00013999,0.00006627,0.00004344,-0.00010791,-0.00000
 322,-0.00001067,-0.00000799,0.00008725,0.00017120,0.00004161,-0.000008
 23,-0.00000608,-0.00002519,-0.00001829,0.00001214,-0.00002359,-0.00000
 053,-0.00000223,-0.00000038,-0.00145254,0.00776138,-0.01456291,-0.0004
 3432,0.00055956,0.00065706,0.00000657,-0.00000309,-0.00001433,0.000001
 68,0.00000727,0.00000546,0.00000104,-0.00000083,-0.00000143,0.00000532
 ,0.00000490,0.00000558,0.00000125,0.00001073,-0.00000091,0.00000037,-0
 .00000172,-0.00000006,0.00000109,-0.00000135,-0.00000214,-0.00000056,0
 .00000045,0.00000088,0.00003096,0.00107479,-0.00029772,0.00001032,0.00
 025912,0.00010026,0.00018413,-0.00009311,-0.00003927,-0.00010523,-0.00
 003192,0.00001626,0.00658592,-0.13126398,0.12527221,-0.00014703,-0.003
 17004,0.00280762,-0.00882651,0.13918773,0.00025737,0.00004712,0.000224
 49,-0.00001071,0.00001142,-0.00002080,-0.00023787,0.00021734,-0.000782
 02,-0.00066808,0.00003184,-0.00033895,0.00027704,-0.00023554,0.0000462
 7,-0.00003311,0.00009574,0.00004012,0.00294818,-0.00354827,-0.00189190
 ,0.00028581,0.00022795,-0.00028946,-0.00001608,0.00000608,0.00010885,-
 0.00009600,-0.00012105,0.00026916,0.00031508,0.00015587,-0.00026784,-0
 .00000264,0.00000517,-0.00002999,-0.00000689,0.00044570,-0.00006019,-0
 .00003999,0.00003330,-0.00006317,-0.00012187,0.00005850,-0.00003251,0.
 00001506,-0.00000588,0.00000311,-0.00195227,0.01370558,-0.02015690,0.0
 0005457,0.00016169,0.00096767,0.00007140,-0.00001776,-0.00005368,0.000
 02468,0.00004227,-0.00000374,-0.00000084,-0.00000641,0.00000641,-0.000
 00556,-0.00000186,0.00000583,0.00004366,0.00005240,0.00000825,-0.00000
 175,-0.00000609,0.00000219,0.00002142,-0.00000472,-0.00003420,-0.00000
 709,-0.00000374,0.00000298,-0.00044066,0.00128342,0.00078142,0.0001574
 0,-0.00010007,0.00037005,-0.00015330,-0.00065452,0.00019768,0.00000480
 ,-0.00011600,-0.00005130,-0.01076269,0.12327786,-0.23037816,-0.0001192
 9,0.00295375,-0.00536695,0.00929390,-0.13440896,0.25069342,0.00005979,
 0.00001228,-0.00013288,-0.00003372,0.00000056,-0.00000187,0.00007229,0
 .00006020,-0.00033470,-0.00001722,0.00004567,0.00011270,0.00002293,-0.
 00004025,-0.00004095,0.00000657,0.00000637,0.00000384,0.00057951,0.000
 30803,-0.00036026,-0.00029642,-0.00004873,-0.00002085,0.00007791,-0.00
 007221,-0.00004117,0.00011958,0.00011079,-0.00004806,-0.00008673,0.000
 04962,-0.00004084,0.00000298,-0.00000737,-0.00001374,0.00002601,-0.000
 04235,0.00010082,-0.00000613,-0.00001359,-0.00000526,0.00000393,-0.000
 00068,-0.00000114,-0.00000369,0.00000193,-0.00000168,0.00684167,0.0145
 0277,0.00271142,0.00070927,-0.00023059,-0.00084526,-0.00000059,-0.0000
 0360,-0.00000595,-0.00000095,0.00000381,0.00000248,-0.00000051,0.00000
 067,-0.00000364,0.00000541,0.00000156,0.00000425,-0.00000208,0.0000038
 5,0.00000009,-0.00000026,-0.00000146,-0.00000115,0.00000031,-0.0000001
 7,-0.00000004,-0.00000007,0.00000078,0.00000099,-0.00094460,0.00127891
 ,0.00256541,0.00057264,0.00077682,0.00037568,-0.00016704,-0.00016653,0
 .00004142,0.00023721,0.00015906,0.00016488,-0.10146453,-0.10692110,-0.
 02182104,-0.01215458,-0.02723266,-0.00438792,0.00031056,0.00280171,0.0
 0090633,0.10553054,0.00003875,0.00002127,0.00015021,0.00002709,0.00000
 383,-0.00001821,0.00012359,0.00027515,-0.00027351,-0.00009056,-0.00017
 778,-0.00022231,0.00002808,0.00009311,0.00002943,-0.00002768,-0.000010
 79,0.00001071,0.00014603,0.00038209,0.00130083,-0.00014424,0.00030644,
 -0.00032722,0.00005014,0.00006722,0.00003318,-0.00009153,-0.00018524,-
 0.00000898,0.00007085,0.00001947,-0.00001155,0.00000140,0.00002435,0.0
 0001081,0.00006197,-0.00005855,-0.00011515,-0.00000389,0.00000777,-0.0
 0001494,-0.00001874,0.00001536,-0.00001457,0.00000495,-0.00000253,0.00
 000055,-0.00668866,-0.01239415,-0.00137300,0.00014738,0.00023495,0.000
 42528,0.00001040,-0.00000727,-0.00001218,0.00000111,0.00000721,0.00000
 068,0.00000039,0.00000062,0.00000028,0.00000145,0.00000566,0.00000424,
 0.00000948,0.00000264,0.00000188,-0.00000035,-0.00000052,0.00000125,0.
 00000292,0.00000001,-0.00000409,-0.00000242,0.00000211,0.00000177,0.00
 254239,-0.00048187,-0.00298992,-0.00057108,-0.00085383,-0.00040911,0.0
 0006790,0.00033879,0.00005196,-0.00008440,0.00009686,0.00006805,-0.105
 74203,-0.25486552,-0.04140453,0.00267880,0.00609128,0.00134127,-0.0072
 0541,-0.01394851,-0.00358213,0.11465590,0.27499039,-0.00006058,0.00006
 421,-0.00000260,0.00000266,-0.00000263,0.00003256,0.00012542,0.0001785
 0,0.00013523,0.00009286,-0.00020882,-0.00000239,-0.00003530,0.00010979
 ,-0.00001680,-0.00001257,-0.00002925,0.00001067,-0.00080784,-0.0011574
 2,0.00107528,-0.00021196,0.00023027,0.00010840,0.00005564,-0.00006266,
 0.00000658,-0.00001650,0.00004886,-0.00005798,-0.00000597,-0.00001742,
 0.00001518,0.00000577,0.00000298,0.00000258,0.00004200,0.00000208,-0.0
 0007994,0.00000243,-0.00000412,-0.00001628,0.00001460,-0.00000471,-0.0
 0000398,-0.00000407,-0.00000100,-0.00000180,-0.01230423,-0.02058006,-0
 .00545712,-0.00004864,0.00069446,0.00088700,-0.00000899,-0.00000218,-0
 .00000688,-0.00000768,-0.00000173,0.00000698,0.,0.00000172,-0.00000377
 ,0.00000933,0.00000976,0.00000748,-0.00000565,-0.00000910,-0.00000349,
 0.00000038,0.00000019,0.00000010,-0.00000366,0.00000116,0.00000697,-0.
 00000032,0.00000460,0.00000128,0.00325539,-0.00184351,-0.00383290,-0.0
 0050441,-0.00162422,-0.00004949,0.00000933,-0.00013545,0.00027708,0.00
 014535,0.00028157,0.00001041,-0.02072840,-0.03970786,-0.05504818,-0.00
 284151,-0.00638682,-0.00223018,0.01272906,0.02279981,0.00609387,0.0211
 1807,0.04734899,0.05813613\\0.00000256,-0.00000752,-0.00000197,0.00000
 209,-0.00001002,-0.00000326,0.,-0.00000076,-0.00000032,-0.00000031,-0.
 00000499,-0.00000231,-0.00000354,-0.00000605,-0.00000445,-0.00000545,-
 0.00000411,-0.00000469,-0.00000051,0.00000148,0.00000041,-0.00000018,0
 .00000519,0.00000219,-0.00000050,0.00000694,0.00000274,0.00000052,0.00
 000668,0.00000316,0.00000091,0.00000449,0.00000241,0.00000148,0.000005
 65,0.00000326,0.00000074,0.00000072,0.00000070,0.00000071,0.00000955,0
 .00000453,0.00000124,-0.00000162,-0.00000004,0.00000090,-0.00000443,-0
 .00000147,-0.00000114,-0.00000013,-0.00000065,-0.00000129,-0.00000302,
 -0.00000201,0.00000495,-0.00000196,0.00000176,0.00000533,-0.00000369,0
 .00000120,0.00000538,0.00000084,0.00000322,0.00000698,-0.00000291,0.00
 000240,-0.00000162,-0.00000017,-0.00000096,-0.00000138,0.00000254,0.00
 000035,-0.00000129,-0.00000203,-0.00000157,-0.00000430,-0.00000009,-0.
 00000230,-0.00000481,0.00000184,-0.00000173,-0.00000694,0.00000163,-0.
 00000291,-0.00000532,0.00000056,-0.00000255,-0.00000479,0.00000473,-0.
 00000042,0.00000181,0.00000012,0.00000099,0.00000201,0.00000297,0.0000
 0236,0.00000134,-0.00000115,0.00000020,0.00000439,-0.00000129,0.000001
 75\\\@
 The archive entry for this job was punched.


 THE MOST BEAUTIFUL EXPERIENCE WE CAN HAVE IS THE MYSTERIOUS.
 IT IS THE FUNDAMENTAL EMOTION WHICH STANDS AT AT THE CRADLE 
 OF TRUE ART AND TRUE SCIENCE.

                                    -- ALBERT EINSTEIN
 Job cpu time:       0 days  4 hours 50 minutes 49.5 seconds.
 Elapsed time:       0 days  0 hours  9 minutes 22.6 seconds.
 File lengths (MBytes):  RWF=    693 Int=      0 D2E=      0 Chk=     31 Scr=      1
 Normal termination of Gaussian 16 at Fri May  9 03:10:56 2025.
