/home/tahminaafroz
cn012.cluster.local
tahminaafroz
Mon May  5 07:41:32 CDT 2025
 Entering Gaussian System, Link 0=g16
 Initial command:
 /home/apps/g16/l1.exe "/tmp/3-isopropyl-phboh2-opt-freq-thf/Gau-1190485.inp" -scrdir="/tmp/3-isopropyl-phboh2-opt-freq-thf/"
 Entering Link 1 = /home/apps/g16/l1.exe PID=   1190490.
  
 Copyright (c) 1988-2019, Gaussian, Inc.  All Rights Reserved.
  
 This is part of the Gaussian(R) 16 program.  It is based on
 the Gaussian(R) 09 system (copyright 2009, Gaussian, Inc.),
 the Gaussian(R) 03 system (copyright 2003, Gaussian, Inc.),
 the Gaussian(R) 98 system (copyright 1998, Gaussian, Inc.),
 the Gaussian(R) 94 system (copyright 1995, Gaussian, Inc.),
 the Gaussian 92(TM) system (copyright 1992, Gaussian, Inc.),
 the Gaussian 90(TM) system (copyright 1990, Gaussian, Inc.),
 the Gaussian 88(TM) system (copyright 1988, Gaussian, Inc.),
 the Gaussian 86(TM) system (copyright 1986, Carnegie Mellon
 University), and the Gaussian 82(TM) system (copyright 1983,
 Carnegie Mellon University). Gaussian is a federally registered
 trademark of Gaussian, Inc.
  
 This software contains proprietary and confidential information,
 including trade secrets, belonging to Gaussian, Inc.
  
 This software is provided under written license and may be
 used, copied, transmitted, or stored only in accord with that
 written license.
  
 The following legend is applicable only to US Government
 contracts under FAR:
  
                    RESTRICTED RIGHTS LEGEND
  
 Use, reproduction and disclosure by the US Government is
 subject to restrictions as set forth in subparagraphs (a)
 and (c) of the Commercial Computer Software - Restricted
 Rights clause in FAR 52.227-19.
  
 Gaussian, Inc.
 340 Quinnipiac St., Bldg. 40, Wallingford CT 06492
  
  
 ---------------------------------------------------------------
 Warning -- This program may not be used in any manner that
 competes with the business of Gaussian, Inc. or will provide
 assistance to any competitor of Gaussian, Inc.  The licensee
 of this program is prohibited from giving any competitor of
 Gaussian, Inc. access to this program.  By using this program,
 the user acknowledges that Gaussian, Inc. is engaged in the
 business of creating and licensing software in the field of
 computational chemistry and represents and warrants to the
 licensee that it is not a competitor of Gaussian, Inc. and that
 it will not use this program in any manner prohibited above.
 ---------------------------------------------------------------
  

 Cite this work as:
 Gaussian 16, Revision C.01,
 M. J. Frisch, G. W. Trucks, H. B. Schlegel, G. E. Scuseria, 
 M. A. Robb, J. R. Cheeseman, G. Scalmani, V. Barone, 
 G. A. Petersson, H. Nakatsuji, X. Li, M. Caricato, A. V. Marenich, 
 J. Bloino, B. G. Janesko, R. Gomperts, B. Mennucci, H. P. Hratchian, 
 J. V. Ortiz, A. F. Izmaylov, J. L. Sonnenberg, D. Williams-Young, 
 F. Ding, F. Lipparini, F. Egidi, J. Goings, B. Peng, A. Petrone, 
 T. Henderson, D. Ranasinghe, V. G. Zakrzewski, J. Gao, N. Rega, 
 G. Zheng, W. Liang, M. Hada, M. Ehara, K. Toyota, R. Fukuda, 
 J. Hasegawa, M. Ishida, T. Nakajima, Y. Honda, O. Kitao, H. Nakai, 
 T. Vreven, K. Throssell, J. A. Montgomery, Jr., J. E. Peralta, 
 F. Ogliaro, M. J. Bearpark, J. J. Heyd, E. N. Brothers, K. N. Kudin, 
 V. N. Staroverov, T. A. Keith, R. Kobayashi, J. Normand, 
 K. Raghavachari, A. P. Rendell, J. C. Burant, S. S. Iyengar, 
 J. Tomasi, M. Cossi, J. M. Millam, M. Klene, C. Adamo, R. Cammi, 
 J. W. Ochterski, R. L. Martin, K. Morokuma, O. Farkas, 
 J. B. Foresman, and D. J. Fox, Gaussian, Inc., Wallingford CT, 2019.
 
 ******************************************
 Gaussian 16:  AS64L-G16RevC.01  3-Jul-2019
                 5-May-2025 
 ******************************************
 %mem=20GB
 %nprocshared=32
 Will use up to   32 processors via shared memory.
 %chk=3-isopropyl-phboh2-opt-freq-thf.chk
 ----------------------------------------------------------------------
 # opt=(calcfc,tight) freq 6-311+g(d,p) scrf=(smd,solvent=thf) nosymm s
 cf=(qc,fermi,xqc) geom=connectivity int=ultrafine m062x
 ----------------------------------------------------------------------
 1/7=10,10=4,18=20,19=15,26=6,38=1,57=2/1,3;
 2/9=110,12=2,15=1,17=6,18=5,40=1/2;
 3/5=4,6=6,7=111,11=2,25=1,30=1,70=32201,71=2,72=20,74=-55,75=-5,140=1/1,2,3;
 4//1;
 5/5=2,22=13,38=5,53=20/2;
 8/6=4,10=90,11=11/1;
 11/6=1,8=1,9=11,15=111,16=1,31=1/1,2,10;
 10/6=1,13=1,31=1/2;
 6/7=2,8=2,9=2,10=2,28=1/1;
 7/10=1,25=1,30=1/1,2,3,16;
 1/7=10,10=4,18=20,19=15,26=6/3(2);
 2/9=110,15=1/2;
 99//99;
 2/9=110,15=1/2;
 3/5=4,6=6,7=111,11=2,25=1,30=1,70=32205,71=1,72=20,74=-55,75=-5/1,2,3;
 4/5=5,16=3,69=1/1;
 5/5=2,22=13,38=5,53=20/2;
 7/30=1/1,2,3,16;
 1/7=10,18=20,19=15,26=6/3(-5);
 2/9=110,15=1/2;
 6/7=2,8=2,9=2,10=2,19=2,28=1/1;
 99/9=1/99;
 -------------------------------
 3-isopropyl-phboh2-opt-freq-thf
 -------------------------------
 Symbolic Z-matrix:
 Charge =  0 Multiplicity = 1
 O                     8.80895   6.74165   4.83763 
 H                     9.59842   6.24711   5.07536 
 C                     6.3141    6.92298   5.14286 
 B                     7.69293   6.24194   5.44024 
 O                     7.85088   5.16468   6.27094 
 H                     7.03293   4.82916   6.64119 
 C                     5.13676   6.5537    5.79816 
 H                     5.1414    5.77566   6.55712 
 C                     3.93046   7.18015   5.50217 
 H                     3.02349   6.88681   6.0179 
 C                     3.88898   8.18611   4.545 
 C                     5.0477    8.58372   3.8713 
 C                     6.2438    7.94339   4.18577 
 H                     7.15585   8.23901   3.67584 
 H                     2.94246   8.66798   4.32102 
 C                     5.00218   9.68295   2.82843 
 H                     6.02155   9.80977   2.4503 
 C                     4.55432   11.01474   3.44074 
 H                     5.20028   11.30202   4.27267 
 H                     4.58002   11.80943   2.69112 
 H                     3.5303    10.94374   3.8178 
 C                     4.10318   9.29614   1.64884 
 H                     4.12398   10.07247   0.88008 
 H                     4.42656   8.35499   1.19987 
 H                     3.06618   9.17567   1.97439 
 

 GradGradGradGradGradGradGradGradGradGradGradGradGradGradGradGradGradGrad
 Berny optimization.
 Initialization pass.
                           ----------------------------
                           !    Initial Parameters    !
                           ! (Angstroms and Degrees)  !
 --------------------------                            --------------------------
 ! Name  Definition              Value          Derivative Info.                !
 --------------------------------------------------------------------------------
 ! R1    R(1,2)                  0.9614         calculate D2E/DX2 analytically  !
 ! R2    R(1,4)                  1.3632         calculate D2E/DX2 analytically  !
 ! R3    R(3,4)                  1.5663         calculate D2E/DX2 analytically  !
 ! R4    R(3,7)                  1.3971         calculate D2E/DX2 analytically  !
 ! R5    R(3,13)                 1.4008         calculate D2E/DX2 analytically  !
 ! R6    R(4,5)                  1.3695         calculate D2E/DX2 analytically  !
 ! R7    R(5,6)                  0.9585         calculate D2E/DX2 analytically  !
 ! R8    R(7,8)                  1.0869         calculate D2E/DX2 analytically  !
 ! R9    R(7,9)                  1.3911         calculate D2E/DX2 analytically  !
 ! R10   R(9,10)                 1.0838         calculate D2E/DX2 analytically  !
 ! R11   R(9,11)                 1.3892         calculate D2E/DX2 analytically  !
 ! R12   R(11,12)                1.3981         calculate D2E/DX2 analytically  !
 ! R13   R(11,15)                1.0855         calculate D2E/DX2 analytically  !
 ! R14   R(12,13)                1.3927         calculate D2E/DX2 analytically  !
 ! R15   R(12,16)                1.5159         calculate D2E/DX2 analytically  !
 ! R16   R(13,14)                1.0859         calculate D2E/DX2 analytically  !
 ! R17   R(16,17)                1.0946         calculate D2E/DX2 analytically  !
 ! R18   R(16,18)                1.5327         calculate D2E/DX2 analytically  !
 ! R19   R(16,22)                1.5327         calculate D2E/DX2 analytically  !
 ! R20   R(18,19)                1.0917         calculate D2E/DX2 analytically  !
 ! R21   R(18,20)                1.0928         calculate D2E/DX2 analytically  !
 ! R22   R(18,21)                1.0935         calculate D2E/DX2 analytically  !
 ! R23   R(22,23)                1.0928         calculate D2E/DX2 analytically  !
 ! R24   R(22,24)                1.0917         calculate D2E/DX2 analytically  !
 ! R25   R(22,25)                1.0936         calculate D2E/DX2 analytically  !
 ! A1    A(2,1,4)              111.9866         calculate D2E/DX2 analytically  !
 ! A2    A(4,3,7)              122.5366         calculate D2E/DX2 analytically  !
 ! A3    A(4,3,13)             119.3821         calculate D2E/DX2 analytically  !
 ! A4    A(7,3,13)             118.0813         calculate D2E/DX2 analytically  !
 ! A5    A(1,4,3)              118.5128         calculate D2E/DX2 analytically  !
 ! A6    A(1,4,5)              117.52           calculate D2E/DX2 analytically  !
 ! A7    A(3,4,5)              123.9669         calculate D2E/DX2 analytically  !
 ! A8    A(4,5,6)              114.2829         calculate D2E/DX2 analytically  !
 ! A9    A(3,7,8)              120.8721         calculate D2E/DX2 analytically  !
 ! A10   A(3,7,9)              120.7915         calculate D2E/DX2 analytically  !
 ! A11   A(8,7,9)              118.3347         calculate D2E/DX2 analytically  !
 ! A12   A(7,9,10)             120.1675         calculate D2E/DX2 analytically  !
 ! A13   A(7,9,11)             119.9063         calculate D2E/DX2 analytically  !
 ! A14   A(10,9,11)            119.926          calculate D2E/DX2 analytically  !
 ! A15   A(9,11,12)            120.8788         calculate D2E/DX2 analytically  !
 ! A16   A(9,11,15)            119.3191         calculate D2E/DX2 analytically  !
 ! A17   A(12,11,15)           119.802          calculate D2E/DX2 analytically  !
 ! A18   A(11,12,13)           118.1795         calculate D2E/DX2 analytically  !
 ! A19   A(11,12,16)           120.8541         calculate D2E/DX2 analytically  !
 ! A20   A(13,12,16)           120.9663         calculate D2E/DX2 analytically  !
 ! A21   A(3,13,12)            122.1617         calculate D2E/DX2 analytically  !
 ! A22   A(3,13,14)            118.4891         calculate D2E/DX2 analytically  !
 ! A23   A(12,13,14)           119.3491         calculate D2E/DX2 analytically  !
 ! A24   A(12,16,17)           107.0794         calculate D2E/DX2 analytically  !
 ! A25   A(12,16,18)           111.3474         calculate D2E/DX2 analytically  !
 ! A26   A(12,16,22)           111.3501         calculate D2E/DX2 analytically  !
 ! A27   A(17,16,18)           108.0261         calculate D2E/DX2 analytically  !
 ! A28   A(17,16,22)           108.0349         calculate D2E/DX2 analytically  !
 ! A29   A(18,16,22)           110.8151         calculate D2E/DX2 analytically  !
 ! A30   A(16,18,19)           111.1111         calculate D2E/DX2 analytically  !
 ! A31   A(16,18,20)           110.547          calculate D2E/DX2 analytically  !
 ! A32   A(16,18,21)           110.7904         calculate D2E/DX2 analytically  !
 ! A33   A(19,18,20)           108.5102         calculate D2E/DX2 analytically  !
 ! A34   A(19,18,21)           107.9627         calculate D2E/DX2 analytically  !
 ! A35   A(20,18,21)           107.8051         calculate D2E/DX2 analytically  !
 ! A36   A(16,22,23)           110.5463         calculate D2E/DX2 analytically  !
 ! A37   A(16,22,24)           111.1188         calculate D2E/DX2 analytically  !
 ! A38   A(16,22,25)           110.7865         calculate D2E/DX2 analytically  !
 ! A39   A(23,22,24)           108.5111         calculate D2E/DX2 analytically  !
 ! A40   A(23,22,25)           107.8039         calculate D2E/DX2 analytically  !
 ! A41   A(24,22,25)           107.9596         calculate D2E/DX2 analytically  !
 ! D1    D(2,1,4,3)           -179.1824         calculate D2E/DX2 analytically  !
 ! D2    D(2,1,4,5)              0.6287         calculate D2E/DX2 analytically  !
 ! D3    D(7,3,4,1)           -174.4964         calculate D2E/DX2 analytically  !
 ! D4    D(7,3,4,5)              5.7056         calculate D2E/DX2 analytically  !
 ! D5    D(13,3,4,1)             5.4822         calculate D2E/DX2 analytically  !
 ! D6    D(13,3,4,5)          -174.3159         calculate D2E/DX2 analytically  !
 ! D7    D(4,3,7,8)              0.7043         calculate D2E/DX2 analytically  !
 ! D8    D(4,3,7,9)           -179.7771         calculate D2E/DX2 analytically  !
 ! D9    D(13,3,7,8)          -179.2745         calculate D2E/DX2 analytically  !
 ! D10   D(13,3,7,9)             0.244          calculate D2E/DX2 analytically  !
 ! D11   D(4,3,13,12)          179.6838         calculate D2E/DX2 analytically  !
 ! D12   D(4,3,13,14)           -0.2711         calculate D2E/DX2 analytically  !
 ! D13   D(7,3,13,12)           -0.3367         calculate D2E/DX2 analytically  !
 ! D14   D(7,3,13,14)          179.7085         calculate D2E/DX2 analytically  !
 ! D15   D(1,4,5,6)           -177.6189         calculate D2E/DX2 analytically  !
 ! D16   D(3,4,5,6)              2.181          calculate D2E/DX2 analytically  !
 ! D17   D(3,7,9,10)          -179.8967         calculate D2E/DX2 analytically  !
 ! D18   D(3,7,9,11)            -0.0264         calculate D2E/DX2 analytically  !
 ! D19   D(8,7,9,10)            -0.3662         calculate D2E/DX2 analytically  !
 ! D20   D(8,7,9,11)           179.5041         calculate D2E/DX2 analytically  !
 ! D21   D(7,9,11,12)           -0.113          calculate D2E/DX2 analytically  !
 ! D22   D(7,9,11,15)          179.9556         calculate D2E/DX2 analytically  !
 ! D23   D(10,9,11,12)         179.7576         calculate D2E/DX2 analytically  !
 ! D24   D(10,9,11,15)          -0.1738         calculate D2E/DX2 analytically  !
 ! D25   D(9,11,12,13)           0.0264         calculate D2E/DX2 analytically  !
 ! D26   D(9,11,12,16)        -179.9065         calculate D2E/DX2 analytically  !
 ! D27   D(15,11,12,13)        179.9575         calculate D2E/DX2 analytically  !
 ! D28   D(15,11,12,16)          0.0245         calculate D2E/DX2 analytically  !
 ! D29   D(11,12,13,3)           0.2033         calculate D2E/DX2 analytically  !
 ! D30   D(11,12,13,14)       -179.8422         calculate D2E/DX2 analytically  !
 ! D31   D(16,12,13,3)        -179.8638         calculate D2E/DX2 analytically  !
 ! D32   D(16,12,13,14)          0.0906         calculate D2E/DX2 analytically  !
 ! D33   D(11,12,16,17)        179.9739         calculate D2E/DX2 analytically  !
 ! D34   D(11,12,16,18)         62.0915         calculate D2E/DX2 analytically  !
 ! D35   D(11,12,16,22)        -62.1316         calculate D2E/DX2 analytically  !
 ! D36   D(13,12,16,17)          0.0428         calculate D2E/DX2 analytically  !
 ! D37   D(13,12,16,18)       -117.8395         calculate D2E/DX2 analytically  !
 ! D38   D(13,12,16,22)        117.9374         calculate D2E/DX2 analytically  !
 ! D39   D(12,16,18,19)         56.2827         calculate D2E/DX2 analytically  !
 ! D40   D(12,16,18,20)        176.8233         calculate D2E/DX2 analytically  !
 ! D41   D(12,16,18,21)        -63.7304         calculate D2E/DX2 analytically  !
 ! D42   D(17,16,18,19)        -61.0267         calculate D2E/DX2 analytically  !
 ! D43   D(17,16,18,20)         59.5139         calculate D2E/DX2 analytically  !
 ! D44   D(17,16,18,21)        178.9601         calculate D2E/DX2 analytically  !
 ! D45   D(22,16,18,19)       -179.1926         calculate D2E/DX2 analytically  !
 ! D46   D(22,16,18,20)        -58.652          calculate D2E/DX2 analytically  !
 ! D47   D(22,16,18,21)         60.7942         calculate D2E/DX2 analytically  !
 ! D48   D(12,16,22,23)       -176.8298         calculate D2E/DX2 analytically  !
 ! D49   D(12,16,22,24)        -56.2833         calculate D2E/DX2 analytically  !
 ! D50   D(12,16,22,25)         63.7284         calculate D2E/DX2 analytically  !
 ! D51   D(17,16,22,23)        -59.5134         calculate D2E/DX2 analytically  !
 ! D52   D(17,16,22,24)         61.0331         calculate D2E/DX2 analytically  !
 ! D53   D(17,16,22,25)       -178.9552         calculate D2E/DX2 analytically  !
 ! D54   D(18,16,22,23)         58.6472         calculate D2E/DX2 analytically  !
 ! D55   D(18,16,22,24)        179.1936         calculate D2E/DX2 analytically  !
 ! D56   D(18,16,22,25)        -60.7947         calculate D2E/DX2 analytically  !
 --------------------------------------------------------------------------------
 Trust Radius=3.00D-01 FncErr=5.00D-06 GrdErr=5.00D-06 EigMax=2.50D+02 EigMin=1.00D-04
 Number of steps in this run=    132 maximum allowed number of steps=    150.
 GradGradGradGradGradGradGradGradGradGradGradGradGradGradGradGradGradGrad

                          Input orientation:                          
 ---------------------------------------------------------------------
 Center     Atomic      Atomic             Coordinates (Angstroms)
 Number     Number       Type             X           Y           Z
 ---------------------------------------------------------------------
      1          8           0        8.808949    6.741646    4.837633
      2          1           0        9.598422    6.247107    5.075362
      3          6           0        6.314102    6.922984    5.142861
      4          5           0        7.692925    6.241940    5.440241
      5          8           0        7.850879    5.164681    6.270944
      6          1           0        7.032932    4.829156    6.641187
      7          6           0        5.136762    6.553702    5.798158
      8          1           0        5.141400    5.775664    6.557115
      9          6           0        3.930458    7.180150    5.502167
     10          1           0        3.023491    6.886806    6.017897
     11          6           0        3.888982    8.186106    4.545003
     12          6           0        5.047700    8.583724    3.871301
     13          6           0        6.243802    7.943390    4.185769
     14          1           0        7.155851    8.239006    3.675841
     15          1           0        2.942460    8.667983    4.321015
     16          6           0        5.002178    9.682952    2.828433
     17          1           0        6.021547    9.809770    2.450302
     18          6           0        4.554321   11.014745    3.440742
     19          1           0        5.200275   11.302015    4.272667
     20          1           0        4.580019   11.809425    2.691115
     21          1           0        3.530298   10.943736    3.817804
     22          6           0        4.103175    9.296143    1.648835
     23          1           0        4.123984   10.072469    0.880075
     24          1           0        4.426559    8.354992    1.199873
     25          1           0        3.066179    9.175672    1.974391
 ---------------------------------------------------------------------
                    Distance matrix (angstroms):
                    1          2          3          4          5
     1  O    0.000000
     2  H    0.961432   0.000000
     3  C    2.519982   3.353822   0.000000
     4  B    1.363214   1.940124   1.566336   0.000000
     5  O    2.336471   2.378018   2.593431   1.369490   0.000000
     6  H    3.172485   3.323271   2.673165   1.968202   0.958485
     7  C    3.800380   4.530215   1.397109   2.599859   3.085342
     8  H    4.164211   4.720476   2.166030   2.824022   2.792216
     9  C    4.943032   5.760082   2.424251   3.878174   4.474688
    10  H    5.906405   6.672878   3.405160   4.749016   5.131610
    11  C    5.135968   6.052991   2.798950   4.364770   5.272998
    12  C    4.298144   5.255341   2.445137   3.865584   5.030502
    13  C    2.906733   3.862930   1.400784   2.562926   3.827777
    14  H    2.514872   3.448547   2.143036   2.718424   4.082781
    15  H    6.196238   7.122606   3.884382   5.450254   6.337817
    16  C    5.213413   6.162725   3.833425   5.089423   6.354585
    17  H    4.783549   5.690127   3.958408   4.945973   6.286542
    18  C    6.189712   7.130590   4.768285   6.052148   7.287015
    19  H    5.842832   6.748341   4.601495   5.760286   6.977513
    20  H    6.940733   7.861831   5.735452   6.945845   8.225954
    21  H    6.823618   7.775725   5.066733   6.485881   7.621207
    22  C    6.232030   7.157894   4.767421   6.048902   7.244181
    23  H    6.978936   7.886907   5.734738   6.943011   8.187649
    24  H    5.919588   6.797850   4.600067   5.754551   6.900711
    25  H    6.863093   7.801456   5.065847   6.482722   7.579035
                    6          7          8          9         10
     6  H    0.000000
     7  C    2.698188   0.000000
     8  H    2.116799   1.086913   0.000000
     9  C    4.055846   1.391121   2.133513   0.000000
    10  H    4.549509   2.150618   2.451720   1.083798   0.000000
    11  C    5.054456   2.406677   3.380440   1.389183   2.146316
    12  C    5.070522   2.800303   3.886847   2.424453   3.403649
    13  C    4.043545   2.399285   3.396705   2.768935   3.852722
    14  H    4.520560   3.379527   4.292762   3.854841   4.938630
    15  H    6.070564   3.386310   4.266262   2.141240   2.461415
    16  C    6.497722   4.316200   5.402717   3.815947   4.680418
    17  H    6.587331   4.753206   5.823623   4.538880   5.500890
    18  C    7.392420   5.079129   6.124085   4.398045   5.101475
    19  H    7.132070   4.987748   5.980194   4.484850   5.222862
    20  H    8.387133   6.130767   7.188002   5.454735   6.141859
    21  H    7.591312   5.076901   6.066996   4.142679   4.642838
    22  C    7.311705   5.079977   6.128858   4.399480   5.104834
    23  H    8.315330   6.131475   7.192110   5.455886   6.144652
    24  H    6.988032   4.989314   5.988654   4.487327   5.228530
    25  H    7.510414   5.077719   6.071899   4.144187   4.646576
                   11         12         13         14         15
    11  C    0.000000
    12  C    1.398071   0.000000
    13  C    2.394397   1.392687   0.000000
    14  H    3.380928   2.145072   1.085932   0.000000
    15  H    1.085486   2.154386   3.382630   4.284033   0.000000
    16  C    2.535028   1.515898   2.531811   2.727891   2.738686
    17  H    3.401748   2.114428   2.558245   2.292573   3.779421
    18  C    3.108580   2.517671   3.583662   3.811556   2.979978
    19  H    3.391540   2.751996   3.518076   3.682730   3.469610
    20  H    4.128302   3.466513   4.466362   4.511373   3.899594
    21  H    2.874369   2.806248   4.062090   4.525522   2.403711
    22  C    3.108995   2.517742   3.584447   3.813807   2.980334
    23  H    4.128594   3.466561   4.467015   4.513326   3.899827
    24  H    3.392257   2.752210   3.519569   3.686856   3.470164
    25  H    2.874768   2.806260   4.062758   4.527438   2.404100
                   16         17         18         19         20
    16  C    0.000000
    17  H    1.094614   0.000000
    18  C    1.532700   2.141422   0.000000
    19  H    2.178628   2.494453   1.091732   0.000000
    20  H    2.172317   2.476815   1.092757   1.772989   0.000000
    21  H    2.175974   3.059781   1.093545   1.767509   1.766567
    22  C    1.532736   2.141568   2.523501   3.480179   2.762302
    23  H    2.172337   2.476968   2.762262   3.765616   2.550461
    24  H    2.178766   2.494782   3.480245   4.327314   3.765695
    25  H    2.175963   3.059865   2.783333   3.789165   3.121227
                   21         22         23         24         25
    21  H    0.000000
    22  C    2.783375   0.000000
    23  H    3.121189   1.092752   0.000000
    24  H    3.789253   1.091746   1.773006   0.000000
    25  H    2.596079   1.093554   1.766557   1.767492   0.000000
 Symmetry turned off by external request.
 Stoichiometry    C9H13BO2
 Framework group  C1[X(C9H13BO2)]
 Deg. of freedom    69
 Full point group                 C1      NOp   1
 Rotational constants (GHZ):           1.7734026           0.5067157           0.4308677
 Standard basis: 6-311+G(d,p) (5D, 7F)
   342 basis functions,   536 primitive gaussians,   354 cartesian basis functions
    44 alpha electrons       44 beta electrons
       nuclear repulsion energy       657.2955928749 Hartrees.
 NAtoms=   25 NActive=   25 NUniq=   25 SFac= 1.00D+00 NAtFMM=   60 NAOKFM=F Big=F
 Integral buffers will be    131072 words long.
 Raffenetti 2 integral format.
 Two-electron integral symmetry is turned off.
 Force inversion solution in PCM.
 ------------------------------------------------------------------------------
 Polarizable Continuum Model (PCM)
 =================================
 Model                : PCM.
 Atomic radii         : SMD-Coulomb.
 Polarization charges : Total charges.
 Charge compensation  : None.
 Solution method      : Matrix inversion.
 Cavity type          : VdW (van der Waals Surface) (Alpha=1.000).
 Cavity algorithm     : GePol (No added spheres)
                        Default sphere list used, NSphG=   25.
                        Lebedev-Laikov grids with approx.  5.0 points / Ang**2.
                        Smoothing algorithm: York/Karplus (Gamma=1.0000).
                        Polarization charges: spherical gaussians, with
                                              point-specific exponents (IZeta= 3).
                        Self-potential: point-specific (ISelfS= 7).
                        Self-field    : sphere-specific E.n sum rule (ISelfD= 2).
 1st derivatives      : Analytical E(r).r(x)/FMM algorithm (CHGder, D1EAlg=3).
                        Cavity 1st derivative terms included.
 2nd derivatives      : Analytical E(r).r(xy)/FMM algorithm (CHGder, D2EAlg=3).
                        Cavity 2nd derivative terms included.
 Solvent              : TetraHydroFuran, Eps=   7.425700 Eps(inf)=   1.974025
 ------------------------------------------------------------------------------
 ------------------------------------------------------------------------------
 Atomic radii for non-electrostatic terms: SMD-CDS.
 ------------------------------------------------------------------------------
 Nuclear repulsion after PCM non-electrostatic terms =      657.2909076402 Hartrees.
 One-electron integrals computed using PRISM.
 NBasis=   342 RedAO= T EigKep=  1.03D-06  NBF=   342
 NBsUse=   342 1.00D-06 EigRej= -1.00D+00 NBFU=   342
 ExpMin= 3.15D-02 ExpMax= 8.59D+03 ExpMxC= 1.30D+03 IAcc=3 IRadAn=         5 AccDes= 0.00D+00
 Harris functional with IExCor= 1009 and IRadAn=       5 diagonalized for initial guess.
 HarFok:  IExCor= 1009 AccDes= 0.00D+00 IRadAn=         5 IDoV= 1 UseB2=F ITyADJ=14
 ICtDFT=  3500011 ScaDFX=  1.000000  1.000000  1.000000  1.000000
 FoFCou: FMM=F IPFlag=           0 FMFlag=      100000 FMFlg1=           0
         NFxFlg=           0 DoJE=T BraDBF=F KetDBF=T FulRan=T
         wScrn=  0.000000 ICntrl=       500 IOpCl=  0 I1Cent=   200000004 NGrid=           0
         NMat0=    1 NMatS0=      1 NMatT0=    0 NMatD0=    1 NMtDS0=    0 NMtDT0=    0
 Symmetry not used in FoFCou.
 Requested convergence on RMS density matrix=1.00D-08 within 128 cycles.
 Requested convergence on MAX density matrix=1.00D-06.
 Requested convergence on             energy=1.00D-06.
 Level shift goal  0.100 maximum shift  0.100.
 No special actions if energy rises.
 Dynamic level shift is on during FON iterations.
 Inv3:  Mode=1 IEnd=    11560107.
 Iteration    1 A*A^-1 deviation from unit magnitude is 3.77D-15 for   1961.
 Iteration    1 A*A^-1 deviation from orthogonality  is 2.24D-15 for   1960   1820.
 Iteration    1 A^-1*A deviation from unit magnitude is 4.44D-15 for   1961.
 Iteration    1 A^-1*A deviation from orthogonality  is 4.62D-14 for   1261   1223.
 Error on total polarization charges =  0.03750
 SCF Done:  E(RM062X) =  -526.154427594     A.U. after   14 cycles
            NFock= 14  Conv=0.47D-08     -V/T= 2.0039
 SMD-CDS (non-electrostatic) energy       (kcal/mol) =      -2.94
 (included in total energy above)
 DoSCS=F DFT=T ScalE2(SS,OS)=  1.000000  1.000000
 Range of M.O.s used for correlation:     1   342
 NBasis=   342 NAE=    44 NBE=    44 NFC=     0 NFV=     0
 NROrb=    342 NOA=    44 NOB=    44 NVA=   298 NVB=   298

 **** Warning!!: The largest alpha MO coefficient is  0.34179009D+03

 Symmetrizing basis deriv contribution to polar:
 IMax=3 JMax=2 DiffMx= 0.00D+00
 G2DrvN: will do    26 centers at a time, making    1 passes.
 Calling FoFCou, ICntrl=  3107 FMM=F I1Cent=   0 AccDes= 0.00D+00.
 NEqPCM:  Using equilibrium solvation (IEInf=0, Eps=   7.4257, EpsInf=   1.9740)
 G2PCM: DoFxE=T DoFxN=T DoGrad=T DoDP/DQ/DG/TGxP=FFFF NFrqRd=   0 IEInf=0 SqF1=F DoCFld=F IF1Alg=4.
 End of G2Drv F.D. properties file   721 does not exist.
 End of G2Drv F.D. properties file   722 does not exist.
 End of G2Drv F.D. properties file   788 does not exist.
          IDoAtm=1111111111111111111111111
 NEqPCM:  Using equilibrium solvation (IEInf=0, Eps=   7.4257, EpsInf=   1.9740)
          Differentiating once with respect to nuclear coordinates.
 Keep R1 ints in memory in canonical form, NReq=1757083879.
          There are    78 degrees of freedom in the 1st order CPHF.  IDoFFX=6 NUNeed=     0.
     72 vectors produced by pass  0 Test12= 1.68D-14 1.28D-09 XBig12= 2.39D-01 1.01D-01.
 AX will form    72 AO Fock derivatives at one time.
     72 vectors produced by pass  1 Test12= 1.68D-14 1.28D-09 XBig12= 8.72D-03 2.93D-02.
     72 vectors produced by pass  2 Test12= 1.68D-14 1.28D-09 XBig12= 2.65D-04 2.43D-03.
     72 vectors produced by pass  3 Test12= 1.68D-14 1.28D-09 XBig12= 1.74D-06 2.45D-04.
     72 vectors produced by pass  4 Test12= 1.68D-14 1.28D-09 XBig12= 1.18D-08 1.63D-05.
     72 vectors produced by pass  5 Test12= 1.68D-14 1.28D-09 XBig12= 6.05D-11 7.40D-07.
     56 vectors produced by pass  6 Test12= 1.68D-14 1.28D-09 XBig12= 2.61D-13 4.74D-08.
      8 vectors produced by pass  7 Test12= 1.68D-14 1.28D-09 XBig12= 8.66D-16 2.59D-09.
 InvSVY:  IOpt=1 It=  1 EMax= 3.33D-16
 Solved reduced A of dimension   496 with    78 vectors.
 End of Minotr F.D. properties file   721 does not exist.
 End of Minotr F.D. properties file   722 does not exist.
 End of Minotr F.D. properties file   788 does not exist.

 **********************************************************************

            Population analysis using the SCF Density.

 **********************************************************************

 Alpha  occ. eigenvalues --  -19.63404 -19.62921 -10.54576 -10.54427 -10.54180
 Alpha  occ. eigenvalues --  -10.54101 -10.53898 -10.53857 -10.52722 -10.51733
 Alpha  occ. eigenvalues --  -10.51728  -7.08135  -1.16573  -1.12880  -0.96534
 Alpha  occ. eigenvalues --   -0.89935  -0.84184  -0.82388  -0.76898  -0.70641
 Alpha  occ. eigenvalues --   -0.68673  -0.66031  -0.63890  -0.61173  -0.58107
 Alpha  occ. eigenvalues --   -0.53999  -0.52478  -0.50292  -0.49077  -0.48820
 Alpha  occ. eigenvalues --   -0.48178  -0.47290  -0.45529  -0.44464  -0.44447
 Alpha  occ. eigenvalues --   -0.43105  -0.42677  -0.40318  -0.39603  -0.39406
 Alpha  occ. eigenvalues --   -0.37781  -0.36593  -0.30934  -0.29892
 Alpha virt. eigenvalues --   -0.00313   0.00130   0.01933   0.02091   0.02106
 Alpha virt. eigenvalues --    0.02981   0.03686   0.03714   0.04704   0.04948
 Alpha virt. eigenvalues --    0.06566   0.06865   0.07400   0.07461   0.08337
 Alpha virt. eigenvalues --    0.09292   0.09951   0.10486   0.11390   0.11718
 Alpha virt. eigenvalues --    0.12082   0.12186   0.12987   0.13594   0.14364
 Alpha virt. eigenvalues --    0.14683   0.14832   0.16079   0.16403   0.17479
 Alpha virt. eigenvalues --    0.18068   0.18821   0.18970   0.19224   0.20013
 Alpha virt. eigenvalues --    0.20278   0.20896   0.21123   0.21457   0.22079
 Alpha virt. eigenvalues --    0.23129   0.23248   0.23674   0.23695   0.24547
 Alpha virt. eigenvalues --    0.24941   0.25288   0.25551   0.26352   0.26610
 Alpha virt. eigenvalues --    0.27049   0.27738   0.28078   0.28490   0.28795
 Alpha virt. eigenvalues --    0.29004   0.31066   0.31333   0.31576   0.31921
 Alpha virt. eigenvalues --    0.32078   0.33089   0.33188   0.35234   0.35406
 Alpha virt. eigenvalues --    0.36290   0.37627   0.39089   0.40653   0.41727
 Alpha virt. eigenvalues --    0.44169   0.44627   0.45032   0.45983   0.47614
 Alpha virt. eigenvalues --    0.49604   0.50387   0.51321   0.51768   0.52941
 Alpha virt. eigenvalues --    0.53356   0.55035   0.55572   0.56838   0.57693
 Alpha virt. eigenvalues --    0.58658   0.60197   0.60842   0.62394   0.62912
 Alpha virt. eigenvalues --    0.63448   0.64338   0.64399   0.67270   0.67591
 Alpha virt. eigenvalues --    0.68437   0.69181   0.70517   0.71137   0.71530
 Alpha virt. eigenvalues --    0.72186   0.72985   0.74072   0.74291   0.74535
 Alpha virt. eigenvalues --    0.75988   0.76374   0.78092   0.78919   0.79934
 Alpha virt. eigenvalues --    0.80688   0.81997   0.82645   0.84262   0.86471
 Alpha virt. eigenvalues --    0.88431   0.89257   0.89985   0.92934   0.93761
 Alpha virt. eigenvalues --    0.94641   0.95723   0.96086   0.99697   1.00560
 Alpha virt. eigenvalues --    1.01722   1.03331   1.04033   1.06504   1.07484
 Alpha virt. eigenvalues --    1.08919   1.09845   1.12266   1.12737   1.13363
 Alpha virt. eigenvalues --    1.13791   1.14450   1.16984   1.19019   1.21653
 Alpha virt. eigenvalues --    1.22033   1.25257   1.29014   1.29548   1.31547
 Alpha virt. eigenvalues --    1.34581   1.35513   1.39838   1.40292   1.45375
 Alpha virt. eigenvalues --    1.46421   1.50076   1.50570   1.51574   1.52378
 Alpha virt. eigenvalues --    1.53934   1.54127   1.55480   1.56734   1.57755
 Alpha virt. eigenvalues --    1.59451   1.61870   1.62057   1.62943   1.63588
 Alpha virt. eigenvalues --    1.65312   1.65892   1.67869   1.68125   1.69046
 Alpha virt. eigenvalues --    1.69944   1.71810   1.72762   1.74734   1.76008
 Alpha virt. eigenvalues --    1.77193   1.79308   1.79869   1.80235   1.81693
 Alpha virt. eigenvalues --    1.84073   1.84215   1.87275   1.88149   1.92766
 Alpha virt. eigenvalues --    1.94494   1.96285   1.97058   1.97079   1.99274
 Alpha virt. eigenvalues --    1.99588   2.00603   2.02667   2.07934   2.09813
 Alpha virt. eigenvalues --    2.10008   2.10703   2.12979   2.14888   2.15640
 Alpha virt. eigenvalues --    2.17543   2.19639   2.19758   2.22232   2.23727
 Alpha virt. eigenvalues --    2.28878   2.33134   2.35468   2.40839   2.43518
 Alpha virt. eigenvalues --    2.44267   2.44387   2.47720   2.49934   2.55247
 Alpha virt. eigenvalues --    2.55790   2.56667   2.57718   2.57827   2.58547
 Alpha virt. eigenvalues --    2.60323   2.60539   2.62532   2.64108   2.64951
 Alpha virt. eigenvalues --    2.68167   2.68938   2.70477   2.72318   2.72645
 Alpha virt. eigenvalues --    2.74607   2.77545   2.77969   2.79092   2.79876
 Alpha virt. eigenvalues --    2.82197   2.85561   2.86919   2.90457   2.91048
 Alpha virt. eigenvalues --    2.92734   2.93661   2.96452   2.98411   3.00236
 Alpha virt. eigenvalues --    3.02150   3.05114   3.07910   3.11715   3.14588
 Alpha virt. eigenvalues --    3.19860   3.24609   3.25023   3.27033   3.32014
 Alpha virt. eigenvalues --    3.33256   3.42608   3.45557   3.47585   3.51118
 Alpha virt. eigenvalues --    3.54873   3.59216   3.61721   3.65111   3.67091
 Alpha virt. eigenvalues --    3.75199   3.82918   3.84783   3.89199   3.90573
 Alpha virt. eigenvalues --    3.92509   3.96563   4.06706   4.10083   4.16196
 Alpha virt. eigenvalues --    4.20046   4.23814   4.34373   4.43343   4.87418
 Alpha virt. eigenvalues --    5.09218   5.09774   5.40574   5.51159   5.69540
 Alpha virt. eigenvalues --    5.77343  14.80482  23.69942  23.94623  24.04151
 Alpha virt. eigenvalues --   24.05768  24.05866  24.07689  24.16281  24.18461
 Alpha virt. eigenvalues --   24.27147  50.01403  50.05962
          Condensed to atoms (all electrons):
               1          2          3          4          5          6
     1  O    7.762606   0.283893   0.050380   0.437770  -0.126807   0.017829
     2  H    0.283893   0.422433   0.057681  -0.003865  -0.032882   0.002827
     3  C    0.050380   0.057681  10.324052   0.299763  -0.173871   0.001487
     4  B    0.437770  -0.003865   0.299763   3.342831   0.359820   0.016259
     5  O   -0.126807  -0.032882  -0.173871   0.359820   7.970419   0.266502
     6  H    0.017829   0.002827   0.001487   0.016259   0.266502   0.399525
     7  C    0.053652   0.005810  -0.410827   0.044004  -0.024353  -0.032444
     8  H    0.001779  -0.000022  -0.004366   0.009708  -0.004780   0.008485
     9  C    0.057246   0.004815  -0.237440   0.059783   0.003859   0.045600
    10  H   -0.000034   0.000000   0.001165  -0.000352   0.000314  -0.000051
    11  C   -0.028062  -0.001616  -0.480432   0.005845   0.012930  -0.003442
    12  C    0.012486  -0.038344  -0.932925  -0.060813   0.130733  -0.025513
    13  C   -0.150223  -0.024207  -1.138892   0.007859  -0.018064   0.025355
    14  H    0.005623  -0.000280   0.099638  -0.009564   0.002284  -0.000091
    15  H   -0.000013   0.000000   0.008531  -0.000345   0.000005  -0.000003
    16  C    0.000908  -0.000060  -0.758407  -0.004245  -0.002037   0.000227
    17  H    0.000125  -0.000003  -0.028786   0.001566  -0.000017   0.000000
    18  C   -0.000911  -0.000104  -0.098777  -0.003484  -0.000039  -0.000005
    19  H    0.000002   0.000000   0.015793  -0.000362  -0.000001   0.000000
    20  H    0.000000   0.000000   0.003791  -0.000022   0.000000   0.000000
    21  H   -0.000003   0.000000  -0.010673   0.000175   0.000000   0.000000
    22  C   -0.000086  -0.000017  -0.009825  -0.002178  -0.000110  -0.000035
    23  H   -0.000001   0.000000   0.003677  -0.000039   0.000000   0.000000
    24  H    0.000003   0.000000   0.014008  -0.000336  -0.000001   0.000000
    25  H   -0.000003   0.000000  -0.011369   0.000153   0.000000   0.000000
               7          8          9         10         11         12
     1  O    0.053652   0.001779   0.057246  -0.000034  -0.028062   0.012486
     2  H    0.005810  -0.000022   0.004815   0.000000  -0.001616  -0.038344
     3  C   -0.410827  -0.004366  -0.237440   0.001165  -0.480432  -0.932925
     4  B    0.044004   0.009708   0.059783  -0.000352   0.005845  -0.060813
     5  O   -0.024353  -0.004780   0.003859   0.000314   0.012930   0.130733
     6  H   -0.032444   0.008485   0.045600  -0.000051  -0.003442  -0.025513
     7  C   10.995820   0.375266  -1.355692   0.047722   0.442596   0.309186
     8  H    0.375266   0.490960   0.005100  -0.005495  -0.019416  -0.004260
     9  C   -1.355692   0.005100   7.797512   0.352759  -0.096549  -0.264233
    10  H    0.047722  -0.005495   0.352759   0.472400   0.005850  -0.004422
    11  C    0.442596  -0.019416  -0.096549   0.005850   9.895483   2.138576
    12  C    0.309186  -0.004260  -0.264233  -0.004422   2.138576  18.333210
    13  C   -4.428062  -0.022420   0.090994  -0.055447  -5.702269 -11.001811
    14  H    0.006599  -0.000103  -0.005128   0.000052   0.034456   0.154978
    15  H   -0.026681  -0.000305  -0.005777  -0.005921   0.232016   0.076780
    16  C    0.025270   0.001385  -0.257727   0.005876  -0.419402  -3.050391
    17  H   -0.013556  -0.000002   0.000421   0.000012  -0.100279  -0.329619
    18  C    0.047908  -0.000364   0.034551  -0.000670   0.124269   0.171716
    19  H    0.005111  -0.000001  -0.010944   0.000005  -0.024505  -0.067762
    20  H    0.001043   0.000000   0.002184  -0.000001   0.012637   0.086257
    21  H   -0.004914   0.000000   0.013459   0.000049   0.010906  -0.073144
    22  C    0.005355  -0.000216   0.031147  -0.000690  -0.014419   0.057290
    23  H    0.001164   0.000000   0.001965  -0.000001   0.011574   0.086355
    24  H    0.005230  -0.000001  -0.010495   0.000006  -0.019888  -0.065446
    25  H   -0.004869   0.000000   0.012958   0.000047   0.008299  -0.074889
              13         14         15         16         17         18
     1  O   -0.150223   0.005623  -0.000013   0.000908   0.000125  -0.000911
     2  H   -0.024207  -0.000280   0.000000  -0.000060  -0.000003  -0.000104
     3  C   -1.138892   0.099638   0.008531  -0.758407  -0.028786  -0.098777
     4  B    0.007859  -0.009564  -0.000345  -0.004245   0.001566  -0.003484
     5  O   -0.018064   0.002284   0.000005  -0.002037  -0.000017  -0.000039
     6  H    0.025355  -0.000091  -0.000003   0.000227   0.000000  -0.000005
     7  C   -4.428062   0.006599  -0.026681   0.025270  -0.013556   0.047908
     8  H   -0.022420  -0.000103  -0.000305   0.001385  -0.000002  -0.000364
     9  C    0.090994  -0.005128  -0.005777  -0.257727   0.000421   0.034551
    10  H   -0.055447   0.000052  -0.005921   0.005876   0.000012  -0.000670
    11  C   -5.702269   0.034456   0.232016  -0.419402  -0.100279   0.124269
    12  C  -11.001811   0.154978   0.076780  -3.050391  -0.329619   0.171716
    13  C   27.700225   0.088327   0.032968   1.029808   0.246520  -0.154954
    14  H    0.088327   0.462436  -0.000190  -0.030176   0.002501  -0.000671
    15  H    0.032968  -0.000190   0.461842   0.056650  -0.000028  -0.008133
    16  C    1.029808  -0.030176   0.056650   8.824291   0.610689  -0.020176
    17  H    0.246520   0.002501  -0.000028   0.610689   0.496413  -0.024842
    18  C   -0.154954  -0.000671  -0.008133  -0.020176  -0.024842   5.611465
    19  H    0.060174   0.000069   0.000081   0.019696  -0.005308   0.373466
    20  H   -0.003695   0.000008  -0.000074  -0.159605  -0.005882   0.430236
    21  H   -0.034873   0.000032  -0.001564   0.082374   0.005201   0.403749
    22  C    0.095349  -0.000578  -0.007895  -0.027441  -0.025162  -0.244265
    23  H   -0.005144   0.000014  -0.000069  -0.159062  -0.005860   0.004053
    24  H    0.055286   0.000096   0.000088   0.017941  -0.005337   0.011313
    25  H   -0.032622   0.000028  -0.001591   0.085660   0.005221  -0.008068
              19         20         21         22         23         24
     1  O    0.000002   0.000000  -0.000003  -0.000086  -0.000001   0.000003
     2  H    0.000000   0.000000   0.000000  -0.000017   0.000000   0.000000
     3  C    0.015793   0.003791  -0.010673  -0.009825   0.003677   0.014008
     4  B   -0.000362  -0.000022   0.000175  -0.002178  -0.000039  -0.000336
     5  O   -0.000001   0.000000   0.000000  -0.000110   0.000000  -0.000001
     6  H    0.000000   0.000000   0.000000  -0.000035   0.000000   0.000000
     7  C    0.005111   0.001043  -0.004914   0.005355   0.001164   0.005230
     8  H   -0.000001   0.000000   0.000000  -0.000216   0.000000  -0.000001
     9  C   -0.010944   0.002184   0.013459   0.031147   0.001965  -0.010495
    10  H    0.000005  -0.000001   0.000049  -0.000690  -0.000001   0.000006
    11  C   -0.024505   0.012637   0.010906  -0.014419   0.011574  -0.019888
    12  C   -0.067762   0.086257  -0.073144   0.057290   0.086355  -0.065446
    13  C    0.060174  -0.003695  -0.034873   0.095349  -0.005144   0.055286
    14  H    0.000069   0.000008   0.000032  -0.000578   0.000014   0.000096
    15  H    0.000081  -0.000074  -0.001564  -0.007895  -0.000069   0.000088
    16  C    0.019696  -0.159605   0.082374  -0.027441  -0.159062   0.017941
    17  H   -0.005308  -0.005882   0.005201  -0.025162  -0.005860  -0.005337
    18  C    0.373466   0.430236   0.403749  -0.244265   0.004053   0.011313
    19  H    0.494736  -0.021835  -0.028307   0.011300   0.000149  -0.000312
    20  H   -0.021835   0.501211  -0.028220   0.003216   0.002843   0.000150
    21  H   -0.028307  -0.028220   0.494453  -0.008258  -0.000724  -0.000219
    22  C    0.011300   0.003216  -0.008258   5.575785   0.431517   0.374278
    23  H    0.000149   0.002843  -0.000724   0.431517   0.501051  -0.021852
    24  H   -0.000312   0.000150  -0.000219   0.374278  -0.021852   0.495449
    25  H   -0.000209  -0.000724   0.000968   0.403469  -0.028187  -0.028471
              25
     1  O   -0.000003
     2  H    0.000000
     3  C   -0.011369
     4  B    0.000153
     5  O    0.000000
     6  H    0.000000
     7  C   -0.004869
     8  H    0.000000
     9  C    0.012958
    10  H    0.000047
    11  C    0.008299
    12  C   -0.074889
    13  C   -0.032622
    14  H    0.000028
    15  H   -0.001591
    16  C    0.085660
    17  H    0.005221
    18  C   -0.008068
    19  H   -0.000209
    20  H   -0.000724
    21  H    0.000968
    22  C    0.403469
    23  H   -0.028187
    24  H   -0.028471
    25  H    0.494615
 Mulliken charges:
               1
     1  O   -0.378159
     2  H    0.323940
     3  C   -0.583377
     4  B    0.500070
     5  O   -0.363905
     6  H    0.277489
     7  C   -0.070336
     8  H    0.169068
     9  C   -0.270368
    10  H    0.186827
    11  C   -0.025157
    12  C    0.436004
    13  C   -0.660184
    14  H    0.189639
    15  H    0.189626
    16  C    0.127951
    17  H    0.176012
    18  C   -0.647261
    19  H    0.178961
    20  H    0.176483
    21  H    0.179533
    22  C   -0.647529
    23  H    0.176579
    24  H    0.178511
    25  H    0.179584
 Sum of Mulliken charges =   0.00000
 Mulliken charges with hydrogens summed into heavy atoms:
               1
     1  O   -0.054219
     3  C   -0.583377
     4  B    0.500070
     5  O   -0.086416
     7  C    0.098732
     9  C   -0.083541
    11  C    0.164470
    12  C    0.436004
    13  C   -0.470545
    16  C    0.303963
    18  C   -0.112285
    22  C   -0.112856
 APT charges:
               1
     1  O   -0.538159
     2  H    1.612941
     3  C   -0.247028
     4  B   -0.214513
     5  O    0.706548
     6  H   -0.624332
     7  C   -1.177993
     8  H    0.173565
     9  C   -0.603501
    10  H   -0.108476
    11  C   -1.138015
    12  C    0.874753
    13  C    0.264521
    14  H    1.217546
    15  H    0.183193
    16  C   -1.039641
    17  H    1.067531
    18  C   -3.282732
    19  H    1.482050
    20  H    1.154401
    21  H   -0.148258
    22  C    0.475320
    23  H    1.056123
    24  H   -0.799885
    25  H   -0.345960
 Sum of APT charges =   0.00000
 APT charges with hydrogens summed into heavy atoms:
               1
     1  O    1.074782
     3  C   -0.247028
     4  B   -0.214513
     5  O    0.082216
     7  C   -1.004428
     9  C   -0.711977
    11  C   -0.954822
    12  C    0.874753
    13  C    1.482067
    16  C    0.027889
    18  C   -0.794538
    22  C    0.385599
 Electronic spatial extent (au):  <R**2>=          38362.1584
 Charge=              0.0000 electrons
 Dipole moment (field-independent basis, Debye):
    X=             -1.4591    Y=             -0.3666    Z=              0.3867  Tot=              1.5534
 Quadrupole moment (field-independent basis, Debye-Ang):
   XX=            -84.4738   YY=            -74.5620   ZZ=            -66.8069
   XY=            -14.2074   XZ=             -6.1771   YZ=             -5.4173
 Traceless Quadrupole moment (field-independent basis, Debye-Ang):
   XX=             -9.1929   YY=              0.7189   ZZ=              8.4740
   XY=            -14.2074   XZ=             -6.1771   YZ=             -5.4173
 Octapole moment (field-independent basis, Debye-Ang**2):
  XXX=          -1276.5972  YYY=          -1704.2755  ZZZ=           -896.2254  XYY=           -524.5981
  XXY=           -690.3316  XXZ=           -376.3456  XZZ=           -426.7435  YZZ=           -601.9599
  YYZ=           -404.3854  XYZ=            -91.2521
 Hexadecapole moment (field-independent basis, Debye-Ang**3):
 XXXX=         -14775.0859 YYYY=         -27962.2338 ZZZZ=          -8793.2220 XXXY=          -9981.3912
 XXXZ=          -5875.8023 YYYX=         -10129.2146 YYYZ=          -8036.6944 ZZZX=          -5597.1374
 ZZZY=          -7222.2370 XXYY=          -8300.2826 XXZZ=          -4345.9647 YYZZ=          -6933.8975
 XXYZ=          -3056.3822 YYXZ=          -2827.6224 ZZXY=          -3587.6631
 N-N= 6.572909076402D+02 E-N=-2.541331422057D+03  KE= 5.240873321685D+02
  Exact polarizability:       0.000       0.000       0.000       0.000       0.000       0.000
 Approx polarizability:     166.285      -9.406     142.031      -5.332     -29.712     136.945
 D2PCM: PCM CHGder 2nd derivatives, FixD1E=F FixD2E=F DoIter=F DoCFld=F I1PDM=0
 Calling FoFJK, ICntrl=    100127 FMM=F ISym2X=0 I1Cent= 0 IOpClX= 0 NMat=1 NMatS=1 NMatT=0.
 -------------------------------------------------------------------
 Center     Atomic                   Forces (Hartrees/Bohr)
 Number     Number              X              Y              Z
 -------------------------------------------------------------------
      1        8          -0.000887047    0.001848738   -0.001121634
      2        1           0.002503947   -0.001246304    0.000501590
      3        6           0.000037746    0.000191678   -0.000176444
      4        5          -0.000648278   -0.001575992    0.001256566
      5        8           0.002824506    0.001358516   -0.001644464
      6        1          -0.002906942   -0.001224513    0.001529315
      7        6           0.000046419   -0.001556020    0.001597627
      8        1          -0.000182939    0.000021207   -0.000114238
      9        6          -0.000102238    0.000081834   -0.000018302
     10        1          -0.000210239   -0.000140904    0.000206599
     11        6          -0.001121279    0.000447985   -0.000130684
     12        6           0.000041328    0.000993444   -0.000935566
     13        6           0.000893299   -0.000154685   -0.000045035
     14        1          -0.000269998    0.000603402   -0.000605960
     15        1          -0.000150371    0.000243180   -0.000240719
     16        6           0.000574195    0.000688175   -0.000781739
     17        1          -0.000041972   -0.000102314    0.000079074
     18        6          -0.000631247   -0.001074625   -0.000165744
     19        1           0.000503828    0.000447667    0.000327064
     20        1           0.000251134    0.000171711   -0.000217636
     21        1          -0.000412680   -0.000060146    0.000097662
     22        6          -0.000288974    0.000213326    0.001149611
     23        1           0.000257205    0.000166553   -0.000226654
     24        1           0.000293436   -0.000391234   -0.000564661
     25        1          -0.000372841    0.000049321    0.000244373
 -------------------------------------------------------------------
 Cartesian Forces:  Max     0.002906942 RMS     0.000890040
 FormGI is forming the generalized inverse of G from B-inverse, IUseBI=4.

 GradGradGradGradGradGradGradGradGradGradGradGradGradGradGradGradGradGrad
 Berny optimization.
 Internal  Forces:  Max     0.003494352 RMS     0.000586799
 Search for a local minimum.
 Step number   1 out of a maximum of  132
 All quantities printed in internal units (Hartrees-Bohrs-Radians)
 Mixed Optimization -- En-DIIS/RFO-DIIS
 Second derivative matrix not updated -- analytic derivatives used.
 ITU=  0
     Eigenvalues ---    0.00062   0.00134   0.00271   0.00338   0.01012
     Eigenvalues ---    0.01244   0.01444   0.01601   0.01766   0.02042
     Eigenvalues ---    0.02249   0.02465   0.02617   0.02689   0.02836
     Eigenvalues ---    0.03881   0.04084   0.04371   0.04493   0.04522
     Eigenvalues ---    0.04581   0.04698   0.04932   0.10552   0.11111
     Eigenvalues ---    0.11396   0.11887   0.11915   0.12167   0.12255
     Eigenvalues ---    0.12653   0.12735   0.12871   0.14281   0.14795
     Eigenvalues ---    0.15889   0.16945   0.18400   0.18559   0.18650
     Eigenvalues ---    0.18863   0.19464   0.19739   0.20334   0.27974
     Eigenvalues ---    0.29165   0.29418   0.29453   0.32125   0.33827
     Eigenvalues ---    0.33940   0.34072   0.34122   0.34271   0.34849
     Eigenvalues ---    0.34955   0.35687   0.36023   0.36200   0.36393
     Eigenvalues ---    0.38521   0.42054   0.42639   0.47447   0.47739
     Eigenvalues ---    0.48853   0.51605   0.54633   0.55647
 RFO step:  Lambda=-1.19637138D-04 EMin= 6.23793764D-04
 Linear search not attempted -- first point.
 Iteration  1 RMS(Cart)=  0.00615912 RMS(Int)=  0.00001575
 Iteration  2 RMS(Cart)=  0.00002097 RMS(Int)=  0.00000225
 Iteration  3 RMS(Cart)=  0.00000000 RMS(Int)=  0.00000225
 Variable       Old X    -DE/DX   Delta X   Delta X   Delta X     New X
                                 (Linear)    (Quad)   (Total)
    R1        1.81684   0.00282   0.00000   0.00503   0.00503   1.82187
    R2        2.57610   0.00183   0.00000   0.00406   0.00406   2.58016
    R3        2.95995   0.00125   0.00000   0.00457   0.00457   2.96451
    R4        2.64015   0.00136   0.00000   0.00284   0.00284   2.64299
    R5        2.64710   0.00181   0.00000   0.00284   0.00284   2.64994
    R6        2.58796  -0.00019   0.00000  -0.00164  -0.00164   2.58632
    R7        1.81127   0.00349   0.00000   0.00634   0.00634   1.81762
    R8        2.05397  -0.00010   0.00000  -0.00051  -0.00051   2.05346
    R9        2.62884   0.00116   0.00000   0.00243   0.00243   2.63127
   R10        2.04808   0.00031   0.00000   0.00098   0.00098   2.04906
   R11        2.62518   0.00120   0.00000   0.00181   0.00181   2.62698
   R12        2.64197   0.00094   0.00000   0.00228   0.00228   2.64425
   R13        2.05127   0.00029   0.00000   0.00062   0.00062   2.05189
   R14        2.63180   0.00111   0.00000   0.00237   0.00237   2.63417
   R15        2.86463   0.00011   0.00000   0.00068   0.00068   2.86531
   R16        2.05211   0.00022   0.00000   0.00063   0.00063   2.05274
   R17        2.06852  -0.00008   0.00000  -0.00047  -0.00047   2.06805
   R18        2.89638  -0.00035   0.00000  -0.00102  -0.00102   2.89536
   R19        2.89645  -0.00040   0.00000  -0.00103  -0.00103   2.89542
   R20        2.06308   0.00066   0.00000   0.00196   0.00196   2.06503
   R21        2.06501   0.00028   0.00000   0.00103   0.00103   2.06604
   R22        2.06650   0.00043   0.00000   0.00094   0.00094   2.06744
   R23        2.06500   0.00028   0.00000   0.00101   0.00101   2.06601
   R24        2.06310   0.00066   0.00000   0.00194   0.00194   2.06504
   R25        2.06652   0.00042   0.00000   0.00089   0.00089   2.06740
    A1        1.95453   0.00063   0.00000   0.00339   0.00339   1.95792
    A2        2.13867  -0.00052   0.00000  -0.00317  -0.00317   2.13550
    A3        2.08361   0.00057   0.00000   0.00319   0.00319   2.08680
    A4        2.06091  -0.00004   0.00000  -0.00002  -0.00002   2.06089
    A5        2.06844  -0.00012   0.00000  -0.00219  -0.00219   2.06625
    A6        2.05111   0.00001   0.00000   0.00093   0.00093   2.05204
    A7        2.16363   0.00011   0.00000   0.00126   0.00126   2.16489
    A8        1.99461   0.00023   0.00000   0.00126   0.00126   1.99587
    A9        2.10962   0.00039   0.00000   0.00254   0.00254   2.11216
   A10        2.10821  -0.00044   0.00000  -0.00192  -0.00192   2.10629
   A11        2.06533   0.00005   0.00000  -0.00062  -0.00062   2.06471
   A12        2.09732  -0.00036   0.00000  -0.00220  -0.00220   2.09512
   A13        2.09276   0.00053   0.00000   0.00259   0.00260   2.09536
   A14        2.09310  -0.00016   0.00000  -0.00040  -0.00040   2.09271
   A15        2.10973  -0.00011   0.00000  -0.00127  -0.00127   2.10846
   A16        2.08251   0.00030   0.00000   0.00207   0.00207   2.08458
   A17        2.09094  -0.00018   0.00000  -0.00079  -0.00079   2.09015
   A18        2.06262  -0.00005   0.00000  -0.00019  -0.00019   2.06243
   A19        2.10930  -0.00032   0.00000  -0.00105  -0.00105   2.10825
   A20        2.11126   0.00037   0.00000   0.00124   0.00124   2.11250
   A21        2.13212   0.00012   0.00000   0.00080   0.00080   2.13293
   A22        2.06803   0.00083   0.00000   0.00631   0.00631   2.07433
   A23        2.08303  -0.00095   0.00000  -0.00711  -0.00711   2.07592
   A24        1.86889   0.00000   0.00000   0.00129   0.00129   1.87018
   A25        1.94338   0.00002   0.00000  -0.00161  -0.00162   1.94176
   A26        1.94343  -0.00001   0.00000  -0.00127  -0.00129   1.94214
   A27        1.88541   0.00017   0.00000   0.00310   0.00311   1.88852
   A28        1.88557   0.00016   0.00000   0.00290   0.00291   1.88847
   A29        1.93409  -0.00033   0.00000  -0.00391  -0.00391   1.93017
   A30        1.93925   0.00024   0.00000   0.00231   0.00230   1.94156
   A31        1.92941  -0.00025   0.00000  -0.00215  -0.00215   1.92726
   A32        1.93366  -0.00001   0.00000   0.00028   0.00028   1.93394
   A33        1.89386  -0.00015   0.00000  -0.00344  -0.00344   1.89042
   A34        1.88430   0.00004   0.00000   0.00190   0.00189   1.88620
   A35        1.88155   0.00014   0.00000   0.00109   0.00109   1.88264
   A36        1.92940  -0.00024   0.00000  -0.00225  -0.00225   1.92715
   A37        1.93939   0.00024   0.00000   0.00240   0.00240   1.94178
   A38        1.93359  -0.00013   0.00000  -0.00024  -0.00025   1.93334
   A39        1.89388  -0.00016   0.00000  -0.00348  -0.00348   1.89040
   A40        1.88153   0.00018   0.00000   0.00112   0.00112   1.88265
   A41        1.88425   0.00010   0.00000   0.00246   0.00245   1.88670
    D1       -3.12732  -0.00005   0.00000  -0.00210  -0.00210  -3.12942
    D2        0.01097   0.00003   0.00000  -0.00076  -0.00076   0.01021
    D3       -3.04554   0.00006   0.00000   0.00596   0.00595  -3.03958
    D4        0.09958  -0.00003   0.00000   0.00452   0.00452   0.10411
    D5        0.09568   0.00007   0.00000   0.00537   0.00537   0.10105
    D6       -3.04239  -0.00002   0.00000   0.00394   0.00394  -3.03845
    D7        0.01229  -0.00004   0.00000  -0.00322  -0.00322   0.00907
    D8       -3.13770  -0.00001   0.00000  -0.00154  -0.00153  -3.13924
    D9       -3.12893  -0.00005   0.00000  -0.00264  -0.00264  -3.13157
   D10        0.00426  -0.00002   0.00000  -0.00096  -0.00096   0.00330
   D11        3.13607   0.00001   0.00000   0.00088   0.00088   3.13696
   D12       -0.00473   0.00003   0.00000   0.00216   0.00216  -0.00257
   D13       -0.00588   0.00001   0.00000   0.00032   0.00032  -0.00556
   D14        3.13650   0.00004   0.00000   0.00159   0.00160   3.13810
   D15       -3.10004  -0.00017   0.00000  -0.01158  -0.01158  -3.11161
   D16        0.03807  -0.00008   0.00000  -0.01017  -0.01017   0.02790
   D17       -3.13979  -0.00001   0.00000   0.00022   0.00022  -3.13957
   D18       -0.00046   0.00001   0.00000   0.00079   0.00079   0.00033
   D19       -0.00639   0.00003   0.00000   0.00187   0.00187  -0.00452
   D20        3.13294   0.00005   0.00000   0.00245   0.00245   3.13539
   D21       -0.00197   0.00000   0.00000   0.00003   0.00003  -0.00195
   D22        3.14082  -0.00003   0.00000  -0.00105  -0.00105   3.13977
   D23        3.13736   0.00002   0.00000   0.00060   0.00060   3.13796
   D24       -0.00303  -0.00001   0.00000  -0.00048  -0.00048  -0.00351
   D25        0.00046   0.00000   0.00000  -0.00064  -0.00064  -0.00018
   D26       -3.13996  -0.00002   0.00000  -0.00068  -0.00068  -3.14064
   D27        3.14085   0.00002   0.00000   0.00044   0.00044   3.14129
   D28        0.00043   0.00001   0.00000   0.00040   0.00040   0.00083
   D29        0.00355   0.00000   0.00000   0.00046   0.00046   0.00401
   D30       -3.13884  -0.00003   0.00000  -0.00081  -0.00081  -3.13965
   D31       -3.13922   0.00001   0.00000   0.00051   0.00050  -3.13871
   D32        0.00158  -0.00001   0.00000  -0.00077  -0.00077   0.00081
   D33        3.14114   0.00002   0.00000   0.00292   0.00292  -3.13913
   D34        1.08370  -0.00020   0.00000  -0.00072  -0.00072   1.08298
   D35       -1.08440   0.00022   0.00000   0.00650   0.00650  -1.07790
   D36        0.00075   0.00001   0.00000   0.00288   0.00288   0.00362
   D37       -2.05669  -0.00022   0.00000  -0.00076  -0.00076  -2.05745
   D38        2.05840   0.00020   0.00000   0.00646   0.00646   2.06485
   D39        0.98232   0.00027   0.00000   0.00918   0.00918   0.99150
   D40        3.08615   0.00006   0.00000   0.00494   0.00493   3.09108
   D41       -1.11231   0.00006   0.00000   0.00508   0.00507  -1.10723
   D42       -1.06512   0.00014   0.00000   0.00664   0.00664  -1.05848
   D43        1.03871  -0.00006   0.00000   0.00239   0.00239   1.04111
   D44        3.12344  -0.00006   0.00000   0.00254   0.00253   3.12598
   D45       -3.12750   0.00003   0.00000   0.00348   0.00348  -3.12402
   D46       -1.02367  -0.00017   0.00000  -0.00077  -0.00076  -1.02444
   D47        1.06106  -0.00017   0.00000  -0.00062  -0.00062   1.06044
   D48       -3.08626  -0.00005   0.00000  -0.00248  -0.00248  -3.08874
   D49       -0.98233  -0.00025   0.00000  -0.00678  -0.00678  -0.98911
   D50        1.11227  -0.00005   0.00000  -0.00226  -0.00226   1.11001
   D51       -1.03870   0.00005   0.00000   0.00013   0.00013  -1.03857
   D52        1.06523  -0.00015   0.00000  -0.00417  -0.00417   1.06106
   D53       -3.12336   0.00006   0.00000   0.00035   0.00035  -3.12301
   D54        1.02359   0.00016   0.00000   0.00341   0.00341   1.02700
   D55        3.12752  -0.00003   0.00000  -0.00088  -0.00089   3.12663
   D56       -1.06107   0.00017   0.00000   0.00363   0.00363  -1.05744
         Item               Value     Threshold  Converged?
 Maximum Force            0.003494     0.000015     NO 
 RMS     Force            0.000587     0.000010     NO 
 Maximum Displacement     0.021750     0.000060     NO 
 RMS     Displacement     0.006163     0.000040     NO 
 Predicted change in Energy=-5.989098D-05
 GradGradGradGradGradGradGradGradGradGradGradGradGradGradGradGradGradGrad

                          Input orientation:                          
 ---------------------------------------------------------------------
 Center     Atomic      Atomic             Coordinates (Angstroms)
 Number     Number       Type             X           Y           Z
 ---------------------------------------------------------------------
      1          8           0        8.815188    6.741792    4.847955
      2          1           0        9.608502    6.248794    5.086872
      3          6           0        6.316586    6.921406    5.142217
      4          5           0        7.695522    6.237237    5.444603
      5          8           0        7.850185    5.157983    6.271901
      6          1           0        7.029456    4.824576    6.646581
      7          6           0        5.137731    6.551280    5.797514
      8          1           0        5.139023    5.771950    6.554771
      9          6           0        3.931741    7.180330    5.499718
     10          1           0        3.024336    6.886422    6.015450
     11          6           0        3.889578    8.187365    4.542329
     12          6           0        5.049819    8.584555    3.868487
     13          6           0        6.246417    7.943050    4.184238
     14          1           0        7.155127    8.242743    3.670037
     15          1           0        2.943426    8.669965    4.316756
     16          6           0        5.003739    9.683824    2.825167
     17          1           0        6.021757    9.809793    2.443855
     18          6           0        4.554578   11.013805    3.439105
     19          1           0        5.205044   11.307638    4.266570
     20          1           0        4.575326   11.807354    2.687337
     21          1           0        3.532026   10.939870    3.821002
     22          6           0        4.097275    9.298727    1.651445
     23          1           0        4.116289   10.076757    0.883604
     24          1           0        4.417313    8.358556    1.195584
     25          1           0        3.061666    9.180190    1.983633
 ---------------------------------------------------------------------
                    Distance matrix (angstroms):
                    1          2          3          4          5
     1  O    0.000000
     2  H    0.964092   0.000000
     3  C    2.522274   3.360384   0.000000
     4  B    1.365363   1.946175   1.568754   0.000000
     5  O    2.338227   2.384500   2.595722   1.368624   0.000000
     6  H    3.177988   3.333552   2.677310   1.970788   0.961842
     7  C    3.802848   4.536993   1.398609   2.601051   3.086053
     8  H    4.167494   4.728462   2.168689   2.825713   2.794167
     9  C    4.946228   5.767479   2.425353   3.880530   4.476646
    10  H    5.909140   6.679826   3.406270   4.750504   5.132454
    11  C    5.142443   6.063058   2.802300   4.370618   5.277781
    12  C    4.305013   5.265152   2.448091   3.872181   5.035855
    13  C    2.912409   3.871545   1.402285   2.568700   3.832363
    14  H    2.529061   3.464434   2.148580   2.731879   4.094941
    15  H    6.203033   7.132908   3.888065   5.456429   6.342940
    16  C    5.222487   6.174025   3.837087   5.097656   6.361247
    17  H    4.795371   5.703594   3.963693   4.956726   6.295746
    18  C    6.195785   7.138810   4.770010   6.058312   7.292215
    19  H    5.849624   6.756865   4.608829   5.770546   6.988302
    20  H    6.950153   7.873260   5.738546   6.954448   8.233343
    21  H    6.825709   7.780243   5.064330   6.487337   7.621261
    22  C    6.246143   7.174808   4.771005   6.058725   7.251117
    23  H    6.994121   7.904756   5.738757   6.953814   8.195734
    24  H    5.940964   6.822145   4.609615   5.770685   6.913557
    25  H    6.874092   7.815640   5.066879   6.489368   7.582697
                    6          7          8          9         10
     6  H    0.000000
     7  C    2.698341   0.000000
     8  H    2.116527   1.086644   0.000000
     9  C    4.057180   1.392407   2.134057   0.000000
    10  H    4.548684   2.150873   2.450473   1.084318   0.000000
    11  C    5.059156   2.410425   3.383084   1.390140   2.147367
    12  C    5.076831   2.804119   3.890350   2.425461   3.405245
    13  C    4.049835   2.401848   3.399915   2.769469   3.853779
    14  H    4.534255   3.384833   4.300138   3.855732   4.940042
    15  H    6.075421   3.390641   4.269408   2.143636   2.464373
    16  C    6.505307   4.320374   5.406570   3.817051   4.682030
    17  H    6.597784   4.758828   5.829496   4.540985   5.503356
    18  C    7.397262   5.080973   6.125846   4.396542   5.100440
    19  H    7.143040   4.997125   5.990330   4.491840   5.230796
    20  H    8.393900   6.133174   7.190334   5.452801   6.139828
    21  H    7.590306   5.073915   6.063277   4.136666   4.637219
    22  C    7.318955   5.081427   6.129111   4.395931   5.100486
    23  H    8.323692   6.133421   7.193016   5.452692   6.140558
    24  H    7.001834   4.996300   5.994354   4.488827   5.228640
    25  H    7.513841   5.076111   6.068510   4.137550   4.638784
                   11         12         13         14         15
    11  C    0.000000
    12  C    1.399279   0.000000
    13  C    2.396374   1.393942   0.000000
    14  H    3.380499   2.142088   1.086265   0.000000
    15  H    1.085813   2.155257   3.384630   4.282428   0.000000
    16  C    2.535624   1.516256   2.534091   2.723783   2.738181
    17  H    3.403242   2.115526   2.562056   2.289912   3.779298
    18  C    3.106138   2.516126   3.584282   3.807226   2.976520
    19  H    3.397440   2.756401   3.523022   3.681339   3.474875
    20  H    4.124994   3.465068   4.468345   4.508606   3.893754
    21  H    2.867829   2.802403   4.059654   4.519309   2.396809
    22  C    3.104106   2.516477   3.587717   3.813171   2.971631
    23  H    4.124012   3.465209   4.470384   4.512466   3.891170
    24  H    3.392420   2.756003   3.528501   3.692148   3.465694
    25  H    2.866717   2.803606   4.063966   4.525394   2.391186
                   16         17         18         19         20
    16  C    0.000000
    17  H    1.094362   0.000000
    18  C    1.532160   2.143078   0.000000
    19  H    2.180582   2.496568   1.092768   0.000000
    20  H    2.170695   2.478245   1.093301   1.772072   0.000000
    21  H    2.176069   3.061433   1.094040   1.769964   1.768106
    22  C    1.532188   2.143067   2.519196   3.478758   2.755869
    23  H    2.170629   2.477188   2.756944   3.760973   2.541482
    24  H    2.180773   2.497701   3.478876   4.329961   3.760918
    25  H    2.175655   3.061102   2.776568   3.785751   3.112613
                   21         22         23         24         25
    21  H    0.000000
    22  C    2.778459   0.000000
    23  H    3.116830   1.093285   0.000000
    24  H    3.786784   1.092774   1.772050   0.000000
    25  H    2.587207   1.094023   1.768086   1.770278   0.000000
 Symmetry turned off by external request.
 Stoichiometry    C9H13BO2
 Framework group  C1[X(C9H13BO2)]
 Deg. of freedom    69
 Full point group                 C1      NOp   1
 Rotational constants (GHZ):           1.7752401           0.5055415           0.4300249
 Standard basis: 6-311+G(d,p) (5D, 7F)
   342 basis functions,   536 primitive gaussians,   354 cartesian basis functions
    44 alpha electrons       44 beta electrons
       nuclear repulsion energy       656.8601027827 Hartrees.
 NAtoms=   25 NActive=   25 NUniq=   25 SFac= 1.00D+00 NAtFMM=   60 NAOKFM=F Big=F
 Integral buffers will be    131072 words long.
 Raffenetti 2 integral format.
 Two-electron integral symmetry is turned off.
 ------------------------------------------------------------------------------
 Polarizable Continuum Model (PCM)
 =================================
 Model                : PCM.
 Atomic radii         : SMD-Coulomb.
 Polarization charges : Total charges.
 Charge compensation  : None.
 Solution method      : Matrix inversion.
 Cavity type          : VdW (van der Waals Surface) (Alpha=1.000).
 Cavity algorithm     : GePol (No added spheres)
                        Default sphere list used, NSphG=   25.
                        Lebedev-Laikov grids with approx.  5.0 points / Ang**2.
                        Smoothing algorithm: York/Karplus (Gamma=1.0000).
                        Polarization charges: spherical gaussians, with
                                              point-specific exponents (IZeta= 3).
                        Self-potential: point-specific (ISelfS= 7).
                        Self-field    : sphere-specific E.n sum rule (ISelfD= 2).
 1st derivatives      : Analytical E(r).r(x)/FMM algorithm (CHGder, D1EAlg=3).
                        Cavity 1st derivative terms included.
 Solvent              : TetraHydroFuran, Eps=   7.425700 Eps(inf)=   1.974025
 ------------------------------------------------------------------------------
 ------------------------------------------------------------------------------
 Atomic radii for non-electrostatic terms: SMD-CDS.
 ------------------------------------------------------------------------------
 Nuclear repulsion after PCM non-electrostatic terms =      656.8554178869 Hartrees.
 One-electron integrals computed using PRISM.
 NBasis=   342 RedAO= T EigKep=  1.05D-06  NBF=   342
 NBsUse=   342 1.00D-06 EigRej= -1.00D+00 NBFU=   342
 Initial guess from the checkpoint file:  "3-isopropyl-phboh2-opt-freq-thf.chk"
 B after Tr=     0.008986   -0.000327   -0.010587
         Rot=    1.000000   -0.000139    0.000330   -0.000060 Ang=  -0.04 deg.
 ExpMin= 3.15D-02 ExpMax= 8.59D+03 ExpMxC= 1.30D+03 IAcc=3 IRadAn=         5 AccDes= 0.00D+00
 Harris functional with IExCor= 1009 and IRadAn=       5 diagonalized for initial guess.
 HarFok:  IExCor= 1009 AccDes= 0.00D+00 IRadAn=         5 IDoV= 1 UseB2=F ITyADJ=14
 ICtDFT=  3500011 ScaDFX=  1.000000  1.000000  1.000000  1.000000
 FoFCou: FMM=F IPFlag=           0 FMFlag=      100000 FMFlg1=           0
         NFxFlg=           0 DoJE=T BraDBF=F KetDBF=T FulRan=T
         wScrn=  0.000000 ICntrl=       500 IOpCl=  0 I1Cent=   200000004 NGrid=           0
         NMat0=    1 NMatS0=      1 NMatT0=    0 NMatD0=    1 NMtDS0=    0 NMtDT0=    0
 Symmetry not used in FoFCou.
 Requested convergence on RMS density matrix=1.00D-08 within 128 cycles.
 Requested convergence on MAX density matrix=1.00D-06.
 Requested convergence on             energy=1.00D-06.
 Level shift goal  0.100 maximum shift  0.100.
 No special actions if energy rises.
 Dynamic level shift is on during FON iterations.
 Inv3:  Mode=1 IEnd=    11571888.
 Iteration    1 A*A^-1 deviation from unit magnitude is 5.77D-15 for   1963.
 Iteration    1 A*A^-1 deviation from orthogonality  is 2.33D-15 for   1959   1627.
 Iteration    1 A^-1*A deviation from unit magnitude is 5.88D-15 for   1961.
 Iteration    1 A^-1*A deviation from orthogonality  is 4.00D-14 for   1293   1224.
 Error on total polarization charges =  0.03758
 SCF Done:  E(RM062X) =  -526.154487626     A.U. after   11 cycles
            NFock= 11  Conv=0.29D-08     -V/T= 2.0040
 SMD-CDS (non-electrostatic) energy       (kcal/mol) =      -2.94
 (included in total energy above)
 D1PCM: PCM CHGder 1st derivatives, ID1Alg=3 FixD1E=F DoIter=F DoCFld=F I1PDM=0.
 Calling FoFJK, ICntrl=      2127 FMM=F ISym2X=0 I1Cent= 0 IOpClX= 0 NMat=1 NMatS=1 NMatT=0.
 -------------------------------------------------------------------
 Center     Atomic                   Forces (Hartrees/Bohr)
 Number     Number              X              Y              Z
 -------------------------------------------------------------------
      1        8          -0.000013282    0.000007358   -0.000014056
      2        1           0.000017552   -0.000023209    0.000000415
      3        6          -0.000002916   -0.000004350   -0.000002485
      4        5          -0.000008471   -0.000012707    0.000003735
      5        8           0.000027945    0.000002455   -0.000021224
      6        1          -0.000040533   -0.000019505    0.000012767
      7        6          -0.000003245   -0.000005463    0.000004041
      8        1          -0.000004023   -0.000003727   -0.000002397
      9        6          -0.000003008    0.000002492    0.000000665
     10        1          -0.000002320    0.000003623    0.000000584
     11        6          -0.000004360    0.000002679    0.000002250
     12        6          -0.000000717    0.000003427   -0.000002015
     13        6           0.000005458    0.000001919   -0.000005401
     14        1          -0.000002281   -0.000001822   -0.000003619
     15        1           0.000001298    0.000005402    0.000004870
     16        6          -0.000001172    0.000001877    0.000001857
     17        1           0.000002737   -0.000001506    0.000001441
     18        6           0.000006637    0.000004416    0.000005118
     19        1           0.000009466    0.000002807    0.000004349
     20        1           0.000007574    0.000003495    0.000004108
     21        1           0.000005824    0.000005035    0.000004002
     22        6          -0.000000224    0.000006196    0.000002642
     23        1           0.000002361    0.000006526    0.000002265
     24        1          -0.000000362    0.000003432   -0.000001394
     25        1           0.000000061    0.000009151   -0.000002517
 -------------------------------------------------------------------
 Cartesian Forces:  Max     0.000040533 RMS     0.000008857

 GradGradGradGradGradGradGradGradGradGradGradGradGradGradGradGradGradGrad
 Berny optimization.
 Using GEDIIS/GDIIS optimizer.
 FormGI is forming the generalized inverse of G from B-inverse, IUseBI=4.
 Internal  Forces:  Max     0.000040565 RMS     0.000005338
 Search for a local minimum.
 Step number   2 out of a maximum of  132
 All quantities printed in internal units (Hartrees-Bohrs-Radians)
 Mixed Optimization -- En-DIIS/RFO-DIIS
 Swapping is turned off.
 Update second derivatives using D2CorX and points    1    2
 DE= -6.00D-05 DEPred=-5.99D-05 R= 1.00D+00
 TightC=F SS=  1.41D+00  RLast= 3.48D-02 DXNew= 5.0454D-01 1.0431D-01
 Trust test= 1.00D+00 RLast= 3.48D-02 DXMaxT set to 3.00D-01
 ITU=  1  0
     Eigenvalues ---    0.00062   0.00134   0.00271   0.00338   0.01012
     Eigenvalues ---    0.01244   0.01444   0.01601   0.01766   0.02043
     Eigenvalues ---    0.02249   0.02465   0.02617   0.02689   0.02835
     Eigenvalues ---    0.03881   0.04088   0.04371   0.04493   0.04524
     Eigenvalues ---    0.04583   0.04700   0.04932   0.10553   0.11112
     Eigenvalues ---    0.11397   0.11887   0.11914   0.12167   0.12255
     Eigenvalues ---    0.12651   0.12738   0.12869   0.14281   0.14794
     Eigenvalues ---    0.15885   0.16944   0.18401   0.18557   0.18653
     Eigenvalues ---    0.18857   0.19465   0.19739   0.20345   0.27972
     Eigenvalues ---    0.29165   0.29418   0.29451   0.32128   0.33829
     Eigenvalues ---    0.33940   0.34075   0.34122   0.34270   0.34849
     Eigenvalues ---    0.34952   0.35688   0.36024   0.36202   0.36393
     Eigenvalues ---    0.38511   0.42053   0.42638   0.47446   0.47730
     Eigenvalues ---    0.48846   0.51549   0.54493   0.55502
 En-DIIS/RFO-DIIS/Sim-DIIS IScMMF=       -3 using points:     2    1
 RFO step:  Lambda=-8.33241440D-09.
 DidBck=F Rises=F RFO-DIIS coefs:    0.99506    0.00494
 Iteration  1 RMS(Cart)=  0.00032268 RMS(Int)=  0.00000004
 Iteration  2 RMS(Cart)=  0.00000006 RMS(Int)=  0.00000001
 Variable       Old X    -DE/DX   Delta X   Delta X   Delta X     New X
                                 (Linear)    (Quad)   (Total)
    R1        1.82187   0.00003  -0.00002   0.00007   0.00005   1.82192
    R2        2.58016   0.00001  -0.00002   0.00005   0.00003   2.58019
    R3        2.96451   0.00001  -0.00002   0.00005   0.00003   2.96455
    R4        2.64299   0.00001  -0.00001   0.00003   0.00001   2.64300
    R5        2.64994   0.00001  -0.00001   0.00003   0.00002   2.64995
    R6        2.58632   0.00000   0.00001  -0.00001   0.00000   2.58632
    R7        1.81762   0.00004  -0.00003   0.00011   0.00007   1.81769
    R8        2.05346   0.00000   0.00000   0.00000   0.00000   2.05346
    R9        2.63127   0.00000  -0.00001   0.00002   0.00001   2.63128
   R10        2.04906   0.00000   0.00000   0.00001   0.00000   2.04907
   R11        2.62698   0.00000  -0.00001   0.00002   0.00001   2.62699
   R12        2.64425   0.00001  -0.00001   0.00002   0.00001   2.64426
   R13        2.05189   0.00000   0.00000   0.00000   0.00000   2.05189
   R14        2.63417   0.00001  -0.00001   0.00003   0.00002   2.63419
   R15        2.86531   0.00001   0.00000   0.00001   0.00001   2.86532
   R16        2.05274   0.00000   0.00000   0.00000   0.00000   2.05274
   R17        2.06805   0.00000   0.00000   0.00000   0.00000   2.06805
   R18        2.89536   0.00000   0.00001   0.00000   0.00001   2.89537
   R19        2.89542   0.00001   0.00001   0.00001   0.00001   2.89543
   R20        2.06503   0.00000  -0.00001   0.00002   0.00001   2.06504
   R21        2.06604   0.00000  -0.00001   0.00001   0.00000   2.06604
   R22        2.06744   0.00000   0.00000   0.00000   0.00000   2.06744
   R23        2.06601   0.00000   0.00000   0.00001   0.00000   2.06601
   R24        2.06504   0.00000  -0.00001   0.00002   0.00001   2.06505
   R25        2.06740   0.00000   0.00000   0.00000   0.00000   2.06740
    A1        1.95792   0.00000  -0.00002   0.00002   0.00000   1.95793
    A2        2.13550  -0.00001   0.00002  -0.00003  -0.00002   2.13548
    A3        2.08680   0.00001  -0.00002   0.00004   0.00002   2.08682
    A4        2.06089   0.00000   0.00000  -0.00001  -0.00001   2.06089
    A5        2.06625   0.00000   0.00001  -0.00002  -0.00001   2.06624
    A6        2.05204   0.00000   0.00000   0.00000   0.00000   2.05204
    A7        2.16489   0.00000  -0.00001   0.00002   0.00001   2.16490
    A8        1.99587   0.00000  -0.00001   0.00001   0.00000   1.99587
    A9        2.11216   0.00000  -0.00001   0.00002   0.00001   2.11217
   A10        2.10629   0.00000   0.00001  -0.00001   0.00000   2.10629
[...]
 2,0.00002969,0.00000042,-0.00000004,0.00000473,-0.00016290,0.00006887,
 -0.00018686,0.00022757,-0.00003669,-0.00002656,-0.00004539,0.00002577,
 -0.00001758,0.00001241,-0.00001831,0.00001414,-0.00026294,0.00007653,0
 .00008183,-0.00007506,0.00002564,0.00000275,0.00132230,-0.00007959,-0.
 00009136,-0.00002116,0.00020766,-0.00032996,-0.00147086,0.00380416,-0.
 00213328,0.02166171,0.00449824,-0.01064435,0.00160205,-0.00088204,0.00
 040863,-0.00095769,0.00028696,0.00000135,0.00003524,-0.00022904,0.0000
 4596,0.08342287,0.01157780,-0.07898039,-0.08931340,-0.01345288,0.09116
 912,-0.00000584,-0.00001025,-0.00001437,0.00000026,0.00000336,0.000006
 67,-0.00019997,-0.00019911,-0.00015012,0.00002047,-0.00001612,0.000071
 46,0.00001592,-0.00000645,-0.00001306,-0.00001049,0.00001411,-0.000005
 86,0.00041293,-0.00031932,0.00008851,0.00002514,0.00008787,0.00003972,
 -0.00036126,0.00043502,-0.00044324,0.00001163,0.00004430,0.00007975,0.
 00001450,-0.00111464,0.00135649,-0.00081931,0.00312692,-0.00351670,-0.
 00002912,0.00018760,-0.00036246,0.00026635,0.00017320,0.00014950,-0.00
 028978,0.00002578,0.00005908,-0.08881461,0.03130354,0.01931068,-0.0084
 2791,0.02865994,0.01261189,0.56576656,0.00006990,0.00001065,-0.0000275
 5,-0.00000294,0.00000027,0.00000210,0.00020357,0.00005593,0.00132059,-
 0.00017464,0.00004920,0.00014067,0.00006174,-0.00009938,0.00000103,-0.
 00000447,0.00002691,-0.00001181,0.00062172,-0.00010032,-0.00005312,0.0
 0000095,-0.00004883,-0.00003797,0.00039707,0.00079007,-0.00011109,-0.0
 0005021,-0.00001932,-0.00014127,0.00068545,0.00008494,-0.00037393,0.00
 886269,-0.03110599,-0.00334223,-0.00202985,-0.00015127,-0.00020200,0.0
 0006368,-0.00021655,-0.00030951,-0.00005717,-0.00053129,0.00017256,0.0
 2967482,-0.16092642,-0.04384646,0.00019881,0.00083647,0.00030132,0.027
 86638,0.49825723,-0.00041820,-0.00000153,0.00004303,0.00003612,0.00000
 038,-0.00000826,-0.00082194,-0.00029610,-0.00127166,0.00078579,-0.0001
 4687,-0.00004253,-0.00027185,0.00032686,-0.00017026,0.00003440,-0.0001
 1156,0.00007872,-0.00058189,0.00073169,-0.00049982,-0.00001204,0.00009
 728,0.00001720,0.00005721,-0.00091222,0.00029073,0.00008145,0.00006094
 ,-0.00006149,0.00010455,0.00195856,-0.00115331,-0.00819049,0.01837835,
 0.01221881,0.00058400,0.00200136,-0.00242003,0.00000191,0.00034434,0.0
 0033587,0.00010447,0.00028900,-0.00002144,0.01639321,-0.03794546,-0.09
 470553,0.00345094,-0.01132145,-0.00543212,0.01717760,-0.03563646,0.566
 59650,0.00000120,-0.00000738,0.00001019,-0.00000125,-0.00000071,-0.000
 00328,0.00003124,0.00006134,-0.00005253,-0.00000212,0.00001207,-0.0000
 1887,0.00000421,-0.00001107,0.00001595,-0.00000076,0.00000023,-0.00000
 634,-0.00007543,-0.00003331,0.00006337,0.00000184,-0.00001374,0.000000
 14,0.00011231,-0.00004835,0.00007969,-0.00000995,-0.00000953,-0.000008
 25,-0.00031085,-0.00003749,0.00006697,0.00050184,-0.00001234,0.0001875
 2,0.00011108,-0.00037205,0.00015407,-0.00005701,-0.00001670,0.00002240
 ,0.00007088,-0.00004665,-0.00005320,0.00629028,0.00297468,0.00892197,0
 .00059111,-0.00075399,-0.00011933,-0.14592181,-0.04283683,-0.12333313,
 0.15362288,-0.00002872,0.00002522,0.00001701,0.00000655,-0.00000513,-0
 .00000560,0.00002299,-0.00007916,0.00001630,0.00004525,-0.00006024,0.0
 0000248,-0.00001288,0.00003395,-0.00000997,0.00000124,-0.00001226,0.00
 000253,0.00002279,0.00000358,-0.00003636,0.00000363,0.00000600,0.00000
 399,-0.00005454,-0.00002642,0.00001367,0.00000069,-0.00001828,0.000003
 76,-0.00014302,0.00010078,0.00028836,-0.00087704,0.00114997,-0.0012618
 6,0.00018811,0.00015258,0.00015737,0.00002417,-0.00001698,-0.00003144,
 0.00004024,0.00000656,-0.00004155,-0.01831850,-0.00774207,-0.01990143,
 0.00015854,0.00115009,0.00056398,-0.04133336,-0.06462289,-0.05101304,0
 .04466074,0.06991232,0.00005044,0.00001711,-0.00000470,-0.00000273,-0.
 00000466,-0.00000134,0.00008549,-0.00012888,-0.00003266,-0.00009413,-0
 .00000710,0.00000569,0.00003015,-0.00000949,0.00001751,-0.00000335,0.0
 0000343,-0.00000914,0.00006275,-0.00001093,0.00001838,0.00000758,0.000
 01367,0.00002120,-0.00012798,-0.00002692,-0.00017613,-0.00000253,-0.00
 001046,0.00001219,-0.00004225,-0.00027206,0.00029701,0.00040350,0.0011
 5683,0.00027649,0.00003601,-0.00024337,0.00027035,0.00000152,-0.000009
 25,0.00001048,0.00004493,0.00003963,0.00006517,-0.00723899,-0.00165171
 ,-0.00931929,0.00014935,0.00038201,0.00007170,-0.12257912,-0.05258800,
 -0.20080069,0.13396323,0.05955622,0.21517906,-0.00004965,-0.00000024,0
 .00000395,0.00000558,0.00000102,-0.00000433,-0.00010163,-0.00027114,0.
 00003690,0.00006268,0.00001215,0.00001113,-0.00002982,0.00002167,-0.00
 001546,0.00000890,-0.00001163,0.00000931,0.00019196,0.00008707,-0.0000
 9461,0.00001632,0.00003440,0.00003323,-0.00005932,-0.00005883,-0.00034
 274,0.00000411,0.00000870,-0.00003068,-0.00008868,-0.00004244,-0.00003
 375,0.00028467,0.00136985,0.00182674,-0.00005903,0.00029158,-0.0003647
 1,-0.00000629,0.00005392,0.00004157,0.00025584,0.00015098,0.00013729,-
 0.00089685,0.00860624,-0.00727826,0.00021700,-0.00040126,-0.00055493,-
 0.04726077,-0.00583660,0.00415064,0.00065247,0.01496391,-0.01269617,0.
 04604511,0.00023534,-0.00001225,-0.00002549,-0.00002495,0.00000120,0.0
 0000351,0.00038341,-0.00000808,0.00048529,-0.00043690,0.00014131,0.000
 00837,0.00013897,-0.00018279,0.00010163,-0.00001521,0.00006054,-0.0000
 4133,0.00019816,-0.00027995,0.00017127,0.00001068,-0.00005248,0.000004
 85,-0.00005454,0.00023134,-0.00003542,-0.00003642,-0.00005313,0.000052
 21,0.00034014,-0.00021014,0.00022956,0.00220168,-0.00337022,-0.0040011
 6,-0.00052762,-0.00073057,0.00063295,0.00001913,-0.00010516,-0.0001259
 0,-0.00006019,0.00007685,-0.00003884,-0.00161083,-0.02053888,0.0197720
 1,0.00011074,0.00119894,0.00010082,-0.00542797,-0.18444472,0.13340233,
 0.00114413,0.00698446,-0.00640036,0.00383981,0.20147032,-0.00001264,0.
 00000656,0.00000925,0.00000351,-0.00000160,-0.00000082,0.00009392,0.00
 012829,0.00006152,0.00002258,-0.00003772,0.00001195,0.00000430,0.00000
 099,-0.00000306,-0.00000179,-0.00000151,-0.00000151,-0.00000126,-0.000
 07691,0.00003985,-0.00000933,-0.00001228,-0.00001698,-0.00003729,0.000
 12973,0.00008522,-0.00000584,-0.00001654,-0.00000178,-0.00005367,-0.00
 010378,0.00037726,0.00057839,-0.00187664,-0.00090482,0.00017208,-0.000
 25509,0.00053593,-0.00000631,-0.00004438,-0.00006737,-0.00012431,-0.00
 004180,-0.00009401,-0.00109616,-0.01135272,0.00868622,-0.00030711,0.00
 072538,0.00056300,0.00425571,0.13538872,-0.17711550,0.00211922,0.01656
 767,-0.01533613,-0.00545157,-0.14541296,0.18936661,0.00004589,0.000017
 32,-0.00002772,-0.00000020,-0.00000093,0.00000095,-0.00000269,-0.00027
 024,0.00018118,-0.00011569,0.00002364,0.00002144,0.00001468,-0.0000061
 9,-0.00000494,-0.00000093,0.00000429,0.00000192,0.00027535,0.00003707,
 0.00000447,0.00003293,0.00000525,0.00002576,0.00008179,0.00011562,-0.0
 0035332,-0.00000832,-0.00000499,-0.00003993,-0.00028990,-0.00035705,-0
 .00016693,0.00038776,-0.00089909,0.00083140,-0.00026162,0.00037126,-0.
 00028683,0.00007310,0.00001471,-0.00000852,0.00055530,-0.00039971,0.00
 017780,-0.01028407,0.00000490,0.00319730,0.00082639,0.00208291,0.00055
 684,-0.27961303,-0.02002246,0.08554530,-0.01644454,-0.00138805,0.00695
 534,0.00076948,-0.00028483,-0.00051165,0.30233662,-0.00001502,-0.00000
 154,0.00001340,0.00000099,-0.00000194,0.00000021,0.00007755,0.00026619
 ,-0.00031539,0.00005523,-0.00002029,-0.00003615,-0.00001275,0.00001974
 ,-0.00000066,0.00000131,-0.00000718,0.00000298,-0.00041738,0.00011896,
 0.00005656,-0.00003157,-0.00001472,-0.00001489,0.00008294,-0.00027897,
 0.00032266,0.00000342,-0.00003196,-0.00002450,0.00013044,-0.00012106,-
 0.00015257,-0.00002717,0.00189607,-0.00025105,0.00035989,-0.00026470,0
 .00049850,-0.00010739,-0.00000550,0.00000124,-0.00033108,-0.00092935,-
 0.00008768,0.02818114,0.00108131,-0.01104123,0.00164225,-0.00490484,-0
 .00245934,-0.02152473,-0.04739614,0.00809892,-0.00696727,-0.00166210,0
 .00346154,-0.02190513,-0.00164434,0.00643327,0.02100774,0.05221756,0.0
 0000888,-0.00000524,0.00000508,-0.00000214,-0.00000073,0.00000184,0.00
 002218,0.00009934,-0.00005543,0.00000313,-0.00000667,-0.00001251,0.000
 00547,-0.00000708,0.00000532,-0.00000099,0.00000383,-0.00000093,-0.000
 12691,-0.00001534,-0.00000445,-0.00001415,-0.00000170,-0.00000658,-0.0
 0012520,-0.00004964,0.00011559,0.00000922,0.00000396,0.00003965,0.0003
 4982,0.00022331,0.00012287,-0.00082208,0.00033266,-0.00018570,0.000062
 98,-0.00010495,0.00013680,-0.00004612,-0.00001061,-0.00001503,-0.00009
 894,0.00012628,0.00013979,0.01253256,0.00098060,-0.00571919,0.00053207
 ,-0.00261020,-0.00029507,0.08553271,0.00754995,-0.07872961,-0.02304488
 ,-0.00164775,0.00971043,0.02075198,0.00064651,-0.00737981,-0.09585605,
 -0.00600256,0.08165769,0.00008340,0.00000418,-0.00000425,-0.00000981,-
 0.00000301,-0.00000237,0.00004079,0.00011188,0.00010889,-0.00014015,-0
 .00001373,0.00002728,0.00007062,-0.00005350,0.00003736,-0.00001611,0.0
 0003315,-0.00002316,0.00040908,-0.00033264,0.00034269,-0.00000421,-0.0
 0003699,-0.00006992,-0.00042551,0.00058067,-0.00031865,-0.00003742,-0.
 00011989,-0.00003386,-0.00023530,-0.00172179,0.00164170,-0.00073694,0.
 00607639,-0.00534517,0.00028268,-0.00040937,0.00020435,0.00016018,-0.0
 0016571,-0.00017471,-0.00018072,-0.00011230,0.00004981,-0.12125108,-0.
 02234732,-0.05221565,-0.01892635,-0.00832161,-0.02629515,0.00589296,0.
 00128317,0.00687675,0.00017680,0.00280521,0.00169875,-0.00001030,-0.00
 006412,0.00024368,0.00102946,0.00068630,0.00084115,0.53556637,0.000411
 98,-0.00003173,-0.00007285,-0.00003429,0.00000021,0.00000986,0.0003871
 6,-0.00153367,-0.00053332,-0.00078439,0.00017150,0.00003795,0.00028058
 ,-0.00030100,0.00021830,-0.00002297,0.00011438,-0.00007442,0.00051283,
 -0.00061557,0.00046776,0.00004256,0.00002076,0.00011613,-0.00007836,0.
 00021386,-0.00083264,-0.00007098,-0.00001101,0.00008882,0.00003086,-0.
 00066038,0.00142198,0.01618663,0.00714273,0.01793024,-0.00081545,-0.00
 232804,0.00210188,0.00012719,0.00034968,0.00038902,0.00006876,0.000113
 70,0.00017730,-0.01796812,-0.08153195,-0.01923511,-0.00266124,-0.00149
 154,-0.00349779,-0.01925324,-0.01231052,-0.02709806,0.00176108,-0.0052
 0863,-0.00291564,-0.00066828,0.00109941,-0.00018217,-0.00032633,0.0016
 1989,0.00065187,-0.01724677,0.57788057,-0.00006003,-0.00002291,0.00001
 375,0.00000293,0.00000353,0.00000120,0.00019545,0.00122177,0.00006637,
 0.00017962,0.00012471,0.00000410,-0.00008297,0.00002419,-0.00007855,0.
 00000344,-0.00001980,0.00002713,-0.00070696,0.00013922,0.00001728,-0.0
 0001377,-0.00002543,-0.00001840,-0.00009375,-0.00021767,0.00091171,0.0
 0000920,-0.00012421,-0.00001403,-0.00063759,-0.00002372,0.00014995,-0.
 01595272,0.00026744,-0.02601547,0.00176094,-0.00074875,-0.00061627,-0.
 00021962,-0.00021377,-0.00013157,0.00009071,0.00024507,-0.00025177,-0.
 05193239,-0.02442171,-0.14150479,0.00473294,0.00229361,0.00733292,-0.0
 0995467,-0.01004848,-0.01593331,0.00070882,-0.00173227,-0.00019884,-0.
 00027249,0.00140841,0.00096411,-0.00066572,0.00115632,0.00044143,-0.04
 780938,-0.01794617,0.51535672,-0.00009919,0.00001132,0.00001775,0.0000
 1037,0.00000167,-0.00000326,-0.00010885,0.00013700,0.00031649,0.000152
 69,-0.00004553,-0.00002598,-0.00006256,0.00006782,-0.00003754,0.000009
 16,-0.00002905,0.00001481,0.00011540,0.00011990,-0.00018755,-0.0000064
 4,-0.00003579,-0.00005133,0.00009188,0.00031874,0.00015690,0.00001777,
 0.00003696,-0.00002729,-0.00009100,0.00021581,0.00003094,-0.00179893,-
 0.00252314,-0.00243379,0.00006516,0.00064208,-0.00050580,-0.00004972,-
 0.00007457,-0.00008171,0.00019849,-0.00019266,-0.00020949,-0.00049283,
 0.01465219,-0.01539325,0.00061484,0.00053812,0.00074415,0.00037452,0.0
 0078276,0.00083792,-0.00016349,0.00005087,0.00015521,0.00021241,-0.000
 24325,0.00017311,-0.00001223,-0.00013328,-0.00001140,-0.04662945,-0.00
 521129,0.00651567,0.04747339,0.00004419,0.00000166,-0.00000388,-0.0000
 0709,0.00000012,0.00000036,-0.00001415,0.00003334,0.00006414,-0.000073
 41,0.00003237,-0.00002448,0.00001438,-0.00001760,0.00001533,-0.0000035
 9,0.00000536,-0.00000817,-0.00003343,0.00001203,-0.00002208,0.00000326
 ,-0.00001015,-0.00000118,0.00006336,-0.00002055,0.00007306,-0.00000419
 ,-0.00001264,-0.00001029,0.00015283,0.00030877,-0.00010074,-0.00075802
 ,0.00008250,-0.00106602,-0.00011328,0.00043611,-0.00006559,-0.00000815
 ,-0.00004433,-0.00002332,0.00003347,-0.00006345,-0.00002336,0.00061723
 ,0.00521211,-0.00734072,0.00045926,0.00028318,0.00042602,-0.00012280,0
 .00081940,-0.00034187,0.00008013,0.00025075,0.00005435,-0.00024020,0.0
 0009376,-0.00008537,0.00010545,-0.00001349,0.00001147,-0.00481248,-0.1
 8558874,0.13491395,0.00645499,0.19805535,-0.00021379,0.00001609,0.0000
 2684,0.00002218,-0.00000168,-0.00000284,-0.00021884,0.00056134,0.00002
 302,0.00041614,-0.00009798,0.00003284,-0.00013453,0.00015482,-0.000118
 77,0.00001064,-0.00005581,0.00003969,-0.00024795,0.00021609,-0.0001693
 2,-0.00002029,0.00001887,-0.00003677,0.00008066,-0.00014678,0.00018469
 ,0.00003093,0.00003650,-0.00005521,-0.00029251,0.00027924,-0.00014580,
 -0.00363176,-0.00252526,-0.00227688,0.00047479,0.00042632,-0.00074551,
 -0.00006344,-0.00009417,-0.00007810,0.00001544,-0.00002375,0.00011102,
 0.00178311,0.01754691,-0.01750210,0.00008869,-0.00008686,0.00104603,0.
 00061068,0.00117348,0.00086147,-0.00010099,-0.00011723,0.00036194,0.00
 001763,-0.00066787,-0.00001963,0.00000112,-0.00008137,-0.00006656,0.00
 559533,0.13309851,-0.17653152,-0.00301950,-0.14618039,0.19137075,-0.00
 000127,-0.00000620,0.00001806,-0.00000218,0.00000140,-0.00000187,-0.00
 001200,0.00005205,-0.00010493,0.00000808,0.00001850,-0.00003114,0.0000
 0006,-0.00001478,0.00001582,0.00000116,0.00000481,-0.00000182,-0.00009
 655,-0.00004027,0.00005136,0.00000510,0.00000577,0.00001786,0.00012067
 ,-0.00015114,-0.00000697,-0.00000475,0.00001369,0.00000387,-0.00019501
 ,0.00014650,0.00006320,0.00058936,-0.00058784,0.00042853,0.00011712,-0
 .00008034,0.00030431,-0.00005948,-0.00001246,0.00002445,0.00006976,0.0
 0006796,0.00005571,0.00614726,-0.01777521,-0.00816185,0.00080092,0.000
 07231,0.00096183,-0.00211745,-0.00058033,-0.00332953,0.00052506,-0.000
 98698,-0.00071976,-0.00015130,0.00020466,0.00005630,0.00020735,-0.0001
 1438,-0.00021829,-0.07233047,0.07146522,0.03466591,-0.00052241,-0.0017
 9030,-0.00104389,0.07470160,-0.00004452,0.00000216,0.00001666,0.000002
 63,-0.00000009,-0.00000289,-0.00012165,-0.00001932,-0.00007134,0.00008
 614,-0.00002143,-0.00001777,-0.00002574,0.00003146,-0.00000539,0.00000
 164,-0.00001186,0.00000143,-0.00002591,0.00004349,-0.00001108,0.000000
 65,0.00002086,0.00001058,0.00003671,-0.00015775,-0.00006083,0.00000434
 ,0.00000890,-0.00001205,0.00010429,0.00027162,-0.00028891,-0.00016801,
 0.00044210,0.00116098,-0.00006197,0.00031587,-0.00032196,0.00001592,0.
 00001698,-0.00001120,-0.00003803,0.00006249,0.00003833,0.00237580,-0.0
 0612870,-0.00136638,-0.00023289,0.00005996,0.00017008,-0.00185964,0.00
 060774,-0.00155470,0.00030303,-0.00035170,-0.00047162,0.00000094,0.000
 34536,0.00008173,0.00010709,0.00002307,0.00008269,0.07034976,-0.247161
 21,-0.09516418,0.00671423,-0.01778286,-0.00966448,-0.07638942,0.265223
 84,0.00003938,0.00001514,0.00001684,-0.00000834,-0.00000478,-0.0000073
 1,-0.00004380,0.00000149,-0.00005147,-0.00005887,0.00000660,-0.0000422
 0,0.00001734,-0.00000555,0.00002823,-0.00000423,0.00000158,-0.00001436
 ,-0.00000412,-0.00001218,-0.00000110,-0.00000264,0.00000515,0.00000403
 ,0.00002000,0.00002530,-0.00005491,-0.00000288,0.00000203,-0.00002001,
 0.00028870,0.00023322,0.00001448,0.00065001,-0.00138677,0.00089641,-0.
 00012526,0.00023274,0.00011530,-0.00001984,-0.00001930,-0.00001425,-0.
 00007182,-0.00005384,-0.00000247,0.00899731,-0.01991664,-0.01071894,0.
 00009759,0.00050820,0.00099611,-0.00415479,-0.00044266,-0.00377802,0.0
 0031623,-0.00163669,-0.00048091,0.00002465,-0.00014709,0.00025648,-0.0
 0010690,0.00031430,0.00014160,0.03355325,-0.09348181,-0.09165971,-0.00
 757579,0.01899719,0.01060832,-0.03422681,0.10505630,0.09844137,0.00004
 272,0.00002281,-0.00002587,0.00000075,-0.00000012,0.00000143,-0.000019
 39,-0.00026860,0.00032425,-0.00012435,-0.00000551,0.00000165,0.0000179
 9,0.00000556,0.00000690,-0.00000244,0.00000014,-0.00000464,0.00036497,
 -0.00008686,-0.00011086,0.00002853,-0.00003962,-0.00002130,0.00014562,
 0.00041842,-0.00019201,0.,0.00004236,-0.00000007,-0.00032153,0.0002543
 9,0.00047678,0.00065730,-0.00111263,0.00120835,-0.00033776,0.00053405,
 -0.00033462,0.00009711,-0.00001612,-0.00004146,0.00041619,-0.00007237,
 -0.00013835,-0.02025341,-0.00205122,0.00547090,-0.00105451,-0.00094508
 ,-0.00377756,0.00107012,0.00082280,0.00073681,0.00029401,0.00014815,-0
 .00013725,-0.00001288,-0.00004003,-0.00010386,0.00039711,-0.00064205,-
 0.00028501,-0.28277851,-0.02613312,0.07953644,0.00070103,-0.00004747,-
 0.00015985,-0.00780064,-0.00113540,0.00240163,0.30847199,-0.00003598,0
 .00000441,0.00000583,0.00000328,-0.00000005,-0.00000148,-0.00002780,0.
 00003628,-0.00000447,0.00005804,-0.00002624,-0.00000013,-0.00001939,0.
 00001927,-0.00001524,0.00000394,-0.00000565,0.00000723,0.00001147,0.00
 000744,-0.00002354,-0.00000220,0.00000465,-0.00000304,0.00006180,-0.00
 002588,-0.00001993,0.00000538,0.00003181,0.00000350,-0.00003240,-0.000
 07729,0.00040225,0.00062882,-0.00014234,-0.00022081,0.00003840,0.00001
 177,0.00000024,0.00000799,-0.00001717,-0.00000789,0.00012470,-0.000000
 91,0.00044633,-0.00772655,-0.00197778,0.00275586,-0.00098415,0.0002991
 0,-0.00144079,-0.00074039,0.00043481,0.00068930,0.00016999,0.00002961,
 0.00006564,-0.00000650,-0.00007080,0.00003914,0.00006261,0.00005532,-0
 .00025000,-0.02616946,-0.04995269,0.00891085,-0.02225591,-0.00207301,0
 .00621544,0.02647679,0.00415903,-0.00829191,0.03034750,0.04927628,-0.0
 0001024,0.00000531,0.00000242,0.00000098,0.00000162,-0.00000083,-0.000
 10466,-0.00022912,0.00018739,-0.00000574,-0.00003341,-0.00000172,0.000
 00564,0.00000372,0.00000888,0.00000013,0.00000171,-0.00000310,0.000354
 36,-0.00002457,0.00001761,0.00000981,-0.00000806,-0.00002102,-0.000135
 91,0.00026585,-0.00019479,-0.00001516,-0.00002934,-0.00003335,-0.00023
 200,0.00010058,-0.00078135,0.00037437,-0.00016085,0.00160869,-0.000207
 35,0.00047629,-0.00008585,0.00007737,-0.00001841,-0.00002044,-0.000122
 60,0.00013612,-0.00136295,-0.02525743,-0.00348525,0.00719104,-0.003328
 17,-0.00139596,-0.00363043,-0.00015605,0.00112212,0.00170125,0.0001110
 2,0.00024185,0.00004224,0.00009468,-0.00012329,-0.00001596,0.00052770,
 0.00010750,-0.00004722,0.08107129,0.00916036,-0.07233245,0.02060073,0.
 00074158,-0.00691759,0.01117967,0.00240601,-0.00467350,-0.08483243,-0.
 00926236,0.07936303\\0.00000304,0.00000896,0.00000413,0.00000398,0.000
 01117,0.00000521,0.00000235,0.00000330,0.00000205,0.00000378,0.0000069
 2,0.00000378,0.00000565,0.00000812,0.00000506,0.00000634,0.00000658,0.
 00000468,0.00000275,0.00000114,0.00000155,0.00000405,0.00000192,0.0000
 0234,0.00000146,-0.00000204,-0.00000004,0.00000179,-0.00000370,-0.0000
 0040,-0.00000020,-0.00000313,-0.00000110,-0.00000068,-0.00000108,-0.00
 000057,0.00000060,0.00000215,0.00000095,0.00000031,0.00000380,0.000001
 32,-0.00000121,-0.00000565,-0.00000231,-0.00000253,-0.00000222,-0.0000
 0180,-0.00000254,-0.00000017,-0.00000114,-0.00000618,-0.00000268,-0.00
 000348,-0.00000750,-0.00000026,-0.00000329,-0.00000751,-0.00000339,-0.
 00000428,-0.00000628,-0.00000473,-0.00000417,-0.00000071,-0.00000561,-
 0.00000208,-0.00000200,-0.00000635,-0.00000285,0.00000189,-0.00000530,
 -0.00000085,-0.00000068,-0.00000775,-0.00000272\\\@
 The archive entry for this job was punched.


 DEFINE YOUR TERMS, YOU WILL PERMIT ME AGAIN TO SAY, 
 OR WE SHALL NEVER UNDERSTAND ONE ANOTHER.

                                    -- VOLTAIRE
 Job cpu time:       0 days  1 hours 54 minutes 22.3 seconds.
 Elapsed time:       0 days  0 hours  3 minutes 43.3 seconds.
 File lengths (MBytes):  RWF=    332 Int=      0 D2E=      0 Chk=     22 Scr=      1
 Normal termination of Gaussian 16 at Mon May  5 07:49:57 2025.
