/home/tahminaafroz
cn018.cluster.local
tahminaafroz
Wed Apr 30 05:04:38 CDT 2025
 Entering Gaussian System, Link 0=g16
 Initial command:
 /home/apps/g16/l1.exe "/tmp/3-isopropyl-phboh2-opt-freq/Gau-2075956.inp" -scrdir="/tmp/3-isopropyl-phboh2-opt-freq/"
 Entering Link 1 = /home/apps/g16/l1.exe PID=   2075957.
  
 Copyright (c) 1988-2019, Gaussian, Inc.  All Rights Reserved.
  
 This is part of the Gaussian(R) 16 program.  It is based on
 the Gaussian(R) 09 system (copyright 2009, Gaussian, Inc.),
 the Gaussian(R) 03 system (copyright 2003, Gaussian, Inc.),
 the Gaussian(R) 98 system (copyright 1998, Gaussian, Inc.),
 the Gaussian(R) 94 system (copyright 1995, Gaussian, Inc.),
 the Gaussian 92(TM) system (copyright 1992, Gaussian, Inc.),
 the Gaussian 90(TM) system (copyright 1990, Gaussian, Inc.),
 the Gaussian 88(TM) system (copyright 1988, Gaussian, Inc.),
 the Gaussian 86(TM) system (copyright 1986, Carnegie Mellon
 University), and the Gaussian 82(TM) system (copyright 1983,
 Carnegie Mellon University). Gaussian is a federally registered
 trademark of Gaussian, Inc.
  
 This software contains proprietary and confidential information,
 including trade secrets, belonging to Gaussian, Inc.
  
 This software is provided under written license and may be
 used, copied, transmitted, or stored only in accord with that
 written license.
  
 The following legend is applicable only to US Government
 contracts under FAR:
  
                    RESTRICTED RIGHTS LEGEND
  
 Use, reproduction and disclosure by the US Government is
 subject to restrictions as set forth in subparagraphs (a)
 and (c) of the Commercial Computer Software - Restricted
 Rights clause in FAR 52.227-19.
  
 Gaussian, Inc.
 340 Quinnipiac St., Bldg. 40, Wallingford CT 06492
  
  
 ---------------------------------------------------------------
 Warning -- This program may not be used in any manner that
 competes with the business of Gaussian, Inc. or will provide
 assistance to any competitor of Gaussian, Inc.  The licensee
 of this program is prohibited from giving any competitor of
 Gaussian, Inc. access to this program.  By using this program,
 the user acknowledges that Gaussian, Inc. is engaged in the
 business of creating and licensing software in the field of
 computational chemistry and represents and warrants to the
 licensee that it is not a competitor of Gaussian, Inc. and that
 it will not use this program in any manner prohibited above.
 ---------------------------------------------------------------
  

 Cite this work as:
 Gaussian 16, Revision C.01,
 M. J. Frisch, G. W. Trucks, H. B. Schlegel, G. E. Scuseria, 
 M. A. Robb, J. R. Cheeseman, G. Scalmani, V. Barone, 
 G. A. Petersson, H. Nakatsuji, X. Li, M. Caricato, A. V. Marenich, 
 J. Bloino, B. G. Janesko, R. Gomperts, B. Mennucci, H. P. Hratchian, 
 J. V. Ortiz, A. F. Izmaylov, J. L. Sonnenberg, D. Williams-Young, 
 F. Ding, F. Lipparini, F. Egidi, J. Goings, B. Peng, A. Petrone, 
 T. Henderson, D. Ranasinghe, V. G. Zakrzewski, J. Gao, N. Rega, 
 G. Zheng, W. Liang, M. Hada, M. Ehara, K. Toyota, R. Fukuda, 
 J. Hasegawa, M. Ishida, T. Nakajima, Y. Honda, O. Kitao, H. Nakai, 
 T. Vreven, K. Throssell, J. A. Montgomery, Jr., J. E. Peralta, 
 F. Ogliaro, M. J. Bearpark, J. J. Heyd, E. N. Brothers, K. N. Kudin, 
 V. N. Staroverov, T. A. Keith, R. Kobayashi, J. Normand, 
 K. Raghavachari, A. P. Rendell, J. C. Burant, S. S. Iyengar, 
 J. Tomasi, M. Cossi, J. M. Millam, M. Klene, C. Adamo, R. Cammi, 
 J. W. Ochterski, R. L. Martin, K. Morokuma, O. Farkas, 
 J. B. Foresman, and D. J. Fox, Gaussian, Inc., Wallingford CT, 2019.
 
 ******************************************
 Gaussian 16:  AS64L-G16RevC.01  3-Jul-2019
                30-Apr-2025 
 ******************************************
 %mem=20GB
 %nprocshared=32
 Will use up to   32 processors via shared memory.
 %chk=3-isopropyl-phboh2-opt-freq.chk
 ----------------------------------------------------------------------
 # opt=(calcfc,tight) freq 6-311+g(d,p) nosymm scf=(qc,fermi,xqc) geom=
 connectivity int=ultrafine m062x
 ----------------------------------------------------------------------
 1/7=10,10=4,18=20,19=15,26=4,38=1,57=2/1,3;
 2/9=110,12=2,15=1,17=6,18=5,40=1/2;
 3/5=4,6=6,7=111,11=2,25=1,30=1,71=2,74=-55,75=-5,140=1/1,2,3;
 4//1;
 5/5=2,22=13,38=5/2;
 8/6=4,10=90,11=11/1;
 11/6=1,8=1,9=11,15=111,16=1,31=1/1,2,10;
 10/6=1,13=1,31=1/2;
 6/7=2,8=2,9=2,10=2,28=1/1;
 7/10=1,25=1,30=1/1,2,3,16;
 1/7=10,10=4,18=20,19=15,26=4/3(2);
 2/9=110,15=1/2;
 99//99;
 2/9=110,15=1/2;
 3/5=4,6=6,7=111,11=2,25=1,30=1,71=1,74=-55,75=-5/1,2,3;
 4/5=5,16=3,69=1/1;
 5/5=2,22=13,38=5/2;
 7/30=1/1,2,3,16;
 1/7=10,18=20,19=15,26=4/3(-5);
 2/9=110,15=1/2;
 6/7=2,8=2,9=2,10=2,19=2,28=1/1;
 99/9=1/99;
 ---------------------------
 3-isopropyl-phboh2-opt-freq
 ---------------------------
 Symbolic Z-matrix:
 Charge =  0 Multiplicity = 1
 O                     8.75194   7.29418   5.37052 
 H                     9.5519    6.99588   5.81247 
 C                     6.26291   6.9758    5.1671 
 B                     7.65058   6.60749   5.78849 
 O                     7.83445   5.63312   6.73371 
 H                     7.03104   5.18202   6.99736 
 C                     5.07743   6.32566   5.51885 
 H                     5.08155   5.52229   6.25162 
 C                     3.85937   6.67969   4.94789 
 H                     2.95374   6.15782   5.23975 
 C                     3.78477   7.70056   4.0014 
 C                     4.9669    8.35612   3.64304 
 C                     6.17994   8.0002    4.21444 
 H                     7.08743   8.5188    3.92536 
 H                     2.84858   7.974     3.56131 
 C                     4.92499   9.48891   2.60062 
 H                     5.54302   9.22921   1.76665 
 C                     5.44301   10.7919   3.23738 
 H                     6.513     10.78824   3.23702 
 H                     5.08902   11.62965   2.67367 
 H                     5.08692   10.86315   4.24387 
 C                     3.47557   9.69246   2.12173 
 H                     3.44751   10.47466   1.39216 
 H                     3.1132    8.78496   1.6858 
 H                     2.85892   9.95919   2.9545 
 

 GradGradGradGradGradGradGradGradGradGradGradGradGradGradGradGradGradGrad
 Berny optimization.
 Initialization pass.
                           ----------------------------
                           !    Initial Parameters    !
                           ! (Angstroms and Degrees)  !
 --------------------------                            --------------------------
 ! Name  Definition              Value          Derivative Info.                !
 --------------------------------------------------------------------------------
 ! R1    R(1,2)                  0.9614         calculate D2E/DX2 analytically  !
 ! R2    R(1,4)                  1.3635         calculate D2E/DX2 analytically  !
 ! R3    R(3,4)                  1.5644         calculate D2E/DX2 analytically  !
 ! R4    R(3,7)                  1.3971         calculate D2E/DX2 analytically  !
 ! R5    R(3,13)                 1.4014         calculate D2E/DX2 analytically  !
 ! R6    R(4,5)                  1.3699         calculate D2E/DX2 analytically  !
 ! R7    R(5,6)                  0.9584         calculate D2E/DX2 analytically  !
 ! R8    R(7,8)                  1.0874         calculate D2E/DX2 analytically  !
 ! R9    R(7,9)                  1.391          calculate D2E/DX2 analytically  !
 ! R10   R(9,10)                 1.0852         calculate D2E/DX2 analytically  !
 ! R11   R(9,11)                 1.3941         calculate D2E/DX2 analytically  !
 ! R12   R(11,12)                1.3984         calculate D2E/DX2 analytically  !
 ! R13   R(11,15)                1.07           calculate D2E/DX2 analytically  !
 ! R14   R(12,13)                1.3873         calculate D2E/DX2 analytically  !
 ! R15   R(12,16)                1.54           calculate D2E/DX2 analytically  !
 ! R16   R(13,14)                1.0845         calculate D2E/DX2 analytically  !
 ! R17   R(16,17)                1.07           calculate D2E/DX2 analytically  !
 ! R18   R(16,18)                1.54           calculate D2E/DX2 analytically  !
 ! R19   R(16,22)                1.54           calculate D2E/DX2 analytically  !
 ! R20   R(18,19)                1.07           calculate D2E/DX2 analytically  !
 ! R21   R(18,20)                1.07           calculate D2E/DX2 analytically  !
 ! R22   R(18,21)                1.07           calculate D2E/DX2 analytically  !
 ! R23   R(22,23)                1.07           calculate D2E/DX2 analytically  !
 ! R24   R(22,24)                1.07           calculate D2E/DX2 analytically  !
 ! R25   R(22,25)                1.07           calculate D2E/DX2 analytically  !
 ! A1    A(2,1,4)              112.0202         calculate D2E/DX2 analytically  !
 ! A2    A(4,3,7)              122.8959         calculate D2E/DX2 analytically  !
 ! A3    A(4,3,13)             119.6459         calculate D2E/DX2 analytically  !
 ! A4    A(7,3,13)             117.4581         calculate D2E/DX2 analytically  !
 ! A5    A(1,4,3)              118.4342         calculate D2E/DX2 analytically  !
 ! A6    A(1,4,5)              117.4703         calculate D2E/DX2 analytically  !
 ! A7    A(3,4,5)              124.0955         calculate D2E/DX2 analytically  !
 ! A8    A(4,5,6)              114.3363         calculate D2E/DX2 analytically  !
 ! A9    A(3,7,8)              120.6826         calculate D2E/DX2 analytically  !
 ! A10   A(3,7,9)              121.4162         calculate D2E/DX2 analytically  !
 ! A11   A(8,7,9)              117.9012         calculate D2E/DX2 analytically  !
 ! A12   A(7,9,10)             119.8654         calculate D2E/DX2 analytically  !
 ! A13   A(7,9,11)             120.7896         calculate D2E/DX2 analytically  !
 ! A14   A(10,9,11)            119.345          calculate D2E/DX2 analytically  !
 ! A15   A(9,11,12)            118.165          calculate D2E/DX2 analytically  !
 ! A16   A(9,11,15)            120.8761         calculate D2E/DX2 analytically  !
 ! A17   A(12,11,15)           120.9589         calculate D2E/DX2 analytically  !
 ! A18   A(11,12,13)           120.8853         calculate D2E/DX2 analytically  !
 ! A19   A(11,12,16)           119.688          calculate D2E/DX2 analytically  !
 ! A20   A(13,12,16)           119.4267         calculate D2E/DX2 analytically  !
 ! A21   A(3,13,12)            121.2858         calculate D2E/DX2 analytically  !
 ! A22   A(3,13,14)            118.7666         calculate D2E/DX2 analytically  !
 ! A23   A(12,13,14)           119.9476         calculate D2E/DX2 analytically  !
 ! A24   A(12,16,17)           109.4712         calculate D2E/DX2 analytically  !
 ! A25   A(12,16,18)           109.4712         calculate D2E/DX2 analytically  !
 ! A26   A(12,16,22)           109.4712         calculate D2E/DX2 analytically  !
 ! A27   A(17,16,18)           109.4713         calculate D2E/DX2 analytically  !
 ! A28   A(17,16,22)           109.4712         calculate D2E/DX2 analytically  !
 ! A29   A(18,16,22)           109.4712         calculate D2E/DX2 analytically  !
 ! A30   A(16,18,19)           109.4712         calculate D2E/DX2 analytically  !
 ! A31   A(16,18,20)           109.4712         calculate D2E/DX2 analytically  !
 ! A32   A(16,18,21)           109.4712         calculate D2E/DX2 analytically  !
 ! A33   A(19,18,20)           109.4713         calculate D2E/DX2 analytically  !
 ! A34   A(19,18,21)           109.4712         calculate D2E/DX2 analytically  !
 ! A35   A(20,18,21)           109.4712         calculate D2E/DX2 analytically  !
 ! A36   A(16,22,23)           109.4712         calculate D2E/DX2 analytically  !
 ! A37   A(16,22,24)           109.4712         calculate D2E/DX2 analytically  !
 ! A38   A(16,22,25)           109.4712         calculate D2E/DX2 analytically  !
 ! A39   A(23,22,24)           109.4713         calculate D2E/DX2 analytically  !
 ! A40   A(23,22,25)           109.4712         calculate D2E/DX2 analytically  !
 ! A41   A(24,22,25)           109.4712         calculate D2E/DX2 analytically  !
 ! D1    D(2,1,4,3)            179.8265         calculate D2E/DX2 analytically  !
 ! D2    D(2,1,4,5)             -0.1235         calculate D2E/DX2 analytically  !
 ! D3    D(7,3,4,1)            179.4582         calculate D2E/DX2 analytically  !
 ! D4    D(7,3,4,5)             -0.5954         calculate D2E/DX2 analytically  !
 ! D5    D(13,3,4,1)            -0.5931         calculate D2E/DX2 analytically  !
 ! D6    D(13,3,4,5)           179.3533         calculate D2E/DX2 analytically  !
 ! D7    D(4,3,7,8)             -0.1346         calculate D2E/DX2 analytically  !
 ! D8    D(4,3,7,9)            179.9086         calculate D2E/DX2 analytically  !
 ! D9    D(13,3,7,8)           179.9157         calculate D2E/DX2 analytically  !
 ! D10   D(13,3,7,9)            -0.0411         calculate D2E/DX2 analytically  !
 ! D11   D(4,3,13,12)         -179.9008         calculate D2E/DX2 analytically  !
 ! D12   D(4,3,13,14)            0.0799         calculate D2E/DX2 analytically  !
 ! D13   D(7,3,13,12)            0.0506         calculate D2E/DX2 analytically  !
 ! D14   D(7,3,13,14)         -179.9687         calculate D2E/DX2 analytically  !
 ! D15   D(1,4,5,6)            179.7539         calculate D2E/DX2 analytically  !
 ! D16   D(3,4,5,6)             -0.193          calculate D2E/DX2 analytically  !
 ! D17   D(3,7,9,10)          -179.9933         calculate D2E/DX2 analytically  !
 ! D18   D(3,7,9,11)            -0.0009         calculate D2E/DX2 analytically  !
 ! D19   D(8,7,9,10)             0.0487         calculate D2E/DX2 analytically  !
 ! D20   D(8,7,9,11)          -179.9589         calculate D2E/DX2 analytically  !
 ! D21   D(7,9,11,12)            0.0342         calculate D2E/DX2 analytically  !
 ! D22   D(7,9,11,15)          179.9981         calculate D2E/DX2 analytically  !
 ! D23   D(10,9,11,12)        -179.9734         calculate D2E/DX2 analytically  !
 ! D24   D(10,9,11,15)          -0.0095         calculate D2E/DX2 analytically  !
 ! D25   D(9,11,12,13)          -0.0248         calculate D2E/DX2 analytically  !
 ! D26   D(9,11,12,16)         179.9853         calculate D2E/DX2 analytically  !
 ! D27   D(15,11,12,13)       -179.9886         calculate D2E/DX2 analytically  !
 ! D28   D(15,11,12,16)          0.0215         calculate D2E/DX2 analytically  !
 ! D29   D(11,12,13,3)          -0.0182         calculate D2E/DX2 analytically  !
 ! D30   D(11,12,13,14)       -179.9987         calculate D2E/DX2 analytically  !
 ! D31   D(16,12,13,3)         179.9717         calculate D2E/DX2 analytically  !
 ! D32   D(16,12,13,14)         -0.0088         calculate D2E/DX2 analytically  !
 ! D33   D(11,12,16,17)       -119.9671         calculate D2E/DX2 analytically  !
 ! D34   D(11,12,16,18)        120.0329         calculate D2E/DX2 analytically  !
 ! D35   D(11,12,16,22)          0.0329         calculate D2E/DX2 analytically  !
 ! D36   D(13,12,16,17)         60.0428         calculate D2E/DX2 analytically  !
 ! D37   D(13,12,16,18)        -59.9572         calculate D2E/DX2 analytically  !
 ! D38   D(13,12,16,22)       -179.9572         calculate D2E/DX2 analytically  !
 ! D39   D(12,16,18,19)         80.8978         calculate D2E/DX2 analytically  !
 ! D40   D(12,16,18,20)       -159.1021         calculate D2E/DX2 analytically  !
 ! D41   D(12,16,18,21)        -39.1021         calculate D2E/DX2 analytically  !
 ! D42   D(17,16,18,19)        -39.1021         calculate D2E/DX2 analytically  !
 ! D43   D(17,16,18,20)         80.8979         calculate D2E/DX2 analytically  !
 ! D44   D(17,16,18,21)       -159.1021         calculate D2E/DX2 analytically  !
 ! D45   D(22,16,18,19)       -159.1022         calculate D2E/DX2 analytically  !
 ! D46   D(22,16,18,20)        -39.1021         calculate D2E/DX2 analytically  !
 ! D47   D(22,16,18,21)         80.8979         calculate D2E/DX2 analytically  !
 ! D48   D(12,16,22,23)       -179.5872         calculate D2E/DX2 analytically  !
 ! D49   D(12,16,22,24)        -59.5872         calculate D2E/DX2 analytically  !
 ! D50   D(12,16,22,25)         60.4128         calculate D2E/DX2 analytically  !
 ! D51   D(17,16,22,23)        -59.5873         calculate D2E/DX2 analytically  !
 ! D52   D(17,16,22,24)         60.4128         calculate D2E/DX2 analytically  !
 ! D53   D(17,16,22,25)       -179.5872         calculate D2E/DX2 analytically  !
 ! D54   D(18,16,22,23)         60.4128         calculate D2E/DX2 analytically  !
 ! D55   D(18,16,22,24)       -179.5872         calculate D2E/DX2 analytically  !
 ! D56   D(18,16,22,25)        -59.5872         calculate D2E/DX2 analytically  !
 --------------------------------------------------------------------------------
 Trust Radius=3.00D-01 FncErr=1.00D-07 GrdErr=1.00D-06 EigMax=2.50D+02 EigMin=1.00D-04
 Number of steps in this run=    132 maximum allowed number of steps=    150.
 GradGradGradGradGradGradGradGradGradGradGradGradGradGradGradGradGradGrad

                          Input orientation:                          
 ---------------------------------------------------------------------
 Center     Atomic      Atomic             Coordinates (Angstroms)
 Number     Number       Type             X           Y           Z
 ---------------------------------------------------------------------
      1          8           0        8.751942    7.294176    5.370518
      2          1           0        9.551899    6.995883    5.812474
      3          6           0        6.262910    6.975802    5.167096
      4          5           0        7.650578    6.607492    5.788487
      5          8           0        7.834447    5.633120    6.733711
      6          1           0        7.031036    5.182017    6.997362
      7          6           0        5.077431    6.325663    5.518849
      8          1           0        5.081545    5.522290    6.251623
      9          6           0        3.859373    6.679689    4.947890
     10          1           0        2.953735    6.157818    5.239751
     11          6           0        3.784768    7.700564    4.001404
     12          6           0        4.966902    8.356123    3.643044
     13          6           0        6.179937    8.000201    4.214443
     14          1           0        7.087427    8.518804    3.925356
     15          1           0        2.848576    7.973995    3.561313
     16          6           0        4.924990    9.488907    2.600622
     17          1           0        5.543016    9.229212    1.766654
     18          6           0        5.443006   10.791903    3.237378
     19          1           0        6.513000   10.788237    3.237016
     20          1           0        5.089017   11.629652    2.673669
     21          1           0        5.086922   10.863149    4.243871
     22          6           0        3.475565    9.692459    2.121733
     23          1           0        3.447511   10.474658    1.392159
     24          1           0        3.113196    8.784961    1.685801
     25          1           0        2.858922    9.959187    2.954503
 ---------------------------------------------------------------------
                    Distance matrix (angstroms):
                    1          2          3          4          5
     1  O    0.000000
     2  H    0.961371   0.000000
     3  C    2.517543   3.351770   0.000000
     4  B    1.363538   1.940733   1.564417   0.000000
     5  O    2.336493   2.378117   2.593609   1.369911   0.000000
     6  H    3.173225   3.323976   2.675361   1.969058   0.958371
     7  C    3.802900   4.533903   1.397058   2.602541   3.091382
     8  H    4.169861   4.727409   2.164375   2.827028   2.796992
     9  C    4.949085   5.766484   2.431609   3.883948   4.481705
    10  H    5.909959   6.675787   3.409548   4.750121   5.131138
    11  C    5.168408   6.085750   2.832897   4.396926   5.304689
    12  C    4.293999   5.251559   2.430567   3.855224   5.018942
    13  C    2.906921   3.864257   1.401366   2.565158   3.832387
    14  H    2.521670   3.457474   2.145367   2.727913   4.095372
    15  H    6.211691   7.138555   3.902897   5.466887   6.356313
    16  C    5.209101   6.159501   3.833082   5.088602   6.357237
    17  H    5.198981   6.117807   4.142356   5.243126   6.546311
    18  C    5.266255   6.158237   4.354157   5.375019   6.675056
    19  H    4.666171   5.499985   4.280469   5.028192   6.367757
    20  H    6.283818   7.158298   5.408653   6.440946   7.744658
    21  H    5.238251   6.111651   4.164944   5.202767   6.411037
    22  C    6.644285   7.603613   4.942039   6.355536   7.533155
    23  H    7.353897   8.300881   5.866738   7.207527   8.439069
    24  H    6.898915   7.854115   5.031219   6.493169   7.596427
    25  H    6.904136   7.857806   5.038183   6.498099   7.599547
                    6          7          8          9         10
     6  H    0.000000
     7  C    2.703794   0.000000
     8  H    2.114811   1.087374   0.000000
     9  C    4.062364   1.391041   2.129084   0.000000
    10  H    4.545962   2.148523   2.440360   1.085225   0.000000
    11  C    5.084988   2.421563   3.389689   1.394126   2.145736
    12  C    5.058364   2.766519   3.853367   2.395762   3.381547
    13  C    4.051070   2.391876   3.390665   2.768883   3.854090
    14  H    4.535918   3.374785   4.291174   3.853343   4.938552
    15  H    6.090529   3.393632   4.270220   2.149310   2.475219
    16  C    6.505079   4.306437   5.393363   3.812730   4.684763
    17  H    6.778960   4.767215   5.836881   4.410781   5.310390
    18  C    6.937589   5.028524   6.081542   4.726949   5.628562
    19  H    6.770396   5.213653   6.234349   5.181601   6.174147
    20  H    8.002360   6.018927   7.078254   5.584464   6.409772
    21  H    6.605797   4.713220   5.705775   4.416317   5.261407
    22  C    7.533739   5.043975   6.084856   4.148645   4.742155
    23  H    8.501294   6.074567   7.128142   5.216766   5.803696
    24  H    7.519532   4.959700   5.946945   3.953502   4.422428
    25  H    7.521476   4.969924   5.957945   3.966056   4.436412
                   11         12         13         14         15
    11  C    0.000000
    12  C    1.398435   0.000000
    13  C    2.423222   1.387311   0.000000
    14  H    3.403360   2.145412   1.084462   0.000000
    15  H    1.070000   2.154068   3.394883   4.289196   0.000000
    16  C    2.541745   1.540000   2.528944   2.715171   2.743972
    17  H    3.228360   2.148263   2.812082   2.747704   3.472230
    18  C    3.590246   2.514809   3.048167   2.888670   3.844035
    19  H    4.190616   2.910404   2.973119   2.440103   4.631752
    20  H    4.347606   3.416225   4.091089   3.903555   4.378506
    21  H    3.428752   2.580810   3.064640   3.098294   3.717968
    22  C    2.756160   2.514810   3.815338   4.204292   2.327794
    23  H    3.823284   3.444303   4.642669   4.846797   3.364115
    24  H    2.643661   2.729639   4.051516   4.569569   2.060397
    25  H    2.656044   2.736327   4.056380   4.571380   2.075888
                   16         17         18         19         20
    16  C    0.000000
    17  H    1.070000   0.000000
    18  C    1.540000   2.148263   0.000000
    19  H    2.148263   2.352316   1.070000   0.000000
    20  H    2.148263   2.605936   1.070000   1.747303   0.000000
    21  H    2.148263   3.002395   1.070000   1.747303   1.747303
    22  C    1.540000   2.148263   2.514809   3.416225   2.580809
    23  H    2.148263   2.466278   2.736326   3.591525   2.381349
    24  H    2.148263   2.471421   3.444303   4.240053   3.601669
    25  H    2.148263   3.024602   2.729639   3.757582   2.800473
                   21         22         23         24         25
    21  H    0.000000
    22  C    2.910405   0.000000
    23  H    3.312228   1.070000   0.000000
    24  H    3.841638   1.070000   1.747303   0.000000
    25  H    2.728297   1.070000   1.747303   1.747303   0.000000
 Symmetry turned off by external request.
 Stoichiometry    C9H13BO2
 Framework group  C1[X(C9H13BO2)]
 Deg. of freedom    69
 Full point group                 C1      NOp   1
 Rotational constants (GHZ):           1.7438811           0.5400694           0.4263323
 Standard basis: 6-311+G(d,p) (5D, 7F)
   342 basis functions,   536 primitive gaussians,   354 cartesian basis functions
    44 alpha electrons       44 beta electrons
       nuclear repulsion energy       660.7450290911 Hartrees.
 NAtoms=   25 NActive=   25 NUniq=   25 SFac= 1.00D+00 NAtFMM=   60 NAOKFM=F Big=F
 Integral buffers will be    131072 words long.
 Raffenetti 2 integral format.
 Two-electron integral symmetry is turned off.
 One-electron integrals computed using PRISM.
 NBasis=   342 RedAO= T EigKep=  2.22D-06  NBF=   342
 NBsUse=   341 1.00D-06 EigRej=  9.51D-07 NBFU=   341
 ExpMin= 3.15D-02 ExpMax= 8.59D+03 ExpMxC= 1.30D+03 IAcc=3 IRadAn=         5 AccDes= 0.00D+00
 Harris functional with IExCor= 1009 and IRadAn=       5 diagonalized for initial guess.
 HarFok:  IExCor= 1009 AccDes= 0.00D+00 IRadAn=         5 IDoV= 1 UseB2=F ITyADJ=14
 ICtDFT=  3500011 ScaDFX=  1.000000  1.000000  1.000000  1.000000
 FoFCou: FMM=F IPFlag=           0 FMFlag=      100000 FMFlg1=           0
         NFxFlg=           0 DoJE=T BraDBF=F KetDBF=T FulRan=T
         wScrn=  0.000000 ICntrl=       500 IOpCl=  0 I1Cent=   200000004 NGrid=           0
         NMat0=    1 NMatS0=      1 NMatT0=    0 NMatD0=    1 NMtDS0=    0 NMtDT0=    0
 Symmetry not used in FoFCou.
 Requested convergence on RMS density matrix=1.00D-08 within 128 cycles.
 Requested convergence on MAX density matrix=1.00D-06.
 Requested convergence on             energy=1.00D-06.
 Level shift goal  0.100 maximum shift  0.100.
 No special actions if energy rises.
 Dynamic level shift is on during FON iterations.
 SCF Done:  E(RM062X) =  -526.130680258     A.U. after   14 cycles
            NFock= 14  Conv=0.46D-08     -V/T= 2.0035
 DoSCS=F DFT=T ScalE2(SS,OS)=  1.000000  1.000000
 Range of M.O.s used for correlation:     1   341
 NBasis=   342 NAE=    44 NBE=    44 NFC=     0 NFV=     0
 NROrb=    341 NOA=    44 NOB=    44 NVA=   297 NVB=   297

 **** Warning!!: The largest alpha MO coefficient is  0.14036598D+03

 Symmetrizing basis deriv contribution to polar:
 IMax=3 JMax=2 DiffMx= 0.00D+00
 G2DrvN: will do    26 centers at a time, making    1 passes.
 Calling FoFCou, ICntrl=  3107 FMM=F I1Cent=   0 AccDes= 0.00D+00.
 End of G2Drv F.D. properties file   721 does not exist.
 End of G2Drv F.D. properties file   722 does not exist.
 End of G2Drv F.D. properties file   788 does not exist.
          IDoAtm=1111111111111111111111111
          Differentiating once with respect to nuclear coordinates.
 Keep R1 ints in memory in canonical form, NReq=1757083878.
          There are    78 degrees of freedom in the 1st order CPHF.  IDoFFX=6 NUNeed=     0.
     72 vectors produced by pass  0 Test12= 1.68D-14 1.28D-09 XBig12= 1.74D-01 1.14D-01.
 AX will form    72 AO Fock derivatives at one time.
     72 vectors produced by pass  1 Test12= 1.68D-14 1.28D-09 XBig12= 9.52D-03 3.20D-02.
     72 vectors produced by pass  2 Test12= 1.68D-14 1.28D-09 XBig12= 3.07D-04 2.21D-03.
     72 vectors produced by pass  3 Test12= 1.68D-14 1.28D-09 XBig12= 2.18D-06 1.65D-04.
     72 vectors produced by pass  4 Test12= 1.68D-14 1.28D-09 XBig12= 1.28D-08 1.22D-05.
     72 vectors produced by pass  5 Test12= 1.68D-14 1.28D-09 XBig12= 5.28D-11 5.63D-07.
     58 vectors produced by pass  6 Test12= 1.68D-14 1.28D-09 XBig12= 2.21D-13 4.29D-08.
      7 vectors produced by pass  7 Test12= 1.68D-14 1.28D-09 XBig12= 8.73D-16 2.82D-09.
 InvSVY:  IOpt=1 It=  1 EMax= 2.22D-16
 Solved reduced A of dimension   497 with    78 vectors.
 End of Minotr F.D. properties file   721 does not exist.
 End of Minotr F.D. properties file   722 does not exist.
 End of Minotr F.D. properties file   788 does not exist.

 **********************************************************************

            Population analysis using the SCF Density.

 **********************************************************************

 Alpha  occ. eigenvalues --  -19.63780 -19.63017 -10.54778 -10.54749 -10.54497
 Alpha  occ. eigenvalues --  -10.54282 -10.54264 -10.53912 -10.52872 -10.51873
 Alpha  occ. eigenvalues --  -10.51675  -7.08294  -1.16815  -1.13099  -0.96683
 Alpha  occ. eigenvalues --   -0.90476  -0.84534  -0.82687  -0.78379  -0.70952
 Alpha  occ. eigenvalues --   -0.68834  -0.66393  -0.64358  -0.61672  -0.59111
 Alpha  occ. eigenvalues --   -0.54171  -0.53317  -0.51335  -0.51047  -0.49508
 Alpha  occ. eigenvalues --   -0.47923  -0.46655  -0.46238  -0.45631  -0.44599
 Alpha  occ. eigenvalues --   -0.43589  -0.43134  -0.40730  -0.40450  -0.40230
 Alpha  occ. eigenvalues --   -0.37826  -0.36962  -0.30926  -0.29933
 Alpha virt. eigenvalues --   -0.00331  -0.00217   0.01269   0.01542   0.02041
 Alpha virt. eigenvalues --    0.03012   0.03139   0.03383   0.04484   0.04858
 Alpha virt. eigenvalues --    0.05995   0.06084   0.06965   0.07542   0.08472
 Alpha virt. eigenvalues --    0.09002   0.09823   0.09997   0.10659   0.11511
 Alpha virt. eigenvalues --    0.12236   0.12638   0.12927   0.13227   0.14295
 Alpha virt. eigenvalues --    0.15025   0.15611   0.15884   0.16157   0.16617
 Alpha virt. eigenvalues --    0.17678   0.18122   0.18845   0.19150   0.19617
 Alpha virt. eigenvalues --    0.20347   0.20739   0.21187   0.21477   0.22532
 Alpha virt. eigenvalues --    0.22970   0.23127   0.23805   0.23848   0.24102
 Alpha virt. eigenvalues --    0.24304   0.24610   0.25287   0.25680   0.26113
 Alpha virt. eigenvalues --    0.26540   0.26625   0.27512   0.28446   0.28776
 Alpha virt. eigenvalues --    0.29456   0.30204   0.30551   0.31132   0.31462
 Alpha virt. eigenvalues --    0.32433   0.33348   0.34320   0.34988   0.36454
 Alpha virt. eigenvalues --    0.37589   0.38375   0.40332   0.41172   0.41957
 Alpha virt. eigenvalues --    0.42211   0.44789   0.45859   0.46747   0.49220
 Alpha virt. eigenvalues --    0.50023   0.50184   0.51676   0.53114   0.53720
 Alpha virt. eigenvalues --    0.53916   0.55568   0.56042   0.57587   0.58196
 Alpha virt. eigenvalues --    0.58834   0.60444   0.61195   0.62435   0.63452
 Alpha virt. eigenvalues --    0.64161   0.64971   0.66686   0.67349   0.68045
 Alpha virt. eigenvalues --    0.69275   0.69843   0.71175   0.71751   0.71993
 Alpha virt. eigenvalues --    0.72980   0.73987   0.74184   0.74699   0.76059
 Alpha virt. eigenvalues --    0.76346   0.76778   0.77402   0.79736   0.81915
 Alpha virt. eigenvalues --    0.82449   0.84151   0.84923   0.86551   0.86856
 Alpha virt. eigenvalues --    0.89432   0.90116   0.92179   0.92867   0.94299
 Alpha virt. eigenvalues --    0.95559   0.96056   0.99155   1.00301   1.01515
 Alpha virt. eigenvalues --    1.03064   1.04131   1.05597   1.06589   1.09565
 Alpha virt. eigenvalues --    1.10986   1.11529   1.12819   1.13086   1.14091
 Alpha virt. eigenvalues --    1.15845   1.18237   1.20060   1.20163   1.21349
 Alpha virt. eigenvalues --    1.25840   1.30221   1.31573   1.34248   1.34354
 Alpha virt. eigenvalues --    1.35384   1.38239   1.39732   1.45582   1.45931
 Alpha virt. eigenvalues --    1.48521   1.50070   1.50584   1.51181   1.51792
 Alpha virt. eigenvalues --    1.53035   1.55848   1.57240   1.58498   1.58723
 Alpha virt. eigenvalues --    1.59863   1.61356   1.62288   1.62697   1.62937
 Alpha virt. eigenvalues --    1.65242   1.65400   1.68386   1.69524   1.69823
 Alpha virt. eigenvalues --    1.71602   1.73425   1.75014   1.76267   1.77291
 Alpha virt. eigenvalues --    1.79907   1.81099   1.81974   1.82724   1.84651
 Alpha virt. eigenvalues --    1.86846   1.87869   1.89553   1.91443   1.94777
 Alpha virt. eigenvalues --    1.94919   1.96452   1.97215   1.99190   1.99327
 Alpha virt. eigenvalues --    2.01102   2.04459   2.05999   2.09387   2.10408
 Alpha virt. eigenvalues --    2.12037   2.12809   2.14053   2.16532   2.17416
 Alpha virt. eigenvalues --    2.19277   2.20855   2.21703   2.25644   2.29936
 Alpha virt. eigenvalues --    2.33916   2.36118   2.38984   2.43434   2.44408
 Alpha virt. eigenvalues --    2.45142   2.48209   2.52697   2.55541   2.56489
 Alpha virt. eigenvalues --    2.57599   2.58490   2.59509   2.60183   2.60976
 Alpha virt. eigenvalues --    2.62499   2.64263   2.64739   2.65584   2.67152
 Alpha virt. eigenvalues --    2.69017   2.71215   2.72036   2.73871   2.75253
 Alpha virt. eigenvalues --    2.76617   2.77974   2.79413   2.80408   2.81478
 Alpha virt. eigenvalues --    2.84973   2.86827   2.87978   2.88494   2.90069
 Alpha virt. eigenvalues --    2.90939   2.93618   2.97961   3.01509   3.01981
 Alpha virt. eigenvalues --    3.06328   3.07541   3.11500   3.17211   3.19605
 Alpha virt. eigenvalues --    3.23760   3.24306   3.26962   3.31032   3.33222
 Alpha virt. eigenvalues --    3.41367   3.42397   3.46223   3.49503   3.55216
 Alpha virt. eigenvalues --    3.58447   3.61591   3.65321   3.67094   3.74932
 Alpha virt. eigenvalues --    3.87303   3.89175   3.92042   3.92967   3.94049
 Alpha virt. eigenvalues --    3.96482   4.07262   4.10145   4.15870   4.20831
 Alpha virt. eigenvalues --    4.24927   4.34619   4.44366   4.87994   5.08673
 Alpha virt. eigenvalues --    5.09525   5.41083   5.50215   5.69514   5.76793
 Alpha virt. eigenvalues --   14.79863  23.70496  23.94950  24.03728  24.06377
 Alpha virt. eigenvalues --   24.11279  24.12010  24.16083  24.19152  24.27060
 Alpha virt. eigenvalues --   50.01305  50.05722
          Condensed to atoms (all electrons):
               1          2          3          4          5          6
     1  O    7.774848   0.263071   0.046837   0.441788  -0.119404   0.018598
     2  H    0.263071   0.460607   0.078165  -0.004968  -0.033986   0.003372
     3  C    0.046837   0.078165  13.208928   0.286332  -0.215739   0.018541
     4  B    0.441788  -0.004968   0.286332   3.349970   0.375627   0.010114
     5  O   -0.119404  -0.033986  -0.215739   0.375627   7.929134   0.267633
     6  H    0.018598   0.003372   0.018541   0.010114   0.267633   0.428292
     7  C    0.058861  -0.007883  -1.851057   0.126173  -0.007608  -0.046123
     8  H    0.002316  -0.000021   0.054388   0.013566  -0.008418   0.012719
     9  C    0.062722   0.005080   0.903094   0.071874  -0.010430   0.069513
    10  H   -0.000043  -0.000001  -0.032386  -0.000395   0.000353  -0.000076
    11  C   -0.017431   0.000726  -1.426577   0.057253   0.015351  -0.007304
    12  C   -0.040826  -0.009170  -2.259932  -0.048372   0.008656  -0.000549
    13  C   -0.116509  -0.058967  -0.866520  -0.114047   0.140510  -0.026085
    14  H    0.006898  -0.000627   0.073133  -0.005966   0.001880  -0.000107
    15  H   -0.000010   0.000000  -0.001131  -0.000575   0.000007  -0.000003
    16  C   -0.002097  -0.000811  -1.053399  -0.039071  -0.003721   0.000381
    17  H   -0.000082  -0.000003  -0.014002   0.000585   0.000009   0.000000
    18  C   -0.000821  -0.000051  -0.044574  -0.002920   0.000261   0.000008
    19  H    0.000041   0.000000   0.032916   0.000314   0.000008   0.000000
    20  H    0.000008   0.000000   0.008882  -0.000030   0.000000   0.000000
    21  H   -0.000072  -0.000002  -0.063146   0.000363   0.000002   0.000000
    22  C   -0.000684  -0.000059  -0.133148  -0.000366   0.000192  -0.000054
    23  H    0.000000   0.000000  -0.000114  -0.000013   0.000000   0.000000
    24  H   -0.000002   0.000000  -0.007479  -0.000220   0.000000   0.000000
    25  H   -0.000002   0.000000   0.010499   0.000180   0.000001   0.000000
               7          8          9         10         11         12
     1  O    0.058861   0.002316   0.062722  -0.000043  -0.017431  -0.040826
     2  H   -0.007883  -0.000021   0.005080  -0.000001   0.000726  -0.009170
     3  C   -1.851057   0.054388   0.903094  -0.032386  -1.426577  -2.259932
     4  B    0.126173   0.013566   0.071874  -0.000395   0.057253  -0.048372
     5  O   -0.007608  -0.008418  -0.010430   0.000353   0.015351   0.008656
     6  H   -0.046123   0.012719   0.069513  -0.000076  -0.007304  -0.000549
     7  C   11.909654   0.281470  -2.155438   0.069840   0.590679  -1.100022
     8  H    0.281470   0.557061   0.067231  -0.007691  -0.073913   0.013137
     9  C   -2.155438   0.067231  10.273947   0.266783  -1.666339  -0.533506
    10  H    0.069840  -0.007691   0.266783   0.514994   0.043248   0.003014
    11  C    0.590679  -0.073913  -1.666339   0.043248  11.243867  -3.365059
    12  C   -1.100022   0.013137  -0.533506   0.003014  -3.365059  12.956866
    13  C   -1.970666  -0.032912  -1.255208  -0.010996  -0.342407   2.204436
    14  H    0.004221  -0.000202  -0.009119   0.000069  -0.024653  -0.102966
    15  H   -0.021977  -0.000382   0.006317  -0.006622   0.230067   0.143213
    16  C    0.175967   0.006419   0.641724   0.006848   1.144755  -3.542273
    17  H   -0.005794  -0.000001  -0.005177   0.000015  -0.038114   0.097872
    18  C    0.061071  -0.000452  -0.018645   0.000213   0.240929  -0.326443
    19  H   -0.001744   0.000000  -0.000793   0.000000  -0.032082  -0.064261
    20  H    0.002402   0.000000  -0.001496  -0.000001   0.009396  -0.001817
    21  H   -0.004552  -0.000001   0.005780   0.000009   0.039485   0.025668
    22  C    0.007160  -0.000756  -0.318411   0.000129  -0.267637   1.072831
    23  H    0.000274   0.000000   0.019676  -0.000004   0.041638  -0.050711
    24  H    0.006853   0.000000   0.002881   0.000056   0.062727  -0.109399
    25  H   -0.010088   0.000002  -0.026737   0.000046  -0.057336   0.034335
              13         14         15         16         17         18
     1  O   -0.116509   0.006898  -0.000010  -0.002097  -0.000082  -0.000821
     2  H   -0.058967  -0.000627   0.000000  -0.000811  -0.000003  -0.000051
     3  C   -0.866520   0.073133  -0.001131  -1.053399  -0.014002  -0.044574
     4  B   -0.114047  -0.005966  -0.000575  -0.039071   0.000585  -0.002920
     5  O    0.140510   0.001880   0.000007  -0.003721   0.000009   0.000261
     6  H   -0.026085  -0.000107  -0.000003   0.000381   0.000000   0.000008
     7  C   -1.970666   0.004221  -0.021977   0.175967  -0.005794   0.061071
     8  H   -0.032912  -0.000202  -0.000382   0.006419  -0.000001  -0.000452
     9  C   -1.255208  -0.009119   0.006317   0.641724  -0.005177  -0.018645
    10  H   -0.010996   0.000069  -0.006622   0.006848   0.000015   0.000213
    11  C   -0.342407  -0.024653   0.230067   1.144755  -0.038114   0.240929
    12  C    2.204436  -0.102966   0.143213  -3.542273   0.097872  -0.326443
    13  C    9.538817   0.386768   0.005166  -1.466964  -0.022127   0.023525
    14  H    0.386768   0.478164  -0.000193   0.021928  -0.000081  -0.004526
    15  H    0.005166  -0.000193   0.512926  -0.030323   0.000355   0.002463
    16  C   -1.466964   0.021928  -0.030323  10.531031   0.414193   0.225644
    17  H   -0.022127  -0.000081   0.000355   0.414193   0.483336  -0.083160
    18  C    0.023525  -0.004526   0.002463   0.225644  -0.083160   5.578918
    19  H    0.025744   0.000420  -0.000003   0.004910  -0.008289   0.404356
    20  H    0.038700  -0.000089  -0.000011  -0.113418  -0.000676   0.453505
    21  H   -0.069882   0.000312   0.000162   0.075077   0.004147   0.384064
    22  C    0.128222  -0.001812  -0.000439  -0.873697  -0.014002  -0.222233
    23  H   -0.008347  -0.000007   0.001484  -0.001585  -0.005518   0.001646
    24  H   -0.010466   0.000040  -0.002802   0.009571  -0.008355   0.027798
    25  H    0.012002  -0.000012  -0.001880   0.060343   0.006346  -0.032011
              19         20         21         22         23         24
     1  O    0.000041   0.000008  -0.000072  -0.000684   0.000000  -0.000002
     2  H    0.000000   0.000000  -0.000002  -0.000059   0.000000   0.000000
     3  C    0.032916   0.008882  -0.063146  -0.133148  -0.000114  -0.007479
     4  B    0.000314  -0.000030   0.000363  -0.000366  -0.000013  -0.000220
     5  O    0.000008   0.000000   0.000002   0.000192   0.000000   0.000000
     6  H    0.000000   0.000000   0.000000  -0.000054   0.000000   0.000000
     7  C   -0.001744   0.002402  -0.004552   0.007160   0.000274   0.006853
     8  H    0.000000   0.000000  -0.000001  -0.000756   0.000000   0.000000
     9  C   -0.000793  -0.001496   0.005780  -0.318411   0.019676   0.002881
    10  H    0.000000  -0.000001   0.000009   0.000129  -0.000004   0.000056
    11  C   -0.032082   0.009396   0.039485  -0.267637   0.041638   0.062727
    12  C   -0.064261  -0.001817   0.025668   1.072831  -0.050711  -0.109399
    13  C    0.025744   0.038700  -0.069882   0.128222  -0.008347  -0.010466
    14  H    0.000420  -0.000089   0.000312  -0.001812  -0.000007   0.000040
    15  H   -0.000003  -0.000011   0.000162  -0.000439   0.001484  -0.002802
    16  C    0.004910  -0.113418   0.075077  -0.873697  -0.001585   0.009571
    17  H   -0.008289  -0.000676   0.004147  -0.014002  -0.005518  -0.008355
    18  C    0.404356   0.453505   0.384064  -0.222233   0.001646   0.027798
    19  H    0.506523  -0.023817  -0.025676   0.014143   0.000109  -0.000478
    20  H   -0.023817   0.514517  -0.027524  -0.021141   0.003036   0.000858
    21  H   -0.025676  -0.027524   0.477623  -0.007571  -0.000384  -0.000517
    22  C    0.014143  -0.021141  -0.007571   5.977186   0.379774   0.391537
    23  H    0.000109   0.003036  -0.000384   0.379774   0.492256  -0.019200
    24  H   -0.000478   0.000858  -0.000517   0.391537  -0.019200   0.527099
    25  H   -0.000044  -0.001505   0.001666   0.382270  -0.026181  -0.035569
              25
     1  O   -0.000002
     2  H    0.000000
     3  C    0.010499
     4  B    0.000180
     5  O    0.000001
     6  H    0.000000
     7  C   -0.010088
     8  H    0.000002
     9  C   -0.026737
    10  H    0.000046
    11  C   -0.057336
    12  C    0.034335
    13  C    0.012002
    14  H   -0.000012
    15  H   -0.001880
    16  C    0.060343
    17  H    0.006346
    18  C   -0.032011
    19  H   -0.000044
    20  H   -0.001505
    21  H    0.001666
    22  C    0.382270
    23  H   -0.026181
    24  H   -0.035569
    25  H    0.514498
 Mulliken charges:
               1
     1  O   -0.378006
     2  H    0.305527
     3  C   -0.752513
     4  B    0.482802
     5  O   -0.340319
     6  H    0.251133
     7  C   -0.111673
     8  H    0.116438
     9  C   -0.395324
    10  H    0.152598
    11  C   -0.401269
    12  C    0.995275
    13  C   -0.131786
    14  H    0.176528
    15  H    0.164192
    16  C   -0.191432
    17  H    0.198524
    18  C   -0.668566
    19  H    0.167702
    20  H    0.160221
    21  H    0.184969
    22  C   -0.491434
    23  H    0.172170
    24  H    0.165066
    25  H    0.169176
 Sum of Mulliken charges =   0.00000
 Mulliken charges with hydrogens summed into heavy atoms:
               1
     1  O   -0.072480
     3  C   -0.752513
     4  B    0.482802
     5  O   -0.089186
     7  C    0.004765
     9  C   -0.242725
    11  C   -0.237076
    12  C    0.995275
    13  C    0.044742
    16  C    0.007093
    18  C   -0.155674
    22  C    0.014977
 APT charges:
               1
     1  O   -0.622342
     2  H    2.024167
     3  C   -0.390043
     4  B   -0.432450
     5  O    1.281416
     6  H   -0.929510
     7  C   -0.544425
     8  H    0.078076
     9  C    0.279388
    10  H   -0.529686
    11  C   -0.115319
    12  C   -0.104636
    13  C   -1.489050
    14  H    1.594643
    15  H   -0.153501
    16  C    0.249793
    17  H    0.065250
    18  C   -3.180424
    19  H    0.997143
    20  H    0.965074
    21  H    0.559562
    22  C   -0.160234
    23  H    1.138480
    24  H   -1.083984
    25  H    0.502612
 Sum of APT charges =   0.00000
 APT charges with hydrogens summed into heavy atoms:
               1
     1  O    1.401824
     3  C   -0.390043
     4  B   -0.432450
     5  O    0.351906
     7  C   -0.466349
     9  C   -0.250298
    11  C   -0.268819
    12  C   -0.104636
    13  C    0.105593
    16  C    0.315043
    18  C   -0.658645
    22  C    0.396873
 Electronic spatial extent (au):  <R**2>=          38365.3693
 Charge=              0.0000 electrons
 Dipole moment (field-independent basis, Debye):
    X=             -1.0166    Y=             -0.3537    Z=              0.1296  Tot=              1.0841
 Quadrupole moment (field-independent basis, Debye-Ang):
   XX=            -80.0624   YY=            -75.6809   ZZ=            -69.6366
   XY=             -8.7547   XZ=             -3.3753   YZ=             -6.0701
 Traceless Quadrupole moment (field-independent basis, Debye-Ang):
   XX=             -4.9357   YY=             -0.5543   ZZ=              5.4900
   XY=             -8.7547   XZ=             -3.3753   YZ=             -6.0701
 Octapole moment (field-independent basis, Debye-Ang**2):
  XXX=          -1235.1173  YYY=          -1734.9797  ZZZ=           -921.0406  XYY=           -475.2418
  XXY=           -632.3582  XXZ=           -337.5656  XZZ=           -409.5313  YZZ=           -609.1089
  YYZ=           -402.2066  XYZ=            -54.8783
 Hexadecapole moment (field-independent basis, Debye-Ang**3):
 XXXX=         -14447.8915 YYYY=         -28353.2054 ZZZZ=          -9005.2093 XXXY=          -9523.6770
 XXXZ=          -5550.6289 YYYX=          -9922.7441 YYYZ=          -7979.0351 ZZZX=          -5612.2595
 ZZZY=          -7266.2581 XXYY=          -7719.5856 XXZZ=          -4062.3410 YYZZ=          -6865.4024
 XXYZ=          -2619.0969 YYXZ=          -2491.4390 ZZXY=          -3394.1269
 N-N= 6.607450290911D+02 E-N=-2.548125531408D+03  KE= 5.243061043933D+02
  Exact polarizability:       0.000       0.000       0.000       0.000       0.000       0.000
 Approx polarizability:     166.849       5.032     140.393       8.307     -30.587     133.601
 Calling FoFJK, ICntrl=    100127 FMM=F ISym2X=0 I1Cent= 0 IOpClX= 0 NMat=1 NMatS=1 NMatT=0.
 -------------------------------------------------------------------
 Center     Atomic                   Forces (Hartrees/Bohr)
 Number     Number              X              Y              Z
 -------------------------------------------------------------------
      1        8          -0.000232226   -0.000018928   -0.000047802
      2        1           0.000018425   -0.000006836    0.000026961
      3        6          -0.000477632    0.003013610   -0.002570197
      4        5           0.001010620   -0.000520655    0.000579751
      5        8          -0.000043000    0.000366137   -0.000328624
      6        1          -0.000108093   -0.000031022   -0.000001726
      7        6          -0.002542309   -0.001512745    0.000897800
      8        1          -0.000060713    0.000078742   -0.000170769
      9        6          -0.004251092   -0.000600983    0.000431826
     10        1           0.000863440   -0.000298156    0.000408621
     11        6           0.020925538   -0.009429976    0.013157589
     12        6          -0.005410284    0.012595069   -0.020156645
     13        6           0.000617280   -0.006756370    0.006196691
     14        1           0.000496095    0.000240773   -0.000603280
     15        1          -0.006326086   -0.001456155   -0.000274673
     16        6          -0.022837446    0.001472683    0.024990354
     17        1           0.009080774   -0.004954199   -0.012336071
     18        6          -0.003054316   -0.017823186   -0.010687376
     19        1           0.014772855    0.003499433    0.003287435
     20        1          -0.002249617    0.013635332   -0.007287151
     21        1          -0.004698334    0.003438316    0.014009771
     22        6           0.025603257   -0.001469654   -0.000846038
     23        1          -0.002346202    0.010521299   -0.010251401
     24        1          -0.008400856   -0.009935239   -0.008321043
     25        1          -0.010350077    0.005952709    0.009896000
 -------------------------------------------------------------------
 Cartesian Forces:  Max     0.025603257 RMS     0.008478521
 FormGI is forming the generalized inverse of G from B-inverse, IUseBI=4.

 GradGradGradGradGradGradGradGradGradGradGradGradGradGradGradGradGradGrad
 Berny optimization.
 Internal  Forces:  Max     0.024123475 RMS     0.005453275
 Search for a local minimum.
 Step number   1 out of a maximum of  132
 All quantities printed in internal units (Hartrees-Bohrs-Radians)
 Mixed Optimization -- RFO/linear search
 Second derivative matrix not updated -- analytic derivatives used.
 ITU=  0
     Eigenvalues ---   -0.00094   0.00048   0.00149   0.00914   0.01049
     Eigenvalues ---    0.01231   0.01482   0.01566   0.01724   0.02130
     Eigenvalues ---    0.02267   0.02440   0.02620   0.02727   0.02856
     Eigenvalues ---    0.03952   0.04085   0.04554   0.04667   0.04701
     Eigenvalues ---    0.04857   0.04982   0.05371   0.10460   0.11190
     Eigenvalues ---    0.11326   0.11831   0.12171   0.12494   0.12550
     Eigenvalues ---    0.12865   0.13272   0.13976   0.14921   0.15683
     Eigenvalues ---    0.15930   0.17747   0.18297   0.18805   0.18990
     Eigenvalues ---    0.19251   0.19507   0.20130   0.24674   0.28062
     Eigenvalues ---    0.28831   0.29461   0.31427   0.35361   0.35979
     Eigenvalues ---    0.36379   0.37148   0.38642   0.38732   0.38828
     Eigenvalues ---    0.38916   0.38963   0.38974   0.39382   0.39438
     Eigenvalues ---    0.40728   0.42363   0.46808   0.47570   0.48796
     Eigenvalues ---    0.51446   0.55236   0.56295   0.56554
 RFO step:  Lambda=-1.18125622D-02 EMin=-9.44894992D-04
 Linear search not attempted -- first point.
 Iteration  1 RMS(Cart)=  0.16252051 RMS(Int)=  0.03571975
 Iteration  2 RMS(Cart)=  0.11190585 RMS(Int)=  0.00327167
 Iteration  3 RMS(Cart)=  0.00532974 RMS(Int)=  0.00036091
 Iteration  4 RMS(Cart)=  0.00000660 RMS(Int)=  0.00036088
 Iteration  5 RMS(Cart)=  0.00000001 RMS(Int)=  0.00036088
 Variable       Old X    -DE/DX   Delta X   Delta X   Delta X     New X
                                 (Linear)    (Quad)   (Total)
    R1        1.81673   0.00003   0.00000   0.00010   0.00010   1.81683
    R2        2.57671  -0.00018   0.00000  -0.00024  -0.00024   2.57647
    R3        2.95632   0.00071   0.00000   0.00337   0.00337   2.95969
    R4        2.64006  -0.00029   0.00000   0.00668   0.00656   2.64662
    R5        2.64820  -0.00129   0.00000  -0.00933  -0.00938   2.63881
    R6        2.58876  -0.00049   0.00000  -0.00109  -0.00109   2.58766
    R7        1.81106   0.00010   0.00000   0.00014   0.00014   1.81120
    R8        2.05484  -0.00017   0.00000  -0.00084  -0.00084   2.05400
    R9        2.62869  -0.00415   0.00000  -0.00722  -0.00728   2.62140
   R10        2.05078  -0.00047   0.00000  -0.00243  -0.00243   2.04835
   R11        2.63452   0.00013   0.00000  -0.00043  -0.00037   2.63415
   R12        2.64266   0.00290   0.00000  -0.00833  -0.00821   2.63445
   R13        2.02201   0.00528   0.00000   0.02416   0.02416   2.04616
   R14        2.62164   0.00594   0.00000   0.01651   0.01657   2.63821
   R15        2.91018   0.00165   0.00000  -0.04390  -0.04390   2.86628
   R16        2.04934   0.00069   0.00000   0.00464   0.00464   2.05398
   R17        2.02201   0.01606   0.00000   0.04318   0.04318   2.06519
   R18        2.91018   0.00365   0.00000  -0.00361  -0.00361   2.90657
   R19        2.91018  -0.00061   0.00000  -0.02419  -0.02419   2.88599
   R20        2.02201   0.01476   0.00000   0.03730   0.03730   2.05931
   R21        2.02201   0.01526   0.00000   0.03984   0.03984   2.06185
   R22        2.02201   0.01497   0.00000   0.03930   0.03930   2.06131
   R23        2.02201   0.01474   0.00000   0.03744   0.03744   2.05945
   R24        2.02201   0.01466   0.00000   0.04035   0.04035   2.06235
   R25        2.02201   0.01515   0.00000   0.04060   0.04060   2.06261
    A1        1.95512  -0.00002   0.00000  -0.00033  -0.00033   1.95479
    A2        2.14494  -0.00109   0.00000  -0.00394  -0.00387   2.14106
    A3        2.08821  -0.00110   0.00000  -0.00431  -0.00424   2.08398
    A4        2.05003   0.00218   0.00000   0.00825   0.00811   2.05815
    A5        2.06707  -0.00010   0.00000   0.00069   0.00069   2.06775
    A6        2.05024   0.00020   0.00000   0.00057   0.00057   2.05082
    A7        2.16588  -0.00010   0.00000  -0.00126  -0.00126   2.16462
    A8        1.99555  -0.00007   0.00000  -0.00039  -0.00039   1.99516
    A9        2.10631   0.00141   0.00000   0.00342   0.00349   2.10980
   A10        2.11911  -0.00267   0.00000  -0.01081  -0.01095   2.10816
   A11        2.05776   0.00126   0.00000   0.00739   0.00746   2.06522
   A12        2.09205  -0.00052   0.00000   0.00452   0.00450   2.09654
   A13        2.10818  -0.00078   0.00000  -0.01085  -0.01081   2.09736
   A14        2.08296   0.00130   0.00000   0.00633   0.00631   2.08927
   A15        2.06237   0.00956   0.00000   0.03999   0.04021   2.10257
   A16        2.10969  -0.00861   0.00000  -0.02802  -0.02813   2.08155
   A17        2.11113  -0.00095   0.00000  -0.01197  -0.01209   2.09904
   A18        2.10985  -0.01410   0.00000  -0.04352  -0.04355   2.06629
   A19        2.08895   0.02412   0.00000   0.05180   0.05134   2.14029
   A20        2.08439  -0.01003   0.00000  -0.00829  -0.00867   2.07572
   A21        2.11684   0.00581   0.00000   0.01695   0.01698   2.13382
   A22        2.07287  -0.00264   0.00000  -0.00331  -0.00335   2.06951
   A23        2.09348  -0.00317   0.00000  -0.01363  -0.01367   2.07981
   A24        1.91063  -0.00538   0.00000  -0.04868  -0.04836   1.86227
   A25        1.91063  -0.00499   0.00000  -0.00178  -0.00382   1.90681
   A26        1.91063   0.01592   0.00000   0.06404   0.06377   1.97440
   A27        1.91063   0.00298   0.00000  -0.00989  -0.01014   1.90050
   A28        1.91063  -0.00393   0.00000  -0.02307  -0.02215   1.88848
   A29        1.91063  -0.00460   0.00000   0.01938   0.01831   1.92895
   A30        1.91063   0.00561   0.00000   0.03016   0.02988   1.94051
   A31        1.91063   0.00263   0.00000   0.02050   0.02024   1.93087
   A32        1.91063   0.00160   0.00000   0.00736   0.00728   1.91792
   A33        1.91063  -0.00390   0.00000  -0.01661  -0.01706   1.89357
   A34        1.91063  -0.00361   0.00000  -0.02429  -0.02437   1.88626
   A35        1.91063  -0.00233   0.00000  -0.01713  -0.01718   1.89345
   A36        1.91063   0.00072   0.00000   0.00900   0.00887   1.91950
   A37        1.91063   0.00603   0.00000   0.03072   0.03026   1.94090
   A38        1.91063   0.00244   0.00000   0.02740   0.02710   1.93773
   A39        1.91063  -0.00378   0.00000  -0.00986  -0.01014   1.90050
   A40        1.91063  -0.00282   0.00000  -0.03802  -0.03798   1.87265
   A41        1.91063  -0.00259   0.00000  -0.01924  -0.01983   1.89080
    D1        3.13856  -0.00001   0.00000   0.00647   0.00647  -3.13815
    D2       -0.00216  -0.00001   0.00000   0.00600   0.00600   0.00385
    D3        3.13214  -0.00001   0.00000   0.02960   0.02954  -3.12151
    D4       -0.01039  -0.00002   0.00000   0.03010   0.03005   0.01965
    D5       -0.01035   0.00000   0.00000   0.03177   0.03183   0.02147
    D6        3.13031   0.00000   0.00000   0.03227   0.03233  -3.12055
    D7       -0.00235   0.00001   0.00000   0.00362   0.00366   0.00131
    D8        3.14000   0.00009   0.00000   0.00515   0.00524  -3.13795
    D9        3.14012   0.00000   0.00000   0.00149   0.00142   3.14154
   D10       -0.00072   0.00007   0.00000   0.00302   0.00299   0.00227
   D11       -3.13986  -0.00005   0.00000  -0.00936  -0.00932   3.13401
   D12        0.00139   0.00001   0.00000   0.00072   0.00092   0.00231
   D13        0.00088  -0.00004   0.00000  -0.00731  -0.00715  -0.00627
   D14       -3.14105   0.00003   0.00000   0.00278   0.00309  -3.13796
   D15        3.13730   0.00000   0.00000   0.01631   0.01631  -3.12957
   D16       -0.00337   0.00001   0.00000   0.01582   0.01582   0.01245
   D17       -3.14148  -0.00006   0.00000  -0.00347  -0.00348   3.13823
   D18       -0.00002   0.00005   0.00000   0.00118   0.00105   0.00103
   D19        0.00085   0.00001   0.00000  -0.00198  -0.00194  -0.00109
   D20       -3.14088   0.00012   0.00000   0.00267   0.00259  -3.13829
   D21        0.00060  -0.00018   0.00000  -0.00119  -0.00115  -0.00055
   D22        3.14156  -0.00005   0.00000  -0.00645  -0.00622   3.13534
   D23       -3.14113  -0.00008   0.00000   0.00344   0.00336  -3.13777
   D24       -0.00017   0.00006   0.00000  -0.00183  -0.00171  -0.00188
   D25       -0.00043   0.00022   0.00000  -0.00309  -0.00280  -0.00323
   D26        3.14134   0.00046   0.00000   0.04245   0.04280  -3.09905
   D27       -3.14139   0.00008   0.00000   0.00219   0.00233  -3.13906
   D28        0.00037   0.00033   0.00000   0.04772   0.04793   0.04831
   D29       -0.00032  -0.00010   0.00000   0.00750   0.00708   0.00676
   D30       -3.14157  -0.00017   0.00000  -0.00270  -0.00322   3.13840
   D31        3.14110  -0.00035   0.00000  -0.03790  -0.03679   3.10431
   D32       -0.00015  -0.00042   0.00000  -0.04811  -0.04709  -0.04724
   D33       -2.09382  -0.00193   0.00000  -0.37887  -0.37883  -2.47266
   D34        2.09497   0.00077   0.00000  -0.33586  -0.33641   1.75856
   D35        0.00057  -0.00029   0.00000  -0.39771  -0.39865  -0.39808
   D36        1.04795  -0.00169   0.00000  -0.33400  -0.33300   0.71495
   D37       -1.04645   0.00101   0.00000  -0.29099  -0.29057  -1.33702
   D38       -3.14085  -0.00005   0.00000  -0.35285  -0.35281   2.78953
   D39        1.41193  -0.00812   0.00000  -0.15405  -0.15399   1.25794
   D40       -2.77686  -0.00785   0.00000  -0.14336  -0.14311  -2.91996
   D41       -0.68246  -0.00811   0.00000  -0.14728  -0.14713  -0.82960
   D42       -0.68246  -0.00030   0.00000  -0.08728  -0.08736  -0.76982
   D43        1.41193  -0.00003   0.00000  -0.07660  -0.07648   1.33546
   D44       -2.77686  -0.00029   0.00000  -0.08051  -0.08050  -2.85736
   D45       -2.77686   0.00551   0.00000  -0.06484  -0.06510  -2.84196
   D46       -0.68246   0.00577   0.00000  -0.05416  -0.05422  -0.73668
   D47        1.41193   0.00551   0.00000  -0.05807  -0.05824   1.35369
   D48       -3.13439  -0.00022   0.00000   0.16340   0.16385  -2.97054
   D49       -1.03999  -0.00072   0.00000   0.17564   0.17609  -0.86390
   D50        1.05440   0.00130   0.00000   0.18767   0.18837   1.24277
   D51       -1.03999   0.00053   0.00000   0.12886   0.12881  -0.91118
   D52        1.05440   0.00003   0.00000   0.14111   0.14106   1.19546
   D53       -3.13439   0.00205   0.00000   0.15313   0.15333  -2.98106
   D54        1.05440  -0.00104   0.00000   0.11449   0.11384   1.16824
   D55       -3.13439  -0.00154   0.00000   0.12674   0.12609  -3.00830
   D56       -1.03999   0.00048   0.00000   0.13877   0.13836  -0.90163
         Item               Value     Threshold  Converged?
 Maximum Force            0.024123     0.000015     NO 
 RMS     Force            0.005453     0.000010     NO 
 Maximum Displacement     1.033482     0.000060     NO 
 RMS     Displacement     0.262924     0.000040     NO 
 Predicted change in Energy=-8.298479D-03
 GradGradGradGradGradGradGradGradGradGradGradGradGradGradGradGradGradGrad

                          Input orientation:                          
 ---------------------------------------------------------------------
 Center     Atomic      Atomic             Coordinates (Angstroms)
 Number     Number       Type             X           Y           Z
 ---------------------------------------------------------------------
      1          8           0        8.789356    7.129755    5.164539
      2          1           0        9.603485    6.779438    5.537114
      3          6           0        6.275855    6.955858    5.159565
      4          5           0        7.686977    6.505231    5.668141
      5          8           0        7.887953    5.516620    6.594062
      6          1           0        7.083511    5.101853    6.909434
      7          6           0        5.085305    6.391314    5.634286
      8          1           0        5.100893    5.607269    6.386912
      9          6           0        3.856037    6.817491    5.153076
     10          1           0        2.941419    6.370885    5.525820
     11          6           0        3.791472    7.817928    4.184572
     12          6           0        4.957975    8.400050    3.690714
     13          6           0        6.183824    7.958986    4.192509
     14          1           0        7.101369    8.402097    3.814146
     15          1           0        2.824436    8.135298    3.815064
     16          6           0        4.943222    9.528439    2.677249
     17          1           0        5.773068    9.344485    1.990344
     18          6           0        5.183081   10.863893    3.401644
     19          1           0        6.217642   10.952177    3.732430
     20          1           0        4.957276   11.704259    2.743417
     21          1           0        4.540027   10.930201    4.280234
     22          6           0        3.652992    9.585725    1.862168
     23          1           0        3.762378   10.293937    1.041094
     24          1           0        3.401003    8.606044    1.452564
     25          1           0        2.817094    9.926727    2.475630
 ---------------------------------------------------------------------
                    Distance matrix (angstroms):
                    1          2          3          4          5
     1  O    0.000000
     2  H    0.961427   0.000000
     3  C    2.519514   3.353623   0.000000
     4  B    1.363409   1.940454   1.566199   0.000000
     5  O    2.336294   2.378002   2.593848   1.369333   0.000000
     6  H    3.172846   3.323826   2.674263   1.968362   0.958446
     7  C    3.806041   4.535861   1.400529   2.604385   3.088866
     8  H    4.173358   4.729637   2.169242   2.830335   2.796218
     9  C    4.943204   5.760389   2.423779   3.878001   4.474936
    10  H    5.908026   6.674591   3.405114   4.749592   5.132165
    11  C    5.139334   6.057006   2.804627   4.370252   5.280418
    12  C    4.297125   5.255125   2.445409   3.866265   5.032730
    13  C    2.901941   3.859194   1.396400   2.559368   3.825789
    14  H    2.508329   3.444159   2.140849   2.716309   4.083213
    15  H    6.197778   7.124557   3.887294   5.453009   6.341885
    16  C    5.170400   6.119958   3.815230   5.060969   6.333053
    17  H    4.906988   5.816454   4.000287   5.024997   6.349764
    18  C    5.482408   6.386155   4.422351   5.514022   6.789786
    19  H    4.824475   5.668560   4.243898   5.067668   6.365859
    20  H    6.439934   7.324333   5.488509   6.560119   7.855139
    21  H    5.769071   6.666873   4.425125   5.604457   6.772685
    22  C    6.581768   7.535837   4.966733   6.344124   7.542104
    23  H    7.230860   8.166053   5.867038   7.153064   8.407055
    24  H    6.707647   7.647929   4.972901   6.368208   7.490812
    25  H    7.121881   8.082897   5.290804   6.753852   7.881887
                    6          7          8          9         10
     6  H    0.000000
     7  C    2.698433   0.000000
     8  H    2.111693   1.086929   0.000000
     9  C    4.055218   1.387187   2.129942   0.000000
    10  H    4.547720   2.146725   2.447023   1.083938   0.000000
    11  C    5.063542   2.410581   3.384065   1.393931   2.148364
    12  C    5.075054   2.797983   3.884525   2.420178   3.398767
    13  C    4.044049   2.396469   3.393924   2.764831   3.848762
    14  H    4.524681   3.379449   4.293262   3.851738   4.935670
    15  H    6.075906   3.385643   4.264691   2.142683   2.460390
    16  C    6.487441   4.313445   5.400188   3.828959   4.700182
    17  H    6.626812   4.740523   5.809339   4.479239   5.418498
    18  C    7.008376   4.999822   6.045716   4.604556   5.451999
    19  H    6.713373   5.069588   6.071363   4.969008   5.910848
    20  H    8.091251   6.049868   7.104152   5.558749   6.344314
    21  H    6.881253   4.767839   5.752067   4.259587   4.989428
    22  C    7.572877   5.146325   6.196599   4.305163   4.925837
    23  H    8.510292   6.170739   7.234241   5.385429   6.014737
    24  H    7.457724   5.022818   6.019142   4.135187   4.668893
    25  H    7.819229   5.255572   6.258721   4.232667   4.686483
                   11         12         13         14         15
    11  C    0.000000
    12  C    1.394091   0.000000
    13  C    2.396519   1.396081   0.000000
    14  H    3.381403   2.146946   1.086920   0.000000
    15  H    1.082783   2.153496   3.385119   4.285246   0.000000
    16  C    2.554290   1.516770   2.509639   2.686778   2.779338
    17  H    3.327422   2.108932   2.633981   2.445144   3.672352
    18  C    3.439107   2.490935   3.172608   3.148083   3.630338
    19  H    3.989267   2.846376   3.028533   2.700103   4.410837
    20  H    4.305763   3.437320   4.198971   4.080180   4.293591
    21  H    3.202456   2.631326   3.396746   3.628915   3.312268
    22  C    2.921959   2.540155   3.805506   4.135516   2.569834
    23  H    4.001615   3.469401   4.609426   4.734737   3.637907
    24  H    2.870098   2.734211   3.958544   4.394470   2.476981
    25  H    2.883909   2.896644   4.260816   4.740373   2.236819
                   16         17         18         19         20
    16  C    0.000000
    17  H    1.092851   0.000000
    18  C    1.538089   2.156027   0.000000
    19  H    2.182793   2.411884   1.089739   0.000000
    20  H    2.176872   2.607906   1.091084   1.769829   0.000000
    21  H    2.167271   3.046061   1.090797   1.764927   1.770613
    22  C    1.527198   2.137604   2.518903   3.455793   2.639308
    23  H    2.158097   2.417728   2.813439   3.702012   2.512906
    24  H    2.174650   2.541888   3.474564   4.316895   3.699625
    25  H    2.172488   3.051605   2.708077   3.767602   2.794944
                   21         22         23         24         25
    21  H    0.000000
    22  C    2.905425   0.000000
    23  H    3.391400   1.089812   0.000000
    24  H    3.833379   1.091351   1.774509   0.000000
    25  H    2.689248   1.091487   1.756786   1.769694   0.000000
 Symmetry turned off by external request.
 Stoichiometry    C9H13BO2
 Framework group  C1[X(C9H13BO2)]
 Deg. of freedom    69
 Full point group                 C1      NOp   1
 Rotational constants (GHZ):           1.7453944           0.5272983           0.4286797
 Standard basis: 6-311+G(d,p) (5D, 7F)
   342 basis functions,   536 primitive gaussians,   354 cartesian basis functions
    44 alpha electrons       44 beta electrons
       nuclear repulsion energy       658.8903358731 Hartrees.
 NAtoms=   25 NActive=   25 NUniq=   25 SFac= 1.00D+00 NAtFMM=   60 NAOKFM=F Big=F
 Integral buffers will be    131072 words long.
 Raffenetti 2 integral format.
 Two-electron integral symmetry is turned off.
 One-electron integrals computed using PRISM.
 NBasis=   342 RedAO= T EigKep=  1.11D-06  NBF=   342
 NBsUse=   342 1.00D-06 EigRej= -1.00D+00 NBFU=   342
 Initial guess from the checkpoint file:  "3-isopropyl-phboh2-opt-freq.chk"
 B after Tr=    -0.577719    0.197142    0.402819
         Rot=    0.999806    0.001781   -0.016212    0.011036 Ang=   2.26 deg.
 ExpMin= 3.15D-02 ExpMax= 8.59D+03 ExpMxC= 1.30D+03 IAcc=3 IRadAn=         5 AccDes= 0.00D+00
 Harris functional with IExCor= 1009 and IRadAn=       5 diagonalized for initial guess.
 HarFok:  IExCor= 1009 AccDes= 0.00D+00 IRadAn=         5 IDoV= 1 UseB2=F ITyADJ=14
 ICtDFT=  3500011 ScaDFX=  1.000000  1.000000  1.000000  1.000000
 FoFCou: FMM=F IPFlag=           0 FMFlag=      100000 FMFlg1=           0
         NFxFlg=           0 DoJE=T BraDBF=F KetDBF=T FulRan=T
         wScrn=  0.000000 ICntrl=       500 IOpCl=  0 I1Cent=   200000004 NGrid=           0
         NMat0=    1 NMatS0=      1 NMatT0=    0 NMatD0=    1 NMtDS0=    0 NMtDT0=    0
 Symmetry not used in FoFCou.
 Requested convergence on RMS density matrix=1.00D-08 within 128 cycles.
 Requested convergence on MAX density matrix=1.00D-06.
 Requested convergence on             energy=1.00D-06.
 Level shift goal  0.100 maximum shift  0.100.
 No special actions if energy rises.
 Dynamic level shift is on during FON iterations.
 SCF Done:  E(RM062X) =  -526.138365320     A.U. after   15 cycles
            NFock= 15  Conv=0.58D-08     -V/T= 2.0039
 Calling FoFJK, ICntrl=      2127 FMM=F ISym2X=0 I1Cent= 0 IOpClX= 0 NMat=1 NMatS=1 NMatT=0.
 -------------------------------------------------------------------
 Center     Atomic                   Forces (Hartrees/Bohr)
 Number     Number              X              Y              Z
 -------------------------------------------------------------------
      1        8           0.000046266   -0.000009593    0.000007078
      2        1          -0.000047019   -0.000013485   -0.000001993
      3        6          -0.000323236   -0.000248577    0.000480748
      4        5           0.000080382   -0.000002435    0.000021304
      5        8           0.000007058   -0.000051936   -0.000025674
      6        1          -0.000015551    0.000021933    0.000024369
      7        6           0.000705729   -0.000129348    0.000194215
      8        1           0.000031692    0.000033240    0.000021346
      9        6          -0.001026679    0.000372193   -0.000564995
     10        1           0.000029312    0.000013967    0.000031810
     11        6           0.001563056   -0.001411756    0.001510827
     12        6           0.001785129    0.000754057   -0.000190677
     13        6          -0.000051238   -0.000810369   -0.000248666
     14        1          -0.000146009   -0.000088837    0.000116275
     15        1          -0.000543933   -0.000017296   -0.000049656
     16        6          -0.003013975   -0.000639480    0.002053819
     17        1           0.001040111    0.001031274   -0.001161620
     18        6           0.000690201   -0.001462829   -0.002292424
     19        1           0.000832319    0.000025085    0.001558558
     20        1           0.000833739    0.001217112   -0.000787553
     21        1          -0.001502462    0.000901621    0.000544307
     22        6           0.000906823   -0.000295315    0.000537248
     23        1          -0.000103528    0.000424097   -0.001265862
     24        1          -0.000467501    0.000081549   -0.001297141
     25        1          -0.001310686    0.000305127    0.000784358
 -------------------------------------------------------------------
 Cartesian Forces:  Max     0.003013975 RMS     0.000862121

 GradGradGradGradGradGradGradGradGradGradGradGradGradGradGradGradGradGrad
 Berny optimization.
 Using GEDIIS/GDIIS optimizer.
 FormGI is forming the generalized inverse of G from B-inverse, IUseBI=4.
 Internal  Forces:  Max     0.002088245 RMS     0.000596006
 Search for a local minimum.
 Step number   2 out of a maximum of  132
 All quantities printed in internal units (Hartrees-Bohrs-Radians)
 Mixed Optimization -- En-DIIS/RFO-DIIS
 Update second derivatives using D2CorX and points    1    2
 DE= -7.69D-03 DEPred=-8.30D-03 R= 9.26D-01
 TightC=F SS=  1.41D+00  RLast= 1.04D+00 DXNew= 5.0454D-01 3.1206D+00
 Trust test= 9.26D-01 RLast= 1.04D+00 DXMaxT set to 5.05D-01
 ITU=  1  0
 Use linear search instead of GDIIS.
     Eigenvalues ---   -0.00143   0.00048   0.00148   0.00913   0.01049
     Eigenvalues ---    0.01231   0.01482   0.01565   0.01724   0.02130
     Eigenvalues ---    0.02266   0.02440   0.02620   0.02727   0.02856
     Eigenvalues ---    0.03952   0.04077   0.04557   0.04657   0.04702
     Eigenvalues ---    0.04855   0.05021   0.05255   0.10460   0.11191
     Eigenvalues ---    0.11326   0.11829   0.12155   0.12490   0.12497
     Eigenvalues ---    0.12578   0.13141   0.13890   0.14921   0.15663
     Eigenvalues ---    0.15923   0.17738   0.17933   0.18693   0.18825
     Eigenvalues ---    0.19196   0.19495   0.20103   0.24843   0.28052
     Eigenvalues ---    0.28905   0.29457   0.31414   0.34094   0.35393
     Eigenvalues ---    0.35982   0.36388   0.37643   0.38734   0.38780
     Eigenvalues ---    0.38841   0.38918   0.38969   0.38986   0.39389
     Eigenvalues ---    0.40719   0.42348   0.46745   0.47540   0.48792
     Eigenvalues ---    0.51427   0.54709   0.55236   0.56303
 RFO step:  Lambda=-1.59733370D-03 EMin=-1.43466070D-03
 Quartic linear search produced a step of  0.13279.
 Iteration  1 RMS(Cart)=  0.16017498 RMS(Int)=  0.04855975
 Iteration  2 RMS(Cart)=  0.14291759 RMS(Int)=  0.00625977
 Iteration  3 RMS(Cart)=  0.00901315 RMS(Int)=  0.00007179
 Iteration  4 RMS(Cart)=  0.00002970 RMS(Int)=  0.00006681
 Iteration  5 RMS(Cart)=  0.00000000 RMS(Int)=  0.00006681
 Variable       Old X    -DE/DX   Delta X   Delta X   Delta X     New X
                                 (Linear)    (Quad)   (Total)
    R1        1.81683  -0.00004   0.00001   0.00002   0.00004   1.81687
    R2        2.57647  -0.00001  -0.00003   0.00008   0.00004   2.57651
    R3        2.95969   0.00009   0.00045  -0.00105  -0.00060   2.95909
    R4        2.64662  -0.00045   0.00087  -0.00334  -0.00253   2.64409
    R5        2.63881   0.00058  -0.00125   0.00530   0.00404   2.64285
    R6        2.58766   0.00002  -0.00015   0.00032   0.00017   2.58784
    R7        1.81120   0.00001   0.00002   0.00000   0.00002   1.81122
    R8        2.05400  -0.00001  -0.00011   0.00026   0.00015   2.05415
    R9        2.62140   0.00029  -0.00097   0.00528   0.00427   2.62567
   R10        2.04835  -0.00002  -0.00032   0.00074   0.00042   2.04876
   R11        2.63415  -0.00046  -0.00005  -0.00217  -0.00221   2.63194
   R12        2.63445   0.00069  -0.00109   0.00322   0.00219   2.63664
   R13        2.04616   0.00050   0.00321  -0.00576  -0.00255   2.04361
   R14        2.63821   0.00058   0.00220  -0.00842  -0.00618   2.63203
   R15        2.86628   0.00209  -0.00583   0.00691   0.00108   2.86736
   R16        2.05398  -0.00020   0.00062   0.00017   0.00079   2.05477
   R17        2.06519   0.00135   0.00573  -0.01173  -0.00600   2.05919
   R18        2.90657   0.00026  -0.00048  -0.01345  -0.01393   2.89264
   R19        2.88599   0.00150  -0.00321   0.00777   0.00456   2.89054
   R20        2.05931   0.00126   0.00495  -0.00963  -0.00468   2.05463
   R21        2.06185   0.00124   0.00529  -0.00946  -0.00417   2.05768
   R22        2.06131   0.00138   0.00522  -0.00898  -0.00376   2.05755
   R23        2.05945   0.00122   0.00497  -0.00991  -0.00494   2.05451
   R24        2.06235   0.00052   0.00536  -0.01078  -0.00543   2.05693
   R25        2.06261   0.00154   0.00539  -0.01276  -0.00737   2.05524
    A1        1.95479  -0.00006  -0.00004  -0.00056  -0.00060   1.95419
    A2        2.14106  -0.00020  -0.00051   0.00111   0.00060   2.14167
    A3        2.08398   0.00001  -0.00056   0.00243   0.00188   2.08586
    A4        2.05815   0.00019   0.00108  -0.00355  -0.00249   2.05565
    A5        2.06775   0.00008   0.00009  -0.00019  -0.00010   2.06765
    A6        2.05082  -0.00002   0.00008  -0.00014  -0.00006   2.05075
    A7        2.16462  -0.00006  -0.00017   0.00033   0.00016   2.16478
    A8        1.99516  -0.00001  -0.00005   0.00007   0.00002   1.99518
    A9        2.10980   0.00009   0.00046  -0.00191  -0.00142   2.10838
   A10        2.10816  -0.00024  -0.00145   0.00513   0.00363   2.11179
   A11        2.06522   0.00015   0.00099  -0.00322  -0.00221   2.06301
   A12        2.09654   0.00002   0.00060  -0.00146  -0.00087   2.09567
   A13        2.09736  -0.00010  -0.00144   0.00222   0.00080   2.09816
   A14        2.08927   0.00008   0.00084  -0.00076   0.00007   2.08934
   A15        2.10257   0.00108   0.00534  -0.01381  -0.00837   2.09420
   A16        2.08155  -0.00077  -0.00374   0.01254   0.00873   2.09028
   A17        2.09904  -0.00031  -0.00161   0.00121  -0.00047   2.09857
   A18        2.06629  -0.00144  -0.00578   0.01679   0.01088   2.07717
   A19        2.14029   0.00106   0.00682  -0.01969  -0.01320   2.12709
   A20        2.07572   0.00039  -0.00115   0.00158   0.00009   2.07581
   A21        2.13382   0.00052   0.00225  -0.00678  -0.00445   2.12936
   A22        2.06951  -0.00030  -0.00045   0.00594   0.00545   2.07497
   A23        2.07981  -0.00021  -0.00181   0.00082  -0.00104   2.07877
   A24        1.86227  -0.00050  -0.00642   0.01048   0.00405   1.86632
   A25        1.90681   0.00012  -0.00051  -0.00756  -0.00834   1.89846
   A26        1.97440   0.00153   0.00847  -0.00401   0.00443   1.97883
   A27        1.90050  -0.00040  -0.00135  -0.00462  -0.00600   1.89449
   A28        1.88848  -0.00002  -0.00294   0.00482   0.00200   1.89048
   A29        1.92895  -0.00079   0.00243   0.00123   0.00354   1.93249
   A30        1.94051   0.00051   0.00397  -0.01777  -0.01390   1.92662
   A31        1.93087   0.00039   0.00269  -0.00330  -0.00065   1.93022
   A32        1.91792   0.00030   0.00097  -0.01217  -0.01128   1.90664
   A33        1.89357  -0.00043  -0.00227   0.01797   0.01566   1.90924
   A34        1.88626  -0.00041  -0.00324   0.00918   0.00580   1.89206
   A35        1.89345  -0.00042  -0.00228   0.00728   0.00498   1.89843
   A36        1.91950   0.00019   0.00118  -0.00244  -0.00128   1.91822
   A37        1.94090   0.00123   0.00402  -0.01404  -0.01007   1.93082
   A38        1.93773   0.00006   0.00360   0.00066   0.00422   1.94195
   A39        1.90050  -0.00104  -0.00135   0.01335   0.01198   1.91247
   A40        1.87265  -0.00010  -0.00504  -0.00317  -0.00820   1.86445
   A41        1.89080  -0.00042  -0.00263   0.00643   0.00373   1.89453
    D1       -3.13815   0.00001   0.00086   0.00620   0.00706  -3.13109
    D2        0.00385   0.00000   0.00080   0.00562   0.00642   0.01026
    D3       -3.12151  -0.00003   0.00392   0.02083   0.02475  -3.09675
    D4        0.01965  -0.00001   0.00399   0.02145   0.02544   0.04510
    D5        0.02147   0.00000   0.00423   0.02393   0.02815   0.04963
    D6       -3.12055   0.00002   0.00429   0.02455   0.02884  -3.09171
    D7        0.00131   0.00003   0.00049   0.00315   0.00363   0.00494
    D8       -3.13795   0.00006   0.00070   0.00438   0.00506  -3.13289
    D9        3.14154   0.00000   0.00019   0.00010   0.00028  -3.14136
   D10        0.00227   0.00002   0.00040   0.00133   0.00172   0.00400
   D11        3.13401   0.00006  -0.00124  -0.00282  -0.00408   3.12993
   D12        0.00231  -0.00004   0.00012  -0.00012  -0.00001   0.00230
   D13       -0.00627   0.00009  -0.00095   0.00012  -0.00085  -0.00711
   D14       -3.13796  -0.00001   0.00041   0.00283   0.00322  -3.13474
   D15       -3.12957  -0.00002   0.00217   0.01127   0.01344  -3.11613
   D16        0.01245  -0.00004   0.00210   0.01066   0.01276   0.02521
   D17        3.13823  -0.00002  -0.00046  -0.00435  -0.00482   3.13341
   D18        0.00103  -0.00007   0.00014  -0.00332  -0.00318  -0.00215
   D19       -0.00109   0.00001  -0.00026  -0.00315  -0.00342  -0.00451
   D20       -3.13829  -0.00004   0.00034  -0.00212  -0.00178  -3.14007
   D21       -0.00055  -0.00001  -0.00015   0.00388   0.00372   0.00318
   D22        3.13534   0.00003  -0.00083  -0.00667  -0.00753   3.12781
   D23       -3.13777  -0.00005   0.00045   0.00491   0.00536  -3.13241
   D24       -0.00188  -0.00002  -0.00023  -0.00565  -0.00590  -0.00778
   D25       -0.00323   0.00012  -0.00037  -0.00247  -0.00287  -0.00610
   D26       -3.09905   0.00001   0.00568   0.03132   0.03701  -3.06204
   D27       -3.13906   0.00008   0.00031   0.00815   0.00841  -3.13065
   D28        0.04831  -0.00003   0.00636   0.04194   0.04829   0.09660
   D29        0.00676  -0.00017   0.00094   0.00049   0.00146   0.00822
   D30        3.13840  -0.00006  -0.00043  -0.00220  -0.00258   3.13582
   D31        3.10431  -0.00004  -0.00489  -0.03262  -0.03759   3.06671
   D32       -0.04724   0.00007  -0.00625  -0.03531  -0.04164  -0.08888
   D33       -2.47266  -0.00057  -0.05031  -0.36558  -0.41578  -2.88843
[...]
 .00020675,0.00027633,0.00004984,-0.00011084,-0.00005910,-0.00002816,0.
 00003203,0.00002376,-0.00001611,0.00000807,-0.00033463,0.00004528,0.00
 015372,-0.00008282,0.00001321,0.00001817,0.00132774,-0.00016963,-0.000
 01337,-0.00002420,0.00020208,-0.00032826,-0.00149051,0.00395253,-0.002
 17287,0.02182920,0.00464782,-0.01072805,0.00191528,-0.00109617,0.00050
 503,-0.00102814,0.00044067,0.00015096,0.00002170,-0.00028316,-0.000009
 82,0.08246985,0.01134267,-0.07852441,-0.08818461,-0.01290205,0.0907765
 4,-0.00005834,-0.00000514,-0.00003471,0.00000591,0.00000443,0.00001047
 ,-0.00022906,-0.00012303,-0.00026917,0.00012148,-0.00007953,0.00012565
 ,-0.00000878,0.00004326,-0.00005234,-0.00000830,0.00000239,0.00000172,
 0.00038470,-0.00028706,0.00006991,0.00000897,0.00011701,0.00002334,-0.
 00046869,0.00046145,-0.00041906,0.00002114,0.00003028,0.00008705,0.000
 46685,-0.00109305,0.00135195,-0.00060036,0.00307807,-0.00342088,-0.000
 27653,0.00015563,-0.00034411,0.00033890,0.00015642,0.00024970,-0.00040
 579,-0.00029150,0.00005067,-0.08936020,0.03042277,0.01875387,-0.008521
 24,0.02921206,0.01294011,0.56647960,0.00011159,0.00002297,-0.00006159,
 -0.00000677,-0.00000103,0.00000770,0.00023998,0.00005808,0.00126947,-0
 .00025103,0.00004260,0.00016461,0.00009134,-0.00009979,-0.00000597,-0.
 00001711,0.00003597,-0.00001531,0.00062948,-0.00009318,-0.00003287,0.0
 0001131,-0.00004648,-0.00003551,0.00047940,0.00078568,-0.00018438,-0.0
 0004780,-0.00001322,-0.00013614,0.00059787,0.00008479,-0.00059246,0.00
 888088,-0.03102437,-0.00319214,-0.00220984,-0.00016490,-0.00022316,0.0
 0015751,-0.00026003,-0.00026486,0.00008615,-0.00030783,0.00017568,0.02
 855696,-0.16007446,-0.04275731,0.00027867,0.00096114,0.00026962,0.0282
 9995,0.49653383,-0.00046966,-0.00007041,0.00008014,0.00004564,0.000021
 49,-0.00002038,-0.00074930,-0.00037837,-0.00121945,0.00083579,-0.00004
 896,-0.00010074,-0.00033257,0.00027164,-0.00011490,0.00008015,-0.00011
 574,0.00007464,-0.00057246,0.00065168,-0.00041772,0.00001957,0.0000679
 3,0.00002897,0.00006947,-0.00089077,0.00028815,0.00005802,0.00004881,-
 0.00005054,-0.00003593,0.00198918,-0.00101862,-0.00813473,0.01885208,0
 .01213355,0.00061631,0.00199258,-0.00245268,-0.00004427,0.00037606,0.0
 0036574,0.00015509,0.00028091,-0.00009032,0.01578724,-0.03697717,-0.09
 507230,0.00358262,-0.01146948,-0.00530959,0.01827212,-0.03673562,0.568
 02899,-0.00000768,-0.00001872,0.00002102,-0.00000246,0.00000015,-0.000
 00527,0.00003462,0.00008420,-0.00009041,0.00001473,0.00003066,-0.00003
 780,0.00000572,-0.00002357,0.00002761,-0.00000308,0.00000166,-0.000008
 94,-0.00012708,-0.00004489,0.00008530,0.00000232,-0.00001888,0.0000035
 8,0.00017696,-0.00011005,0.00015434,-0.00001583,-0.00001779,-0.0000131
 1,-0.00041751,0.00001284,0.00009529,0.00045803,-0.00003453,0.00012021,
 0.00019516,-0.00039972,0.00017373,-0.00008190,0.00000007,0.00003440,0.
 00008325,0.00000835,-0.00014773,0.00640210,0.00286947,0.00898838,0.000
 53433,-0.00071416,-0.00001727,-0.14527332,-0.04185118,-0.12386957,0.15
 366072,-0.00011603,0.00003234,0.00003663,0.00001923,-0.00000310,-0.000
 01083,-0.00001306,-0.00008716,0.00007535,0.00019715,-0.00013345,0.0000
 2939,-0.00006590,0.00008926,-0.00004720,0.00001524,-0.00003301,0.00001
 639,0.00006177,-0.00000488,-0.00006805,0.00000871,0.00001137,-0.000005
 72,-0.00005634,0.00000195,0.00001781,0.00000225,-0.00001539,-0.0000056
 2,-0.00027176,0.00009797,0.00040775,-0.00081182,0.00129691,-0.00122770
 ,0.00026384,0.00015862,0.00020589,0.00003914,-0.00004609,-0.00007284,0
 .00006116,0.00000064,-0.00010321,-0.01851546,-0.00789551,-0.02049523,0
 .00019402,0.00111462,0.00047528,-0.04064604,-0.06391389,-0.05061709,0.
 04367763,0.06954810,0.00008438,0.00004275,-0.00001058,-0.00000732,-0.0
 0001201,-0.00000207,0.00009135,-0.00014775,-0.00001495,-0.00014362,-0.
 00002378,0.00001662,0.00004388,0.00000017,0.00001365,-0.00000734,0.000
 00404,-0.00001222,0.00009126,-0.00000472,0.00000033,0.00000852,0.00001
 575,0.00002036,-0.00013609,0.00000163,-0.00021125,0.00000049,-0.000007
 17,0.00000943,-0.00003117,-0.00027813,0.00030670,0.00041176,0.00106393
 ,0.00031757,-0.00000850,-0.00021241,0.00027829,0.00001719,-0.00003644,
 -0.00001745,0.00004755,0.00001416,0.00006550,-0.00727272,-0.00183449,-
 0.00951962,0.00021420,0.00025492,-0.00010280,-0.12348451,-0.05195060,-
 0.20361752,0.13455678,0.05905324,0.21873149,-0.00005064,-0.00000765,0.
 00000994,0.00000810,0.00000503,-0.00000742,-0.00006694,-0.00032819,0.0
 0009132,0.00004608,0.00002924,-0.00000120,-0.00003173,0.00000684,-0.00
 000301,0.00001389,-0.00000949,0.00000762,0.00022705,0.00007573,-0.0000
 8617,0.00003073,0.00002540,0.00003888,-0.00003156,-0.00004579,-0.00038
 226,-0.00000064,0.00001001,-0.00002993,-0.00024052,-0.00015580,-0.0000
 0142,0.00017243,0.00137569,0.00183108,-0.00004434,0.00033206,-0.000385
 45,0.00000570,0.00005304,0.00003444,0.00035759,0.00030576,0.00014943,-
 0.00078847,0.00865181,-0.00737947,0.00007244,-0.00024013,-0.00055505,-
 0.04759294,-0.00667576,0.00480555,0.00062570,0.01523075,-0.01280099,0.
 04697994,0.00028755,0.00001055,-0.00004953,-0.00003595,-0.00000846,0.0
 0001258,0.00033904,0.00004444,0.00046267,-0.00050715,0.00014106,0.0000
 1801,0.00018472,-0.00018530,0.00009157,-0.00004198,0.00007198,-0.00004
 402,0.00018406,-0.00023482,0.00012810,-0.00000473,-0.00004426,0.000003
 67,-0.00001035,0.00021140,-0.00002815,-0.00002766,-0.00004099,0.000039
 86,0.00037907,-0.00015333,0.00014240,0.00227363,-0.00360049,-0.0038606
 8,-0.00051749,-0.00068249,0.00057104,0.00002020,-0.00010941,-0.0001323
 1,-0.00009859,0.00009104,-0.00003334,-0.00177863,-0.02081722,0.0200885
 4,0.00024833,0.00105037,0.00010342,-0.00643374,-0.18499512,0.13334249,
 0.00113544,0.00690278,-0.00640399,0.00484831,0.20261344,-0.00010117,0.
 00000677,0.00002476,0.00001608,0.00000034,-0.00000339,0.00004569,0.000
 17705,0.00004240,0.00018192,-0.00010551,0.00003793,-0.00004339,0.00005
 455,-0.00003951,0.00000785,-0.00002133,0.00001193,-0.00001804,-0.00007
 250,0.00003061,-0.00001560,-0.00000237,-0.00002863,-0.00005891,0.00011
 184,0.00013782,-0.00000344,-0.00001837,-0.00000423,-0.00003194,-0.0000
 6160,0.00042156,0.00060651,-0.00191610,-0.00105110,0.00022760,-0.00029
 114,0.00059529,-0.00000483,-0.00005113,-0.00007598,-0.00018229,-0.0001
 1414,-0.00011939,-0.00122375,-0.01147605,0.00892083,-0.00030196,0.0007
 8079,0.00058023,0.00513061,0.13471062,-0.17682733,0.00250036,0.0171817
 0,-0.01572457,-0.00646649,-0.14534885,0.18957643,0.00010849,0.00004553
 ,-0.00005875,-0.00000376,-0.00000566,0.00000434,0.00006110,-0.00034213
 ,0.00024653,-0.00022790,0.00000953,0.00004911,0.00003852,0.00000062,-0
 .00001452,-0.00000575,0.00000918,0.00000095,0.00034382,0.00004698,-0.0
 0001792,0.00004777,-0.00000004,0.00002849,0.00012665,0.00017353,-0.000
 46345,-0.00000632,0.00001324,-0.00004889,-0.00051103,-0.00044234,-0.00
 021241,0.00043369,-0.00095418,0.00092960,-0.00036679,0.00045244,-0.000
 32413,0.00014108,-0.00002381,-0.00000735,0.00055945,-0.00029146,0.0001
 8773,-0.01057827,0.00003311,0.00324377,0.00098455,0.00198794,0.0004625
 4,-0.28032633,-0.01975733,0.08451979,-0.01702819,-0.00141345,0.0072194
 3,0.00027607,-0.00024822,-0.00057251,0.30421880,-0.00009021,-0.0000065
 6,0.00003984,0.00000885,-0.00000225,-0.00000149,-0.00001504,0.00035150
 ,-0.00035460,0.00020585,-0.00006447,-0.00002901,-0.00005636,0.00005753
 ,-0.00002269,0.00001207,-0.00002433,0.00001333,-0.00046067,0.00012370,
 0.00003920,-0.00005511,-0.00000079,-0.00002473,-0.00006180,-0.00029058
 ,0.00038990,0.00000982,-0.00003237,-0.00001907,0.00050303,-0.00019431,
 -0.00010420,-0.00009686,0.00199389,-0.00036301,0.00047122,-0.00035858,
 0.00056098,-0.00018300,0.00001906,-0.00003394,-0.00058277,-0.00138674,
 0.00021209,0.02871877,0.00112036,-0.01106931,0.00168137,-0.00513654,-0
 .00254753,-0.02071742,-0.04743891,0.00788473,-0.00706616,-0.00172001,0
 .00354528,-0.02255703,-0.00171571,0.00657064,0.02063357,0.05302476,0.0
 0004811,-0.00000185,0.00000537,-0.00000739,-0.00000225,0.00000180,0.00
 003646,0.00005723,-0.00000704,-0.00007215,0.00002454,-0.00003320,0.000
 02775,-0.00003259,0.00002275,-0.00000627,0.00001268,-0.00000618,-0.000
 09493,-0.00000076,-0.00000753,-0.00001375,-0.00000611,-0.00000182,-0.0
 0013897,-0.00003657,0.00006620,0.00001191,0.00000813,0.00004240,0.0002
 8203,0.00021885,-0.00005471,-0.00089520,0.00025809,-0.00010606,0.00007
 672,-0.00004626,0.00010001,-0.00005921,-0.00000315,-0.00004224,-0.0000
 8259,0.00035811,0.00023377,0.01282277,0.00093537,-0.00576901,0.0004294
 6,-0.00261445,-0.00040414,0.08475078,0.00748153,-0.07773984,-0.0237048
 5,-0.00158439,0.00963242,0.02123492,0.00066655,-0.00766544,-0.09494022
 ,-0.00620560,0.08125851,0.00004265,0.00003370,-0.00001251,-0.00000747,
 -0.00000935,0.00000017,-0.00000553,0.00025084,0.00004962,-0.00004680,-
 0.00010489,0.00007347,0.00005653,0.00000701,-0.00000954,-0.00002235,0.
 00002108,-0.00001489,0.00038335,-0.00028597,0.00030719,-0.00002899,-0.
 00000829,-0.00009129,-0.00054350,0.00057593,-0.00030795,-0.00002275,-0
 .00012732,-0.00002558,0.00023884,-0.00180829,0.00140062,-0.00057069,0.
 00590034,-0.00523357,0.00009643,-0.00038928,0.00026809,0.00019292,-0.0
 0026321,-0.00018661,-0.00035886,0.00006266,0.00037556,-0.12051136,-0.0
 2174835,-0.05075075,-0.01909602,-0.00857349,-0.02684477,0.00632732,0.0
 0133742,0.00705333,-0.00005968,0.00289756,0.00177822,-0.00005238,-0.00
 009465,0.00022461,0.00103753,0.00077978,0.00105876,0.53603602,0.000460
 50,-0.00000136,-0.00014263,-0.00004164,-0.00001126,0.00003222,0.000313
 38,-0.00146997,-0.00056860,-0.00084007,0.00013179,0.00012103,0.0003418
 3,-0.00027183,0.00016217,-0.00006668,0.00012667,-0.00006586,0.00051076
 ,-0.00054545,0.00039839,0.00001448,0.00004340,0.00010666,-0.00006035,0
 .00021427,-0.00081481,-0.00005180,-0.00000331,0.00006764,0.00020304,-0
 .00067121,0.00158469,0.01608450,0.00711554,0.01842108,-0.00080816,-0.0
 0235046,0.00206290,0.00017924,0.00038802,0.00041226,-0.00000792,-0.000
 08011,0.00020929,-0.01735584,-0.08236325,-0.01900893,-0.00276723,-0.00
 132167,-0.00360971,-0.01941380,-0.01196203,-0.02754321,0.00179863,-0.0
 0538245,-0.00277022,-0.00067597,0.00100743,-0.00027195,-0.00032917,0.0
 0165168,0.00084048,-0.01809815,0.58033623,-0.00010367,-0.00005725,0.00
 003210,0.00000787,0.00001061,0.00000180,0.00014822,0.00116062,0.000074
 70,0.00025043,0.00014888,-0.00002442,-0.00010806,0.00001219,-0.0000654
 7,0.00001458,-0.00002544,0.00003176,-0.00070493,0.00016132,0.00002712,
 -0.00002215,-0.00002577,-0.00001168,-0.00018784,-0.00025944,0.00093104
 ,0.00000894,-0.00011634,-0.00001101,-0.00075948,-0.00004947,0.00000704
 ,-0.01587965,0.00041680,-0.02602514,0.00197819,-0.00083152,-0.00066773
 ,-0.00031641,-0.00010968,-0.00014175,-0.00001179,0.00018766,-0.0003381
 3,-0.05012999,-0.02419115,-0.14165320,0.00464427,0.00231566,0.00753213
 ,-0.01000550,-0.01012327,-0.01554228,0.00072657,-0.00165859,-0.0003248
 1,-0.00014713,0.00162014,0.00109618,-0.00072206,0.00127914,0.00046280,
 -0.04841195,-0.01870474,0.51444056,-0.00008838,0.00000116,0.00002734,0
 .00001177,0.00000613,-0.00000890,-0.00005380,0.00004738,0.00037375,0.0
 0011244,-0.00001270,-0.00004450,-0.00006242,0.00004259,-0.00001346,0.0
 0001717,-0.00002593,0.00000927,0.00015826,0.00008969,-0.00017576,0.000
 01148,-0.00005161,-0.00004535,0.00011602,0.00036932,0.00012675,0.00001
 024,0.00003446,-0.00002422,-0.00022859,0.00020375,0.00017641,-0.001893
 45,-0.00248823,-0.00245138,0.00005756,0.00066208,-0.00053147,-0.000039
 17,-0.00007320,-0.00008561,0.00026598,-0.00024914,-0.00039460,-0.00033
 938,0.01477216,-0.01543420,0.00040621,0.00059484,0.00062001,0.00032826
 ,0.00074460,0.00081419,-0.00018097,0.00009718,0.00016595,0.00030473,-0
 .00030936,0.00012451,-0.00004217,-0.00018252,0.00006373,-0.04688188,-0
 .00531672,0.00661990,0.04831959,0.00013281,0.00000473,-0.00002213,-0.0
 0002042,-0.00000252,0.00000523,0.00002674,0.00002486,0.00008486,-0.000
 22722,0.00009249,-0.00004585,0.00006301,-0.00006700,0.00004419,-0.0000
 1600,0.00002501,-0.00002052,-0.00003258,0.00000512,-0.00002765,0.00000
 386,-0.00001997,0.00000549,0.00008924,0.00001563,0.00006161,-0.0000054
 0,-0.00001315,-0.00001193,0.00019039,0.00035724,-0.00010489,-0.0008019
 9,-0.00007209,-0.00110142,-0.00016000,0.00050175,-0.00007998,-0.000015
 99,-0.00005320,-0.00002995,0.00004701,-0.00009115,-0.00006183,0.000701
 36,0.00542590,-0.00749942,0.00052483,0.00028335,0.00052171,-0.00008684
 ,0.00096843,-0.00042226,0.00007387,0.00019581,0.00008960,-0.00022847,0
 .00002739,-0.00002670,0.00011322,-0.00004380,0.00002274,-0.00528048,-0
 .18541679,0.13434035,0.00684135,0.19838139,-0.00026261,-0.00000060,0.0
 0005150,0.00003196,0.00000611,-0.00001129,-0.00017843,0.00053827,0.000
 04307,0.00048634,-0.00010628,0.00002384,-0.00017828,0.00016162,-0.0001
 1282,0.00003506,-0.00006775,0.00004256,-0.00024374,0.00017760,-0.00012
 967,-0.00000888,0.00001290,-0.00003717,0.00003053,-0.00013517,0.000182
 64,0.00002394,0.00002538,-0.00004276,-0.00029195,0.00021968,-0.0000977
 3,-0.00368923,-0.00238732,-0.00250614,0.00045937,0.00036127,-0.0006834
 8,-0.00007004,-0.00010178,-0.00008267,0.00004334,-0.00000936,0.0001591
 1,0.00186402,0.01788635,-0.01782360,-0.00002343,-0.00005145,0.00097472
 ,0.00068835,0.00141484,0.00077613,-0.00008106,-0.00019752,0.00049621,-
 0.00006512,-0.00107312,-0.00008712,-0.00002701,-0.00006211,-0.00007708
 ,0.00601626,0.13302771,-0.17700297,-0.00342880,-0.14616075,0.19245486,
 0.00000808,-0.00001533,0.00003465,-0.00000553,0.00000249,-0.00000366,0
 .00000486,0.00010324,-0.00013443,-0.00000689,0.00005449,-0.00006307,0.
 00001245,-0.00004466,0.00003556,-0.00000317,0.00001370,-0.00000476,-0.
 00016325,-0.00005905,0.00007663,0.00000452,0.,0.00002493,0.00017718,-0
 .00024968,0.00004345,-0.00000827,0.00001608,0.00001479,-0.00029019,0.0
 0017402,0.00001592,0.00055492,-0.00048513,0.00046939,0.00019248,-0.000
 10305,0.00032078,-0.00010304,-0.00002932,0.00000344,0.00008032,0.00011
 266,-0.00001653,0.00632129,-0.01793239,-0.00816820,0.00066956,-0.00006
 309,0.00090050,-0.00235607,-0.00056827,-0.00329960,0.00063279,-0.00101
 518,-0.00071335,-0.00018041,0.00020678,0.00006347,0.00024201,-0.000121
 51,-0.00034114,-0.07296006,0.07243342,0.03461735,-0.00066993,-0.002021
 03,-0.00102180,0.07623994,-0.00007361,0.00000141,0.00004281,0.00000605
 ,-0.00000023,-0.00001024,-0.00013004,-0.00000750,-0.00008556,0.0001342
 9,-0.00002821,-0.00003343,-0.00004145,0.00003779,-0.00000062,0.0000067
 7,-0.00001767,0.00000194,-0.00004700,0.00003626,-0.00000371,0.00000034
 ,0.00002114,0.00001060,0.00003195,-0.00017821,-0.00004188,0.00000248,0
 .00000599,-0.00001064,0.00011175,0.00027897,-0.00029285,-0.00019501,0.
 00046972,0.00104331,-0.00002104,0.00031930,-0.00029376,-0.00000391,-0.
 00000038,-0.00003128,-0.00004653,0.00004722,0.00003240,0.00234488,-0.0
 0630527,-0.00158649,-0.00033589,-0.00005441,0.00007912,-0.00186482,0.0
 0047612,-0.00142286,0.00030429,-0.00025649,-0.00045110,0.00004062,0.00
 048095,0.00011945,0.00008759,0.00005351,0.00010272,0.07175833,-0.24905
 446,-0.09439587,0.00689784,-0.01811807,-0.00974146,-0.07759780,0.26769
 053,0.00012963,0.00002407,0.00000790,-0.00002117,-0.00001027,-0.000005
 32,-0.00000037,0.00004776,-0.00006408,-0.00021167,0.00006319,-0.000067
 33,0.00006609,-0.00005387,0.00005686,-0.00001651,0.00002041,-0.0000274
 7,-0.00004253,-0.00003103,-0.00000487,-0.00000836,-0.00000031,0.000010
 36,0.00001717,0.00004549,-0.00003759,-0.00000524,-0.00000744,-0.000018
 92,0.00047732,0.00032206,-0.00000047,0.00063060,-0.00136861,0.00103696
 ,-0.00020198,0.00029955,0.00013643,-0.00004367,-0.00005299,-0.00003860
 ,-0.00011215,-0.00011136,0.00002447,0.00916028,-0.02052026,-0.01096948
 ,0.00005446,0.00045862,0.00098688,-0.00417909,-0.00035330,-0.00394887,
 0.00033648,-0.00169493,-0.00039315,-0.00004642,-0.00020385,0.00021343,
 -0.00011967,0.00035691,0.00017940,0.03374992,-0.09292397,-0.09080954,-
 0.00779576,0.01963473,0.01059253,-0.03437309,0.10440471,0.09793930,0.0
 0011077,0.00004555,-0.00006585,-0.00000316,-0.00000304,0.00000630,0.00
 006106,-0.00035636,0.00037908,-0.00024918,-0.00000872,0.00003642,0.000
 04599,0.00000761,-0.00000044,-0.00000874,0.00000642,-0.00000811,0.0004
 2940,-0.00008990,-0.00013267,0.00004824,-0.00004982,-0.00001915,0.0002
 4264,0.00050398,-0.00026271,-0.00000190,0.00005355,-0.00001498,-0.0004
 9607,0.00028628,0.00059027,0.00072225,-0.00122562,0.00124465,-0.000462
 77,0.00061229,-0.00038084,0.00018302,-0.00005970,-0.00002285,0.0006226
 0,-0.00022557,-0.00017961,-0.02059920,-0.00206615,0.00546985,-0.000843
 29,-0.00094322,-0.00376860,0.00100280,0.00088197,0.00079320,0.00037125
 ,0.00015941,-0.00012535,-0.00003989,0.00000137,-0.00010491,0.00047698,
 -0.00077786,-0.00048674,-0.28324328,-0.02650628,0.07849429,0.00036045,
 0.00008871,-0.00010883,-0.00839362,-0.00137006,0.00255573,0.30966364,-
 0.00007513,0.00000272,0.00002267,0.00000714,0.00000084,-0.00000483,-0.
 00004266,0.00009168,-0.00004224,0.00013330,-0.00005292,-0.00000186,-0.
 00004104,0.00003476,-0.00002334,0.00001026,-0.00001211,0.00001190,-0.0
 0002482,-0.00000228,0.00001318,-0.00000193,0.00000697,-0.00000559,0.00
 007943,-0.00010339,0.00000148,0.00000239,0.00003116,0.00001507,-0.0000
 9855,-0.00008628,0.00015137,0.00068745,-0.00003225,-0.00033132,0.00005
 971,-0.00003072,0.00007102,-0.00000376,-0.00003965,-0.00001188,0.00007
 963,0.00024433,0.00038564,-0.00803048,-0.00203632,0.00276908,-0.000932
 66,0.00016398,-0.00147522,-0.00094176,0.00042564,0.00091237,0.00030240
 ,0.00004105,0.00004732,-0.00006602,-0.00006524,0.00006399,0.00020135,0
 .00001996,-0.00045305,-0.02683293,-0.05010943,0.00889514,-0.02269512,-
 0.00241136,0.00626295,0.02718861,0.00410197,-0.00834529,0.03103518,0.0
 4981689,0.00006333,0.00001135,-0.00000610,-0.00000769,0.00000169,-0.00
 000239,-0.00001206,-0.00028366,0.00024195,-0.00014872,0.00002223,-0.00
 002189,0.00004866,-0.00004236,0.00003989,-0.00000997,0.00002028,-0.000
 01549,0.00037439,-0.00006990,0.00002751,0.00003390,-0.00002599,-0.0000
 1091,0.00003475,0.00026225,-0.00022779,-0.00002210,-0.00002639,-0.0000
 2539,-0.00045729,-0.00004443,-0.00021845,0.00038608,-0.00023586,0.0016
 5469,-0.00028895,0.00055053,-0.00013539,0.00012694,-0.00006934,-0.0000
 2429,0.00008469,0.00023784,-0.00145586,-0.02587656,-0.00353761,0.00731
 432,-0.00345176,-0.00148166,-0.00388132,-0.00029695,0.00117044,0.00176
 677,0.00015197,0.00028950,0.00006240,0.00015436,-0.00011321,-0.0000627
 3,0.00063662,-0.00005476,-0.00009113,0.07953356,0.00897812,-0.07201910
 ,0.02131219,0.00080478,-0.00710267,0.01151876,0.00256470,-0.00479884,-
 0.08388816,-0.00892855,0.07899221\\-0.00000051,-0.00000153,-0.00000088
 ,-0.00000063,-0.00000183,-0.00000098,-0.00000019,0.00000013,0.00000024
 ,-0.00000039,-0.00000042,0.00000005,-0.00000067,-0.00000012,0.00000067
 ,-0.00000064,0.00000069,0.00000131,-0.00000021,0.00000117,0.00000122,-
 0.00000008,0.00000174,0.00000175,0.00000020,0.00000168,0.00000138,0.00
 000024,0.00000260,0.00000213,0.00000026,0.00000140,0.00000085,-0.00000
 046,0.00000019,-0.00000031,-0.00000005,-0.00000049,-0.00000027,-0.0000
 0020,-0.00000125,-0.00000103,0.00000035,0.00000159,0.00000093,0.000000
 87,-0.00000071,-0.00000093,0.00000006,-0.00000155,-0.00000119,0.000001
 00,0.00000006,-0.00000114,0.00000193,0.00000017,-0.00000193,0.00000123
 ,-0.00000057,-0.00000184,0.00000145,0.00000085,-0.00000072,-0.00000083
 ,-0.00000079,-0.00000014,-0.00000067,-0.00000141,-0.00000047,-0.000001
 55,-0.00000149,0.00000059,-0.00000052,-0.00000013,0.00000070\\\@
 The archive entry for this job was punched.


     SCHOPENHAUER'S LAW OF ENTROPY
 IF YOU PUT A SPOONFUL OF WINE IN A BARREL FULL
 OF SEWAGE, YOU GET SEWAGE.
 IF YOU PUT A SPOONFUL OF SEWAGE IN A BARREL FULL
 OF WINE, YOU GET SEWAGE.
 Job cpu time:       0 days  1 hours 48 minutes 31.1 seconds.
 Elapsed time:       0 days  0 hours  3 minutes 27.6 seconds.
 File lengths (MBytes):  RWF=    262 Int=      0 D2E=      0 Chk=     14 Scr=      1
 Normal termination of Gaussian 16 at Wed Apr 30 05:24:55 2025.
