/home/tahminaafroz
cn015.cluster.local
tahminaafroz
Sun May 11 04:15:06 CDT 2025
 Entering Gaussian System, Link 0=g16
 Initial command:
 /home/apps/g16/l1.exe "/tmp/3-isopropyl-ph-opt-freq-thf/Gau-27333.inp" -scrdir="/tmp/3-isopropyl-ph-opt-freq-thf/"
 Entering Link 1 = /home/apps/g16/l1.exe PID=     27334.
  
 Copyright (c) 1988-2019, Gaussian, Inc.  All Rights Reserved.
  
 This is part of the Gaussian(R) 16 program.  It is based on
 the Gaussian(R) 09 system (copyright 2009, Gaussian, Inc.),
 the Gaussian(R) 03 system (copyright 2003, Gaussian, Inc.),
 the Gaussian(R) 98 system (copyright 1998, Gaussian, Inc.),
 the Gaussian(R) 94 system (copyright 1995, Gaussian, Inc.),
 the Gaussian 92(TM) system (copyright 1992, Gaussian, Inc.),
 the Gaussian 90(TM) system (copyright 1990, Gaussian, Inc.),
 the Gaussian 88(TM) system (copyright 1988, Gaussian, Inc.),
 the Gaussian 86(TM) system (copyright 1986, Carnegie Mellon
 University), and the Gaussian 82(TM) system (copyright 1983,
 Carnegie Mellon University). Gaussian is a federally registered
 trademark of Gaussian, Inc.
  
 This software contains proprietary and confidential information,
 including trade secrets, belonging to Gaussian, Inc.
  
 This software is provided under written license and may be
 used, copied, transmitted, or stored only in accord with that
 written license.
  
 The following legend is applicable only to US Government
 contracts under FAR:
  
                    RESTRICTED RIGHTS LEGEND
  
 Use, reproduction and disclosure by the US Government is
 subject to restrictions as set forth in subparagraphs (a)
 and (c) of the Commercial Computer Software - Restricted
 Rights clause in FAR 52.227-19.
  
 Gaussian, Inc.
 340 Quinnipiac St., Bldg. 40, Wallingford CT 06492
  
  
 ---------------------------------------------------------------
 Warning -- This program may not be used in any manner that
 competes with the business of Gaussian, Inc. or will provide
 assistance to any competitor of Gaussian, Inc.  The licensee
 of this program is prohibited from giving any competitor of
 Gaussian, Inc. access to this program.  By using this program,
 the user acknowledges that Gaussian, Inc. is engaged in the
 business of creating and licensing software in the field of
 computational chemistry and represents and warrants to the
 licensee that it is not a competitor of Gaussian, Inc. and that
 it will not use this program in any manner prohibited above.
 ---------------------------------------------------------------
  

 Cite this work as:
 Gaussian 16, Revision C.01,
 M. J. Frisch, G. W. Trucks, H. B. Schlegel, G. E. Scuseria, 
 M. A. Robb, J. R. Cheeseman, G. Scalmani, V. Barone, 
 G. A. Petersson, H. Nakatsuji, X. Li, M. Caricato, A. V. Marenich, 
 J. Bloino, B. G. Janesko, R. Gomperts, B. Mennucci, H. P. Hratchian, 
 J. V. Ortiz, A. F. Izmaylov, J. L. Sonnenberg, D. Williams-Young, 
 F. Ding, F. Lipparini, F. Egidi, J. Goings, B. Peng, A. Petrone, 
 T. Henderson, D. Ranasinghe, V. G. Zakrzewski, J. Gao, N. Rega, 
 G. Zheng, W. Liang, M. Hada, M. Ehara, K. Toyota, R. Fukuda, 
 J. Hasegawa, M. Ishida, T. Nakajima, Y. Honda, O. Kitao, H. Nakai, 
 T. Vreven, K. Throssell, J. A. Montgomery, Jr., J. E. Peralta, 
 F. Ogliaro, M. J. Bearpark, J. J. Heyd, E. N. Brothers, K. N. Kudin, 
 V. N. Staroverov, T. A. Keith, R. Kobayashi, J. Normand, 
 K. Raghavachari, A. P. Rendell, J. C. Burant, S. S. Iyengar, 
 J. Tomasi, M. Cossi, J. M. Millam, M. Klene, C. Adamo, R. Cammi, 
 J. W. Ochterski, R. L. Martin, K. Morokuma, O. Farkas, 
 J. B. Foresman, and D. J. Fox, Gaussian, Inc., Wallingford CT, 2019.
 
 ******************************************
 Gaussian 16:  AS64L-G16RevC.01  3-Jul-2019
                11-May-2025 
 ******************************************
 %mem=20GB
 %nprocshared=32
 Will use up to   32 processors via shared memory.
 %chk=3-isopropyl-ph-opt-freq-thf.chk
 ----------------------------------------------------------------------
 # opt=(calcfc,tight) freq 6-311+g(d,p) scrf=(smd,solvent=thf) nosymm s
 cf=(qc,fermi,xqc) geom=connectivity int=ultrafine m062x
 ----------------------------------------------------------------------
 1/7=10,10=4,18=20,19=15,26=6,38=1,57=2/1,3;
 2/9=110,12=2,15=1,17=6,18=5,40=1/2;
 3/5=4,6=6,7=111,11=2,25=1,30=1,70=32201,71=2,72=20,74=-55,75=-5,140=1/1,2,3;
 4//1;
 5/5=2,22=13,38=5,53=20/2;
 8/6=4,10=90,11=11/1;
 11/6=1,8=1,9=11,15=111,16=1,31=1/1,2,10;
 10/6=1,13=1,31=1/2;
 6/7=2,8=2,9=2,10=2,28=1/1;
 7/10=1,25=1,30=1/1,2,3,16;
 1/7=10,10=4,18=20,19=15,26=6/3(2);
 2/9=110,15=1/2;
 99//99;
 2/9=110,15=1/2;
 3/5=4,6=6,7=111,11=2,25=1,30=1,70=32205,71=1,72=20,74=-55,75=-5/1,2,3;
 4/5=5,16=3,69=1/1;
 5/5=2,22=13,38=5,53=20/2;
 7/30=1/1,2,3,16;
 1/7=10,18=20,19=15,26=6/3(-5);
 2/9=110,15=1/2;
 6/7=2,8=2,9=2,10=2,19=2,28=1/1;
 99/9=1/99;
 ---------------------------
 3-isopropyl-ph-opt-freq-thf
 ---------------------------
 Symbolic Z-matrix:
 Charge =  0 Multiplicity = 2
 C                     6.31657   6.92134   5.14215 
 C                     5.13774   6.55122   5.7975 
 H                     5.13903   5.77182   6.55469 
 C                     3.93175   7.18032   5.4998 
 H                     3.02436   6.88641   6.01557 
 C                     3.88955   8.18741   4.54247 
 C                     5.04976   8.58459   3.86856 
 C                     6.24637   7.94303   4.18421 
 H                     7.15504   8.24273   3.66994 
 H                     2.9434    8.67006   4.317 
 C                     5.00371   9.68389   2.82527 
 H                     6.02177   9.80995   2.44412 
 C                     4.55436   11.01384   3.43915 
 H                     5.20473   11.30777   4.26666 
 H                     4.5751    11.80737   2.68736 
 H                     3.53178   10.93984   3.82095 
 C                     4.09751   9.29874   1.65135 
 H                     4.11667   10.07678   0.88351 
 H                     4.41772   8.3586    1.19555 
 H                     3.06182   9.18015   1.98326 
 

 GradGradGradGradGradGradGradGradGradGradGradGradGradGradGradGradGradGrad
 Berny optimization.
 Initialization pass.
                           ----------------------------
                           !    Initial Parameters    !
                           ! (Angstroms and Degrees)  !
 --------------------------                            --------------------------
 ! Name  Definition              Value          Derivative Info.                !
 --------------------------------------------------------------------------------
 ! R1    R(1,2)                  1.3986         calculate D2E/DX2 analytically  !
 ! R2    R(1,8)                  1.4023         calculate D2E/DX2 analytically  !
 ! R3    R(2,3)                  1.0866         calculate D2E/DX2 analytically  !
 ! R4    R(2,4)                  1.3924         calculate D2E/DX2 analytically  !
 ! R5    R(4,5)                  1.0843         calculate D2E/DX2 analytically  !
 ! R6    R(4,6)                  1.3901         calculate D2E/DX2 analytically  !
 ! R7    R(6,7)                  1.3993         calculate D2E/DX2 analytically  !
 ! R8    R(6,10)                 1.0858         calculate D2E/DX2 analytically  !
 ! R9    R(7,8)                  1.394          calculate D2E/DX2 analytically  !
 ! R10   R(7,11)                 1.5163         calculate D2E/DX2 analytically  !
 ! R11   R(8,9)                  1.0863         calculate D2E/DX2 analytically  !
 ! R12   R(11,12)                1.0944         calculate D2E/DX2 analytically  !
 ! R13   R(11,13)                1.5322         calculate D2E/DX2 analytically  !
 ! R14   R(11,17)                1.5322         calculate D2E/DX2 analytically  !
 ! R15   R(13,14)                1.0928         calculate D2E/DX2 analytically  !
 ! R16   R(13,15)                1.0933         calculate D2E/DX2 analytically  !
 ! R17   R(13,16)                1.094          calculate D2E/DX2 analytically  !
 ! R18   R(17,18)                1.0933         calculate D2E/DX2 analytically  !
 ! R19   R(17,19)                1.0928         calculate D2E/DX2 analytically  !
 ! R20   R(17,20)                1.094          calculate D2E/DX2 analytically  !
 ! A1    A(2,1,8)              118.0801         calculate D2E/DX2 analytically  !
 ! A2    A(1,2,3)              121.0185         calculate D2E/DX2 analytically  !
 ! A3    A(1,2,4)              120.6816         calculate D2E/DX2 analytically  !
 ! A4    A(3,2,4)              118.2989         calculate D2E/DX2 analytically  !
 ! A5    A(2,4,5)              120.0414         calculate D2E/DX2 analytically  !
 ! A6    A(2,4,6)              120.0556         calculate D2E/DX2 analytically  !
 ! A7    A(5,4,6)              119.903          calculate D2E/DX2 analytically  !
 ! A8    A(4,6,7)              120.8056         calculate D2E/DX2 analytically  !
 ! A9    A(4,6,10)             119.4371         calculate D2E/DX2 analytically  !
 ! A10   A(7,6,10)             119.7573         calculate D2E/DX2 analytically  !
 ! A11   A(6,7,8)              118.1687         calculate D2E/DX2 analytically  !
 ! A12   A(6,7,11)             120.7959         calculate D2E/DX2 analytically  !
 ! A13   A(8,7,11)             121.0354         calculate D2E/DX2 analytically  !
 ! A14   A(1,8,7)              122.2078         calculate D2E/DX2 analytically  !
 ! A15   A(1,8,9)              118.8519         calculate D2E/DX2 analytically  !
 ! A16   A(7,8,9)              118.9403         calculate D2E/DX2 analytically  !
 ! A17   A(7,11,12)            107.1513         calculate D2E/DX2 analytically  !
 ! A18   A(7,11,13)            111.2568         calculate D2E/DX2 analytically  !
 ! A19   A(7,11,17)            111.2782         calculate D2E/DX2 analytically  !
 ! A20   A(12,11,13)           108.2033         calculate D2E/DX2 analytically  !
 ! A21   A(12,11,17)           108.1987         calculate D2E/DX2 analytically  !
 ! A22   A(13,11,17)           110.5925         calculate D2E/DX2 analytically  !
 ! A23   A(11,13,14)           111.2436         calculate D2E/DX2 analytically  !
 ! A24   A(11,13,15)           110.4228         calculate D2E/DX2 analytically  !
 ! A25   A(11,13,16)           110.8073         calculate D2E/DX2 analytically  !
 ! A26   A(14,13,15)           108.3125         calculate D2E/DX2 analytically  !
 ! A27   A(14,13,16)           108.0719         calculate D2E/DX2 analytically  !
 ! A28   A(15,13,16)           107.8668         calculate D2E/DX2 analytically  !
 ! A29   A(11,17,18)           110.4163         calculate D2E/DX2 analytically  !
 ! A30   A(11,17,19)           111.2556         calculate D2E/DX2 analytically  !
 ! A31   A(11,17,20)           110.7753         calculate D2E/DX2 analytically  !
 ! A32   A(18,17,19)           108.311          calculate D2E/DX2 analytically  !
 ! A33   A(18,17,20)           107.8672         calculate D2E/DX2 analytically  !
 ! A34   A(19,17,20)           108.1004         calculate D2E/DX2 analytically  !
 ! D1    D(8,1,2,3)           -179.4292         calculate D2E/DX2 analytically  !
 ! D2    D(8,1,2,4)              0.1882         calculate D2E/DX2 analytically  !
 ! D3    D(2,1,8,7)             -0.3169         calculate D2E/DX2 analytically  !
 ! D4    D(2,1,8,9)            179.8012         calculate D2E/DX2 analytically  !
 ! D5    D(1,2,4,5)           -179.8845         calculate D2E/DX2 analytically  !
 ! D6    D(1,2,4,6)              0.019          calculate D2E/DX2 analytically  !
 ! D7    D(3,2,4,5)             -0.2569         calculate D2E/DX2 analytically  !
 ! D8    D(3,2,4,6)            179.6466         calculate D2E/DX2 analytically  !
 ! D9    D(2,4,6,7)             -0.1106         calculate D2E/DX2 analytically  !
 ! D10   D(2,4,6,10)           179.8971         calculate D2E/DX2 analytically  !
 ! D11   D(5,4,6,7)            179.793          calculate D2E/DX2 analytically  !
 ! D12   D(5,4,6,10)            -0.1993         calculate D2E/DX2 analytically  !
 ! D13   D(4,6,7,8)             -0.0109         calculate D2E/DX2 analytically  !
 ! D14   D(4,6,7,11)          -179.9472         calculate D2E/DX2 analytically  !
 ! D15   D(10,6,7,8)           179.9814         calculate D2E/DX2 analytically  !
 ! D16   D(10,6,7,11)            0.0451         calculate D2E/DX2 analytically  !
 ! D17   D(6,7,8,1)              0.2293         calculate D2E/DX2 analytically  !
 ! D18   D(6,7,8,9)           -179.889          calculate D2E/DX2 analytically  !
 ! D19   D(11,7,8,1)          -179.8346         calculate D2E/DX2 analytically  !
 ! D20   D(11,7,8,9)             0.0472         calculate D2E/DX2 analytically  !
 ! D21   D(6,7,11,12)         -179.8719         calculate D2E/DX2 analytically  !
 ! D22   D(6,7,11,13)           62.0384         calculate D2E/DX2 analytically  !
 ! D23   D(6,7,11,17)          -61.7759         calculate D2E/DX2 analytically  !
 ! D24   D(8,7,11,12)            0.1937         calculate D2E/DX2 analytically  !
 ! D25   D(8,7,11,13)         -117.896          calculate D2E/DX2 analytically  !
 ! D26   D(8,7,11,17)          118.2896         calculate D2E/DX2 analytically  !
 ! D27   D(7,11,13,14)          56.812          calculate D2E/DX2 analytically  !
 ! D28   D(7,11,13,15)         177.1081         calculate D2E/DX2 analytically  !
 ! D29   D(7,11,13,16)         -63.4381         calculate D2E/DX2 analytically  !
 ! D30   D(12,11,13,14)        -60.6409         calculate D2E/DX2 analytically  !
 ! D31   D(12,11,13,15)         59.6552         calculate D2E/DX2 analytically  !
 ! D32   D(12,11,13,16)        179.1089         calculate D2E/DX2 analytically  !
 ! D33   D(17,11,13,14)       -178.9848         calculate D2E/DX2 analytically  !
 ! D34   D(17,11,13,15)        -58.6887         calculate D2E/DX2 analytically  !
 ! D35   D(17,11,13,16)         60.765          calculate D2E/DX2 analytically  !
 ! D36   D(7,11,17,18)        -176.9649         calculate D2E/DX2 analytically  !
 ! D37   D(7,11,17,19)         -56.6672         calculate D2E/DX2 analytically  !
 ! D38   D(7,11,17,20)          63.6055         calculate D2E/DX2 analytically  !
 ! D39   D(12,11,17,18)        -59.5025         calculate D2E/DX2 analytically  !
 ! D40   D(12,11,17,19)         60.7952         calculate D2E/DX2 analytically  !
 ! D41   D(12,11,17,20)       -178.9321         calculate D2E/DX2 analytically  !
 ! D42   D(13,11,17,18)         58.8442         calculate D2E/DX2 analytically  !
 ! D43   D(13,11,17,19)        179.1419         calculate D2E/DX2 analytically  !
 ! D44   D(13,11,17,20)        -60.5853         calculate D2E/DX2 analytically  !
 --------------------------------------------------------------------------------
 Trust Radius=3.00D-01 FncErr=5.00D-06 GrdErr=5.00D-06 EigMax=2.50D+02 EigMin=1.00D-04
 Number of steps in this run=    108 maximum allowed number of steps=    120.
 GradGradGradGradGradGradGradGradGradGradGradGradGradGradGradGradGradGrad

                          Input orientation:                          
 ---------------------------------------------------------------------
 Center     Atomic      Atomic             Coordinates (Angstroms)
 Number     Number       Type             X           Y           Z
 ---------------------------------------------------------------------
      1          6           0        6.316572    6.921341    5.142152
      2          6           0        5.137735    6.551215    5.797499
      3          1           0        5.139027    5.771822    6.554692
      4          6           0        3.931746    7.180322    5.499799
      5          1           0        3.024360    6.886412    6.015566
      6          6           0        3.889551    8.187413    4.542466
      7          6           0        5.049765    8.584594    3.868563
      8          6           0        6.246369    7.943030    4.184208
      9          1           0        7.155039    8.242729    3.669942
     10          1           0        2.943398    8.670062    4.317002
     11          6           0        5.003705    9.683895    2.825269
     12          1           0        6.021775    9.809950    2.444119
     13          6           0        4.554359   11.013845    3.439147
     14          1           0        5.204731   11.307773    4.266657
     15          1           0        4.575103   11.807373    2.687356
     16          1           0        3.531776   10.939838    3.820948
     17          6           0        4.097512    9.298742    1.651349
     18          1           0        4.116674   10.076777    0.883514
     19          1           0        4.417725    8.358596    1.195548
     20          1           0        3.061821    9.180146    1.983262
 ---------------------------------------------------------------------
                    Distance matrix (angstroms):
                    1          2          3          4          5
     1  C    0.000000
     2  C    1.398617   0.000000
     3  H    2.168704   1.086645   0.000000
     4  C    2.425361   1.392412   2.134057   0.000000
     5  H    3.406278   2.150875   2.450466   1.084319   0.000000
     6  C    2.802319   2.410439   3.383094   1.390144   2.147366
     7  C    2.448109   2.804133   3.890365   2.425464   3.405247
     8  C    1.402296   2.401859   3.399933   2.769473   3.853785
     9  H    2.148603   3.384854   4.300171   3.855736   4.940046
    10  H    3.888084   3.390649   4.269407   2.143634   2.464362
    11  C    3.837092   4.320393   5.406591   3.817078   4.682063
    12  H    3.963628   4.758785   5.829454   4.540963   5.503345
    13  C    4.770137   5.081065   6.125950   4.396571   5.100445
    14  H    4.609064   4.997280   5.990507   4.491880   5.230787
    15  H    5.738645   6.133249   7.190422   5.452829   6.139841
    16  H    5.064483   5.074039   6.063415   4.136723   4.637249
    17  C    4.770950   5.081489   6.129167   4.396106   5.100724
    18  H    5.738669   6.133466   7.193059   5.452865   6.140809
    19  H    4.609447   4.996298   5.994339   4.488996   5.228897
    20  H    5.066971   5.076328   6.068726   4.137886   4.639191
                    6          7          8          9         10
     6  C    0.000000
     7  C    1.399284   0.000000
     8  C    2.396385   1.393950   0.000000
     9  H    3.380498   2.142079   1.086264   0.000000
    10  H    1.085813   2.155269   3.384646   4.282432   0.000000
    11  C    2.535658   1.516261   2.534076   2.723724   2.738246
    12  H    3.403243   2.115500   2.561980   2.289784   3.779344
    13  C    3.106123   2.516165   3.584399   3.807346   2.976431
    14  H    3.397413   2.756483   3.523252   3.681612   3.474720
    15  H    4.124988   3.465091   4.468427   4.508684   3.893704
    16  H    2.867827   2.802451   4.059782   4.519429   2.396694
    17  C    3.104329   2.516512   3.587606   3.812919   2.972023
    18  H    4.124222   3.465225   4.470241   4.512159   3.891563
    19  H    3.392658   2.756004   3.528275   3.691739   3.466140
    20  H    2.867086   2.803741   4.063984   4.525271   2.391768
                   11         12         13         14         15
    11  C    0.000000
    12  H    1.094364   0.000000
    13  C    1.532164   2.143071   0.000000
    14  H    2.180594   2.496533   1.092772   0.000000
    15  H    2.170686   2.478250   1.093301   1.772068   0.000000
    16  H    2.176085   3.061438   1.094041   1.769975   1.768100
    17  C    1.532193   2.143037   2.519228   3.478789   2.755836
    18  H    2.170620   2.477114   2.756977   3.760967   2.541450
    19  H    2.180775   2.497666   3.478901   4.329981   3.760894
    20  H    2.175696   3.061106   2.776639   3.785862   3.112570
                   16         17         18         19         20
    16  H    0.000000
    17  C    2.778563   0.000000
    18  H    3.116969   1.093287   0.000000
    19  H    3.786877   1.092779   1.772045   0.000000
    20  H    2.587366   1.094023   1.768080   1.770286   0.000000
 Symmetry turned off by external request.
 Stoichiometry    C9H11(2)
 Framework group  C1[X(C9H11)]
 Deg. of freedom    54
 Full point group                 C1      NOp   1
 Rotational constants (GHZ):           3.4457986           1.1051542           1.0196318
 Standard basis: 6-311+G(d,p) (5D, 7F)
   264 basis functions,   412 primitive gaussians,   273 cartesian basis functions
    33 alpha electrons       32 beta electrons
       nuclear repulsion energy       411.4429505288 Hartrees.
 NAtoms=   20 NActive=   20 NUniq=   20 SFac= 1.00D+00 NAtFMM=   60 NAOKFM=F Big=F
 Integral buffers will be    131072 words long.
 Raffenetti 2 integral format.
 Two-electron integral symmetry is turned off.
 Force inversion solution in PCM.
 ------------------------------------------------------------------------------
 Polarizable Continuum Model (PCM)
 =================================
 Model                : PCM.
 Atomic radii         : SMD-Coulomb.
 Polarization charges : Total charges.
 Charge compensation  : None.
 Solution method      : Matrix inversion.
 Cavity type          : VdW (van der Waals Surface) (Alpha=1.000).
 Cavity algorithm     : GePol (No added spheres)
                        Default sphere list used, NSphG=   20.
                        Lebedev-Laikov grids with approx.  5.0 points / Ang**2.
                        Smoothing algorithm: York/Karplus (Gamma=1.0000).
                        Polarization charges: spherical gaussians, with
                                              point-specific exponents (IZeta= 3).
                        Self-potential: point-specific (ISelfS= 7).
                        Self-field    : sphere-specific E.n sum rule (ISelfD= 2).
 1st derivatives      : Analytical E(r).r(x)/FMM algorithm (CHGder, D1EAlg=3).
                        Cavity 1st derivative terms included.
 2nd derivatives      : Analytical E(r).r(xy)/FMM algorithm (CHGder, D2EAlg=3).
                        Cavity 2nd derivative terms included.
 Solvent              : TetraHydroFuran, Eps=   7.425700 Eps(inf)=   1.974025
 ------------------------------------------------------------------------------
 Spheres list:
 ISph  on   Nord     Re0    Alpha      Xe            Ye            Ze
    1   C      1    1.8500  1.000      6.316572      6.921341      5.142152
    2   C      2    1.8500  1.000      5.137735      6.551215      5.797499
    3   H      3    1.2000  1.000      5.139027      5.771822      6.554692
    4   C      4    1.8500  1.000      3.931746      7.180322      5.499799
    5   H      5    1.2000  1.000      3.024360      6.886412      6.015566
    6   C      6    1.8500  1.000      3.889551      8.187413      4.542466
    7   C      7    1.8500  1.000      5.049765      8.584594      3.868563
    8   C      8    1.8500  1.000      6.246369      7.943030      4.184208
    9   H      9    1.2000  1.000      7.155039      8.242729      3.669942
   10   H     10    1.2000  1.000      2.943398      8.670062      4.317002
   11   C     11    1.8500  1.000      5.003705      9.683895      2.825269
   12   H     12    1.2000  1.000      6.021775      9.809950      2.444119
   13   C     13    1.8500  1.000      4.554359     11.013845      3.439147
   14   H     14    1.2000  1.000      5.204731     11.307773      4.266657
   15   H     15    1.2000  1.000      4.575103     11.807373      2.687356
   16   H     16    1.2000  1.000      3.531776     10.939838      3.820948
   17   C     17    1.8500  1.000      4.097512      9.298742      1.651349
   18   H     18    1.2000  1.000      4.116674     10.076777      0.883514
   19   H     19    1.2000  1.000      4.417725      8.358596      1.195548
   20   H     20    1.2000  1.000      3.061821      9.180146      1.983262
 ------------------------------------------------------------------------------
 ------------------------------------------------------------------------------
 Atomic radii for non-electrostatic terms: SMD-CDS.
 ------------------------------------------------------------------------------
 Nuclear repulsion after PCM non-electrostatic terms =      411.4395207469 Hartrees.
 One-electron integrals computed using PRISM.
 NBasis=   264 RedAO= T EigKep=  2.81D-06  NBF=   264
 NBsUse=   264 1.00D-06 EigRej= -1.00D+00 NBFU=   264
 ExpMin= 4.38D-02 ExpMax= 4.56D+03 ExpMxC= 6.82D+02 IAcc=3 IRadAn=         5 AccDes= 0.00D+00
 Harris functional with IExCor= 1009 and IRadAn=       5 diagonalized for initial guess.
 HarFok:  IExCor= 1009 AccDes= 0.00D+00 IRadAn=         5 IDoV= 1 UseB2=F ITyADJ=14
 ICtDFT=  3500011 ScaDFX=  1.000000  1.000000  1.000000  1.000000
 FoFCou: FMM=F IPFlag=           0 FMFlag=      100000 FMFlg1=           0
         NFxFlg=           0 DoJE=T BraDBF=F KetDBF=T FulRan=T
         wScrn=  0.000000 ICntrl=       500 IOpCl=  0 I1Cent=   200000004 NGrid=           0
         NMat0=    1 NMatS0=      1 NMatT0=    0 NMatD0=    1 NMtDS0=    0 NMtDT0=    0
 Symmetry not used in FoFCou.
 Initial guess <Sx>= 0.0000 <Sy>= 0.0000 <Sz>= 0.5000 <S**2>= 0.7500 S= 0.5000
 Requested convergence on RMS density matrix=1.00D-08 within 128 cycles.
 Requested convergence on MAX density matrix=1.00D-06.
 Requested convergence on             energy=1.00D-06.
 Level shift goal  0.100 maximum shift  0.100.
 No special actions if energy rises.
 Dynamic level shift is on during FON iterations.
 Inv3:  Mode=1 IEnd=     6949452.
 Iteration    1 A*A^-1 deviation from unit magnitude is 5.33D-15 for   1512.
 Iteration    1 A*A^-1 deviation from orthogonality  is 2.07D-15 for   1511   1133.
 Iteration    1 A^-1*A deviation from unit magnitude is 5.11D-15 for   1501.
 Iteration    1 A^-1*A deviation from orthogonality  is 2.96D-15 for    869    867.
 Error on total polarization charges =  0.04796
 SCF Done:  E(UM062X) =  -349.432957621     A.U. after   17 cycles
            NFock= 17  Conv=0.30D-08     -V/T= 2.0046
 <Sx>= 0.0000 <Sy>= 0.0000 <Sz>= 0.5000 <S**2>= 0.7635 S= 0.5067
 <L.S>=  0.00000000000    
 SMD-CDS (non-electrostatic) energy       (kcal/mol) =      -2.15
 (included in total energy above)
 Annihilation of the first spin contaminant:
 S**2 before annihilation     0.7635,   after     0.7501
 DoSCS=F DFT=T ScalE2(SS,OS)=  1.000000  1.000000
 Range of M.O.s used for correlation:     1   264
 NBasis=   264 NAE=    33 NBE=    32 NFC=     0 NFV=     0
 NROrb=    264 NOA=    33 NOB=    32 NVA=   231 NVB=   232

 **** Warning!!: The largest alpha MO coefficient is  0.18466601D+03


 **** Warning!!: The largest beta MO coefficient is  0.16080071D+03

 Symmetrizing basis deriv contribution to polar:
 IMax=3 JMax=2 DiffMx= 0.00D+00
 G2DrvN: will do    21 centers at a time, making    1 passes.
 Calling FoFCou, ICntrl=  3107 FMM=F I1Cent=   0 AccDes= 0.00D+00.
 NEqPCM:  Using equilibrium solvation (IEInf=0, Eps=   7.4257, EpsInf=   1.9740)
 G2PCM: DoFxE=T DoFxN=T DoGrad=T DoDP/DQ/DG/TGxP=FFFF NFrqRd=   0 IEInf=0 SqF1=F DoCFld=F IF1Alg=4.
 End of G2Drv F.D. properties file   721 does not exist.
 End of G2Drv F.D. properties file   722 does not exist.
 End of G2Drv F.D. properties file   788 does not exist.
          IDoAtm=11111111111111111111
 NEqPCM:  Using equilibrium solvation (IEInf=0, Eps=   7.4257, EpsInf=   1.9740)
          Differentiating once with respect to nuclear coordinates.
 Keep R1 and R2 ints in memory in canonical form, NReq=1258935315.
          There are    63 degrees of freedom in the 1st order CPHF.  IDoFFX=6 NUNeed=     0.
     57 vectors produced by pass  0 Test12= 2.39D-14 1.59D-09 XBig12= 2.72D-01 9.88D-02.
 AX will form    57 AO Fock derivatives at one time.
     57 vectors produced by pass  1 Test12= 2.39D-14 1.59D-09 XBig12= 3.23D-02 6.44D-02.
     57 vectors produced by pass  2 Test12= 2.39D-14 1.59D-09 XBig12= 7.28D-04 7.10D-03.
     57 vectors produced by pass  3 Test12= 2.39D-14 1.59D-09 XBig12= 1.51D-05 1.30D-03.
     57 vectors produced by pass  4 Test12= 2.39D-14 1.59D-09 XBig12= 1.83D-07 1.18D-04.
     57 vectors produced by pass  5 Test12= 2.39D-14 1.59D-09 XBig12= 1.62D-09 4.19D-06.
     48 vectors produced by pass  6 Test12= 2.39D-14 1.59D-09 XBig12= 1.02D-11 3.03D-07.
     20 vectors produced by pass  7 Test12= 2.39D-14 1.59D-09 XBig12= 6.80D-14 3.11D-08.
      1 vectors produced by pass  8 Test12= 2.39D-14 1.59D-09 XBig12= 3.76D-16 2.02D-09.
 InvSVY:  IOpt=1 It=  1 EMax= 4.44D-16
 Solved reduced A of dimension   411 with    63 vectors.
 End of Minotr F.D. properties file   721 does not exist.
 End of Minotr F.D. properties file   722 does not exist.
 End of Minotr F.D. properties file   788 does not exist.

 **********************************************************************

            Population analysis using the SCF Density.

 **********************************************************************

 Alpha  occ. eigenvalues --  -10.57776 -10.55366 -10.54861 -10.54775 -10.54756
 Alpha  occ. eigenvalues --  -10.54225 -10.54052 -10.51892 -10.51890  -0.97142
 Alpha  occ. eigenvalues --   -0.90312  -0.84457  -0.82649  -0.77009  -0.70446
 Alpha  occ. eigenvalues --   -0.68765  -0.63306  -0.58515  -0.54268  -0.51732
 Alpha  occ. eigenvalues --   -0.49693  -0.49259  -0.47997  -0.45359  -0.44682
 Alpha  occ. eigenvalues --   -0.43438  -0.43342  -0.39632  -0.39158  -0.38165
 Alpha  occ. eigenvalues --   -0.32076  -0.31620  -0.30223
 Alpha virt. eigenvalues --    0.01089   0.01806   0.01912   0.02863   0.03464
 Alpha virt. eigenvalues --    0.04107   0.04954   0.05630   0.05875   0.06717
 Alpha virt. eigenvalues --    0.07679   0.07794   0.08227   0.08515   0.10528
 Alpha virt. eigenvalues --    0.11116   0.11382   0.11882   0.11948   0.12482
 Alpha virt. eigenvalues --    0.14534   0.14798   0.15747   0.16434   0.17173
 Alpha virt. eigenvalues --    0.17196   0.17469   0.18807   0.19179   0.19802
 Alpha virt. eigenvalues --    0.20522   0.20840   0.22144   0.22358   0.22386
 Alpha virt. eigenvalues --    0.23273   0.24166   0.24778   0.25247   0.25335
 Alpha virt. eigenvalues --    0.25781   0.26250   0.26446   0.28262   0.28587
 Alpha virt. eigenvalues --    0.28717   0.29649   0.31096   0.31206   0.32207
 Alpha virt. eigenvalues --    0.32441   0.32973   0.35292   0.36901   0.39120
 Alpha virt. eigenvalues --    0.40445   0.43979   0.44405   0.45452   0.49880
 Alpha virt. eigenvalues --    0.52192   0.53140   0.53990   0.54271   0.55064
 Alpha virt. eigenvalues --    0.58064   0.58348   0.58759   0.60384   0.60805
 Alpha virt. eigenvalues --    0.61169   0.63148   0.63748   0.66320   0.66587
 Alpha virt. eigenvalues --    0.68060   0.69727   0.70702   0.70783   0.71000
 Alpha virt. eigenvalues --    0.71783   0.73147   0.73437   0.74518   0.74619
 Alpha virt. eigenvalues --    0.76675   0.77227   0.78514   0.79353   0.80534
 Alpha virt. eigenvalues --    0.81708   0.83145   0.85704   0.86685   0.89260
 Alpha virt. eigenvalues --    0.90788   0.92046   0.93496   0.94782   0.96907
 Alpha virt. eigenvalues --    0.98595   1.00882   1.01830   1.06698   1.08537
 Alpha virt. eigenvalues --    1.08688   1.11929   1.14532   1.16423   1.18926
 Alpha virt. eigenvalues --    1.23018   1.23921   1.25154   1.30993   1.33455
 Alpha virt. eigenvalues --    1.43548   1.46700   1.50877   1.51007   1.52260
 Alpha virt. eigenvalues --    1.53635   1.55300   1.56379   1.57278   1.57468
 Alpha virt. eigenvalues --    1.59953   1.61388   1.61541   1.63973   1.66734
 Alpha virt. eigenvalues --    1.67257   1.68427   1.68667   1.71760   1.72362
 Alpha virt. eigenvalues --    1.73682   1.74879   1.77489   1.79035   1.79843
 Alpha virt. eigenvalues --    1.79969   1.82822   1.83857   1.87437   1.92624
 Alpha virt. eigenvalues --    1.93842   1.95142   1.95399   1.95446   1.97394
 Alpha virt. eigenvalues --    1.98510   2.00553   2.03441   2.04012   2.05847
 Alpha virt. eigenvalues --    2.09543   2.12224   2.15310   2.16312   2.18647
 Alpha virt. eigenvalues --    2.20259   2.26767   2.32246   2.32685   2.36618
 Alpha virt. eigenvalues --    2.40002   2.41077   2.43493   2.46355   2.48869
 Alpha virt. eigenvalues --    2.52893   2.54823   2.55401   2.55675   2.57501
 Alpha virt. eigenvalues --    2.57558   2.59971   2.60294   2.65993   2.69903
 Alpha virt. eigenvalues --    2.70221   2.71870   2.71988   2.74436   2.74725
 Alpha virt. eigenvalues --    2.75723   2.77743   2.78214   2.79238   2.85004
 Alpha virt. eigenvalues --    2.87270   2.88369   2.89620   2.93080   2.93193
 Alpha virt. eigenvalues --    2.96193   2.99593   3.01350   3.03287   3.09049
 Alpha virt. eigenvalues --    3.13286   3.19036   3.23335   3.27164   3.43120
 Alpha virt. eigenvalues --    3.43785   3.49418   3.57254   3.61836   3.72104
 Alpha virt. eigenvalues --    3.80140   3.82843   3.84356   3.88484   3.90648
 Alpha virt. eigenvalues --    4.05245   4.12949   4.17314   4.19019   4.34010
 Alpha virt. eigenvalues --    4.41677   4.83385  23.62197  23.94086  23.98904
 Alpha virt. eigenvalues --   24.02526  24.05545  24.06852  24.13764  24.16524
 Alpha virt. eigenvalues --   24.24353
  Beta  occ. eigenvalues --  -10.56732 -10.55293 -10.54849 -10.54771 -10.54689
  Beta  occ. eigenvalues --  -10.54220 -10.54086 -10.51890 -10.51889  -0.96533
  Beta  occ. eigenvalues --   -0.89939  -0.83573  -0.81924  -0.76999  -0.69946
  Beta  occ. eigenvalues --   -0.67957  -0.62125  -0.58046  -0.53724  -0.51204
  Beta  occ. eigenvalues --   -0.49324  -0.48901  -0.47884  -0.44616  -0.44192
  Beta  occ. eigenvalues --   -0.42852  -0.42625  -0.39525  -0.38573  -0.37953
  Beta  occ. eigenvalues --   -0.30837  -0.29759
  Beta virt. eigenvalues --   -0.06245   0.01817   0.01859   0.02345   0.02892
  Beta virt. eigenvalues --    0.03591   0.04117   0.04967   0.05876   0.06288
  Beta virt. eigenvalues --    0.06736   0.07666   0.07805   0.08536   0.08993
  Beta virt. eigenvalues --    0.10291   0.11132   0.11440   0.11866   0.12006
  Beta virt. eigenvalues --    0.12682   0.14489   0.14896   0.15838   0.16472
  Beta virt. eigenvalues --    0.17003   0.17423   0.17444   0.19132   0.19154
  Beta virt. eigenvalues --    0.19785   0.20354   0.20836   0.22293   0.22406
  Beta virt. eigenvalues --    0.22937   0.23591   0.24428   0.24693   0.24928
  Beta virt. eigenvalues --    0.25298   0.25969   0.26265   0.26424   0.28283
  Beta virt. eigenvalues --    0.28698   0.28745   0.29804   0.30982   0.31211
  Beta virt. eigenvalues --    0.32024   0.32603   0.32979   0.35548   0.37836
  Beta virt. eigenvalues --    0.39228   0.41040   0.43975   0.44391   0.45493
  Beta virt. eigenvalues --    0.49691   0.50761   0.52180   0.54009   0.54276
  Beta virt. eigenvalues --    0.55160   0.58099   0.58589   0.58697   0.59443
  Beta virt. eigenvalues --    0.60528   0.61330   0.63000   0.63740   0.66286
  Beta virt. eigenvalues --    0.66541   0.68016   0.69918   0.70797   0.70983
  Beta virt. eigenvalues --    0.71693   0.72165   0.73097   0.73175   0.74426
  Beta virt. eigenvalues --    0.74692   0.76594   0.77030   0.78363   0.79433
  Beta virt. eigenvalues --    0.80560   0.81709   0.83195   0.85300   0.87073
  Beta virt. eigenvalues --    0.88697   0.90210   0.91987   0.93474   0.95104
  Beta virt. eigenvalues --    0.97007   0.98720   1.01018   1.01968   1.06705
  Beta virt. eigenvalues --    1.08697   1.08935   1.12518   1.14497   1.17035
  Beta virt. eigenvalues --    1.19338   1.23742   1.23861   1.25179   1.31588
  Beta virt. eigenvalues --    1.33441   1.43527   1.46926   1.50927   1.51477
  Beta virt. eigenvalues --    1.53322   1.53733   1.55547   1.56900   1.57471
  Beta virt. eigenvalues --    1.57688   1.60542   1.61529   1.61623   1.64105
  Beta virt. eigenvalues --    1.67011   1.67315   1.68481   1.69254   1.71842
  Beta virt. eigenvalues --    1.72441   1.73725   1.75228   1.77596   1.79032
  Beta virt. eigenvalues --    1.79877   1.80055   1.83231   1.83858   1.88348
  Beta virt. eigenvalues --    1.93197   1.94147   1.95185   1.95405   1.95884
  Beta virt. eigenvalues --    1.97436   1.98642   2.00448   2.03928   2.04552
  Beta virt. eigenvalues --    2.05975   2.09602   2.12201   2.15319   2.16441
  Beta virt. eigenvalues --    2.18714   2.20323   2.26886   2.32382   2.33085
  Beta virt. eigenvalues --    2.37006   2.40120   2.41571   2.43525   2.46509
  Beta virt. eigenvalues --    2.48888   2.53303   2.54749   2.55414   2.55778
  Beta virt. eigenvalues --    2.57560   2.57615   2.59972   2.60295   2.66087
  Beta virt. eigenvalues --    2.69950   2.70366   2.71852   2.72015   2.74471
  Beta virt. eigenvalues --    2.75042   2.76018   2.77965   2.78599   2.79244
  Beta virt. eigenvalues --    2.85263   2.87353   2.88422   2.89679   2.92922
  Beta virt. eigenvalues --    2.93285   2.96216   2.99444   3.01348   3.03536
  Beta virt. eigenvalues --    3.11071   3.13317   3.19043   3.23619   3.27723
  Beta virt. eigenvalues --    3.43444   3.44116   3.49632   3.57314   3.62491
  Beta virt. eigenvalues --    3.72160   3.80634   3.82847   3.84360   3.88489
  Beta virt. eigenvalues --    3.90659   4.05330   4.12914   4.17640   4.19032
  Beta virt. eigenvalues --    4.34025   4.41777   4.83662  23.62455  23.94096
  Beta virt. eigenvalues --   23.99504  24.02533  24.05546  24.06855  24.13971
  Beta virt. eigenvalues --   24.16514  24.24390
          Condensed to atoms (all electrons):
               1          2          3          4          5          6
     1  C    5.884778   0.000810   0.028487   0.438306  -0.005362  -0.465347
     2  C    0.000810   5.889335   0.363321  -0.085866   0.015135   0.522915
     3  H    0.028487   0.363321   0.462976  -0.003311  -0.005752  -0.028034
     4  C    0.438306  -0.085866  -0.003311   5.859012   0.375948  -0.557223
     5  H   -0.005362   0.015135  -0.005752   0.375948   0.460022  -0.022908
     6  C   -0.465347   0.522915  -0.028034  -0.557223  -0.022908   8.811654
     7  C    0.776751  -0.765853   0.025943   0.611451   0.000816  -0.080873
     8  C   -0.579249   0.399623  -0.042860  -0.172192  -0.014523  -2.242610
     9  H    0.031823  -0.019071  -0.000077   0.008768   0.000046   0.003379
    10  H    0.013905  -0.036150  -0.000180  -0.001689  -0.005171   0.234251
    11  C   -0.264625   0.077196   0.000946  -0.331700   0.007555   0.065124
    12  H    0.008070  -0.005356  -0.000001   0.000035   0.000013  -0.080082
    13  C    0.002916   0.001652  -0.000136   0.033221  -0.000288  -0.058071
    14  H    0.006739   0.001571  -0.000001  -0.007108   0.000004  -0.006921
    15  H    0.000589   0.000729   0.000000   0.002382  -0.000001   0.010170
    16  H   -0.004395  -0.001246   0.000000   0.003340   0.000041  -0.001268
    17  C    0.001787   0.000789  -0.000139   0.035530  -0.000294  -0.048143
    18  H    0.000530   0.000782   0.000000   0.002279  -0.000001   0.009803
    19  H    0.006562   0.001637  -0.000001  -0.007292   0.000005  -0.007593
    20  H   -0.003972  -0.001550   0.000000   0.003593   0.000041  -0.001850
               7          8          9         10         11         12
     1  C    0.776751  -0.579249   0.031823   0.013905  -0.264625   0.008070
     2  C   -0.765853   0.399623  -0.019071  -0.036150   0.077196  -0.005356
     3  H    0.025943  -0.042860  -0.000077  -0.000180   0.000946  -0.000001
     4  C    0.611451  -0.172192   0.008768  -0.001689  -0.331700   0.000035
     5  H    0.000816  -0.014523   0.000046  -0.005171   0.007555   0.000013
     6  C   -0.080873  -2.242610   0.003379   0.234251   0.065124  -0.080082
     7  C    9.624069  -1.826153   0.110432   0.093352  -2.767924  -0.244437
     8  C   -1.826153  10.280972   0.220797   0.021105   0.209122   0.123989
     9  H    0.110432   0.220797   0.466624  -0.000129  -0.022198   0.003207
    10  H    0.093352   0.021105  -0.000129   0.456131   0.051308   0.000048
    11  C   -2.767924   0.209122  -0.022198   0.051308   8.558543   0.585067
    12  H   -0.244437   0.123989   0.003207   0.000048   0.585067   0.495958
    13  C    0.111009   0.132962   0.001944  -0.007139  -0.092084  -0.025566
    14  H   -0.025655   0.014093   0.000134   0.000030   0.010215  -0.005693
    15  H    0.077390  -0.000686   0.000012  -0.000051  -0.156607  -0.005750
    16  H   -0.097670  -0.003487   0.000003  -0.001571   0.101917   0.005411
    17  C    0.115928   0.117233   0.001903  -0.007440  -0.091832  -0.026966
    18  H    0.076746   0.000500   0.000012  -0.000051  -0.156537  -0.005757
    19  H   -0.025008   0.014875   0.000137   0.000031   0.009559  -0.005654
    20  H   -0.096593  -0.004688   0.000003  -0.001555   0.102141   0.005432
              13         14         15         16         17         18
     1  C    0.002916   0.006739   0.000589  -0.004395   0.001787   0.000530
     2  C    0.001652   0.001571   0.000729  -0.001246   0.000789   0.000782
     3  H   -0.000136  -0.000001   0.000000   0.000000  -0.000139   0.000000
     4  C    0.033221  -0.007108   0.002382   0.003340   0.035530   0.002279
     5  H   -0.000288   0.000004  -0.000001   0.000041  -0.000294  -0.000001
     6  C   -0.058071  -0.006921   0.010170  -0.001268  -0.048143   0.009803
     7  C    0.111009  -0.025655   0.077390  -0.097670   0.115928   0.076746
     8  C    0.132962   0.014093  -0.000686  -0.003487   0.117233   0.000500
     9  H    0.001944   0.000134   0.000012   0.000003   0.001903   0.000012
    10  H   -0.007139   0.000030  -0.000051  -0.001571  -0.007440  -0.000051
    11  C   -0.092084   0.010215  -0.156607   0.101917  -0.091832  -0.156537
    12  H   -0.025566  -0.005693  -0.005750   0.005411  -0.026966  -0.005757
    13  C    5.515516   0.375154   0.438362   0.398304  -0.184243   0.003256
    14  H    0.375154   0.493308  -0.021403  -0.027899   0.013938   0.000186
    15  H    0.438362  -0.021403   0.501359  -0.028632   0.003362   0.003057
    16  H    0.398304  -0.027899  -0.028632   0.494153  -0.017226  -0.000680
    17  C   -0.184243   0.013938   0.003362  -0.017226   5.516426   0.438425
    18  H    0.003256   0.000186   0.003057  -0.000680   0.438425   0.501231
    19  H    0.014047  -0.000326   0.000186  -0.000202   0.375217  -0.021365
    20  H   -0.017124  -0.000204  -0.000680   0.000941   0.398145  -0.028682
              19         20
     1  C    0.006562  -0.003972
     2  C    0.001637  -0.001550
     3  H   -0.000001   0.000000
     4  C   -0.007292   0.003593
     5  H    0.000005   0.000041
     6  C   -0.007593  -0.001850
     7  C   -0.025008  -0.096593
     8  C    0.014875  -0.004688
     9  H    0.000137   0.000003
    10  H    0.000031  -0.001555
    11  C    0.009559   0.102141
    12  H   -0.005654   0.005432
    13  C    0.014047  -0.017124
    14  H   -0.000326  -0.000204
    15  H    0.000186  -0.000680
    16  H   -0.000202   0.000941
    17  C    0.375217   0.398145
    18  H   -0.021365  -0.028682
    19  H    0.493187  -0.027908
    20  H   -0.027908   0.494438
          Atomic-Atomic Spin Densities.
               1          2          3          4          5          6
     1  C    1.314886  -0.430657   0.016563   0.291455   0.006472  -0.326434
     2  C   -0.430657   0.508782  -0.019098  -0.362336  -0.010544   0.354357
     3  H    0.016563  -0.019098   0.021895   0.015813   0.001099  -0.014622
     4  C    0.291455  -0.362336   0.015813   0.362131   0.009111  -0.322700
     5  H    0.006472  -0.010544   0.001099   0.009111   0.004662  -0.007705
     6  C   -0.326434   0.354357  -0.014622  -0.322700  -0.007705   0.445685
     7  C    0.375858  -0.325378   0.003293   0.303533   0.005135  -0.541146
     8  C   -0.269645   0.248698  -0.008546  -0.147481  -0.002301   0.108430
     9  H    0.020538  -0.018807   0.000120   0.011011   0.000015  -0.015406
    10  H   -0.000422  -0.000491  -0.000021  -0.002538  -0.000563   0.009507
    11  C   -0.223649   0.173221  -0.002154  -0.168480  -0.001585   0.329093
    12  H   -0.000090  -0.000353   0.000001   0.000244   0.000001  -0.000062
    13  C    0.012169  -0.010097   0.000099   0.011593   0.000089  -0.030481
    14  H   -0.001331   0.001006  -0.000001  -0.001167  -0.000002   0.003286
    15  H    0.000232  -0.000128   0.000000   0.000213   0.000000  -0.001230
    16  H   -0.000728   0.000619  -0.000001  -0.001069  -0.000002   0.003210
    17  C    0.012136  -0.010000   0.000096   0.011315   0.000088  -0.030576
    18  H    0.000234  -0.000129   0.000000   0.000219   0.000000  -0.001207
    19  H   -0.001338   0.001007  -0.000001  -0.001170  -0.000002   0.003317
    20  H   -0.000729   0.000618  -0.000001  -0.001066  -0.000002   0.003187
               7          8          9         10         11         12
     1  C    0.375858  -0.269645   0.020538  -0.000422  -0.223649  -0.000090
     2  C   -0.325378   0.248698  -0.018807  -0.000491   0.173221  -0.000353
     3  H    0.003293  -0.008546   0.000120  -0.000021  -0.002154   0.000001
     4  C    0.303533  -0.147481   0.011011  -0.002538  -0.168480   0.000244
     5  H    0.005135  -0.002301   0.000015  -0.000563  -0.001585   0.000001
     6  C   -0.541146   0.108430  -0.015406   0.009507   0.329093  -0.000062
     7  C    1.081641  -0.352193   0.020659  -0.006534  -0.611497   0.004913
     8  C   -0.352193   0.306895  -0.006231  -0.001443   0.190226  -0.000887
     9  H    0.020659  -0.006231   0.021643  -0.000021  -0.021243   0.000304
    10  H   -0.006534  -0.001443  -0.000021   0.005933   0.001482  -0.000023
    11  C   -0.611497   0.190226  -0.021243   0.001482   0.395817  -0.004052
    12  H    0.004913  -0.000887   0.000304  -0.000023  -0.004052   0.000067
    13  C    0.042896  -0.002635   0.000613  -0.000094  -0.034348   0.000011
    14  H   -0.007502   0.001565  -0.000084   0.000016   0.005460  -0.000061
    15  H    0.003059  -0.000415   0.000011  -0.000012  -0.002152   0.000076
    16  H   -0.004811   0.000803  -0.000013   0.000032   0.002445  -0.000012
    17  C    0.042455  -0.002228   0.000585  -0.000075  -0.033919   0.000020
    18  H    0.003017  -0.000437   0.000011  -0.000012  -0.002078   0.000075
    19  H   -0.007525   0.001565  -0.000083   0.000016   0.005463  -0.000061
    20  H   -0.004766   0.000808  -0.000013   0.000032   0.002401  -0.000012
              13         14         15         16         17         18
     1  C    0.012169  -0.001331   0.000232  -0.000728   0.012136   0.000234
     2  C   -0.010097   0.001006  -0.000128   0.000619  -0.010000  -0.000129
     3  H    0.000099  -0.000001   0.000000  -0.000001   0.000096   0.000000
     4  C    0.011593  -0.001167   0.000213  -0.001069   0.011315   0.000219
     5  H    0.000089  -0.000002   0.000000  -0.000002   0.000088   0.000000
     6  C   -0.030481   0.003286  -0.001230   0.003210  -0.030576  -0.001207
     7  C    0.042896  -0.007502   0.003059  -0.004811   0.042455   0.003017
     8  C   -0.002635   0.001565  -0.000415   0.000803  -0.002228  -0.000437
     9  H    0.000613  -0.000084   0.000011  -0.000013   0.000585   0.000011
    10  H   -0.000094   0.000016  -0.000012   0.000032  -0.000075  -0.000012
    11  C   -0.034348   0.005460  -0.002152   0.002445  -0.033919  -0.002078
    12  H    0.000011  -0.000061   0.000076  -0.000012   0.000020   0.000075
    13  C    0.012539  -0.001061  -0.000287  -0.000169  -0.001163   0.000736
    14  H   -0.001061   0.000190  -0.000113   0.000073  -0.000366  -0.000009
    15  H   -0.000287  -0.000113   0.000422  -0.000004   0.000737   0.000027
    16  H   -0.000169   0.000073  -0.000004  -0.000142  -0.000318  -0.000015
    17  C   -0.001163  -0.000366   0.000737  -0.000318   0.012475  -0.000328
    18  H    0.000736  -0.000009   0.000027  -0.000015  -0.000328   0.000414
    19  H   -0.000370   0.000008  -0.000009   0.000010  -0.001061  -0.000110
    20  H   -0.000316   0.000010  -0.000015   0.000026  -0.000151  -0.000002
              19         20
     1  C   -0.001338  -0.000729
     2  C    0.001007   0.000618
     3  H   -0.000001  -0.000001
     4  C   -0.001170  -0.001066
     5  H   -0.000002  -0.000002
     6  C    0.003317   0.003187
     7  C   -0.007525  -0.004766
     8  C    0.001565   0.000808
     9  H   -0.000083  -0.000013
    10  H    0.000016   0.000032
    11  C    0.005463   0.002401
    12  H   -0.000061  -0.000012
    13  C   -0.000370  -0.000316
    14  H    0.000008   0.000010
    15  H   -0.000009  -0.000015
    16  H    0.000010   0.000026
    17  C   -0.001061  -0.000151
    18  H   -0.000110  -0.000002
    19  H    0.000190   0.000071
    20  H    0.000071  -0.000149
 Mulliken charges and spin densities:
               1          2
     1  C    0.120897   0.795521
     2  C   -0.360403   0.100291
     3  H    0.198819   0.014534
     4  C   -0.207487   0.008631
     5  H    0.194673   0.003968
     6  C   -0.056373  -0.031497
     7  C    0.306278   0.025109
     8  C   -0.648825   0.064547
     9  H    0.192251   0.013609
    10  H    0.190966   0.004769
    11  C    0.104811   0.000452
    12  H    0.178032   0.000098
    13  C   -0.643693  -0.000277
    14  H    0.179838  -0.000083
    15  H    0.176211   0.000414
    16  H    0.180166  -0.000066
    17  C   -0.642404  -0.000278
    18  H    0.176265   0.000407
    19  H    0.179908  -0.000082
    20  H    0.180070  -0.000068
 Sum of Mulliken charges =   0.00000   1.00000
 Mulliken charges and spin densities with hydrogens summed into heavy atoms:
               1          2
     1  C    0.120897   0.795521
     2  C   -0.161585   0.114826
     4  C   -0.012813   0.012599
     6  C    0.134593  -0.026728
     7  C    0.306278   0.025109
     8  C   -0.456573   0.078156
    11  C    0.282843   0.000549
    13  C   -0.107479  -0.000012
    17  C   -0.106162  -0.000021
 APT charges:
               1
     1  C    0.683225
     2  C   -1.095177
     3  H    0.222900
     4  C   -0.148060
     5  H   -0.112078
     6  C   -1.080699
     7  C    0.917837
     8  C   -0.556377
     9  H    1.225409
    10  H    0.192110
    11  C   -0.855449
    12  H    1.064581
    13  C   -3.294860
    14  H    1.500067
    15  H    1.154135
    16  H   -0.152100
    17  C    0.418361
    18  H    1.054473
    19  H   -0.801294
    20  H   -0.337003
 Sum of APT charges =   0.00000
 APT charges with hydrogens summed into heavy atoms:
               1
     1  C    0.683225
     2  C   -0.872277
     4  C   -0.260138
     6  C   -0.888589
     7  C    0.917837
     8  C    0.669032
    11  C    0.209131
    13  C   -0.792758
    17  C    0.334536
 Electronic spatial extent (au):  <R**2>=          27225.9620
 Charge=              0.0000 electrons
 Dipole moment (field-independent basis, Debye):
    X=             -1.1045    Y=              1.0416    Z=             -0.7043  Tot=              1.6736
 Quadrupole moment (field-independent basis, Debye-Ang):
   XX=            -63.9805   YY=            -38.3345   ZZ=            -60.6528
   XY=             -2.6274   XZ=            -11.1207   YZ=             -5.9198
 Traceless Quadrupole moment (field-independent basis, Debye-Ang):
   XX=             -9.6579   YY=             15.9881   ZZ=             -6.3302
   XY=             -2.6274   XZ=            -11.1207   YZ=             -5.9198
 Octapole moment (field-independent basis, Debye-Ang**2):
  XXX=           -859.7700  YYY=          -1197.2656  ZZZ=           -697.7240  XYY=           -239.7839
  XXY=           -499.7316  XXZ=           -305.6207  XZZ=           -342.2993  YZZ=           -536.3165
  YYZ=           -269.6853  XYZ=            -84.0675
 Hexadecapole moment (field-independent basis, Debye-Ang**3):
 XXXX=          -8501.2185 YYYY=         -22315.4384 ZZZZ=          -6203.6625 XXXY=          -6953.9210
 XXXZ=          -3832.3369 YYYX=          -6123.1112 YYYZ=          -5787.5027 ZZZX=          -3718.0965
 ZZZY=          -5899.9697 XXYY=          -5419.1834 XXZZ=          -2932.9398 YYZZ=          -5809.1296
 XXYZ=          -2406.5960 YYXZ=          -1723.3971 ZZXY=          -2927.8262
 N-N= 4.114395207469D+02 E-N=-1.632438312956D+03  KE= 3.478249554537D+02
  Exact polarizability:       0.000       0.000       0.000       0.000       0.000       0.000
 Approx polarizability:     138.594      -7.024     121.124      -5.095     -26.231     118.329
                          Isotropic Fermi Contact Couplings
        Atom                 a.u.       MegaHertz       Gauss      10(-4) cm-1
     1  C(13)              0.53381     600.10851     214.13364     200.17465
     2  C(13)              0.02068      23.25310       8.29729       7.75640
     3  H(1)               0.00929      41.51295      14.81285      13.84723
     4  C(13)              0.03997      44.93176      16.03277      14.98762
     5  H(1)               0.00218       9.76299       3.48368       3.25658
     6  C(13)             -0.00949     -10.66374      -3.80509      -3.55704
     7  C(13)              0.03581      40.25829      14.36516      13.42872
     8  C(13)              0.02055      23.10178       8.24329       7.70592
     9  H(1)               0.00946      42.30212      15.09445      14.11047
    10  H(1)               0.00150       6.69634       2.38942       2.23366
    11  C(13)              0.00210       2.36312       0.84322       0.78825
    12  H(1)               0.00007       0.32497       0.11596       0.10840
    13  C(13)              0.00110       1.23510       0.44072       0.41199
    14  H(1)               0.00000       0.00046       0.00016       0.00015
    15  H(1)               0.00020       0.87614       0.31263       0.29225
    16  H(1)              -0.00006      -0.25792      -0.09203      -0.08603
    17  C(13)              0.00108       1.21871       0.43486       0.40652
    18  H(1)               0.00019       0.86222       0.30766       0.28761
    19  H(1)               0.00000      -0.00019      -0.00007      -0.00006
    20  H(1)              -0.00006      -0.25907      -0.09244      -0.08642
 --------------------------------------------------------
       Center         ----  Spin Dipole Couplings  ----
                      3XX-RR        3YY-RR        3ZZ-RR
 --------------------------------------------------------
     1   Atom        0.556843     -0.171202     -0.385641
     2   Atom        0.103587     -0.056288     -0.047299
     3   Atom        0.004213     -0.004936      0.000723
     4   Atom        0.034586     -0.011676     -0.022910
     5   Atom        0.007681     -0.004612     -0.003069
     6   Atom        0.028329     -0.011692     -0.016637
     7   Atom        0.022721     -0.003734     -0.018987
     8   Atom       -0.004487      0.014115     -0.009628
     9   Atom       -0.009067      0.003777      0.005290
    10   Atom        0.000812     -0.000383     -0.000429
    11   Atom       -0.006158      0.004033      0.002125
    12   Atom       -0.001681      0.001000      0.000681
    13   Atom       -0.001430      0.003133     -0.001703
    14   Atom       -0.001261      0.002411     -0.001150
    15   Atom       -0.000639      0.000989     -0.000350
    16   Atom        0.000205      0.000712     -0.000917
    17   Atom       -0.000389     -0.001301      0.001689
    18   Atom       -0.000451     -0.000095      0.000547
    19   Atom       -0.000758     -0.000905      0.001663
    20   Atom        0.000715     -0.000617     -0.000097
 --------------------------------------------------------
                        XY            XZ            YZ
 --------------------------------------------------------
     1   Atom       -0.534695      0.283130     -0.047022
     2   Atom       -0.003395     -0.051029     -0.047682
     3   Atom        0.010037     -0.014081     -0.010280
     4   Atom       -0.029152      0.016827      0.008852
     5   Atom        0.001495     -0.004717     -0.000907
     6   Atom       -0.014156     -0.007620     -0.038845
     7   Atom       -0.034560      0.024641      0.002306
     8   Atom       -0.040447      0.013897     -0.101400
     9   Atom        0.005752     -0.006504     -0.017648
    10   Atom       -0.000180     -0.000659     -0.001897
    11   Atom       -0.002230      0.001989     -0.009776
    12   Atom       -0.000200     -0.000093     -0.003606
    13   Atom       -0.002264      0.000457     -0.000444
    14   Atom       -0.001004      0.000306     -0.000361
    15   Atom       -0.000657      0.000271     -0.000815
    16   Atom       -0.001559      0.000249     -0.000346
    17   Atom       -0.000922      0.002903     -0.001119
    18   Atom       -0.000447      0.000751     -0.000950
    19   Atom       -0.000502      0.001649     -0.000736
    20   Atom       -0.000773      0.001352     -0.000647
 --------------------------------------------------------


 ---------------------------------------------------------------------------------
              Anisotropic Spin Dipole Couplings in Principal Axis System
 ---------------------------------------------------------------------------------

       Atom             a.u.   MegaHertz   Gauss  10(-4) cm-1        Axes

              Baa    -0.5378   -72.174   -25.753   -24.075 -0.4580 -0.5817  0.6722
     1 C(13)  Bbb    -0.3599   -48.289   -17.231   -16.108  0.1778  0.6810  0.7104
              Bcc     0.8977   120.463    42.984    40.182  0.8710 -0.4449  0.2085
 
              Baa    -0.1066   -14.298    -5.102    -4.769  0.1827  0.6831  0.7071
     2 C(13)  Bbb    -0.0134    -1.794    -0.640    -0.599 -0.2566  0.7274 -0.6364
              Bcc     0.1199    16.093     5.742     5.368  0.9491  0.0651 -0.3082
 
              Baa    -0.0129    -6.864    -2.449    -2.290  0.1712  0.6922  0.7011
     3 H(1)   Bbb    -0.0109    -5.838    -2.083    -1.947  0.7300 -0.5670  0.3815
              Bcc     0.0238    12.702     4.532     4.237  0.6616  0.4465 -0.6024
 
              Baa    -0.0404    -5.416    -1.932    -1.807 -0.3920 -0.6108  0.6879
     4 C(13)  Bbb    -0.0101    -1.359    -0.485    -0.453  0.1788  0.6830  0.7082
              Bcc     0.0505     6.775     2.417     2.260  0.9024 -0.4006  0.1586
 
              Baa    -0.0052    -2.749    -0.981    -0.917  0.1786  0.6875  0.7038
     5 H(1)   Bbb    -0.0045    -2.407    -0.859    -0.803 -0.3264  0.7162 -0.6168
              Bcc     0.0097     5.157     1.840     1.720  0.9282  0.1196 -0.3524
 
              Baa    -0.0559    -7.496    -2.675    -2.500  0.1788  0.6815  0.7097
     6 C(13)  Bbb     0.0220     2.951     1.053     0.984 -0.4741 -0.5724  0.6691
              Bcc     0.0339     4.545     1.622     1.516  0.8621 -0.4561  0.2207
 
              Baa    -0.0413    -5.545    -1.979    -1.850 -0.5391 -0.5355  0.6500
     7 C(13)  Bbb    -0.0105    -1.410    -0.503    -0.470  0.1807  0.6803  0.7103
              Bcc     0.0518     6.955     2.482     2.320  0.8226 -0.5004  0.2699
 
              Baa    -0.1028   -13.801    -4.925    -4.604  0.1786  0.6791  0.7120
     8 C(13)  Bbb    -0.0144    -1.934    -0.690    -0.645  0.9334  0.1119 -0.3409
              Bcc     0.1173    15.735     5.615     5.249 -0.3111  0.7255 -0.6139
 
              Baa    -0.0132    -7.038    -2.511    -2.348  0.1706  0.6819  0.7112
     9 H(1)   Bbb    -0.0113    -6.004    -2.143    -2.003  0.9529 -0.2978  0.0570
              Bcc     0.0244    13.042     4.654     4.350 -0.2506 -0.6681  0.7006
 
              Baa    -0.0024    -1.288    -0.460    -0.430  0.1830  0.6797  0.7103
    10 H(1)   Bbb     0.0008     0.412     0.147     0.137  0.8931 -0.4170  0.1690
              Bcc     0.0016     0.876     0.313     0.292 -0.4110 -0.6034  0.6834
 
              Baa    -0.0067    -0.906    -0.323    -0.302  0.1791  0.6809  0.7101
    11 C(13)  Bbb    -0.0066    -0.887    -0.317    -0.296  0.9721 -0.0115 -0.2342
              Bcc     0.0134     1.793     0.640     0.598 -0.1513  0.7323 -0.6640
 
              Baa    -0.0028    -1.497    -0.534    -0.500  0.1799  0.6814  0.7094
    12 H(1)   Bbb    -0.0016    -0.877    -0.313    -0.293  0.9836 -0.1150 -0.1390
              Bcc     0.0045     2.375     0.847     0.792 -0.0131  0.7228 -0.6910
 
              Baa    -0.0025    -0.329    -0.118    -0.110  0.8805  0.3297 -0.3407
    13 C(13)  Bbb    -0.0017    -0.224    -0.080    -0.075  0.2800  0.2184  0.9348
              Bcc     0.0041     0.554     0.198     0.185 -0.3826  0.9185 -0.1000
 
              Baa    -0.0016    -0.864    -0.308    -0.288  0.8814  0.1805 -0.4365
    14 H(1)   Bbb    -0.0011    -0.585    -0.209    -0.195  0.4000  0.2064  0.8930
              Bcc     0.0027     1.448     0.517     0.483 -0.2513  0.9617 -0.1097
 
              Baa    -0.0009    -0.465    -0.166    -0.155  0.9251  0.3677  0.0943
    15 H(1)   Bbb    -0.0007    -0.388    -0.138    -0.129 -0.2298  0.3446  0.9102
              Bcc     0.0016     0.853     0.304     0.285 -0.3022  0.8637 -0.4033
 
              Baa    -0.0011    -0.602    -0.215    -0.201  0.7242  0.6543  0.2178
    16 H(1)   Bbb    -0.0010    -0.517    -0.185    -0.172 -0.2558 -0.0384  0.9660
              Bcc     0.0021     1.119     0.399     0.373 -0.6403  0.7553 -0.1396
 
              Baa    -0.0024    -0.328    -0.117    -0.110  0.8279  0.1342 -0.5446
    17 C(13)  Bbb    -0.0017    -0.224    -0.080    -0.075  0.0348  0.9568  0.2886
              Bcc     0.0041     0.553     0.197     0.184  0.5598 -0.2578  0.7875
 
              Baa    -0.0009    -0.465    -0.166    -0.155  0.7464 -0.2981 -0.5950
    18 H(1)   Bbb    -0.0007    -0.388    -0.138    -0.129  0.5383  0.7962  0.2763
              Bcc     0.0016     0.853     0.304     0.285  0.3914 -0.5265  0.7548
 
              Baa    -0.0016    -0.864    -0.308    -0.288  0.8910  0.2157 -0.3995
    19 H(1)   Bbb    -0.0011    -0.584    -0.209    -0.195 -0.0915  0.9472  0.3073
              Bcc     0.0027     1.448     0.517     0.483  0.4446 -0.2373  0.8637
 
              Baa    -0.0011    -0.600    -0.214    -0.200 -0.4530  0.3534  0.8185
    20 H(1)   Bbb    -0.0010    -0.517    -0.184    -0.172  0.4845  0.8682 -0.1068
              Bcc     0.0021     1.117     0.399     0.373  0.7484 -0.3482  0.5645
 

 ---------------------------------------------------------------------------------

 D2PCM: PCM CHGder 2nd derivatives, FixD1E=F FixD2E=F DoIter=F DoCFld=F I1PDM=0
 Calling FoFJK, ICntrl=    100127 FMM=F ISym2X=0 I1Cent= 0 IOpClX= 1 NMat=1 NMatS=1 NMatT=0.
 -------------------------------------------------------------------
 Center     Atomic                   Forces (Hartrees/Bohr)
 Number     Number              X              Y              Z
 -------------------------------------------------------------------
      1        6          -0.046142778    0.023297780   -0.010257507
      2        6           0.022224528   -0.014315303    0.008624810
      3        1           0.001292213   -0.000214434   -0.000565587
      4        6           0.000882036    0.006215458   -0.006236806
      5        1           0.001046368   -0.001042211    0.000680193
      6        6          -0.000717391    0.000123683   -0.000015458
      7        6          -0.006259196   -0.001783586    0.003371245
      8        6           0.025601246   -0.013454019    0.005951593
      9        1           0.000074481    0.001436364   -0.001454086
     10        1           0.000329542   -0.000050821   -0.000015655
     11        6           0.001549414    0.000357140   -0.000664461
     12        1          -0.000071556    0.000082626   -0.000079638
     13        6          -0.000037466   -0.000093915    0.000482621
     14        1          -0.000022048    0.000007580   -0.000014129
     15        1           0.000082973   -0.000185449   -0.000058489
     16        1           0.000091441   -0.000005517   -0.000040931
     17        6          -0.000136586   -0.000480304    0.000113199
     18        1           0.000141463    0.000038675    0.000172537
     19        1          -0.000024775    0.000034433    0.000011025
     20        1           0.000096095    0.000031821   -0.000004476
 -------------------------------------------------------------------
 Cartesian Forces:  Max     0.046142778 RMS     0.008724876
 FormGI is forming the generalized inverse of G from B-inverse, IUseBI=4.

 GradGradGradGradGradGradGradGradGradGradGradGradGradGradGradGradGradGrad
 Berny optimization.
 Internal  Forces:  Max     0.028710086 RMS     0.004793940
 Search for a local minimum.
 Step number   1 out of a maximum of  108
 All quantities printed in internal units (Hartrees-Bohrs-Radians)
 Mixed Optimization -- RFO/linear search
 Second derivative matrix not updated -- analytic derivatives used.
 ITU=  0
     Eigenvalues ---    0.00153   0.00276   0.00342   0.01624   0.01854
     Eigenvalues ---    0.02029   0.02178   0.02566   0.02665   0.02927
     Eigenvalues ---    0.03177   0.04141   0.04379   0.04480   0.04515
     Eigenvalues ---    0.04593   0.04733   0.04908   0.10680   0.11434
     Eigenvalues ---    0.11628   0.11899   0.12179   0.12251   0.12798
     Eigenvalues ---    0.12956   0.14312   0.14836   0.16922   0.17253
     Eigenvalues ---    0.18672   0.18896   0.19799   0.20460   0.25996
     Eigenvalues ---    0.29238   0.29350   0.32107   0.33823   0.33855
     Eigenvalues ---    0.33967   0.34052   0.34122   0.34707   0.34814
     Eigenvalues ---    0.35534   0.35687   0.36144   0.36314   0.39359
     Eigenvalues ---    0.41863   0.45686   0.47353   0.50796
 RFO step:  Lambda=-9.21621702D-03 EMin= 1.52590476D-03
 Linear search not attempted -- first point.
 Iteration  1 RMS(Cart)=  0.01944330 RMS(Int)=  0.00085741
 Iteration  2 RMS(Cart)=  0.00136040 RMS(Int)=  0.00030114
 Iteration  3 RMS(Cart)=  0.00000079 RMS(Int)=  0.00030114
 Variable       Old X    -DE/DX   Delta X   Delta X   Delta X     New X
                                 (Linear)    (Quad)   (Total)
    R1        2.64300  -0.01953   0.00000  -0.05261  -0.05199   2.59102
    R2        2.64996  -0.01881   0.00000  -0.05502  -0.05441   2.59555
    R3        2.05346  -0.00024   0.00000  -0.00489  -0.00489   2.04857
    R4        2.63128   0.00243   0.00000   0.01325   0.01324   2.64452
    R5        2.04907  -0.00027   0.00000   0.00075   0.00075   2.04982
    R6        2.62699   0.00233   0.00000   0.00161   0.00101   2.62800
    R7        2.64426   0.00208   0.00000   0.00173   0.00113   2.64539
    R8        2.05189  -0.00030   0.00000  -0.00101  -0.00101   2.05088
    R9        2.63418   0.00203   0.00000   0.01392   0.01392   2.64811
   R10        2.86532  -0.00015   0.00000   0.00042   0.00042   2.86574
   R11        2.05274   0.00115   0.00000  -0.00100  -0.00100   2.05174
   R12        2.06805  -0.00003   0.00000  -0.00019  -0.00019   2.06786
   R13        2.89537  -0.00013   0.00000  -0.00020  -0.00020   2.89517
   R14        2.89543  -0.00017   0.00000  -0.00012  -0.00012   2.89531
   R15        2.06504  -0.00003   0.00000  -0.00013  -0.00013   2.06491
   R16        2.06604  -0.00009   0.00000  -0.00011  -0.00011   2.06592
   R17        2.06744  -0.00010   0.00000  -0.00036  -0.00036   2.06707
   R18        2.06601  -0.00009   0.00000  -0.00012  -0.00012   2.06589
   R19        2.06505  -0.00003   0.00000  -0.00013  -0.00013   2.06492
   R20        2.06740  -0.00010   0.00000  -0.00038  -0.00038   2.06703
    A1        2.06089   0.02871   0.00000   0.12676   0.12837   2.18926
    A2        2.11217   0.00614   0.00000   0.02731   0.02703   2.13920
    A3        2.10629  -0.01509   0.00000  -0.07632  -0.07578   2.03051
    A4        2.06470   0.00895   0.00000   0.04904   0.04876   2.11347
    A5        2.09512  -0.00183   0.00000  -0.00808  -0.00774   2.08738
    A6        2.09537   0.00038   0.00000   0.00681   0.00614   2.10150
    A7        2.09270   0.00145   0.00000   0.00126   0.00160   2.09430
    A8        2.10846   0.00060   0.00000   0.01214   0.01085   2.11931
    A9        2.08457  -0.00016   0.00000  -0.00545  -0.00480   2.07977
   A10        2.09016  -0.00044   0.00000  -0.00669  -0.00605   2.08411
   A11        2.06243  -0.00037   0.00000   0.00453   0.00383   2.06626
   A12        2.10829   0.00222   0.00000   0.00441   0.00476   2.11305
   A13        2.11247  -0.00185   0.00000  -0.00894  -0.00859   2.10388
   A14        2.13293  -0.01423   0.00000  -0.07391  -0.07340   2.05953
   A15        2.07436   0.00885   0.00000   0.05070   0.05044   2.12480
   A16        2.07590   0.00538   0.00000   0.02321   0.02296   2.09886
   A17        1.87014   0.00022   0.00000   0.00029   0.00029   1.87043
   A18        1.94180  -0.00022   0.00000  -0.00059  -0.00059   1.94120
   A19        1.94217  -0.00029   0.00000  -0.00155  -0.00155   1.94062
   A20        1.88850  -0.00008   0.00000   0.00033   0.00033   1.88884
   A21        1.88842  -0.00007   0.00000   0.00007   0.00007   1.88849
   A22        1.93020   0.00044   0.00000   0.00148   0.00148   1.93169
   A23        1.94157   0.00009   0.00000   0.00038   0.00038   1.94194
   A24        1.92724  -0.00030   0.00000  -0.00163  -0.00163   1.92562
   A25        1.93395   0.00002   0.00000   0.00003   0.00003   1.93398
   A26        1.89041   0.00009   0.00000   0.00026   0.00026   1.89067
   A27        1.88621  -0.00001   0.00000   0.00043   0.00043   1.88664
   A28        1.88263   0.00012   0.00000   0.00059   0.00059   1.88322
   A29        1.92713  -0.00030   0.00000  -0.00147  -0.00147   1.92566
   A30        1.94178   0.00007   0.00000   0.00010   0.00010   1.94187
   A31        1.93339   0.00002   0.00000  -0.00009  -0.00009   1.93331
   A32        1.89038   0.00010   0.00000   0.00033   0.00032   1.89071
   A33        1.88264   0.00013   0.00000   0.00079   0.00079   1.88343
   A34        1.88671   0.00000   0.00000   0.00041   0.00041   1.88712
    D1       -3.13163  -0.00020   0.00000  -0.00657  -0.00659  -3.13822
    D2        0.00328  -0.00001   0.00000  -0.00134  -0.00138   0.00190
    D3       -0.00553   0.00008   0.00000   0.00258   0.00260  -0.00294
    D4        3.13812   0.00001   0.00000   0.00182   0.00187   3.14000
    D5       -3.13958  -0.00005   0.00000  -0.00152  -0.00154  -3.14112
    D6        0.00033  -0.00001   0.00000  -0.00029  -0.00035  -0.00002
    D7       -0.00448   0.00013   0.00000   0.00350   0.00351  -0.00098
    D8        3.13542   0.00017   0.00000   0.00473   0.00470   3.14012
    D9       -0.00193   0.00006   0.00000   0.00124   0.00124  -0.00069
   D10        3.13980   0.00001   0.00000   0.00016   0.00020   3.13999
   D11        3.13798   0.00010   0.00000   0.00246   0.00243   3.14041
   D12       -0.00348   0.00005   0.00000   0.00138   0.00138  -0.00210
   D13       -0.00019  -0.00001   0.00000  -0.00021  -0.00015  -0.00034
   D14       -3.14067  -0.00004   0.00000  -0.00168  -0.00162   3.14090
   D15        3.14127   0.00004   0.00000   0.00088   0.00090  -3.14102
   D16        0.00079   0.00001   0.00000  -0.00059  -0.00057   0.00022
   D17        0.00400  -0.00012   0.00000  -0.00206  -0.00198   0.00202
   D18       -3.13965  -0.00005   0.00000  -0.00127  -0.00124  -3.14089
   D19       -3.13871  -0.00009   0.00000  -0.00058  -0.00051  -3.13922
   D20        0.00082  -0.00002   0.00000   0.00021   0.00024   0.00106
   D21       -3.13936   0.00002   0.00000  -0.00033  -0.00033  -3.13969
   D22        1.08277   0.00010   0.00000  -0.00057  -0.00058   1.08220
   D23       -1.07819  -0.00010   0.00000  -0.00093  -0.00094  -1.07913
   D24        0.00338  -0.00001   0.00000  -0.00185  -0.00184   0.00154
   D25       -2.05767   0.00007   0.00000  -0.00209  -0.00209  -2.05976
   D26        2.06454  -0.00013   0.00000  -0.00245  -0.00245   2.06210
   D27        0.99156   0.00013   0.00000   0.00005   0.00005   0.99160
   D28        3.09112   0.00010   0.00000  -0.00047  -0.00047   3.09065
   D29       -1.10720   0.00006   0.00000  -0.00076  -0.00076  -1.10797
   D30       -1.05838   0.00003   0.00000  -0.00016  -0.00016  -1.05855
   D31        1.04118   0.00000   0.00000  -0.00068  -0.00068   1.04050
   D32        3.12604  -0.00003   0.00000  -0.00098  -0.00098   3.12506
   D33       -3.12387  -0.00008   0.00000  -0.00131  -0.00131  -3.12518
   D34       -1.02431  -0.00011   0.00000  -0.00182  -0.00182  -1.02613
   D35        1.06055  -0.00015   0.00000  -0.00212  -0.00212   1.05843
   D36       -3.08862  -0.00007   0.00000   0.00085   0.00085  -3.08777
   D37       -0.98903  -0.00010   0.00000   0.00034   0.00034  -0.98869
   D38        1.11013  -0.00004   0.00000   0.00087   0.00087   1.11099
   D39       -1.03851  -0.00001   0.00000   0.00036   0.00036  -1.03816
   D40        1.06108  -0.00004   0.00000  -0.00015  -0.00015   1.06092
   D41       -3.12295   0.00002   0.00000   0.00037   0.00037  -3.12258
   D42        1.02703   0.00010   0.00000   0.00166   0.00166   1.02868
   D43        3.12662   0.00007   0.00000   0.00115   0.00115   3.12777
   D44       -1.05741   0.00013   0.00000   0.00167   0.00167  -1.05574
         Item               Value     Threshold  Converged?
 Maximum Force            0.028710     0.000015     NO 
 RMS     Force            0.004794     0.000010     NO 
 Maximum Displacement     0.141493     0.000060     NO 
 RMS     Displacement     0.019371     0.000040     NO 
 Predicted change in Energy=-4.794226D-03
 GradGradGradGradGradGradGradGradGradGradGradGradGradGradGradGradGradGrad

                          Input orientation:                          
 ---------------------------------------------------------------------
 Center     Atomic      Atomic             Coordinates (Angstroms)
 Number     Number       Type             X           Y           Z
 ---------------------------------------------------------------------
      1          6           0        6.241697    6.957763    5.127158
      2          6           0        5.132674    6.535611    5.814027
      3          1           0        5.172219    5.749786    6.559744
      4          6           0        3.928570    7.177791    5.504006
      5          1           0        3.018190    6.885628    6.016311
      6          6           0        3.894518    8.185372    4.546085
      7          6           0        5.051353    8.587107    3.867848
      8          6           0        6.259897    7.948017    4.175538
      9          1           0        7.175655    8.236049    3.668348
     10          1           0        2.949418    8.668784    4.320410
     11          6           0        5.004727    9.686209    2.824043
     12          1           0        6.022492    9.812693    2.442507
     13          6           0        4.554674   11.015641    3.438265
     14          1           0        5.204743   11.310119    4.265726
     15          1           0        4.575839   11.808253    2.685608
     16          1           0        3.532096   10.941177    3.819441
     17          6           0        4.098693    9.297942    1.651107
     18          1           0        4.118105   10.075243    0.882629
     19          1           0        4.419813    8.357465    1.196797
     20          1           0        3.063368    9.179223    1.983461
 ---------------------------------------------------------------------
                    Distance matrix (angstroms):
                    1          2          3          4          5
     1  C    0.000000
     2  C    1.371107   0.000000
     3  H    2.157613   1.084056   0.000000
     4  C    2.353929   1.399420   2.168051   0.000000
     5  H    3.344667   2.152783   2.495054   1.084716   0.000000
     6  C    2.711811   2.421243   3.408727   1.390680   2.149152
     7  C    2.378559   2.828933   3.912966   2.433891   3.412430
     8  C    1.373504   2.439296   3.420482   2.791623   3.876311
     9  H    2.152770   3.416021   4.307601   3.877256   4.961964
    10  H    3.797043   3.398224   4.298373   2.140723   2.461800
    11  C    3.778736   4.345416   5.429451   3.825241   4.688300
    12  H    3.925052   4.785206   5.846522   4.549725   5.510501
    13  C    4.707949   5.103822   6.152579   4.403224   5.105303
    14  H    4.556352   5.019797   6.015054   4.498676   5.236572
    15  H    5.680097   6.156121   7.215928   5.459258   6.144274
    16  H    4.991958   5.094039   6.095064   4.142224   4.640886
    17  C    4.706573   5.101910   6.151145   4.401001   5.103112
    18  H    5.678411   6.154432   7.214594   5.457864   6.143139
    19  H    4.552599   5.014592   6.010599   4.492772   5.230542
    20  H    4.991943   5.093521   6.095134   4.141080   4.639667
                    6          7          8          9         10
     6  C    0.000000
     7  C    1.399879   0.000000
     8  C    2.405964   1.401317   0.000000
     9  H    3.396888   2.162337   1.085733   0.000000
    10  H    1.085279   2.151653   3.391130   4.298083   0.000000
    11  C    2.539784   1.516485   2.534424   2.743855   2.738350
    12  H    3.406096   2.115838   2.556712   2.306139   3.778734
    13  C    3.110224   2.515752   3.586319   3.827351   2.977040
    14  H    3.399903   2.756199   3.524943   3.700170   3.473634
    15  H    4.129266   3.464042   4.467367   4.526086   3.895393
    16  H    2.872947   2.802165   4.065306   4.540492   2.398803
    17  C    3.108117   2.515310   3.586900   3.829435   2.973524
    18  H    4.128258   3.463674   4.467171   4.526751   3.893879
    19  H    3.394595   2.754286   3.525117   3.703777   3.466401
    20  H    2.871514   2.802428   4.066801   4.543053   2.394758
                   11         12         13         14         15
    11  C    0.000000
    12  H    1.094264   0.000000
    13  C    1.532060   2.143154   0.000000
    14  H    2.180721   2.497024   1.092703   0.000000
    15  H    2.169373   2.476724   1.093240   1.772126   0.000000
    16  H    2.175869   3.061290   1.093849   1.770039   1.768276
    17  C    1.532132   2.142962   2.520385   3.479718   2.756723
    18  H    2.169455   2.475650   2.757937   3.761788   2.542356
    19  H    2.180737   2.497611   3.479693   4.330428   3.761494
    20  H    2.175429   3.060788   2.777207   3.786151   3.113258
                   16         17         18         19         20
    16  H    0.000000
    17  C    2.779015   0.000000
    18  H    3.117389   1.093222   0.000000
    19  H    3.787066   1.092709   1.772143   0.000000
    20  H    2.587472   1.093824   1.768376   1.770330   0.000000
 Symmetry turned off by external request.
 Stoichiometry    C9H11(2)
 Framework group  C1[X(C9H11)]
 Deg. of freedom    54
 Full point group                 C1      NOp   1
 Rotational constants (GHZ):           3.4737936           1.1064321           1.0233261
 Standard basis: 6-311+G(d,p) (5D, 7F)
   264 basis functions,   412 primitive gaussians,   273 cartesian basis functions
    33 alpha electrons       32 beta electrons
       nuclear repulsion energy       412.2481740822 Hartrees.
 NAtoms=   20 NActive=   20 NUniq=   20 SFac= 1.00D+00 NAtFMM=   60 NAOKFM=F Big=F
 Integral buffers will be    131072 words long.
 Raffenetti 2 integral format.
 Two-electron integral symmetry is turned off.
 ------------------------------------------------------------------------------
 Polarizable Continuum Model (PCM)
 =================================
 Model                : PCM.
 Atomic radii         : SMD-Coulomb.
 Polarization charges : Total charges.
 Charge compensation  : None.
 Solution method      : Matrix inversion.
 Cavity type          : VdW (van der Waals Surface) (Alpha=1.000).
 Cavity algorithm     : GePol (No added spheres)
                        Default sphere list used, NSphG=   20.
                        Lebedev-Laikov grids with approx.  5.0 points / Ang**2.
                        Smoothing algorithm: York/Karplus (Gamma=1.0000).
                        Polarization charges: spherical gaussians, with
                                              point-specific exponents (IZeta= 3).
                        Self-potential: point-specific (ISelfS= 7).
                        Self-field    : sphere-specific E.n sum rule (ISelfD= 2).
 1st derivatives      : Analytical E(r).r(x)/FMM algorithm (CHGder, D1EAlg=3).
                        Cavity 1st derivative terms included.
 Solvent              : TetraHydroFuran, Eps=   7.425700 Eps(inf)=   1.974025
 ------------------------------------------------------------------------------
 Spheres list:
 ISph  on   Nord     Re0    Alpha      Xe            Ye            Ze
    1   C      1    1.8500  1.000      6.241697      6.957763      5.127158
[...]
 ,-0.00004993,-0.00045193,-0.05497198,-0.01151238,0.02699133,-0.2597554
 7,0.10927542,-0.05445340,0.65281253,0.01117749,-0.20820631,0.14690255,
 -0.05717573,-0.00293930,0.02238512,-0.00124143,0.00330450,0.00289035,0
 .02711108,-0.03829131,0.02691301,0.00033960,-0.00102280,-0.00012952,0.
 02636131,0.03801521,-0.03591441,0.04796744,-0.12928392,0.04949686,-0.0
 1842796,0.41122182,0.00168481,0.15354983,-0.19946918,0.04597159,0.0149
 3069,-0.02083413,0.00363977,0.00249849,0.00262891,-0.02223348,0.026949
 00,-0.02310161,-0.00081760,-0.00003464,-0.00083446,-0.00926114,-0.0262
 8277,0.03507254,0.00439189,0.03382170,-0.09822126,-0.11790017,-0.26971
 905,0.41320167,0.00426459,-0.00200798,0.00050339,0.00167133,0.00194379
 ,-0.00078419,0.00019518,0.00007504,-0.00013706,-0.00022633,0.00055868,
 -0.00055596,-0.00007215,-0.00015592,-0.00001955,-0.00289029,0.00364885
 ,-0.00110733,-0.01799175,-0.00772270,0.01365511,-0.25401677,-0.0585611
 9,0.11212475,0.26846125,-0.01777798,-0.00516457,0.00830386,0.00046828,
 -0.00003147,0.00552465,-0.00071910,-0.00011519,0.00024288,0.00074619,-
 0.00073237,0.00022858,-0.00016725,-0.00028124,-0.00038889,0.00328589,0
 .00206808,0.00328636,0.01219451,0.00771711,-0.00440665,-0.06289572,-0.
 06390504,0.04353953,0.06395921,0.06181515,0.01557764,0.00425495,-0.009
 32216,0.00063502,0.00513643,0.00077930,0.00062462,0.00003991,-0.000252
 11,-0.00073312,0.00028420,-0.00038393,-0.00000966,-0.00039121,-0.00035
 368,-0.00079361,0.00318402,0.00352083,-0.00541219,0.00067532,0.0071237
 6,0.11632047,0.04260645,-0.10571156,-0.12397787,-0.05331458,0.10624957
 ,0.00013393,-0.00100146,0.00062616,0.00220327,0.00032580,0.00089037,0.
 00003222,-0.00012954,0.00008655,0.00314744,-0.00148652,0.00159199,0.00
 044795,-0.00040042,-0.00082713,-0.27203670,0.11258590,-0.04812966,-0.0
 1750663,0.01217544,-0.00616831,-0.00276556,-0.00114830,0.00343057,-0.0
 0088235,0.00057353,-0.00036733,0.28621265,-0.00088990,-0.00091708,-0.0
 0003205,0.00032436,0.00056374,0.00599396,0.00089906,-0.00043503,0.0000
 7611,0.02027374,-0.00577693,0.00407716,-0.00088261,-0.00133795,-0.0026
 1171,0.11182511,-0.10407844,0.03523174,-0.00724803,0.00798965,-0.00191
 357,-0.00126215,0.00299973,0.00350115,-0.00049999,0.00012879,-0.000162
 03,-0.12184294,0.10373426,0.00051334,0.00000683,-0.00131979,0.00088825
 ,0.00598605,0.00095271,-0.00089559,0.00034021,-0.00021083,-0.01920182,
 0.00960047,-0.00040876,-0.00038088,-0.00274179,-0.00158235,-0.04724963
 ,0.03504094,-0.05894847,0.01242205,-0.00688014,0.00745844,0.00355821,0
 .00347326,0.00207807,0.00066043,-0.00043817,0.00007441,0.05032870,-0.0
 4317577,0.05459418,-0.00330298,0.00360775,-0.00063927,-0.00056292,0.00
 023654,-0.00034661,0.00010731,-0.00009031,-0.00010874,-0.00477971,-0.0
 0076067,0.00332282,0.00018971,-0.00109780,0.00104183,0.00731547,-0.019
 25831,0.01726261,-0.08898821,-0.00258259,0.00730266,-0.00064750,0.0210
 1780,-0.01821434,0.00075677,0.00029199,-0.00163785,-0.00025864,-0.0001
 9363,-0.00063770,0.59298219,0.00199500,0.00382382,0.00312901,0.0001004
 2,-0.00079861,-0.00024898,-0.00010697,-0.00030374,-0.00031158,0.000619
 30,0.00393671,0.00116465,0.00023753,0.00024710,-0.00012835,-0.00462752
 ,-0.00584680,0.00938559,0.00422543,-0.13781669,0.06401599,0.00382591,-
 0.00953683,0.01463007,-0.00211980,-0.00152716,-0.00218668,0.00058514,-
 0.00164989,-0.00165927,0.01043154,0.47259048,0.00088396,0.00267705,0.0
 0478661,-0.00021751,-0.00025627,-0.00072768,-0.00009373,-0.00031408,-0
 .00033084,0.00196953,0.00149696,0.00335521,-0.00022926,0.00021117,0.00
 003396,0.00330722,0.01319611,-0.01070240,0.00079886,0.06570318,-0.1333
 1428,-0.00170861,0.01018364,-0.00261582,0.00072834,-0.00278409,-0.0018
 4209,-0.00132593,-0.00147353,-0.00145381,-0.04493857,-0.01875342,0.484
 91850,0.00034064,-0.00016748,0.00003218,0.00020353,0.00002979,-0.00006
 672,0.00002958,-0.00000158,-0.00000865,-0.00021334,0.00029114,-0.00016
 670,0.00000122,-0.00004973,0.00001144,0.00069005,0.00004043,0.00008756
 ,-0.00062972,0.00059528,-0.00063817,0.00059972,0.00157847,-0.00175964,
 0.00032910,0.00007797,-0.00018802,0.00009658,0.00004981,-0.00010664,-0
 .27331948,-0.03044911,0.08660391,0.29730700,-0.00017586,-0.00010731,-0
 .00001576,0.00031128,-0.00007445,0.00004228,0.00004687,-0.00001419,-0.
 00000519,-0.00128534,0.00024595,0.00031896,-0.00001543,-0.00034157,0.0
 0019722,0.00168261,-0.00279674,0.00336253,-0.02266449,-0.00585261,0.01
 054459,-0.00171954,0.00014154,0.00020048,0.00084568,-0.00005765,-0.000
 02589,-0.00010376,0.00005485,-0.00020054,-0.02714178,-0.05071883,0.010
 93614,0.02937404,0.06201763,0.00002079,-0.00001377,-0.00016268,-0.0003
 3895,0.00010746,0.00003640,-0.00005620,0.00000691,0.00000173,0.0013437
 9,-0.00008932,-0.00003333,-0.00002214,0.00020807,-0.00032930,-0.001499
 35,0.00376666,-0.00209149,0.02171147,0.00466738,-0.01083159,0.00145061
 ,-0.00077171,0.00031137,-0.00094755,0.00029226,0.00002352,0.00002737,-
 0.00023076,0.00004143,0.08342276,0.01180270,-0.07889738,-0.08924882,-0
 .01386689,0.09123581,-0.00016678,-0.00019985,-0.00012399,0.00032652,-0
 .00031454,0.00008714,0.00001926,0.00008716,0.00003765,-0.00032364,0.00
 041296,-0.00041053,0.00000565,0.00004909,0.00007617,-0.00005118,-0.001
 07040,0.00136211,-0.00081477,0.00326478,-0.00354079,0.00002861,0.00020
 040,-0.00035318,0.00024904,0.00017023,0.00014996,-0.00029118,0.0000127
 7,0.00005171,-0.08900802,0.03151940,0.01945723,-0.00852266,0.02864320,
 0.01259806,0.56653077,0.00001469,-0.00009051,0.00138683,0.00056584,-0.
 00004517,-0.00011166,0.00001258,0.00001069,0.00000840,0.00035868,0.000
 69335,-0.00017287,-0.00006111,-0.00001209,-0.00013685,0.00065389,0.000
 07481,-0.00033236,0.00881239,-0.03125943,-0.00307197,-0.00172189,0.000
 02593,-0.00015887,0.00003756,-0.00017383,-0.00030895,-0.00003224,-0.00
 053363,0.00020908,0.02994689,-0.16060237,-0.04413479,0.00019995,0.0009
 0429,0.00032283,0.02817096,0.49809998,-0.00042826,-0.00007627,-0.00132
 262,-0.00053449,0.00068862,-0.00041460,-0.00000176,-0.00002674,-0.0000
 3549,0.00021403,-0.00087375,0.00050797,0.00009909,0.00003307,-0.000063
 11,0.00029397,0.00209563,-0.00136308,-0.00804821,0.01821025,0.01195153
 ,-0.00020719,0.00179525,-0.00244280,0.00009874,0.00034736,0.00040605,0
 .00006809,0.00028627,-0.00006491,0.01639103,-0.03786336,-0.09446382,0.
 00348646,-0.01128965,-0.00539583,0.01701530,-0.03545643,0.56694319,0.0
 0003328,0.00005116,-0.00006237,-0.00006587,-0.00002974,0.00006154,0.00
 000131,-0.00000963,-0.00000012,0.00009911,-0.00004671,0.00006744,-0.00
 000999,-0.00000835,-0.00000802,-0.00030995,-0.00003546,0.00008389,0.00
 052596,-0.00000666,0.00019088,0.00010088,-0.00037544,0.00015329,-0.000
 05507,-0.00000950,0.00002007,0.00006315,-0.00004300,-0.00005457,0.0063
 3347,0.00296693,0.00903124,0.00058380,-0.00076023,-0.00012054,-0.14507
 971,-0.04267182,-0.12320237,0.15263322,0.00003057,-0.00009473,0.000007
 86,0.00000802,0.00001434,-0.00002955,0.00000543,-0.00000086,0.00000139
 ,-0.00004692,-0.00004345,0.00003498,0.00000049,-0.00001809,0.00000321,
 -0.00011515,0.00012968,0.00028038,-0.00091785,0.00111920,-0.00129156,0
 .00020466,0.00014740,0.00014736,0.00002329,-0.00001554,-0.00002745,0.0
 0003753,0.00000253,-0.00004408,-0.01822094,-0.00778509,-0.01993649,0.0
 0015733,0.00113855,0.00056578,-0.04117047,-0.06466276,-0.05128823,0.04
 446602,0.06998246,0.00005621,-0.00011962,-0.00001683,0.00005596,-0.000
 00884,0.00000846,0.00000487,0.00001077,0.00001584,-0.00013271,-0.00001
 439,-0.00015780,-0.00000440,-0.00001062,0.00001028,-0.00004673,-0.0002
 7860,0.00029592,0.00035403,0.00113816,0.00027060,0.00008846,-0.0002609
 2,0.00024808,-0.00000281,-0.00000358,0.00000825,0.00004803,0.00003433,
 0.00006588,-0.00713811,-0.00161527,-0.00926891,0.00014994,0.00037409,0
 .00006864,-0.12243484,-0.05289029,-0.20188916,0.13379272,0.05984759,0.
 21631508,-0.00007818,-0.00024201,0.00002822,0.00018469,0.00009292,-0.0
 0007415,0.00002182,0.00002394,0.00003013,-0.00003168,-0.00006909,-0.00
 032128,0.00000591,0.00000303,-0.00003424,-0.00006670,-0.00003463,-0.00
 006457,0.00024159,0.00139564,0.00178782,-0.00012431,0.00024363,-0.0003
 4137,0.00000771,0.00006052,0.00005449,0.00025817,0.00015121,0.00014288
 ,-0.00089957,0.00871167,-0.00727525,0.00022662,-0.00040171,-0.00056132
 ,-0.04729688,-0.00632424,0.00462692,0.00067712,0.01488795,-0.01262733,
 0.04608992,0.00017998,-0.00006049,0.00053518,0.00021681,-0.00026056,0.
 00014357,-0.00000110,-0.00000702,0.00000975,-0.00013345,0.00025930,-0.
 00012515,-0.00004048,-0.00004296,0.00005155,0.00026679,-0.00027914,0.0
 0032241,0.00212029,-0.00333340,-0.00392541,-0.00023758,-0.00067429,0.0
 0062538,-0.00001045,-0.00008879,-0.00013280,-0.00004936,0.00008118,-0.
 00003073,-0.00156709,-0.02066599,0.01964528,0.00009815,0.00120452,0.00
 011077,-0.00590666,-0.18448792,0.13355906,0.00115922,0.00701426,-0.006
 41502,0.00432785,0.20152719,0.00009653,0.00008442,0.00004682,-0.000035
 30,-0.00006186,0.00002846,-0.00000510,0.00000036,-0.00000377,-0.000050
 58,0.00009237,0.00008087,-0.00001017,-0.00001288,-0.00000126,-0.000060
 37,-0.00008466,0.00039958,0.00057866,-0.00188980,-0.00086719,0.0002475
 9,-0.00022545,0.00052719,-0.00001739,-0.00004604,-0.00007883,-0.000123
 25,-0.00004510,-0.00009356,-0.00107629,-0.01138731,0.00863028,-0.00030
 813,0.00071446,0.00057084,0.00472045,0.13551917,-0.17722604,0.00217172
 ,0.01662737,-0.01536383,-0.00598957,-0.14549196,0.18946227,-0.00007324
 ,-0.00024272,0.00019143,0.00032301,0.00002411,0.00000841,0.00003032,0.
 00000948,0.00002669,0.00007318,0.00012797,-0.00038315,-0.00000702,-0.0
 0000998,-0.00004008,-0.00029788,-0.00034802,-0.00018027,0.00030063,-0.
 00087102,0.00082720,-0.00023195,0.00032216,-0.00026214,0.00007195,0.00
 001206,-0.00000172,0.00063278,-0.00036487,0.00023215,-0.01031103,0.000
 00517,0.00320031,0.00081679,0.00207599,0.00053676,-0.28087280,-0.02034
 475,0.08489518,-0.01633341,-0.00139258,0.00683928,0.00074611,-0.000277
 53,-0.00050243,0.30349892,0.00013471,0.00028411,-0.00030993,-0.0004139
 2,0.00010441,0.00004228,-0.00002978,-0.00001877,-0.00001664,0.00006318
 ,-0.00027283,0.00032231,0.00000514,-0.00003020,-0.00002174,0.00015502,
 -0.00012853,-0.00014829,0.00004447,0.00185901,-0.00029365,0.00030881,-
 0.00026016,0.00046007,-0.00010456,-0.00001595,-0.00000634,-0.00029729,
 -0.00092565,-0.00008019,0.02820728,0.00103912,-0.01092201,0.00165679,-
 0.00488126,-0.00244471,-0.02197184,-0.04751089,0.00813305,-0.00698445,
 -0.00166044,0.00344477,-0.02192218,-0.00165079,0.00633567,0.02133607,0
 .05238609,0.00003094,0.00008017,-0.00006481,-0.00013458,-0.00000750,-0
 .00000107,-0.00001446,-0.00000372,-0.00000841,-0.00012385,-0.00004558,
 0.00012369,0.00000834,0.00000458,0.00003966,0.00031192,0.00023273,0.00
 010833,-0.00080749,0.00031794,-0.00016892,0.00007771,-0.00008750,0.000
 12481,-0.00004419,-0.00000956,-0.00002245,-0.00004948,0.00009612,0.000
 17565,0.01251845,0.00099580,-0.00568543,0.00054481,-0.00260821,-0.0002
 8688,0.08486950,0.00753444,-0.07809579,-0.02315570,-0.00167098,0.00964
 509,0.02076241,0.00065782,-0.00728029,-0.09512748,-0.00598077,0.080927
 24,0.00001912,0.00010820,0.00015157,0.00034441,-0.00031281,0.00036048,
 -0.00001854,-0.00003701,-0.00008712,-0.00041236,0.00059282,-0.00031893
 ,-0.00004566,-0.00011219,-0.00003971,-0.00037078,-0.00174434,0.0017004
 8,-0.00082678,0.00608286,-0.00560221,0.00043524,-0.00044687,0.00013140
 ,0.00013150,-0.00013744,-0.00014861,-0.00013896,-0.00011193,0.00007925
 ,-0.12099352,-0.02259558,-0.05203056,-0.01891885,-0.00840070,-0.026268
 62,0.00594576,0.00134667,0.00698920,0.00014040,0.00282669,0.00168974,-
 0.00001224,-0.00007411,0.00023866,0.00103389,0.00070418,0.00084330,0.5
 3641417,0.00002819,-0.00147849,-0.00026559,0.00049821,-0.00053180,0.00
 045776,-0.00000938,-0.00002365,-0.00000390,-0.00017885,0.00047462,-0.0
 0075073,-0.00009345,-0.00001092,0.00006861,-0.00013663,-0.00084926,0.0
 0161808,0.01582596,0.00701600,0.01779972,-0.00011584,-0.00250167,0.001
 69688,0.00006786,0.00044618,0.00041857,0.00007824,0.00008327,0.0001552
 2,-0.01795265,-0.08148218,-0.01945891,-0.00271347,-0.00150884,-0.00356
 580,-0.01919124,-0.01227282,-0.02708051,0.00178181,-0.00519716,-0.0028
 9390,-0.00065743,0.00109966,-0.00016208,-0.00033740,0.00162274,0.00064
 858,-0.01738799,0.57787076,0.00034255,0.00126074,-0.00012430,-0.000637
 32,0.00006778,0.00005550,0.00000074,0.00001548,0.00003698,-0.00008475,
 -0.00025465,0.00082059,0.00002215,-0.00012514,-0.00001271,-0.00058954,
 0.00000544,0.00011844,-0.01586776,0.00052333,-0.02631044,0.00152635,-0
 .00068409,-0.00033931,-0.00018912,-0.00022692,-0.00010484,0.00008957,0
 .00029535,-0.00027821,-0.05189106,-0.02505314,-0.14116488,0.00470303,0
 .00229829,0.00732420,-0.00986078,-0.01003622,-0.01582094,0.00070209,-0
 .00171991,-0.00018558,-0.00027708,0.00139442,0.00095293,-0.00067460,0.
 00114718,0.00043875,-0.04825220,-0.01814016,0.51528053,-0.00004611,0.0
 0012939,0.00027183,0.00011360,0.00008908,-0.00019555,0.00000754,-0.000
 02983,-0.00002940,0.00012237,0.00027282,0.00014677,0.00002423,0.000039
 52,-0.00001990,-0.00003419,0.00025731,0.00000020,-0.00176459,-0.002455
 89,-0.00243086,-0.00007213,0.00064855,-0.00040016,-0.00003560,-0.00009
 740,-0.00009166,0.00019108,-0.00019692,-0.00021167,-0.00059633,0.01452
 712,-0.01545365,0.00062165,0.00054573,0.00074112,0.00037227,0.00077790
 ,0.00082887,-0.00016371,0.00005047,0.00015557,0.00021267,-0.00023941,0
 .00017173,-0.00001163,-0.00013609,-0.00001106,-0.04664776,-0.00522027,
 0.00658505,0.04746647,-0.00004575,0.00002890,0.00003953,-0.00000380,-0
 .00000017,-0.00001886,0.00000195,0.00000248,0.00000672,0.00006064,-0.0
 0001303,0.00004029,-0.00000060,-0.00001413,-0.00001047,0.00016354,0.00
 032320,-0.00008409,-0.00076362,0.00008080,-0.00107601,-0.00014350,0.00
 043815,-0.00004557,-0.00000648,-0.00005401,-0.00002718,0.00003201,-0.0
 0006171,-0.00002616,0.00057514,0.00525862,-0.00744286,0.00045629,0.000
 29129,0.00042390,-0.00011952,0.00080756,-0.00032038,0.00007799,0.00024
 823,0.00005701,-0.00023958,0.00008834,-0.00008853,0.00010669,-0.000011
 76,0.00001317,-0.00482799,-0.18516547,0.13506131,0.00650198,0.19756107
 ,-0.00003228,0.00056556,-0.00006474,-0.00026928,0.00019785,-0.00015484
 ,0.,0.00001740,0.00000054,0.00013428,-0.00024855,0.00019337,0.00003608
 ,0.00003419,-0.00004786,-0.00022652,0.00035399,-0.00023508,-0.00351360
 ,-0.00250280,-0.00226852,0.00023087,0.00047546,-0.00063069,-0.00003900
 ,-0.00010800,-0.00007084,0.00001046,-0.00001132,0.00011484,0.00163782,
 0.01745015,-0.01762170,0.00009948,-0.00007906,0.00104698,0.00061308,0.
 00115569,0.00086524,-0.00010159,-0.00011616,0.00036287,0.00001543,-0.0
 0066263,-0.00002302,-0.00000039,-0.00008057,-0.00006485,0.00567831,0.1
 3328424,-0.17712538,-0.00305892,-0.14629007,0.19201815,-0.00000045,0.0
 0006223,-0.00010315,-0.00008597,-0.00004314,0.00004803,0.00000259,0.00
 000402,0.00001173,0.00011296,-0.00012771,-0.00000313,-0.00000476,0.000
 01294,0.00000315,-0.00020600,0.00012890,0.00007285,0.00061588,-0.00061
 245,0.00038689,0.00009577,-0.00008240,0.00030719,-0.00005898,-0.000010
 78,0.00001882,0.00006465,0.00006921,0.00005220,0.00617768,-0.01777599,
 -0.00810148,0.00079604,0.00007623,0.00095908,-0.00212016,-0.00057358,-
 0.00332181,0.00053176,-0.00098572,-0.00071401,-0.00015107,0.00020514,0
 .00005622,0.00020810,-0.00011440,-0.00021752,-0.07274126,0.07202238,0.
 03468133,-0.00051852,-0.00179198,-0.00103360,0.07509838,-0.00008724,-0
 .00000678,-0.00007910,-0.00003400,0.00003373,-0.00000623,0.00000160,0.
 00001525,0.00000925,0.00005441,-0.00015820,-0.00004740,0.00000560,0.00
 000681,-0.00001199,0.00010994,0.00028229,-0.00030237,-0.00014674,0.000
 42958,0.00114037,-0.00011227,0.00030464,-0.00032003,0.00002157,0.00001
 077,-0.00000869,-0.00003673,0.00006345,0.00003789,0.00238076,-0.006148
 10,-0.00135835,-0.00023023,0.00006084,0.00016888,-0.00184355,0.0005998
 9,-0.00156279,0.00030647,-0.00034977,-0.00046094,-0.00000037,0.0003457
 7,0.00008357,0.00010272,0.00002285,0.00008388,0.07088182,-0.24760703,-
 0.09478503,0.00672626,-0.01773403,-0.00960440,-0.07695076,0.26565117,-
 0.00005305,0.00000933,-0.00007208,0.00000061,-0.00001549,0.00000566,-0
 .00000589,0.00000296,-0.00000143,0.00002063,0.00004100,-0.00006032,-0.
 00000274,0.00000166,-0.00001952,0.00027066,0.00023337,0.00004723,0.000
 66943,-0.00143576,0.00085598,-0.00014474,0.00022504,0.00010896,-0.0000
 1863,-0.00001706,-0.00001375,-0.00007015,-0.00005565,-0.00000465,0.009
 01194,-0.01989748,-0.01070983,0.00009680,0.00051296,0.00098608,-0.0041
 3896,-0.00045303,-0.00377402,0.00032151,-0.00163186,-0.00047228,0.0000
 2292,-0.00014701,0.00025317,-0.00011295,0.00031475,0.00014173,0.033551
 29,-0.09306730,-0.09116905,-0.00761698,0.01904608,0.01058913,-0.034207
 32,0.10461550,0.09794162,-0.00010063,-0.00025978,0.00033433,0.00041321
 ,-0.00010100,-0.00011832,0.00002328,-0.00003802,-0.00002538,0.00013062
 ,0.00045503,-0.00020434,0.00000300,0.00004289,0.00000449,-0.00027786,0
 .00024737,0.00047047,0.00055705,-0.00108835,0.00119777,-0.00029394,0.0
 0049138,-0.00029202,0.00009087,-0.00002519,-0.00003948,0.00039616,-0.0
 0006929,-0.00019067,-0.02019469,-0.00207559,0.00539397,-0.00103826,-0.
 00093276,-0.00374830,0.00106990,0.00083161,0.00073722,0.00029423,0.000
 15118,-0.00013387,-0.00001168,-0.00003703,-0.00010297,0.00040325,-0.00
 064116,-0.00028156,-0.28333778,-0.02630806,0.07967133,0.00075868,-0.00
 003342,-0.00018062,-0.00781665,-0.00114925,0.00240562,0.30893122,-0.00
 000473,0.00001847,-0.00000919,0.00000631,0.00000774,-0.00002244,0.0000
 0076,0.00000082,-0.00000246,0.00007548,-0.00002619,-0.00001083,0.00000
 506,0.00003162,0.00000316,-0.00004315,-0.00008539,0.00038860,0.0006642
 0,-0.00013028,-0.00022207,0.00000681,0.00002270,0.00001029,0.00000753,
 -0.00002326,-0.00000806,0.00013497,0.00001486,0.00042690,-0.00782992,-
 0.00201357,0.00278526,-0.00099384,0.00029398,-0.00146067,-0.00074288,0
 .00043491,0.00068956,0.00017136,0.00003122,0.00006526,-0.00000713,-0.0
 0006887,0.00003829,0.00006647,0.00004890,-0.00025141,-0.02635428,-0.04
 998394,0.00895593,-0.02219032,-0.00207431,0.00616903,0.02648786,0.0041
 7688,-0.00828202,0.03053944,0.04932372,-0.00012371,-0.00021958,0.00022
 488,0.00032521,-0.00002639,0.00000548,0.00000840,-0.00000953,-0.000022
 61,-0.00012136,0.00024654,-0.00019304,-0.00001605,-0.00002515,-0.00003
 270,-0.00023342,0.00010513,-0.00077127,0.00029874,-0.00021076,0.001595
 99,-0.00017976,0.00044565,-0.00010078,0.00006988,-0.00002193,-0.000029
 43,-0.00013662,0.00011930,-0.00119025,-0.02528337,-0.00346911,0.007074
 30,-0.00332413,-0.00141081,-0.00361853,-0.00017530,0.00112784,0.001698
 26,0.00010890,0.00024035,0.00003942,0.00009495,-0.00012450,-0.00001463
 ,0.00052779,0.00010474,-0.00004604,0.08133428,0.00924122,-0.07239229,0
 .02061868,0.00074217,-0.00688359,0.01110454,0.00240797,-0.00463266,-0.
 08489767,-0.00926315,0.07928949\\-0.00000059,0.00000588,0.00000956,-0.
 00000038,0.00000625,0.00000638,-0.00000138,0.00000779,0.00000887,-0.00
 000156,0.00000269,0.00000208,-0.00000232,0.00000216,0.00000018,-0.0000
 0103,0.00000045,-0.00000063,0.00000018,0.00000123,0.00000154,0.0000007
 6,0.00000464,0.00000613,0.00000141,0.00000491,0.00000822,-0.00000132,-
 0.00000209,-0.00000436,0.00000070,-0.00000156,-0.00000124,0.00000151,-
 0.00000038,0.00000126,-0.00000364,-0.00000098,-0.00000562,-0.00000651,
 0.00000236,-0.00000459,-0.00000321,-0.00000275,-0.00000750,-0.00000451
 ,-0.00000213,-0.00000824,0.00000473,-0.00000619,-0.00000273,0.00000523
 ,-0.00000805,-0.00000455,0.00000787,-0.00000667,0.00000045,0.00000405,
 -0.00000753,-0.00000521\\\@
 The archive entry for this job was punched.


 THERE ONCE WAS A GIRL NAMED IRENE,
 WHO LIVED ON DISTILLED KEROSENE,
      BUT SHE STARTED ABSORBIN'
      A NEW HYDROCARBON,
 AND SINCE THEN HAS NEVER BENZENE.
 Job cpu time:       0 days  1 hours 39 minutes 58.6 seconds.
 Elapsed time:       0 days  0 hours  3 minutes 14.8 seconds.
 File lengths (MBytes):  RWF=    286 Int=      0 D2E=      0 Chk=     18 Scr=      1
 Normal termination of Gaussian 16 at Sun May 11 04:23:19 2025.
