/home/tahminaafroz
cn014.cluster.local
tahminaafroz
Wed Apr 30 05:18:07 CDT 2025
 Entering Gaussian System, Link 0=g16
 Initial command:
 /home/apps/g16/l1.exe "/tmp/4-cooch3-phboh2-opt-freq/Gau-1109687.inp" -scrdir="/tmp/4-cooch3-phboh2-opt-freq/"
 Entering Link 1 = /home/apps/g16/l1.exe PID=   1109688.
  
 Copyright (c) 1988-2019, Gaussian, Inc.  All Rights Reserved.
  
 This is part of the Gaussian(R) 16 program.  It is based on
 the Gaussian(R) 09 system (copyright 2009, Gaussian, Inc.),
 the Gaussian(R) 03 system (copyright 2003, Gaussian, Inc.),
 the Gaussian(R) 98 system (copyright 1998, Gaussian, Inc.),
 the Gaussian(R) 94 system (copyright 1995, Gaussian, Inc.),
 the Gaussian 92(TM) system (copyright 1992, Gaussian, Inc.),
 the Gaussian 90(TM) system (copyright 1990, Gaussian, Inc.),
 the Gaussian 88(TM) system (copyright 1988, Gaussian, Inc.),
 the Gaussian 86(TM) system (copyright 1986, Carnegie Mellon
 University), and the Gaussian 82(TM) system (copyright 1983,
 Carnegie Mellon University). Gaussian is a federally registered
 trademark of Gaussian, Inc.
  
 This software contains proprietary and confidential information,
 including trade secrets, belonging to Gaussian, Inc.
  
 This software is provided under written license and may be
 used, copied, transmitted, or stored only in accord with that
 written license.
  
 The following legend is applicable only to US Government
 contracts under FAR:
  
                    RESTRICTED RIGHTS LEGEND
  
 Use, reproduction and disclosure by the US Government is
 subject to restrictions as set forth in subparagraphs (a)
 and (c) of the Commercial Computer Software - Restricted
 Rights clause in FAR 52.227-19.
  
 Gaussian, Inc.
 340 Quinnipiac St., Bldg. 40, Wallingford CT 06492
  
  
 ---------------------------------------------------------------
 Warning -- This program may not be used in any manner that
 competes with the business of Gaussian, Inc. or will provide
 assistance to any competitor of Gaussian, Inc.  The licensee
 of this program is prohibited from giving any competitor of
 Gaussian, Inc. access to this program.  By using this program,
 the user acknowledges that Gaussian, Inc. is engaged in the
 business of creating and licensing software in the field of
 computational chemistry and represents and warrants to the
 licensee that it is not a competitor of Gaussian, Inc. and that
 it will not use this program in any manner prohibited above.
 ---------------------------------------------------------------
  

 Cite this work as:
 Gaussian 16, Revision C.01,
 M. J. Frisch, G. W. Trucks, H. B. Schlegel, G. E. Scuseria, 
 M. A. Robb, J. R. Cheeseman, G. Scalmani, V. Barone, 
 G. A. Petersson, H. Nakatsuji, X. Li, M. Caricato, A. V. Marenich, 
 J. Bloino, B. G. Janesko, R. Gomperts, B. Mennucci, H. P. Hratchian, 
 J. V. Ortiz, A. F. Izmaylov, J. L. Sonnenberg, D. Williams-Young, 
 F. Ding, F. Lipparini, F. Egidi, J. Goings, B. Peng, A. Petrone, 
 T. Henderson, D. Ranasinghe, V. G. Zakrzewski, J. Gao, N. Rega, 
 G. Zheng, W. Liang, M. Hada, M. Ehara, K. Toyota, R. Fukuda, 
 J. Hasegawa, M. Ishida, T. Nakajima, Y. Honda, O. Kitao, H. Nakai, 
 T. Vreven, K. Throssell, J. A. Montgomery, Jr., J. E. Peralta, 
 F. Ogliaro, M. J. Bearpark, J. J. Heyd, E. N. Brothers, K. N. Kudin, 
 V. N. Staroverov, T. A. Keith, R. Kobayashi, J. Normand, 
 K. Raghavachari, A. P. Rendell, J. C. Burant, S. S. Iyengar, 
 J. Tomasi, M. Cossi, J. M. Millam, M. Klene, C. Adamo, R. Cammi, 
 J. W. Ochterski, R. L. Martin, K. Morokuma, O. Farkas, 
 J. B. Foresman, and D. J. Fox, Gaussian, Inc., Wallingford CT, 2019.
 
 ******************************************
 Gaussian 16:  AS64L-G16RevC.01  3-Jul-2019
                30-Apr-2025 
 ******************************************
 %mem=20GB
 %nprocshared=32
 Will use up to   32 processors via shared memory.
 %chk=4-cooch3-phboh2-opt-freq.chk
 ----------------------------------------------------------------------
 # opt=(calcfc,tight) freq 6-311+g(d,p) nosymm scf=(qc,fermi,xqc) geom=
 connectivity int=ultrafine m062x
 ----------------------------------------------------------------------
 1/7=10,10=4,18=20,19=15,26=4,38=1,57=2/1,3;
 2/9=110,12=2,15=1,17=6,18=5,40=1/2;
 3/5=4,6=6,7=111,11=2,25=1,30=1,71=2,74=-55,75=-5,140=1/1,2,3;
 4//1;
 5/5=2,22=13,38=5/2;
 8/6=4,10=90,11=11/1;
 11/6=1,8=1,9=11,15=111,16=1,31=1/1,2,10;
 10/6=1,13=1,31=1/2;
 6/7=2,8=2,9=2,10=2,28=1/1;
 7/10=1,25=1,30=1/1,2,3,16;
 1/7=10,10=4,18=20,19=15,26=4/3(2);
 2/9=110,15=1/2;
 99//99;
 2/9=110,15=1/2;
 3/5=4,6=6,7=111,11=2,25=1,30=1,71=1,74=-55,75=-5/1,2,3;
 4/5=5,16=3,69=1/1;
 5/5=2,22=13,38=5/2;
 7/30=1/1,2,3,16;
 1/7=10,18=20,19=15,26=4/3(-5);
 2/9=110,15=1/2;
 6/7=2,8=2,9=2,10=2,19=2,28=1/1;
 99/9=1/99;
 ------------------------
 4-cooch3-phboh2-opt-freq
 ------------------------
 Symbolic Z-matrix:
 Charge =  0 Multiplicity = 1
 O                     8.68578   7.44852   5.52185 
 H                     9.50435   7.1419    5.9227 
 C                     6.23903   6.99601   5.17382 
 B                     7.64313   6.60892   5.7642 
 O                     7.88043   5.48622   6.50557 
 H                     7.11253   4.93616   6.6673 
 C                     5.11246   6.17879   5.30708 
 H                     5.17492   5.2282    5.82893 
 C                     3.88256   6.55038   4.77908 
 H                     3.01437   5.91292   4.89251 
 C                     3.77272   7.76195   4.10637 
 C                     4.87644   8.59483   3.95507 
 H                     4.77374   9.53782   3.43195 
 C                     6.09888   8.208     4.48761 
 H                     6.96431   8.85094   4.37723 
 C                     2.46096   8.14767   3.48423 
 O                     1.34734   7.60311   4.19713 
 C                     0.13289   8.14518   3.6716 
 H                    -0.67851   7.48419   3.89438 
 H                    -0.053     9.10056   4.11612 
 H                     0.22147   8.25638   2.61109 
 O                     2.28531   9.56603   3.43627 
 

 GradGradGradGradGradGradGradGradGradGradGradGradGradGradGradGradGradGrad
 Berny optimization.
 Initialization pass.
                           ----------------------------
                           !    Initial Parameters    !
                           ! (Angstroms and Degrees)  !
 --------------------------                            --------------------------
 ! Name  Definition              Value          Derivative Info.                !
 --------------------------------------------------------------------------------
 ! R1    R(1,2)                  0.9616         calculate D2E/DX2 analytically  !
 ! R2    R(1,4)                  1.3604         calculate D2E/DX2 analytically  !
 ! R3    R(3,4)                  1.5716         calculate D2E/DX2 analytically  !
 ! R4    R(3,7)                  1.3981         calculate D2E/DX2 analytically  !
 ! R5    R(3,14)                 1.3998         calculate D2E/DX2 analytically  !
 ! R6    R(4,5)                  1.3662         calculate D2E/DX2 analytically  !
 ! R7    R(5,6)                  0.9583         calculate D2E/DX2 analytically  !
 ! R8    R(7,8)                  1.0862         calculate D2E/DX2 analytically  !
 ! R9    R(7,9)                  1.3891         calculate D2E/DX2 analytically  !
 ! R10   R(9,10)                 1.083          calculate D2E/DX2 analytically  !
 ! R11   R(9,11)                 1.3901         calculate D2E/DX2 analytically  !
 ! R12   R(11,12)                1.391          calculate D2E/DX2 analytically  !
 ! R13   R(11,16)                1.5022         calculate D2E/DX2 analytically  !
 ! R14   R(12,13)                1.0833         calculate D2E/DX2 analytically  !
 ! R15   R(12,14)                1.3884         calculate D2E/DX2 analytically  !
 ! R16   R(14,15)                1.0838         calculate D2E/DX2 analytically  !
 ! R17   R(16,17)                1.43           calculate D2E/DX2 analytically  !
 ! R18   R(16,22)                1.43           calculate D2E/DX2 analytically  !
 ! R19   R(17,18)                1.43           calculate D2E/DX2 analytically  !
 ! R20   R(18,19)                1.07           calculate D2E/DX2 analytically  !
 ! R21   R(18,20)                1.07           calculate D2E/DX2 analytically  !
 ! R22   R(18,21)                1.07           calculate D2E/DX2 analytically  !
 ! A1    A(2,1,4)              112.4174         calculate D2E/DX2 analytically  !
 ! A2    A(4,3,7)              122.6923         calculate D2E/DX2 analytically  !
 ! A3    A(4,3,14)             119.1345         calculate D2E/DX2 analytically  !
 ! A4    A(7,3,14)             118.173          calculate D2E/DX2 analytically  !
 ! A5    A(1,4,3)              117.7626         calculate D2E/DX2 analytically  !
 ! A6    A(1,4,5)              118.0811         calculate D2E/DX2 analytically  !
 ! A7    A(3,4,5)              124.1562         calculate D2E/DX2 analytically  !
 ! A8    A(4,5,6)              115.0934         calculate D2E/DX2 analytically  !
 ! A9    A(3,7,8)              120.7296         calculate D2E/DX2 analytically  !
 ! A10   A(3,7,9)              121.389          calculate D2E/DX2 analytically  !
 ! A11   A(8,7,9)              117.8813         calculate D2E/DX2 analytically  !
 ! A12   A(7,9,10)             120.8308         calculate D2E/DX2 analytically  !
 ! A13   A(7,9,11)             119.1467         calculate D2E/DX2 analytically  !
 ! A14   A(10,9,11)            120.0209         calculate D2E/DX2 analytically  !
 ! A15   A(9,11,12)            120.7839         calculate D2E/DX2 analytically  !
 ! A16   A(9,11,16)            119.5512         calculate D2E/DX2 analytically  !
 ! A17   A(12,11,16)           119.6109         calculate D2E/DX2 analytically  !
 ! A18   A(11,12,13)           119.9042         calculate D2E/DX2 analytically  !
 ! A19   A(11,12,14)           119.3471         calculate D2E/DX2 analytically  !
 ! A20   A(13,12,14)           120.7472         calculate D2E/DX2 analytically  !
 ! A21   A(3,14,12)            121.1597         calculate D2E/DX2 analytically  !
 ! A22   A(3,14,15)            118.9235         calculate D2E/DX2 analytically  !
 ! A23   A(12,14,15)           119.9166         calculate D2E/DX2 analytically  !
 ! A24   A(11,16,17)           112.0728         calculate D2E/DX2 analytically  !
 ! A25   A(11,16,22)           112.0759         calculate D2E/DX2 analytically  !
 ! A26   A(17,16,22)           107.3842         calculate D2E/DX2 analytically  !
 ! A27   A(16,17,18)           109.5            calculate D2E/DX2 analytically  !
 ! A28   A(17,18,19)           109.4712         calculate D2E/DX2 analytically  !
 ! A29   A(17,18,20)           109.4712         calculate D2E/DX2 analytically  !
 ! A30   A(17,18,21)           109.4712         calculate D2E/DX2 analytically  !
 ! A31   A(19,18,20)           109.4713         calculate D2E/DX2 analytically  !
 ! A32   A(19,18,21)           109.4712         calculate D2E/DX2 analytically  !
 ! A33   A(20,18,21)           109.4712         calculate D2E/DX2 analytically  !
 ! D1    D(2,1,4,3)            179.5809         calculate D2E/DX2 analytically  !
 ! D2    D(2,1,4,5)             -0.3002         calculate D2E/DX2 analytically  !
 ! D3    D(7,3,4,1)            176.9737         calculate D2E/DX2 analytically  !
 ! D4    D(7,3,4,5)             -3.153          calculate D2E/DX2 analytically  !
 ! D5    D(14,3,4,1)            -3.1937         calculate D2E/DX2 analytically  !
 ! D6    D(14,3,4,5)           176.6795         calculate D2E/DX2 analytically  !
 ! D7    D(4,3,7,8)             -0.3529         calculate D2E/DX2 analytically  !
 ! D8    D(4,3,7,9)            179.7252         calculate D2E/DX2 analytically  !
 ! D9    D(14,3,7,8)           179.813          calculate D2E/DX2 analytically  !
 ! D10   D(14,3,7,9)            -0.1089         calculate D2E/DX2 analytically  !
 ! D11   D(4,3,14,12)         -179.6659         calculate D2E/DX2 analytically  !
 ! D12   D(4,3,14,15)            0.155          calculate D2E/DX2 analytically  !
 ! D13   D(7,3,14,12)            0.1743         calculate D2E/DX2 analytically  !
 ! D14   D(7,3,14,15)          179.9951         calculate D2E/DX2 analytically  !
 ! D15   D(1,4,5,6)            178.6408         calculate D2E/DX2 analytically  !
 ! D16   D(3,4,5,6)             -1.2321         calculate D2E/DX2 analytically  !
 ! D17   D(3,7,9,10)          -179.6482         calculate D2E/DX2 analytically  !
 ! D18   D(3,7,9,11)            -0.0978         calculate D2E/DX2 analytically  !
 ! D19   D(8,7,9,10)             0.4278         calculate D2E/DX2 analytically  !
 ! D20   D(8,7,9,11)           179.9782         calculate D2E/DX2 analytically  !
 ! D21   D(7,9,11,12)            0.2458         calculate D2E/DX2 analytically  !
 ! D22   D(7,9,11,16)          177.5639         calculate D2E/DX2 analytically  !
 ! D23   D(10,9,11,12)         179.7999         calculate D2E/DX2 analytically  !
 ! D24   D(10,9,11,16)          -2.8819         calculate D2E/DX2 analytically  !
 ! D25   D(9,11,12,13)        -179.7373         calculate D2E/DX2 analytically  !
 ! D26   D(9,11,12,14)          -0.1822         calculate D2E/DX2 analytically  !
 ! D27   D(16,11,12,13)          2.9461         calculate D2E/DX2 analytically  !
 ! D28   D(16,11,12,14)       -177.4988         calculate D2E/DX2 analytically  !
 ! D29   D(9,11,16,17)          30.1718         calculate D2E/DX2 analytically  !
 ! D30   D(9,11,16,22)         150.9939         calculate D2E/DX2 analytically  !
 ! D31   D(12,11,16,17)       -152.4783         calculate D2E/DX2 analytically  !
 ! D32   D(12,11,16,22)        -31.6562         calculate D2E/DX2 analytically  !
 ! D33   D(11,12,14,3)          -0.0318         calculate D2E/DX2 analytically  !
 ! D34   D(11,12,14,15)       -179.8509         calculate D2E/DX2 analytically  !
 ! D35   D(13,12,14,3)         179.5194         calculate D2E/DX2 analytically  !
 ! D36   D(13,12,14,15)         -0.2997         calculate D2E/DX2 analytically  !
 ! D37   D(11,16,17,18)        172.3151         calculate D2E/DX2 analytically  !
 ! D38   D(22,16,17,18)         48.8159         calculate D2E/DX2 analytically  !
 ! D39   D(16,17,18,19)        157.0375         calculate D2E/DX2 analytically  !
 ! D40   D(16,17,18,20)        -82.9625         calculate D2E/DX2 analytically  !
 ! D41   D(16,17,18,21)         37.0375         calculate D2E/DX2 analytically  !
 --------------------------------------------------------------------------------
 Trust Radius=3.00D-01 FncErr=1.00D-07 GrdErr=1.00D-06 EigMax=2.50D+02 EigMin=1.00D-04
 Number of steps in this run=    106 maximum allowed number of steps=    132.
 GradGradGradGradGradGradGradGradGradGradGradGradGradGradGradGradGradGrad

                          Input orientation:                          
 ---------------------------------------------------------------------
 Center     Atomic      Atomic             Coordinates (Angstroms)
 Number     Number       Type             X           Y           Z
 ---------------------------------------------------------------------
      1          8           0        8.685784    7.448516    5.521848
      2          1           0        9.504352    7.141898    5.922696
      3          6           0        6.239032    6.996009    5.173822
      4          5           0        7.643134    6.608921    5.764196
      5          8           0        7.880428    5.486223    6.505571
      6          1           0        7.112534    4.936163    6.667298
      7          6           0        5.112462    6.178789    5.307078
      8          1           0        5.174921    5.228195    5.828931
      9          6           0        3.882561    6.550384    4.779083
     10          1           0        3.014365    5.912922    4.892513
     11          6           0        3.772720    7.761950    4.106374
     12          6           0        4.876439    8.594827    3.955067
     13          1           0        4.773740    9.537819    3.431947
     14          6           0        6.098884    8.207996    4.487615
     15          1           0        6.964306    8.850940    4.377231
     16          6           0        2.460956    8.147669    3.484233
     17          8           0        1.347341    7.603113    4.197128
     18          6           0        0.132890    8.145178    3.671604
     19          1           0       -0.678509    7.484192    3.894379
     20          1           0       -0.053002    9.100559    4.116117
     21          1           0        0.221468    8.256384    2.611091
     22          8           0        2.285308    9.566030    3.436265
 ---------------------------------------------------------------------
                    Distance matrix (angstroms):
                    1          2          3          4          5
     1  O    0.000000
     2  H    0.961638   0.000000
     3  C    2.512465   3.353269   0.000000
     4  B    1.360431   1.942503   1.571586   0.000000
     5  O    2.338141   2.391262   2.597535   1.366161   0.000000
     6  H    3.177906   3.337738   2.690064   1.973638   0.958323
     7  C    3.798284   4.538200   1.398129   2.607349   3.094781
     8  H    4.165367   4.734451   2.164871   2.828899   2.800748
     9  C    4.942600   5.767345   2.430505   3.887902   4.482872
    10  H    5.909239   6.685177   3.413311   4.761276   5.144181
    11  C    5.122500   6.044427   2.794424   4.365542   5.273362
    12  C    4.275505   5.234515   2.428630   3.856342   5.019207
    13  H    4.902750   5.858580   3.412039   4.717123   5.959371
    14  C    2.887646   3.846197   1.399798   2.563476   3.828067
    15  H    2.498085   3.429449   2.145075   2.722339   4.085392
    16  C    6.587046   7.521111   4.295916   5.866937   6.751478
    17  O    7.458655   8.350278   5.025052   6.563622   7.245092
    18  C    8.778424   9.690112   6.392356   7.946243   8.667511
    19  H    9.504731  10.388546   7.051785   8.573917   9.168730
    20  H    9.003982   9.921849   6.718449   8.255600   9.039481
    21  H    8.987202   9.918707   6.660872   8.230270   9.027759
    22  O    7.056884   8.010827   5.025539   6.547523   7.574353
                    6          7          8          9         10
     6  H    0.000000
     7  C    2.719302   0.000000
     8  H    2.131311   1.086214   0.000000
     9  C    4.074775   1.389071   2.126161   0.000000
    10  H    4.571532   2.155124   2.452291   1.083046   0.000000
    11  C    5.069296   2.396455   3.369464   1.390142   2.147562
    12  C    5.073671   2.778647   3.864540   2.417963   3.396872
    13  H    6.092019   3.861856   4.947660   3.396137   4.285853
    14  C    4.059975   2.400464   3.395887   2.782933   3.865949
    15  H    4.537825   3.381469   4.293438   3.866678   4.949697
    16  C    6.487130   3.772232   4.624559   2.499783   2.698816
    17  O    6.815557   4.175742   4.790969   2.806110   2.473717
    18  C    8.245446   5.597999   6.211676   4.222547   3.844019
    19  H    8.653432   6.102060   6.564652   4.738993   4.135514
    20  H    8.671540   6.052862   6.727563   4.736197   4.491387
    21  H    8.658145   5.958739   6.637855   4.584128   4.300811
    22  O    7.428146   4.792300   5.735113   3.667219   3.999672
                   11         12         13         14         15
    11  C    0.000000
    12  C    1.390961   0.000000
    13  H    2.147232   1.083252   0.000000
    14  C    2.399029   1.388387   2.153804   0.000000
    15  H    3.383117   2.145461   2.482729   1.083751   0.000000
    16  C    1.502186   2.501238   2.698930   3.774246   4.644588
    17  O    2.432269   3.673775   4.008591   4.798690   5.756719
    18  C    3.685681   4.773237   4.851223   6.021868   6.903930
    19  H    4.464922   5.665213   5.844506   6.841701   7.779059
    20  H    4.053161   4.957932   4.894560   6.227389   7.026599
    21  H    3.884807   4.856910   4.799902   6.169903   6.995614
    22  O    2.432312   2.815378   2.488596   4.182458   4.825950
                   16         17         18         19         20
    16  C    0.000000
    17  O    1.430000   0.000000
    18  C    2.335595   1.430000   0.000000
    19  H    3.234913   2.051796   1.070000   0.000000
    20  H    2.761749   2.051796   1.070000   1.747303   0.000000
    21  H    2.406139   2.051796   1.070000   1.747303   1.747303
    22  O    1.430000   2.304721   2.589808   3.650771   2.479224
                   21         22
    21  H    0.000000
    22  O    2.579829   0.000000
 Symmetry turned off by external request.
 Stoichiometry    C8H9BO4
 Framework group  C1[X(C8H9BO4)]
 Deg. of freedom    60
 Full point group                 C1      NOp   1
 Rotational constants (GHZ):           2.5528840           0.3402645           0.3029727
 Standard basis: 6-311+G(d,p) (5D, 7F)
   340 basis functions,   540 primitive gaussians,   353 cartesian basis functions
    47 alpha electrons       47 beta electrons
       nuclear repulsion energy       722.2183310375 Hartrees.
 NAtoms=   22 NActive=   22 NUniq=   22 SFac= 1.00D+00 NAtFMM=   60 NAOKFM=F Big=F
 Integral buffers will be    131072 words long.
 Raffenetti 2 integral format.
 Two-electron integral symmetry is turned off.
 One-electron integrals computed using PRISM.
 NBasis=   340 RedAO= T EigKep=  1.29D-06  NBF=   340
 NBsUse=   340 1.00D-06 EigRej= -1.00D+00 NBFU=   340
 ExpMin= 3.15D-02 ExpMax= 8.59D+03 ExpMxC= 1.30D+03 IAcc=3 IRadAn=         5 AccDes= 0.00D+00
 Harris functional with IExCor= 1009 and IRadAn=       5 diagonalized for initial guess.
 HarFok:  IExCor= 1009 AccDes= 0.00D+00 IRadAn=         5 IDoV= 1 UseB2=F ITyADJ=14
 ICtDFT=  3500011 ScaDFX=  1.000000  1.000000  1.000000  1.000000
 FoFCou: FMM=F IPFlag=           0 FMFlag=      100000 FMFlg1=           0
         NFxFlg=           0 DoJE=T BraDBF=F KetDBF=T FulRan=T
         wScrn=  0.000000 ICntrl=       500 IOpCl=  0 I1Cent=   200000004 NGrid=           0
         NMat0=    1 NMatS0=      1 NMatT0=    0 NMatD0=    1 NMtDS0=    0 NMtDT0=    0
 Symmetry not used in FoFCou.
 Requested convergence on RMS density matrix=1.00D-08 within 128 cycles.
 Requested convergence on MAX density matrix=1.00D-06.
 Requested convergence on             energy=1.00D-06.
 Level shift goal  0.100 maximum shift  0.100.
 No special actions if energy rises.
 Dynamic level shift is on during FON iterations.
 SCF Done:  E(RM062X) =  -635.972249325     A.U. after   18 cycles
            NFock= 18  Conv=0.59D-08     -V/T= 2.0042
 DoSCS=F DFT=T ScalE2(SS,OS)=  1.000000  1.000000
 Range of M.O.s used for correlation:     1   340
 NBasis=   340 NAE=    47 NBE=    47 NFC=     0 NFV=     0
 NROrb=    340 NOA=    47 NOB=    47 NVA=   293 NVB=   293

 **** Warning!!: The largest alpha MO coefficient is  0.18467705D+03

 Symmetrizing basis deriv contribution to polar:
 IMax=3 JMax=2 DiffMx= 0.00D+00
 G2DrvN: will do    23 centers at a time, making    1 passes.
 Calling FoFCou, ICntrl=  3107 FMM=F I1Cent=   0 AccDes= 0.00D+00.
 End of G2Drv F.D. properties file   721 does not exist.
 End of G2Drv F.D. properties file   722 does not exist.
 End of G2Drv F.D. properties file   788 does not exist.
          IDoAtm=1111111111111111111111
          Differentiating once with respect to nuclear coordinates.
 Keep R1 ints in memory in canonical form, NReq=1717245327.
          There are    69 degrees of freedom in the 1st order CPHF.  IDoFFX=6 NUNeed=     0.
     63 vectors produced by pass  0 Test12= 2.00D-14 1.45D-09 XBig12= 2.38D-01 1.11D-01.
 AX will form    63 AO Fock derivatives at one time.
     63 vectors produced by pass  1 Test12= 2.00D-14 1.45D-09 XBig12= 1.40D-02 2.35D-02.
     63 vectors produced by pass  2 Test12= 2.00D-14 1.45D-09 XBig12= 4.55D-04 3.59D-03.
     63 vectors produced by pass  3 Test12= 2.00D-14 1.45D-09 XBig12= 3.71D-06 2.34D-04.
     63 vectors produced by pass  4 Test12= 2.00D-14 1.45D-09 XBig12= 2.49D-08 1.70D-05.
     63 vectors produced by pass  5 Test12= 2.00D-14 1.45D-09 XBig12= 1.09D-10 1.11D-06.
     57 vectors produced by pass  6 Test12= 2.00D-14 1.45D-09 XBig12= 4.54D-13 8.43D-08.
     15 vectors produced by pass  7 Test12= 2.00D-14 1.45D-09 XBig12= 1.92D-15 4.43D-09.
 InvSVY:  IOpt=1 It=  1 EMax= 4.44D-16
 Solved reduced A of dimension   450 with    69 vectors.
 End of Minotr F.D. properties file   721 does not exist.
 End of Minotr F.D. properties file   722 does not exist.
 End of Minotr F.D. properties file   788 does not exist.

 **********************************************************************

            Population analysis using the SCF Density.

 **********************************************************************

 Alpha  occ. eigenvalues --  -19.68334 -19.64875 -19.64047 -19.63188 -10.71153
 Alpha  occ. eigenvalues --  -10.58574 -10.58464 -10.56679 -10.56567 -10.56042
 Alpha  occ. eigenvalues --  -10.55719 -10.54761  -7.09523  -1.20714  -1.17907
 Alpha  occ. eigenvalues --   -1.14220  -1.06809  -0.98384  -0.88289  -0.86343
 Alpha  occ. eigenvalues --   -0.81500  -0.73405  -0.71031  -0.67197  -0.65872
 Alpha  occ. eigenvalues --   -0.64234  -0.60990  -0.56953  -0.55905  -0.55182
 Alpha  occ. eigenvalues --   -0.53546  -0.51752  -0.50631  -0.50113  -0.49149
 Alpha  occ. eigenvalues --   -0.47376  -0.46543  -0.45794  -0.43724  -0.42684
 Alpha  occ. eigenvalues --   -0.41560  -0.41497  -0.39797  -0.36291  -0.35308
 Alpha  occ. eigenvalues --   -0.32557  -0.31925
 Alpha virt. eigenvalues --   -0.08965  -0.00969  -0.00589   0.00408   0.01116
 Alpha virt. eigenvalues --    0.02053   0.02720   0.02831   0.03557   0.04471
 Alpha virt. eigenvalues --    0.04718   0.05589   0.06136   0.07696   0.07865
 Alpha virt. eigenvalues --    0.08518   0.09254   0.09949   0.10625   0.11427
 Alpha virt. eigenvalues --    0.11843   0.12369   0.12974   0.14063   0.14359
 Alpha virt. eigenvalues --    0.14859   0.15213   0.15431   0.15746   0.16639
 Alpha virt. eigenvalues --    0.17412   0.18413   0.19106   0.19236   0.19432
 Alpha virt. eigenvalues --    0.19696   0.20094   0.21414   0.21759   0.22585
 Alpha virt. eigenvalues --    0.22919   0.23330   0.23571   0.23846   0.24300
 Alpha virt. eigenvalues --    0.24710   0.25311   0.25654   0.25797   0.25893
 Alpha virt. eigenvalues --    0.26905   0.27110   0.27588   0.27753   0.28856
 Alpha virt. eigenvalues --    0.29427   0.29806   0.30402   0.31000   0.32608
 Alpha virt. eigenvalues --    0.32934   0.33420   0.34217   0.35323   0.36396
 Alpha virt. eigenvalues --    0.37365   0.37753   0.39422   0.39826   0.41232
 Alpha virt. eigenvalues --    0.41682   0.42496   0.44829   0.45194   0.46165
 Alpha virt. eigenvalues --    0.47777   0.48896   0.49623   0.51069   0.52132
 Alpha virt. eigenvalues --    0.52726   0.54553   0.56093   0.56973   0.58282
 Alpha virt. eigenvalues --    0.58692   0.59701   0.60286   0.61550   0.62034
 Alpha virt. eigenvalues --    0.63046   0.64167   0.64756   0.65812   0.67367
 Alpha virt. eigenvalues --    0.69196   0.69448   0.69637   0.70352   0.71177
 Alpha virt. eigenvalues --    0.72340   0.72770   0.73089   0.73384   0.75205
 Alpha virt. eigenvalues --    0.76629   0.77167   0.78327   0.81613   0.83595
 Alpha virt. eigenvalues --    0.85172   0.86794   0.90218   0.90536   0.90995
 Alpha virt. eigenvalues --    0.92178   0.92969   0.95044   0.96339   0.99877
 Alpha virt. eigenvalues --    1.00836   1.02388   1.05115   1.05374   1.06613
 Alpha virt. eigenvalues --    1.06945   1.08964   1.09441   1.10554   1.10657
 Alpha virt. eigenvalues --    1.11612   1.12529   1.13057   1.14891   1.18365
 Alpha virt. eigenvalues --    1.19332   1.20345   1.22452   1.24264   1.26910
 Alpha virt. eigenvalues --    1.28040   1.31075   1.32281   1.34652   1.38063
 Alpha virt. eigenvalues --    1.38263   1.38750   1.39800   1.44831   1.45645
 Alpha virt. eigenvalues --    1.48056   1.49760   1.50375   1.51634   1.52140
 Alpha virt. eigenvalues --    1.54428   1.57751   1.58242   1.59463   1.60076
 Alpha virt. eigenvalues --    1.61187   1.61408   1.62820   1.64020   1.67500
 Alpha virt. eigenvalues --    1.69069   1.69757   1.70672   1.72627   1.74546
 Alpha virt. eigenvalues --    1.75327   1.76349   1.78534   1.80347   1.81028
 Alpha virt. eigenvalues --    1.83594   1.84161   1.85299   1.87416   1.89056
 Alpha virt. eigenvalues --    1.91677   1.93282   1.96851   1.97223   2.00252
 Alpha virt. eigenvalues --    2.01742   2.02595   2.04573   2.07578   2.09386
 Alpha virt. eigenvalues --    2.10310   2.13162   2.14771   2.15904   2.17116
 Alpha virt. eigenvalues --    2.20119   2.21338   2.27187   2.30906   2.36931
 Alpha virt. eigenvalues --    2.41920   2.43350   2.44967   2.49797   2.51332
 Alpha virt. eigenvalues --    2.55690   2.56917   2.58285   2.58728   2.59731
 Alpha virt. eigenvalues --    2.61470   2.63940   2.64488   2.65601   2.69064
 Alpha virt. eigenvalues --    2.72392   2.72674   2.75061   2.76866   2.77840
 Alpha virt. eigenvalues --    2.78243   2.79699   2.80551   2.84414   2.85130
 Alpha virt. eigenvalues --    2.87381   2.91369   2.94597   2.96184   2.96363
 Alpha virt. eigenvalues --    2.97673   2.99401   3.02535   3.06153   3.06614
 Alpha virt. eigenvalues --    3.10417   3.13733   3.14706   3.18343   3.23291
 Alpha virt. eigenvalues --    3.25939   3.26216   3.27162   3.29944   3.32373
 Alpha virt. eigenvalues --    3.38241   3.39470   3.43299   3.44458   3.51296
 Alpha virt. eigenvalues --    3.54992   3.56296   3.61243   3.64076   3.65862
 Alpha virt. eigenvalues --    3.76628   3.87848   3.89248   3.91844   3.94528
 Alpha virt. eigenvalues --    4.02591   4.09534   4.09611   4.10913   4.19005
 Alpha virt. eigenvalues --    4.22429   4.31171   4.85752   5.07437   5.08523
 Alpha virt. eigenvalues --    5.12803   5.17409   5.27963   5.39395   5.42664
 Alpha virt. eigenvalues --    5.49263   5.55220   5.68471   5.72403   5.76446
 Alpha virt. eigenvalues --   14.78806  23.59095  23.72847  24.01845  24.02383
 Alpha virt. eigenvalues --   24.04836  24.12768  24.17508  24.25219  49.98064
 Alpha virt. eigenvalues --   50.00136  50.01123  50.04852
          Condensed to atoms (all electrons):
               1          2          3          4          5          6
     1  O    7.724100   0.276743   0.106441   0.451858  -0.132908   0.020657
     2  H    0.276743   0.451235   0.056502  -0.005858  -0.034942   0.003150
     3  C    0.106441   0.056502  10.786719   0.251389  -0.224374   0.016472
     4  B    0.451858  -0.005858   0.251389   3.358575   0.365853   0.016321
     5  O   -0.132908  -0.034942  -0.224374   0.365853   7.972040   0.252058
     6  H    0.020657   0.003150   0.016472   0.016321   0.252058   0.428904
     7  C    0.030888  -0.008737  -1.156399   0.121283   0.058823  -0.089637
     8  H    0.002687  -0.000027   0.028018   0.014260  -0.008919   0.012410
     9  C    0.094817   0.008353  -0.084881   0.099939  -0.033799   0.096285
    10  H   -0.000076  -0.000001  -0.037187  -0.000342   0.000351  -0.000081
    11  C   -0.024492  -0.001741  -2.418515   0.000599   0.022214  -0.007527
    12  C   -0.038692  -0.029163  -2.032769  -0.040763   0.102953  -0.021635
    13  H    0.000527   0.000004  -0.006262   0.000125  -0.000053   0.000003
    14  C   -0.171442  -0.017293   1.692333  -0.056410  -0.010667   0.018788
    15  H    0.002058  -0.000615   0.064844  -0.008404   0.002570  -0.000105
    16  C   -0.006863  -0.000285  -0.453062  -0.036704   0.004748  -0.000811
    17  O    0.000006   0.000000   0.010289   0.000654   0.000000   0.000003
    18  C   -0.000014   0.000000  -0.013313  -0.000097   0.000019  -0.000003
    19  H    0.000000   0.000000  -0.000179  -0.000007   0.000000   0.000000
    20  H    0.000000   0.000000   0.000387   0.000004   0.000000   0.000000
    21  H    0.000000   0.000000   0.000083   0.000010   0.000000   0.000000
    22  O   -0.000020   0.000000   0.001394   0.000341   0.000005   0.000000
               7          8          9         10         11         12
     1  O    0.030888   0.002687   0.094817  -0.000076  -0.024492  -0.038692
     2  H   -0.008737  -0.000027   0.008353  -0.000001  -0.001741  -0.029163
     3  C   -1.156399   0.028018  -0.084881  -0.037187  -2.418515  -2.032769
     4  B    0.121283   0.014260   0.099939  -0.000342   0.000599  -0.040763
     5  O    0.058823  -0.008919  -0.033799   0.000351   0.022214   0.102953
     6  H   -0.089637   0.012410   0.096285  -0.000081  -0.007527  -0.021635
     7  C   17.674833   0.220526  -6.897552   0.064063  -0.262689   0.202123
     8  H    0.220526   0.544905   0.103431  -0.007061  -0.020805  -0.008583
     9  C   -6.897552   0.103431  19.487165   0.173459   0.639054  -6.372998
    10  H    0.064063  -0.007061   0.173459   0.472359   0.047342   0.041983
    11  C   -0.262689  -0.020805   0.639054   0.047342  15.042838  -2.981229
    12  C    0.202123  -0.008583  -6.372998   0.041983  -2.981229  22.257288
    13  H   -0.022386   0.000082   0.026518  -0.000159   0.025983   0.225285
    14  C   -3.410715  -0.021016   0.980818  -0.028725  -0.213182  -8.788194
    15  H    0.015260  -0.000111  -0.019637   0.000055  -0.026121   0.044227
    16  C   -0.442837   0.014434  -1.562031   0.089810  -4.228087   3.459833
    17  O    0.081993   0.000331  -0.144965   0.000411  -0.155517   0.177263
    18  C   -0.034337   0.000200  -0.285806   0.000978  -0.002377   0.178864
    19  H    0.002838   0.000000  -0.006038   0.000010  -0.004464   0.002520
    20  H   -0.002448   0.000000   0.031468  -0.000078   0.028300  -0.027186
    21  H    0.001508   0.000000  -0.021827   0.000106   0.005268   0.015953
    22  O    0.018377   0.000015   0.153797   0.000114  -0.092873  -0.281539
              13         14         15         16         17         18
     1  O    0.000527  -0.171442   0.002058  -0.006863   0.000006  -0.000014
     2  H    0.000004  -0.017293  -0.000615  -0.000285   0.000000   0.000000
     3  C   -0.006262   1.692333   0.064844  -0.453062   0.010289  -0.013313
     4  B    0.000125  -0.056410  -0.008404  -0.036704   0.000654  -0.000097
     5  O   -0.000053  -0.010667   0.002570   0.004748   0.000000   0.000019
     6  H    0.000003   0.018788  -0.000105  -0.000811   0.000003  -0.000003
     7  C   -0.022386  -3.410715   0.015260  -0.442837   0.081993  -0.034337
     8  H    0.000082  -0.021016  -0.000111   0.014434   0.000331   0.000200
     9  C    0.026518   0.980818  -0.019637  -1.562031  -0.144965  -0.285806
    10  H   -0.000159  -0.028725   0.000055   0.089810   0.000411   0.000978
    11  C    0.025983  -0.213182  -0.026121  -4.228087  -0.155517  -0.002377
    12  C    0.225285  -8.788194   0.044227   3.459833   0.177263   0.178864
    13  H    0.456035   0.057402  -0.005534   0.046337   0.000682   0.000466
    14  C    0.057402  18.164268   0.258617  -2.300093   0.083012  -0.059903
    15  H   -0.005534   0.258617   0.469456   0.015104   0.000036   0.000055
    16  C    0.046337  -2.300093   0.015104  10.932153   0.027956   0.036159
    17  O    0.000682   0.083012   0.000036   0.027956   8.098082   0.100193
    18  C    0.000466  -0.059903   0.000055   0.036159   0.100193   5.126415
    19  H    0.000003   0.000430   0.000000   0.018021  -0.064978   0.417786
    20  H   -0.000046  -0.000891   0.000000  -0.020747  -0.031310   0.412425
    21  H    0.000029  -0.002116   0.000000  -0.015634  -0.027237   0.425629
    22  O    0.000001   0.176340   0.000095   0.329543  -0.072467  -0.023114
              19         20         21         22
     1  O    0.000000   0.000000   0.000000  -0.000020
     2  H    0.000000   0.000000   0.000000   0.000000
     3  C   -0.000179   0.000387   0.000083   0.001394
     4  B   -0.000007   0.000004   0.000010   0.000341
     5  O    0.000000   0.000000   0.000000   0.000005
     6  H    0.000000   0.000000   0.000000   0.000000
     7  C    0.002838  -0.002448   0.001508   0.018377
     8  H    0.000000   0.000000   0.000000   0.000015
     9  C   -0.006038   0.031468  -0.021827   0.153797
    10  H    0.000010  -0.000078   0.000106   0.000114
    11  C   -0.004464   0.028300   0.005268  -0.092873
    12  C    0.002520  -0.027186   0.015953  -0.281539
    13  H    0.000003  -0.000046   0.000029   0.000001
    14  C    0.000430  -0.000891  -0.002116   0.176340
    15  H    0.000000   0.000000   0.000000   0.000095
    16  C    0.018021  -0.020747  -0.015634   0.329543
    17  O   -0.064978  -0.031310  -0.027237  -0.072467
    18  C    0.417786   0.412425   0.425629  -0.023114
    19  H    0.520142  -0.031173  -0.026724   0.005643
    20  H   -0.031173   0.490620  -0.032598  -0.007419
    21  H   -0.026724  -0.032598   0.518506  -0.009088
    22  O    0.005643  -0.007419  -0.009088   8.070634
 Mulliken charges:
               1
     1  O   -0.336277
     2  H    0.302675
     3  C   -0.587930
     4  B    0.467374
     5  O   -0.335972
     6  H    0.254749
     7  C   -0.164781
     8  H    0.125223
     9  C   -0.465570
    10  H    0.182669
    11  C    0.628020
    12  C   -0.085542
    13  H    0.194959
    14  C   -0.351362
    15  H    0.188150
    16  C    0.093058
    17  O   -0.084436
    18  C   -0.280224
    19  H    0.166172
    20  H    0.190692
    21  H    0.168132
    22  O   -0.269779
 Sum of Mulliken charges =   0.00000
 Mulliken charges with hydrogens summed into heavy atoms:
               1
     1  O   -0.033602
     3  C   -0.587930
     4  B    0.467374
     5  O   -0.081223
     7  C   -0.039558
     9  C   -0.282900
    11  C    0.628020
    12  C    0.109417
    14  C   -0.163211
    16  C    0.093058
    17  O   -0.084436
    18  C    0.244771
    22  O   -0.269779
 APT charges:
               1
     1  O   -0.360710
     2  H    2.054816
     3  C   -1.479890
     4  B   -0.443077
     5  O    1.251800
     6  H   -1.168886
     7  C    0.205066
     8  H   -0.184255
     9  C   -0.716079
    10  H   -0.762889
    11  C   -0.821819
    12  C    0.189138
    13  H    1.258213
    14  C   -0.141253
    15  H    1.875981
    16  C   -2.336904
    17  O    0.505250
    18  C   -1.329005
    19  H   -0.264569
    20  H    1.710136
    21  H   -0.073383
    22  O    1.032322
 Sum of APT charges =   0.00000
 APT charges with hydrogens summed into heavy atoms:
               1
     1  O    1.694106
     3  C   -1.479890
     4  B   -0.443077
     5  O    0.082914
     7  C    0.020811
     9  C   -1.478969
    11  C   -0.821819
    12  C    1.447351
    14  C    1.734728
    16  C   -2.336904
    17  O    0.505250
    18  C    0.043178
    22  O    1.032322
 Electronic spatial extent (au):  <R**2>=          36584.2922
 Charge=              0.0000 electrons
 Dipole moment (field-independent basis, Debye):
    X=             -0.1738    Y=             -3.1771    Z=              0.6578  Tot=              3.2491
 Quadrupole moment (field-independent basis, Debye-Ang):
   XX=            -66.3490   YY=           -124.9028   ZZ=            -69.1497
   XY=            -11.6277   XZ=              5.6413   YZ=            -10.5247
 Traceless Quadrupole moment (field-independent basis, Debye-Ang):
   XX=             20.4515   YY=            -38.1023   ZZ=             17.6508
   XY=            -11.6277   XZ=              5.6413   YZ=            -10.5247
 Octapole moment (field-independent basis, Debye-Ang**2):
  XXX=           -926.9142  YYY=          -2297.2013  ZZZ=          -1004.6338  XYY=           -505.5849
  XXY=           -524.8250  XXZ=           -266.0423  XZZ=           -291.8088  YZZ=           -599.9726
  YYZ=           -536.6312  XYZ=            -15.9870
 Hexadecapole moment (field-independent basis, Debye-Ang**3):
 XXXX=         -11240.7598 YYYY=         -32762.9780 ZZZZ=          -9942.4792 XXXY=          -6668.2444
 XXXZ=          -4385.5425 YYYX=          -9220.2950 YYYZ=          -9930.3261 ZZZX=          -4897.9900
 ZZZY=          -7775.7088 XXYY=          -6342.6871 XXZZ=          -3243.2231 YYZZ=          -6809.7537
 XXYZ=          -2104.0493 YYXZ=          -2250.1791 ZZXY=          -2408.6643
 N-N= 7.222183310375D+02 E-N=-2.932623975726D+03  KE= 6.333285356432D+02
  Exact polarizability:       0.000       0.000       0.000       0.000       0.000       0.000
 Approx polarizability:     176.780      -2.996     166.676      17.385     -28.580     112.807
 Calling FoFJK, ICntrl=    100127 FMM=F ISym2X=0 I1Cent= 0 IOpClX= 0 NMat=1 NMatS=1 NMatT=0.
 -------------------------------------------------------------------
 Center     Atomic                   Forces (Hartrees/Bohr)
 Number     Number              X              Y              Z
 -------------------------------------------------------------------
      1        8           0.000385278   -0.000015532    0.000048054
      2        1          -0.000069766    0.000006302    0.000025135
      3        6           0.000812252   -0.001605202    0.000632048
      4        5          -0.000592277    0.000046707   -0.000535221
      5        8           0.000336772   -0.000400624    0.000278307
      6        1          -0.000116712    0.000172580   -0.000077243
      7        6          -0.000774065    0.001060071    0.002669027
      8        1           0.000006050   -0.000064134    0.000199608
      9        6           0.001687415   -0.005058894    0.000420827
     10        1           0.000133040    0.000212780   -0.001168211
     11        6          -0.005544776   -0.019053701   -0.031137147
     12        6           0.006693743    0.002597196   -0.002510472
     13        1          -0.001792914   -0.001395849   -0.000302824
     14        6          -0.003037625    0.001506796    0.000631773
     15        1          -0.000190128    0.000203525    0.000033333
     16        6          -0.053213341    0.187979381    0.131307073
     17        8           0.038679644   -0.012978155   -0.064512134
     18        6           0.000239426   -0.000773340    0.007767411
     19        1          -0.005700132   -0.012596630    0.005880394
     20        1          -0.001434805    0.012670755    0.004436922
     21        1          -0.001625227    0.003261990   -0.012697413
     22        8           0.025118148   -0.155776022   -0.041389248
 -------------------------------------------------------------------
 Cartesian Forces:  Max     0.187979381 RMS     0.036921635
 FormGI is forming the generalized inverse of G from B-inverse, IUseBI=4.

 GradGradGradGradGradGradGradGradGradGradGradGradGradGradGradGradGradGrad
 Berny optimization.
 Internal  Forces:  Max     0.156206782 RMS     0.019727218
 Search for a local minimum.
 Step number   1 out of a maximum of  106
 All quantities printed in internal units (Hartrees-Bohrs-Radians)
 Mixed Optimization -- RFO/linear search
 Second derivative matrix not updated -- analytic derivatives used.
 ITU=  0
     Eigenvalues ---    0.00034   0.00244   0.00464   0.01022   0.01100
     Eigenvalues ---    0.01217   0.01509   0.01692   0.01742   0.02094
     Eigenvalues ---    0.02185   0.02427   0.02580   0.02701   0.02782
     Eigenvalues ---    0.03929   0.05626   0.08457   0.08854   0.09925
     Eigenvalues ---    0.10279   0.11145   0.11169   0.11525   0.11975
     Eigenvalues ---    0.12681   0.13744   0.15941   0.16644   0.18055
     Eigenvalues ---    0.18245   0.18652   0.18846   0.19347   0.19713
     Eigenvalues ---    0.19894   0.21081   0.24970   0.27473   0.28704
     Eigenvalues ---    0.28970   0.35093   0.35675   0.36595   0.36743
     Eigenvalues ---    0.36819   0.38719   0.38890   0.39291   0.39738
     Eigenvalues ---    0.40618   0.42736   0.44213   0.48085   0.48128
     Eigenvalues ---    0.49473   0.52394   0.55148   0.56277   0.56566
 RFO step:  Lambda=-1.51268212D-01 EMin= 3.40436631D-04
 Linear search not attempted -- first point.
 Maximum step size (   0.300) exceeded in Quadratic search.
    -- Step size scaled by   0.437
 Iteration  1 RMS(Cart)=  0.04425110 RMS(Int)=  0.00925217
 Iteration  2 RMS(Cart)=  0.00905477 RMS(Int)=  0.00068525
 Iteration  3 RMS(Cart)=  0.00006997 RMS(Int)=  0.00068285
 Iteration  4 RMS(Cart)=  0.00000061 RMS(Int)=  0.00068285
 Variable       Old X    -DE/DX   Delta X   Delta X   Delta X     New X
                                 (Linear)    (Quad)   (Total)
    R1        1.81723  -0.00005   0.00000  -0.00007  -0.00007   1.81716
    R2        2.57084   0.00023   0.00000   0.00054   0.00054   2.57138
    R3        2.96987  -0.00010   0.00000  -0.00074  -0.00074   2.96912
    R4        2.64208   0.00025   0.00000   0.00011   0.00011   2.64219
    R5        2.64523   0.00235   0.00000   0.00051   0.00051   2.64574
    R6        2.58167   0.00033   0.00000   0.00060   0.00060   2.58227
    R7        1.81097  -0.00002   0.00000   0.00001   0.00001   1.81098
    R8        2.05265   0.00015   0.00000   0.00024   0.00024   2.05289
    R9        2.62496  -0.00014   0.00000   0.00037   0.00037   2.62534
   R10        2.04666  -0.00035   0.00000  -0.00054  -0.00054   2.04612
   R11        2.62699   0.00392   0.00000   0.00130   0.00130   2.62828
   R12        2.62854   0.00254   0.00000   0.00037   0.00037   2.62891
   R13        2.83872  -0.00896   0.00000   0.00078   0.00078   2.83950
   R14        2.04705  -0.00090   0.00000  -0.00021  -0.00021   2.04684
   R15        2.62367  -0.00146   0.00000  -0.00021  -0.00021   2.62346
   R16        2.04799  -0.00003   0.00000   0.00007   0.00007   2.04807
   R17        2.70231  -0.04899   0.00000  -0.03734  -0.03734   2.66497
   R18        2.70231  -0.15621   0.00000  -0.27426  -0.27426   2.42805
   R19        2.70231   0.00623   0.00000  -0.00105  -0.00105   2.70126
   R20        2.02201   0.01333   0.00000   0.00995   0.00995   2.03195
   R21        2.02201   0.01340   0.00000   0.01211   0.01211   2.03411
   R22        2.02201   0.01279   0.00000   0.01107   0.01107   2.03308
    A1        1.96205  -0.00006   0.00000  -0.00045  -0.00045   1.96161
    A2        2.14139  -0.00057   0.00000  -0.00036  -0.00036   2.14103
    A3        2.07929   0.00026   0.00000   0.00071   0.00071   2.07999
    A4        2.06251   0.00031   0.00000  -0.00035  -0.00035   2.06216
    A5        2.05534   0.00042   0.00000   0.00123   0.00123   2.05658
    A6        2.06090  -0.00024   0.00000  -0.00083  -0.00083   2.06007
    A7        2.16693  -0.00018   0.00000  -0.00040  -0.00040   2.16654
    A8        2.00876  -0.00039   0.00000  -0.00114  -0.00114   2.00762
    A9        2.10713   0.00012   0.00000  -0.00021  -0.00021   2.10692
   A10        2.11864  -0.00030   0.00000  -0.00006  -0.00006   2.11858
   A11        2.05742   0.00018   0.00000   0.00027   0.00027   2.05769
   A12        2.10890   0.00062   0.00000   0.00113   0.00113   2.11002
   A13        2.07950   0.00008   0.00000   0.00073   0.00073   2.08023
   A14        2.09476  -0.00071   0.00000  -0.00187  -0.00187   2.09289
   A15        2.10808  -0.00028   0.00000  -0.00136  -0.00136   2.10671
   A16        2.08656   0.00083   0.00000   0.00741   0.00741   2.09397
   A17        2.08760  -0.00051   0.00000  -0.00585  -0.00585   2.08175
   A18        2.09272  -0.00170   0.00000  -0.00288  -0.00288   2.08985
   A19        2.08300  -0.00079   0.00000   0.00077   0.00077   2.08377
   A20        2.10744   0.00249   0.00000   0.00210   0.00210   2.10954
   A21        2.11464   0.00098   0.00000   0.00027   0.00027   2.11491
   A22        2.07561  -0.00026   0.00000  -0.00018  -0.00018   2.07543
   A23        2.09294  -0.00072   0.00000  -0.00009  -0.00009   2.09285
   A24        1.95604   0.01311   0.00000   0.00119  -0.00184   1.95420
   A25        1.95609   0.02567   0.00000   0.07114   0.06758   2.02368
   A26        1.87421   0.03126   0.00000   0.08065   0.07664   1.95085
   A27        1.91114   0.03462   0.00000   0.02644   0.02644   1.93758
   A28        1.91063  -0.01128   0.00000  -0.01364  -0.01363   1.89700
   A29        1.91063   0.00077   0.00000   0.00342   0.00341   1.91404
   A30        1.91063   0.00665   0.00000   0.00675   0.00675   1.91738
   A31        1.91063   0.00350   0.00000   0.00309   0.00309   1.91372
   A32        1.91063   0.00199   0.00000   0.00348   0.00349   1.91412
   A33        1.91063  -0.00164   0.00000  -0.00310  -0.00311   1.90753
    D1        3.13428  -0.00004   0.00000   0.00003   0.00003   3.13431
    D2       -0.00524  -0.00003   0.00000   0.00003   0.00003  -0.00521
    D3        3.08877  -0.00006   0.00000  -0.00004  -0.00004   3.08873
    D4       -0.05503  -0.00008   0.00000  -0.00003  -0.00003  -0.05506
    D5       -0.05574   0.00001   0.00000   0.00004   0.00004  -0.05570
    D6        3.08364  -0.00001   0.00000   0.00005   0.00005   3.08369
    D7       -0.00616   0.00001   0.00000   0.00004   0.00004  -0.00612
    D8        3.13680   0.00037   0.00000   0.00078   0.00078   3.13758
    D9        3.13833  -0.00006   0.00000  -0.00005  -0.00005   3.13828
   D10       -0.00190   0.00030   0.00000   0.00070   0.00069  -0.00121
   D11       -3.13576  -0.00012   0.00000  -0.00025  -0.00025  -3.13601
   D12        0.00271  -0.00012   0.00000  -0.00009  -0.00009   0.00262
   D13        0.00304  -0.00006   0.00000  -0.00017  -0.00017   0.00287
   D14        3.14151  -0.00006   0.00000  -0.00001  -0.00001   3.14150
   D15        3.11787  -0.00005   0.00000   0.00000   0.00000   3.11787
   D16       -0.02150  -0.00003   0.00000  -0.00001  -0.00001  -0.02151
   D17       -3.13545  -0.00002   0.00000  -0.00010  -0.00009  -3.13555
   D18       -0.00171  -0.00098   0.00000  -0.00146  -0.00146  -0.00317
   D19        0.00747   0.00032   0.00000   0.00063   0.00063   0.00810
   D20        3.14121  -0.00063   0.00000  -0.00074  -0.00074   3.14047
   D21        0.00429   0.00143   0.00000   0.00171   0.00171   0.00600
   D22        3.09908   0.00241   0.00000   0.00653   0.00655   3.10562
   D23        3.13810   0.00049   0.00000   0.00037   0.00037   3.13847
   D24       -0.05030   0.00147   0.00000   0.00520   0.00521  -0.04509
   D25       -3.13701  -0.00032   0.00000  -0.00030  -0.00031  -3.13731
   D26       -0.00318  -0.00120   0.00000  -0.00120  -0.00120  -0.00438
   D27        0.05142  -0.00134   0.00000  -0.00548  -0.00547   0.04595
   D28       -3.09794  -0.00222   0.00000  -0.00638  -0.00636  -3.10430
   D29        0.52660  -0.03479   0.00000  -0.07849  -0.07951   0.44709
   D30        2.63534   0.03335   0.00000   0.07752   0.07853   2.71387
   D31       -2.66125  -0.03381   0.00000  -0.07361  -0.07462  -2.73586
   D32       -0.55250   0.03433   0.00000   0.08241   0.08342  -0.46908
   D33       -0.00055   0.00051   0.00000   0.00042   0.00042  -0.00013
   D34       -3.13899   0.00051   0.00000   0.00026   0.00026  -3.13873
   D35        3.13321  -0.00040   0.00000  -0.00051  -0.00050   3.13270
   D36       -0.00523  -0.00040   0.00000  -0.00066  -0.00066  -0.00589
   D37        3.00747   0.02555   0.00000   0.05375   0.05493   3.06240
   D38        0.85200  -0.03681   0.00000  -0.09234  -0.09353   0.75847
   D39        2.74082   0.00100   0.00000   0.00399   0.00398   2.74480
   D40       -1.44797  -0.00115   0.00000   0.00152   0.00151  -1.44646
   D41        0.64643   0.00140   0.00000   0.00395   0.00397   0.65040
         Item               Value     Threshold  Converged?
 Maximum Force            0.156207     0.000015     NO 
 RMS     Force            0.019727     0.000010     NO 
 Maximum Displacement     0.167438     0.000060     NO 
 RMS     Displacement     0.046386     0.000040     NO 
 Predicted change in Energy=-6.111669D-02
 GradGradGradGradGradGradGradGradGradGradGradGradGradGradGradGradGradGrad

                          Input orientation:                          
 ---------------------------------------------------------------------
 Center     Atomic      Atomic             Coordinates (Angstroms)
 Number     Number       Type             X           Y           Z
 ---------------------------------------------------------------------
      1          8           0        8.697723    7.417150    5.501885
      2          1           0        9.514732    7.096486    5.894751
      3          6           0        6.240285    7.002466    5.176873
      4          5           0        7.643868    6.593712    5.752653
      5          8           0        7.871215    5.466124    6.490296
      6          1           0        7.095997    4.928300    6.658148
      7          6           0        5.103240    6.201565    5.320434
      8          1           0        5.157257    5.249363    5.840560
      9          6           0        3.873720    6.591526    4.804413
     10          1           0        2.997023    5.967647    4.925025
     11          6           0        3.773710    7.806338    4.134611
     12          6           0        4.888671    8.622555    3.973439
     13          1           0        4.792146    9.567334    3.452604
     14          6           0        6.110503    8.217430    4.493349
     15          1           0        6.984003    8.847975    4.374982
     16          6           0        2.463484    8.224203    3.529216
     17          8           0        1.365973    7.626157    4.182350
     18          6           0        0.129122    8.116842    3.660105
     19          1           0       -0.641656    7.395588    3.864770
     20          1           0       -0.116958    9.053008    4.130944
     21          1           0        0.213939    8.264682    2.597834
     22          8           0        2.294116    9.488224    3.372847
 ---------------------------------------------------------------------
                    Distance matrix (angstroms):
                    1          2          3          4          5
     1  O    0.000000
     2  H    0.961599   0.000000
     3  C    2.513284   3.353534   0.000000
     4  B    1.360714   1.942448   1.571193   0.000000
     5  O    2.338071   2.390377   2.597183   1.366477   0.000000
     6  H    3.177553   3.336777   2.688602   1.973241   0.958327
     7  C    3.798799   4.537839   1.398186   2.606796   3.093725
     8  H    4.165201   4.733116   2.164902   2.828116   2.799055
     9  C    4.943595   5.767568   2.430685   3.887568   4.482042
    10  H    5.910314   6.685445   3.413653   4.761313   5.143865
    11  C    5.125115   6.046595   2.795802   4.366537   5.274030
    12  C    4.277619   5.236484   2.428951   3.856542   5.019282
    13  H    4.906768   5.862763   3.413028   4.718577   5.960551
    14  C    2.889861   3.848274   1.400066   2.563886   3.828523
    15  H    2.500802   3.432492   2.145239   2.723069   4.086395
    16  C    6.588512   7.522473   4.297865   5.868437   6.754150
    17  O    7.452477   8.343568   5.013680   6.553149   7.232602
    18  C    8.792192   9.701775   6.394430   7.947961   8.658885
    19  H    9.481804  10.361587   7.016928   8.535632   9.115108
    20  H    9.069405   9.985411   6.761156   8.301114   9.068803
    21  H    9.007021   9.936755   6.675439   8.243111   9.034217
    22  O    7.058918   8.013595   5.000575   6.531579   7.549822
                    6          7          8          9         10
     6  H    0.000000
     7  C    2.716940   0.000000
     8  H    2.128437   1.086342   0.000000
     9  C    4.072558   1.389269   2.126610   0.000000
    10  H    4.570071   2.155740   2.453721   1.082760   0.000000
    11  C    5.068425   2.397732   3.370843   1.390828   2.146807
    12  C    5.072225   2.778781   3.864803   2.417793   3.395937
    13  H    6.091295   3.861861   4.947779   3.395044   4.283484
    14  C    4.059054   2.400491   3.396038   2.782718   3.865440
    15  H    4.537537   3.381513   4.293592   3.866501   4.949227
    16  C    6.489481   3.777279   4.631241   2.506097   2.706472
    17  O    6.800087   4.158348   4.772069   2.783202   2.441832
    18  C    8.227539   5.582725   6.185382   4.202147   3.800515
    19  H    8.588466   6.045534   6.491334   4.681673   4.050079
    20  H    8.684854   6.065977   6.723678   4.736872   4.454985
    21  H    8.659118   5.964417   6.636552   4.589383   4.293920
    22  O    7.392169   4.741982   5.679360   3.596580   3.911240
                   11         12         13         14         15
    11  C    0.000000
    12  C    1.391159   0.000000
    13  H    2.145565   1.083141   0.000000
    14  C    2.399643   1.388274   2.154869   0.000000
    15  H    3.383602   2.145335   2.484450   1.083790   0.000000
    16  C    1.502600   2.497509   2.689337   3.772313   4.641066
    17  O    2.414942   3.666859   4.004917   4.791335   5.752582
    18  C    3.688440   4.796586   4.887819   6.039978   6.930728
    19  H    4.442633   5.665843   5.866222   6.830972   7.779486
    20  H    4.085523   5.026572   4.982366   6.293711   7.108110
    21  H    3.904323   4.886050   4.836064   6.193923   7.023692
    22  O    2.366057   2.800323   2.500554   4.175554   4.838308
                   16         17         18         19         20
    16  C    0.000000
    17  O    1.410239   0.000000
    18  C    2.340492   1.429444   0.000000
    19  H    3.231268   2.045628   1.075264   0.000000
    20  H    2.776270   2.058550   1.076406   1.758748   0.000000
    21  H    2.435070   2.060483   1.075858   1.758548   1.755384
    22  O    1.284868   2.232496   2.578838   3.638663   2.564645
                   21         22
    21  H    0.000000
    22  O    2.534727   0.000000
 Symmetry turned off by external request.
 Stoichiometry    C8H9BO4
 Framework group  C1[X(C8H9BO4)]
 Deg. of freedom    60
 Full point group                 C1      NOp   1
 Rotational constants (GHZ):           2.6021751           0.3408724           0.3033280
 Standard basis: 6-311+G(d,p) (5D, 7F)
   340 basis functions,   540 primitive gaussians,   353 cartesian basis functions
    47 alpha electrons       47 beta electrons
       nuclear repulsion energy       725.6601642824 Hartrees.
 NAtoms=   22 NActive=   22 NUniq=   22 SFac= 1.00D+00 NAtFMM=   60 NAOKFM=F Big=F
 Integral buffers will be    131072 words long.
 Raffenetti 2 integral format.
 Two-electron integral symmetry is turned off.
 One-electron integrals computed using PRISM.
 NBasis=   340 RedAO= T EigKep=  1.19D-06  NBF=   340
 NBsUse=   340 1.00D-06 EigRej= -1.00D+00 NBFU=   340
 Initial guess from the checkpoint file:  "4-cooch3-phboh2-opt-freq.chk"
 B after Tr=    -0.050409   -0.011128    0.075310
         Rot=    0.999995    0.002495   -0.000502    0.001646 Ang=   0.35 deg.
 ExpMin= 3.15D-02 ExpMax= 8.59D+03 ExpMxC= 1.30D+03 IAcc=3 IRadAn=         5 AccDes= 0.00D+00
 Harris functional with IExCor= 1009 and IRadAn=       5 diagonalized for initial guess.
 HarFok:  IExCor= 1009 AccDes= 0.00D+00 IRadAn=         5 IDoV= 1 UseB2=F ITyADJ=14
 ICtDFT=  3500011 ScaDFX=  1.000000  1.000000  1.000000  1.000000
 FoFCou: FMM=F IPFlag=           0 FMFlag=      100000 FMFlg1=           0
         NFxFlg=           0 DoJE=T BraDBF=F KetDBF=T FulRan=T
         wScrn=  0.000000 ICntrl=       500 IOpCl=  0 I1Cent=   200000004 NGrid=           0
         NMat0=    1 NMatS0=      1 NMatT0=    0 NMatD0=    1 NMtDS0=    0 NMtDT0=    0
 Symmetry not used in FoFCou.
 Requested convergence on RMS density matrix=1.00D-08 within 128 cycles.
 Requested convergence on MAX density matrix=1.00D-06.
 Requested convergence on             energy=1.00D-06.
 Level shift goal  0.100 maximum shift  0.100.
 No special actions if energy rises.
 Dynamic level shift is on during FON iterations.
 SCF Done:  E(RM062X) =  -636.029699667     A.U. after   15 cycles
            NFock= 15  Conv=0.52D-08     -V/T= 2.0038
 Calling FoFJK, ICntrl=      2127 FMM=F ISym2X=0 I1Cent= 0 IOpClX= 0 NMat=1 NMatS=1 NMatT=0.
 -------------------------------------------------------------------
 Center     Atomic                   Forces (Hartrees/Bohr)
 Number     Number              X              Y              Z
 -------------------------------------------------------------------
      1        8           0.000400632    0.000018177    0.000057376
      2        1          -0.000072072   -0.000025199    0.000021771
      3        6           0.000689467   -0.001075461    0.000383718
      4        5          -0.000688376    0.000118851   -0.000525274
      5        8           0.000366949   -0.000353766    0.000269040
      6        1          -0.000128485    0.000164728   -0.000097121
      7        6          -0.000620996    0.000925823    0.002290489
      8        1           0.000068067   -0.000080647    0.000154071
      9        6           0.001939515   -0.003255597    0.000452966
     10        1           0.000118684    0.000145598   -0.001141443
     11        6          -0.001757984   -0.021626986   -0.027788287
     12        6           0.004072598    0.001645833   -0.001177262
     13        1          -0.001249721   -0.000968341   -0.000546832
     14        6          -0.001978307    0.001271231    0.000857195
     15        1          -0.000071745    0.000107037    0.000014225
     16        6          -0.039455826    0.129966568    0.110308373
     17        8           0.024862158   -0.019001170   -0.050164072
     18        6           0.001365692    0.000050977    0.006857442
     19        1          -0.003184113   -0.008939969    0.004157547
     20        1          -0.001721212    0.008861760    0.003050029
     21        1          -0.001358626    0.002446051   -0.008912060
     22        8           0.018403699   -0.090395499   -0.038521889
 -------------------------------------------------------------------
 Cartesian Forces:  Max     0.129966568 RMS     0.026324943

 GradGradGradGradGradGradGradGradGradGradGradGradGradGradGradGradGradGrad
 Berny optimization.
 Using GEDIIS/GDIIS optimizer.
 FormGI is forming the generalized inverse of G from B-inverse, IUseBI=4.
 Internal  Forces:  Max     0.086668191 RMS     0.013097747
 Search for a local minimum.
 Step number   2 out of a maximum of  106
 All quantities printed in internal units (Hartrees-Bohrs-Radians)
 Mixed Optimization -- RFO/linear search
 Update second derivatives using D2CorX and points    1    2
 DE= -5.75D-02 DEPred=-6.11D-02 R= 9.40D-01
 TightC=F SS=  1.41D+00  RLast= 3.54D-01 DXNew= 5.0454D-01 1.0627D+00
 Trust test= 9.40D-01 RLast= 3.54D-01 DXMaxT set to 5.05D-01
 ITU=  1  0
 Use linear search instead of GDIIS.
     Eigenvalues ---    0.00034   0.00245   0.00466   0.01022   0.01097
     Eigenvalues ---    0.01217   0.01509   0.01695   0.01743   0.02095
     Eigenvalues ---    0.02185   0.02427   0.02580   0.02702   0.02782
     Eigenvalues ---    0.03929   0.08177   0.08605   0.08845   0.10096
     Eigenvalues ---    0.10288   0.11149   0.11162   0.11527   0.11974
     Eigenvalues ---    0.12681   0.13966   0.16031   0.17808   0.18140
     Eigenvalues ---    0.18605   0.18633   0.19050   0.19557   0.19864
     Eigenvalues ---    0.20084   0.21607   0.24901   0.28454   0.28966
     Eigenvalues ---    0.30299   0.35658   0.36424   0.36595   0.36808
     Eigenvalues ---    0.38620   0.38726   0.39010   0.39271   0.39749
     Eigenvalues ---    0.40948   0.42738   0.44201   0.48082   0.48112
     Eigenvalues ---    0.49473   0.52389   0.55148   0.56277   0.56781
 RFO step:  Lambda=-1.44333504D-02 EMin= 3.40436722D-04
 Quartic linear search produced a step of  0.82290.
 Iteration  1 RMS(Cart)=  0.06954154 RMS(Int)=  0.01027060
 Iteration  2 RMS(Cart)=  0.01863518 RMS(Int)=  0.00444945
 Iteration  3 RMS(Cart)=  0.00051416 RMS(Int)=  0.00443471
 Iteration  4 RMS(Cart)=  0.00000643 RMS(Int)=  0.00443471
 Iteration  5 RMS(Cart)=  0.00000012 RMS(Int)=  0.00443471
 Variable       Old X    -DE/DX   Delta X   Delta X   Delta X     New X
                                 (Linear)    (Quad)   (Total)
    R1        1.81716  -0.00004  -0.00006  -0.00001  -0.00007   1.81709
    R2        2.57138   0.00024   0.00044  -0.00034   0.00010   2.57148
    R3        2.96912  -0.00019  -0.00061   0.00083   0.00022   2.96935
    R4        2.64219   0.00017   0.00009   0.00188   0.00196   2.64415
    R5        2.64574   0.00142   0.00042   0.00094   0.00135   2.64709
    R6        2.58227   0.00029   0.00049   0.00030   0.00079   2.58306
    R7        1.81098  -0.00001   0.00001   0.00001   0.00001   1.81099
    R8        2.05289   0.00015   0.00020   0.00011   0.00031   2.05320
    R9        2.62534   0.00004   0.00031  -0.00202  -0.00171   2.62363
   R10        2.04612  -0.00031  -0.00044  -0.00005  -0.00050   2.04562
   R11        2.62828   0.00261   0.00107   0.00639   0.00746   2.63574
   R12        2.62891   0.00152   0.00031   0.00460   0.00491   2.63382
   R13        2.83950  -0.00345   0.00064  -0.03486  -0.03422   2.80529
   R14        2.04684  -0.00047  -0.00017  -0.00008  -0.00026   2.04658
   R15        2.62346  -0.00086  -0.00017  -0.00143  -0.00160   2.62186
   R16        2.04807   0.00000   0.00006  -0.00002   0.00004   2.04811
   R17        2.66497  -0.02934  -0.03073  -0.15191  -0.18264   2.48232
   R18        2.42805  -0.08667  -0.22569   0.09941  -0.12628   2.30177
   R19        2.70126   0.00318  -0.00086   0.00473   0.00387   2.70512
   R20        2.03195   0.00907   0.00819   0.00987   0.01806   2.05001
   R21        2.03411   0.00943   0.00996   0.01202   0.02199   2.05610
   R22        2.03308   0.00903   0.00911   0.00994   0.01905   2.05212
    A1        1.96161  -0.00011  -0.00037  -0.00007  -0.00044   1.96117
    A2        2.14103  -0.00037  -0.00029  -0.00163  -0.00192   2.13911
    A3        2.07999   0.00025   0.00058   0.00014   0.00072   2.08072
    A4        2.06216   0.00012  -0.00029   0.00149   0.00120   2.06336
    A5        2.05658   0.00045   0.00101   0.00070   0.00171   2.05829
    A6        2.06007  -0.00028  -0.00069  -0.00003  -0.00071   2.05936
    A7        2.16654  -0.00017  -0.00033  -0.00067  -0.00100   2.16554
    A8        2.00762  -0.00041  -0.00094  -0.00088  -0.00182   2.00580
    A9        2.10692   0.00002  -0.00017  -0.00055  -0.00072   2.10620
   A10        2.11858  -0.00021  -0.00005  -0.00083  -0.00088   2.11769
   A11        2.05769   0.00019   0.00022   0.00138   0.00160   2.05929
   A12        2.11002   0.00047   0.00093  -0.00111  -0.00018   2.10984
   A13        2.08023   0.00026   0.00060   0.00212   0.00273   2.08296
   A14        2.09289  -0.00074  -0.00154  -0.00100  -0.00254   2.09035
   A15        2.10671  -0.00058  -0.00112  -0.00443  -0.00556   2.10115
   A16        2.09397   0.00219   0.00609   0.01781   0.02389   2.11786
   A17        2.08175  -0.00156  -0.00481  -0.01316  -0.01800   2.06376
   A18        2.08985  -0.00141  -0.00237  -0.01229  -0.01467   2.07518
   A19        2.08377  -0.00018   0.00063   0.00253   0.00317   2.08694
   A20        2.10954   0.00159   0.00173   0.00973   0.01145   2.12099
   A21        2.11491   0.00058   0.00022  -0.00090  -0.00068   2.11422
   A22        2.07543  -0.00018  -0.00014  -0.00039  -0.00054   2.07489
   A23        2.09285  -0.00040  -0.00008   0.00130   0.00122   2.09407
   A24        1.95420   0.00396  -0.00151   0.03264   0.00770   1.96190
   A25        2.02368   0.02173   0.05561   0.06433   0.09518   2.11885
   A26        1.95085   0.02736   0.06307   0.09307   0.13124   2.08209
   A27        1.93758   0.02388   0.02176   0.05608   0.07784   2.01542
   A28        1.89700  -0.00825  -0.01122  -0.02588  -0.03717   1.85983
   A29        1.91404   0.00097   0.00281  -0.00982  -0.00710   1.90694
   A30        1.91738   0.00481   0.00556   0.00054   0.00609   1.92347
   A31        1.91372   0.00233   0.00254   0.01631   0.01868   1.93240
   A32        1.91412   0.00151   0.00287   0.02281   0.02571   1.93983
   A33        1.90753  -0.00137  -0.00256  -0.00391  -0.00650   1.90103
    D1        3.13431  -0.00002   0.00003  -0.00029  -0.00026   3.13406
    D2       -0.00521  -0.00001   0.00002  -0.00014  -0.00011  -0.00533
    D3        3.08873  -0.00004  -0.00003  -0.00081  -0.00084   3.08789
    D4       -0.05506  -0.00005  -0.00003  -0.00096  -0.00099  -0.05606
    D5       -0.05570   0.00001   0.00004  -0.00010  -0.00007  -0.05576
    D6        3.08369   0.00000   0.00004  -0.00026  -0.00022   3.08347
    D7       -0.00612   0.00001   0.00003  -0.00060  -0.00057  -0.00669
    D8        3.13758   0.00031   0.00064  -0.00058   0.00005   3.13763
    D9        3.13828  -0.00004  -0.00004  -0.00130  -0.00133   3.13695
   D10       -0.00121   0.00026   0.00057  -0.00127  -0.00072  -0.00192
   D11       -3.13601  -0.00011  -0.00020  -0.00084  -0.00106  -3.13707
   D12        0.00262  -0.00008  -0.00007   0.00020   0.00014   0.00275
   D13        0.00287  -0.00006  -0.00014  -0.00018  -0.00032   0.00255
   D14        3.14150  -0.00003  -0.00001   0.00087   0.00087  -3.14081
   D15        3.11787  -0.00003   0.00000  -0.00015  -0.00015   3.11772
   D16       -0.02151  -0.00002  -0.00001   0.00001   0.00000  -0.02151
   D17       -3.13555  -0.00002  -0.00008  -0.00125  -0.00130  -3.13684
   D18       -0.00317  -0.00075  -0.00120  -0.00029  -0.00147  -0.00464
   D19        0.00810   0.00027   0.00052  -0.00123  -0.00069   0.00740
   D20        3.14047  -0.00046  -0.00061  -0.00026  -0.00087   3.13960
   D21        0.00600   0.00106   0.00140   0.00332   0.00471   0.01070
   D22        3.10562   0.00229   0.00539   0.00938   0.01488   3.12050
   D23        3.13847   0.00034   0.00030   0.00428   0.00454  -3.14017
   D24       -0.04509   0.00157   0.00429   0.01034   0.01471  -0.03038
   D25       -3.13731  -0.00023  -0.00025  -0.00069  -0.00101  -3.13832
   D26       -0.00438  -0.00087  -0.00099  -0.00473  -0.00573  -0.01011
   D27        0.04595  -0.00154  -0.00450  -0.00745  -0.01186   0.03409
   D28       -3.10430  -0.00218  -0.00523  -0.01149  -0.01658  -3.12088
   D29        0.44709  -0.03243  -0.06543  -0.11523  -0.18374   0.26335
   D30        2.71387   0.03137   0.06462   0.11148   0.17915   2.89302
   D31       -2.73586  -0.03120  -0.06140  -0.10906  -0.17351  -2.90937
   D32       -0.46908   0.03261   0.06865   0.11765   0.18938  -0.27970
   D33       -0.00013   0.00037   0.00035   0.00315   0.00354   0.00341
   D34       -3.13873   0.00034   0.00022   0.00210   0.00233  -3.13639
   D35        3.13270  -0.00029  -0.00041  -0.00105  -0.00144   3.13126
   D36       -0.00589  -0.00032  -0.00054  -0.00210  -0.00265  -0.00854
   D37        3.06240   0.02372   0.04521  -0.03543   0.01563   3.07804
   D38        0.75847  -0.03507  -0.07696  -0.23921  -0.32203   0.43644
   D39        2.74480   0.00107   0.00328   0.00877   0.01188   2.75668
   D40       -1.44646  -0.00052   0.00124   0.00708   0.00844  -1.43802
   D41        0.65040   0.00140   0.00327  -0.00354  -0.00023   0.65017
         Item               Value     Threshold  Converged?
 Maximum Force            0.086668     0.000015     NO 
 RMS     Force            0.013098     0.000010     NO 
 Maximum Displacement     0.275235     0.000060     NO 
 RMS     Displacement     0.080196     0.000040     NO 
 Predicted change in Energy=-4.774280D-02
 GradGradGradGradGradGradGradGradGradGradGradGradGradGradGradGradGradGrad

                          Input orientation:                          
 ---------------------------------------------------------------------
 Center     Atomic      Atomic             Coordinates (Angstroms)
 Number     Number       Type             X           Y           Z
 ---------------------------------------------------------------------
      1          8           0        8.701745    7.381811    5.460357
      2          1           0        9.519426    7.048778    5.841259
      3          6           0        6.230535    7.007609    5.183065
      4          5           0        7.637769    6.579404    5.735645
      5          8           0        7.858806    5.452849    6.477549
      6          1           0        7.076489    4.931150    6.662522
      7          6           0        5.083985    6.224080    5.354324
      8          1           0        5.134957    5.274427    5.879734
      9          6           0        3.851872    6.629486    4.859248
     10          1           0        2.968629    6.019608    4.999720
     11          6           0        3.753633    7.844948    4.182194
     12          6           0        4.882844    8.639611    3.992565
     13          1           0        4.778449    9.580291    3.466143
     14          6           0        6.107147    8.220185    4.492685
     15          1           0        6.988577    8.835231    4.353231
     16          6           0        2.464127    8.309035    3.611650
     17          8           0        1.437701    7.638507    4.083199
     18          6           0        0.152879    8.086148    3.638211
     19          1           0       -0.526611    7.249940    3.764231
     20          1           0       -0.162046    8.932812    4.244689
     21          1           0        0.203172    8.396825    2.598881
     22          8           0        2.308028    9.461940    3.250985
 ---------------------------------------------------------------------
                    Distance matrix (angstroms):
                    1          2          3          4          5
     1  O    0.000000
     2  H    0.961561   0.000000
     3  C    2.514717   3.354359   0.000000
     4  B    1.360767   1.942189   1.571310   0.000000
     5  O    2.337974   2.389459   2.596967   1.366896   0.000000
     6  H    3.176854   3.335681   2.686283   1.972531   0.958335
     7  C    3.799970   4.537662   1.399223   2.606430   3.091289
     8  H    4.164004   4.730051   2.165539   2.826269   2.794383
     9  C    4.944552   5.767263   2.430200   3.886335   4.478716
    10  H    5.910702   6.684334   3.413179   4.759814   5.139944
    11  C    5.131473   6.052335   2.799629   4.370507   5.276669
    12  C    4.280244   5.238923   2.428372   3.856475   5.018660
    13  H    4.919600   5.875934   3.416880   4.725641   5.965982
    14  C    2.893303   3.851558   1.400782   2.565135   3.829640
    15  H    2.504617   3.436690   2.145566   2.724202   4.087852
    16  C    6.571556   7.505775   4.283559   5.854021   6.743422
    17  O    7.397891   8.291733   4.957720   6.503316   7.193094
    18  C    8.769231   9.677901   6.362996   7.917897   8.624234
    19  H    9.383858  10.260477   6.908750   8.425746   8.994824
    20  H    9.080212   9.991472   6.741813   8.282427   9.023850
    21  H    9.024636   9.956045   6.703509   8.271369   9.073026
    22  O    7.077280   8.033501   5.014253   6.548946   7.569324
                    6          7          8          9         10
     6  H    0.000000
     7  C    2.711664   0.000000
     8  H    2.121354   1.086506   0.000000
     9  C    4.066239   1.388365   2.126942   0.000000
    10  H    4.563350   2.154595   2.454118   1.082498   0.000000
    11  C    5.067901   2.402277   3.375985   1.394776   2.148592
    12  C    5.068869   2.780222   3.866450   2.419637   3.397498
    13  H    6.091990   3.862995   4.949039   3.392128   4.278524
    14  C    4.057779   2.402856   3.398021   2.784054   3.866512
    15  H    4.536783   3.383455   4.294816   3.867852   4.950319
    16  C    6.480109   3.774600   4.635341   2.510622   2.724470
    17  O    6.765990   4.112389   4.741952   2.729211   2.409271
    18  C    8.187603   5.543297   6.144209   4.158767   3.748699
    19  H    8.460733   5.921112   6.358565   4.555781   3.906002
    20  H    8.617169   6.007442   6.641942   4.668461   4.342575
    21  H    8.704399   6.011291   6.695959   4.641741   4.366113
    22  O    7.409782   4.755387   5.695359   3.604547   3.917157
                   11         12         13         14         15
    11  C    0.000000
    12  C    1.393760   0.000000
    13  H    2.138783   1.083004   0.000000
    14  C    2.403380   1.387428   2.160814   0.000000
    15  H    3.387444   2.145334   2.495337   1.083811   0.000000
    16  C    1.484494   2.470742   2.644494   3.749095   4.614918
    17  O    2.327221   3.588792   3.913039   4.723320   5.684829
    18  C    3.649592   4.775401   4.863945   6.016760   6.913692
    19  H    4.341568   5.589770   5.801987   6.743795   7.703124
    20  H    4.064467   5.059688   5.043198   6.314437   7.152112
    21  H    3.926477   4.888827   4.804778   6.202791   7.022226
    22  O    2.360421   2.802828   2.482595   4.185341   4.849252
                   16         17         18         19         20
    16  C    0.000000
    17  O    1.313589   0.000000
    18  C    2.322122   1.431490   0.000000
    19  H    3.176394   2.027621   1.084819   0.000000
    20  H    2.772475   2.064097   1.088041   1.787683   0.000000
    21  H    2.478977   2.074201   1.085936   1.790523   1.768998
    22  O    1.218046   2.185167   2.586003   3.632017   2.714532
                   21         22
    21  H    0.000000
    22  O    2.447474   0.000000
 Symmetry turned off by external request.
 Stoichiometry    C8H9BO4
 Framework group  C1[X(C8H9BO4)]
 Deg. of freedom    60
 Full point group                 C1      NOp   1
 Rotational constants (GHZ):           2.6324152           0.3432248           0.3047079
 Standard basis: 6-311+G(d,p) (5D, 7F)
   340 basis functions,   540 primitive gaussians,   353 cartesian basis functions
    47 alpha electrons       47 beta electrons
       nuclear repulsion energy       729.7568097532 Hartrees.
 NAtoms=   22 NActive=   22 NUniq=   22 SFac= 1.00D+00 NAtFMM=   60 NAOKFM=F Big=F
 Integral buffers will be    131072 words long.
 Raffenetti 2 integral format.
 Two-electron integral symmetry is turned off.
 One-electron integrals computed using PRISM.
 NBasis=   340 RedAO= T EigKep=  1.05D-06  NBF=   340
 NBsUse=   340 1.00D-06 EigRej= -1.00D+00 NBFU=   340
 Initial guess from the checkpoint file:  "4-cooch3-phboh2-opt-freq.chk"
 B after Tr=    -0.056671   -0.022882    0.093386
         Rot=    0.999988    0.004259    0.000543    0.002503 Ang=   0.57 deg.
 ExpMin= 3.15D-02 ExpMax= 8.59D+03 ExpMxC= 1.30D+03 IAcc=3 IRadAn=         5 AccDes= 0.00D+00
 Harris functional with IExCor= 1009 and IRadAn=       5 diagonalized for initial guess.
 HarFok:  IExCor= 1009 AccDes= 0.00D+00 IRadAn=         5 IDoV= 1 UseB2=F ITyADJ=14
 ICtDFT=  3500011 ScaDFX=  1.000000  1.000000  1.000000  1.000000
 FoFCou: FMM=F IPFlag=           0 FMFlag=      100000 FMFlg1=           0
         NFxFlg=           0 DoJE=T BraDBF=F KetDBF=T FulRan=T
         wScrn=  0.000000 ICntrl=       500 IOpCl=  0 I1Cent=   200000004 NGrid=           0
         NMat0=    1 NMatS0=      1 NMatT0=    0 NMatD0=    1 NMtDS0=    0 NMtDT0=    0
 Symmetry not used in FoFCou.
 Requested convergence on RMS density matrix=1.00D-08 within 128 cycles.
 Requested convergence on MAX density matrix=1.00D-06.
 Requested convergence on             energy=1.00D-06.
 Level shift goal  0.100 maximum shift  0.100.
 No special actions if energy rises.
 Dynamic level shift is on during FON iterations.
 SCF Done:  E(RM062X) =  -636.071012246     A.U. after   15 cycles
            NFock= 15  Conv=0.71D-08     -V/T= 2.0033
 Calling FoFJK, ICntrl=      2127 FMM=F ISym2X=0 I1Cent= 0 IOpClX= 0 NMat=1 NMatS=1 NMatT=0.
 -------------------------------------------------------------------
 Center     Atomic                   Forces (Hartrees/Bohr)
 Number     Number              X              Y              Z
 -------------------------------------------------------------------
      1        8           0.000457054    0.000080754    0.000049943
      2        1          -0.000068399   -0.000048192    0.000012225
      3        6           0.000504285   -0.000463932    0.000241759
      4        5          -0.000973470    0.000250463   -0.000480928
      5        8           0.000378639   -0.000318534    0.000254478
      6        1          -0.000100458    0.000145754   -0.000095159
      7        6           0.000291219    0.000866366    0.001052008
      8        1           0.000051512   -0.000072600    0.000032419
      9        6           0.000800292    0.000442052   -0.000302823
     10        1           0.000187817   -0.000080778   -0.000666716
     11        6           0.010096145   -0.015355906   -0.016229765
     12        6           0.000648816   -0.000613990    0.001077732
[...]
 3032942,-0.18640723,0.03771053,0.02024207,0.62976515,0.00012912,-0.000
 60438,0.00011271,-0.00006781,-0.00005942,-0.00000106,-0.01194671,0.021
 42710,-0.00245428,0.00034888,0.00535777,0.00369416,-0.00072057,-0.0005
 6089,-0.00130710,0.00008524,-0.00004371,0.00028431,-0.00794163,-0.0030
 7096,-0.00635130,0.00002104,-0.00064866,-0.00060102,0.01689934,0.00743
 102,0.00613823,-0.00149138,0.00511495,0.00393537,0.03193568,0.04925771
 ,-0.08425827,0.08523975,-0.24390371,0.28096094,-0.00023490,-0.00020667
 ,0.00007346,0.00000133,0.00001024,-0.00001295,-0.00450559,0.00124053,-
 0.00280302,0.00085072,0.00092351,-0.00030697,-0.00048597,0.00027219,-0
 .00026393,-0.00003921,-0.00007769,0.00005204,-0.00129750,-0.00024530,0
 .00004229,0.00006393,0.00012756,0.00015542,-0.00434490,-0.00313812,-0.
 00038406,0.00031346,-0.00131548,0.00064360,0.00764018,-0.02218620,0.01
 185170,-0.06058095,0.02228136,-0.01484519,0.05892480,0.00013689,0.0000
 6028,-0.00000347,-0.00000539,0.00000743,0.00001482,0.00084205,0.002389
 93,0.00286581,-0.00039445,-0.00016401,-0.00002963,0.00013279,-0.000111
 84,0.00002873,0.00000933,0.00002667,-0.00001561,0.00000142,0.00043018,
 -0.00063934,0.00013906,-0.00028131,-0.00042518,-0.00350465,0.00115441,
 0.00215224,0.00021442,-0.00047288,0.00046552,0.00230420,-0.01165082,0.
 00852511,0.02051814,-0.27902654,0.12448699,-0.02212347,0.29145150,-0.0
 0007308,-0.00005487,0.00003946,-0.00000505,0.00001681,0.00003188,-0.00
 263898,0.00279396,0.00581282,0.00033676,0.00020474,-0.00014879,-0.0001
 1844,0.00002224,-0.00017197,0.00000710,-0.00000759,0.00002484,-0.00005
 978,-0.00065103,-0.00048984,0.00015512,-0.00041180,-0.00093733,-0.0001
 8858,0.00222636,0.00546243,-0.00012388,0.00019805,0.00024728,-0.000614
 09,0.00406957,0.00216205,-0.01384214,0.12486656,-0.10731069,0.01689481
 ,-0.13786331,0.10110474,-0.00333806,-0.00079909,0.00003036,0.00066799,
 0.00013261,-0.00005926,-0.12780671,-0.01594982,-0.00220974,0.00476781,
 0.02065929,-0.01040028,-0.00574571,0.00254782,-0.00330468,-0.00034488,
 -0.00069852,0.00058352,0.04983417,-0.02085657,0.01827516,-0.00404859,-
 0.00390998,-0.00013125,-0.02790008,0.03291706,-0.02061705,0.00001493,0
 .00082531,-0.00016567,-0.05691395,-0.03790073,0.00759048,-0.30322914,0
 .09089961,-0.08883492,0.00319203,-0.00158212,0.00036926,0.72220657,-0.
 00197426,-0.00239115,0.00091308,-0.00047173,-0.00032670,0.00005069,0.0
 3845234,-0.26561594,0.10945484,0.00923145,-0.00244321,0.00415472,-0.00
 163231,0.00158272,-0.00050282,-0.00033604,-0.00042489,0.00004861,-0.06
 718092,-0.03337595,0.00777997,-0.00338833,0.00119159,0.00262138,0.0321
 5739,-0.04032051,0.02315508,0.00098845,-0.00058368,-0.00005232,0.01205
 654,0.05598109,-0.02247443,0.02313925,-0.14278567,0.04285951,0.0245559
 4,-0.00211400,0.00801678,0.07177144,0.57519762,0.00075885,0.00092456,-
 0.00075197,0.00035067,0.00003141,-0.00019721,-0.03046980,0.09959399,-0
 .12100300,-0.00494075,0.00662457,-0.00128075,-0.00034824,0.00034910,0.
 00093752,-0.00005877,-0.00002263,0.00001785,0.04213487,0.01605997,0.00
 521776,-0.00041666,0.00245765,0.00636488,-0.02034964,0.02329987,-0.021
 87453,-0.00032710,-0.00001086,-0.00089264,-0.01776555,-0.03186283,0.01
 997664,-0.05410079,0.05541119,-0.10377789,-0.01277044,0.00322905,0.000
 79053,0.06724053,-0.20676016,0.26149815,-0.00130824,0.00060070,-0.0004
 8848,-0.00002121,-0.00000016,0.00002046,0.00615145,0.00211604,-0.00040
 271,0.00061273,0.00094444,0.00007216,-0.00003138,-0.00038929,0.0001924
 4,0.00003318,-0.00001589,0.00002803,0.00156158,0.00098346,-0.00154028,
 0.00030847,0.00027495,-0.00010111,0.00000460,0.00096599,-0.00032012,-0
 .00008513,0.00001986,0.00018261,-0.00303864,0.00220133,-0.00306776,-0.
 01645503,-0.01640762,0.00455223,0.00073799,0.00052261,0.00065444,-0.24
 928426,-0.13267942,0.03023288,0.26162521,0.00044912,0.00063691,-0.0004
 3465,0.00022809,0.00036186,-0.00019848,-0.02225773,-0.01152225,0.00301
 451,-0.00216288,-0.00234683,-0.00042892,0.00038851,0.00069795,-0.00012
 764,-0.00014616,0.00004039,-0.00010939,0.00095445,-0.00267007,0.005401
 91,-0.00119633,-0.00066600,0.00021485,0.00079760,-0.00061206,-0.000060
 17,0.00003148,-0.00017647,-0.00050087,0.00198999,0.00158138,0.00363401
 ,0.01047174,0.01000534,-0.00088561,-0.00011813,-0.00044966,-0.00204359
 ,-0.13182257,-0.14475700,0.02914165,0.14178023,0.14944048,-0.00024368,
 -0.00035646,-0.00001128,-0.00008864,-0.00022357,-0.00011050,0.01178616
 ,0.00730945,0.00060834,0.00179004,0.00000834,-0.00254591,-0.00033402,-
 0.00000394,0.00045096,0.00006407,-0.00007683,0.00002225,-0.00156924,0.
 00537619,0.00450142,0.00064960,0.00049376,0.00007901,-0.00028738,0.000
 00951,-0.00103280,0.00018635,-0.00049019,-0.00087612,-0.00301130,0.003
 57968,0.00558547,-0.00910536,-0.00572317,0.00588167,0.00098227,-0.0019
 2006,-0.00324555,0.02998126,0.02891660,-0.05080296,-0.03033105,-0.0365
 1137,0.04138391,0.00423168,0.00067876,0.00010893,-0.00050580,0.0000067
 7,0.00000202,0.00385743,-0.00376421,0.00291223,-0.00914553,0.00267354,
 -0.00287189,0.00253457,-0.00293854,0.00216737,-0.00033721,0.00100610,-
 0.00074033,0.00581635,-0.00281795,0.00107015,0.00123376,-0.00113978,0.
 00075690,0.00390019,0.01443878,-0.00663605,0.00026405,-0.00274134,0.00
 211223,-0.18414133,0.03256298,-0.03485622,-0.03238540,0.00324019,-0.00
 802446,-0.00045320,0.00119958,0.00001706,-0.00158565,-0.00448319,0.000
 56461,0.00000897,0.00034747,-0.00018904,0.60984919,-0.00134749,-0.0002
 6676,0.00002459,0.00014046,0.00004773,-0.00001361,-0.00231640,-0.00301
 963,0.00037380,0.00233303,-0.00101669,0.00039199,-0.00049931,0.0004908
 7,-0.00034410,0.00004778,-0.00010586,0.00010782,-0.00042325,-0.0039727
 7,0.00620343,0.00108525,-0.00014311,0.00043689,0.02589695,-0.00496238,
 0.00752206,0.00017526,-0.00219613,-0.00085083,0.02518128,-0.10451578,0
 .01535202,-0.00573011,0.01682071,-0.00815537,-0.00311675,-0.00291744,-
 0.00104700,-0.00833958,0.00016524,0.00235203,-0.00129630,0.00053888,-0
 .00045773,-0.03516902,0.84499466,0.00151079,0.00030745,0.00007650,-0.0
 0017612,-0.00001146,0.00002841,0.00208950,0.00006592,-0.00106834,-0.00
 263798,0.00046972,-0.00174600,0.00067395,-0.00071462,0.00057244,-0.000
 10603,0.00027295,-0.00014677,-0.00033553,0.00581246,0.00560323,-0.0003
 8786,0.00001664,0.00023301,-0.01249828,0.00538997,-0.00443513,0.000685
 10,-0.00136408,-0.00313514,-0.03114458,0.01674952,-0.09719069,-0.00348
 908,-0.00646862,0.00559366,0.00220939,-0.00029254,-0.00335746,0.002586
 19,0.00305276,0.00661448,0.00063800,-0.00015137,0.00030591,0.08893646,
 -0.32261215,0.39832377,-0.00235582,-0.00020241,-0.00015792,0.00030405,
 0.00001249,0.00000025,-0.00284749,0.00019694,-0.00062255,0.00459412,-0
 .00168653,0.00172085,-0.00140711,0.00173041,-0.00129950,0.00022578,-0.
 00058151,0.00044494,0.00007415,-0.00039674,0.00018803,-0.00032932,0.00
 049527,-0.00031461,-0.00495151,-0.00130949,-0.00030345,-0.00299687,0.0
 0093918,-0.00104241,-0.04734547,-0.02523952,0.00214174,-0.00173361,0.0
 0660491,-0.00387131,0.00118920,-0.00005752,0.00021391,-0.00240374,-0.0
 0026590,-0.00023026,-0.00071413,0.00028131,-0.00025942,-0.21855509,-0.
 07815754,0.01202006,0.53206736,-0.00020022,0.00005480,-0.00003809,0.00
 003648,-0.00002997,-0.00000233,-0.00009655,0.00057050,-0.00028063,0.00
 075082,-0.00030901,0.00034067,-0.00021144,0.00042588,-0.00025949,-0.00
 003331,-0.00013035,0.00004473,-0.00045309,0.00109500,-0.00086595,-0.00
 019900,0.00011842,-0.00008370,0.00087867,-0.00415256,0.00245086,0.0021
 2369,0.00077940,0.00005401,0.00013469,0.01126036,-0.00024974,0.0020107
 5,-0.00060417,0.00127272,0.00124868,0.00032955,0.00011517,0.00084895,0
 .00098074,-0.00053401,0.00012704,-0.00007766,-0.00000804,-0.06280840,-
 0.16223067,0.03591336,0.06132908,0.33145279,-0.00033520,-0.00005492,0.
 00000859,0.00004105,0.00000452,-0.00001729,-0.00045972,-0.00023281,0.0
 0005332,0.00043656,-0.00011482,0.00017085,-0.00015650,0.00010646,-0.00
 005879,0.00006694,-0.00006298,0.00001706,0.00033266,-0.00082596,0.0000
 8889,0.00003637,0.00004153,0.00001085,-0.00141296,0.00204287,-0.000943
 98,-0.00165637,-0.00016845,-0.00012691,-0.01068830,-0.00486367,0.01128
 861,-0.00154833,0.00209419,-0.00020262,-0.00043539,-0.00011482,0.00010
 545,-0.00081008,-0.00072775,-0.00012457,-0.00016942,0.00001963,-0.0001
 8217,0.00428210,0.03310287,-0.08442460,0.05184137,-0.11607121,0.147926
 74,0.00093212,0.00011479,0.00004043,-0.00012198,-0.00000857,-0.0000010
 6,0.00104997,-0.00007677,0.00023259,-0.00168999,0.00056556,-0.00059008
 ,0.00054816,-0.00057277,0.00044883,-0.00013182,0.00021622,-0.00018250,
 0.00005087,0.00043234,-0.00018283,0.00008954,-0.00016440,0.00009607,0.
 00080616,-0.00052733,0.00045925,-0.00012651,0.00093303,-0.00045272,0.0
 0287171,-0.00263035,0.00082233,-0.00066826,-0.00010644,-0.00013238,-0.
 00023369,-0.00004039,-0.00004768,0.00032053,-0.00043399,0.00034586,0.0
 0005604,0.00003125,0.00001003,-0.06461336,-0.01587979,-0.00421685,-0.1
 8355916,0.03223497,-0.03773633,0.50745886,-0.00018649,-0.00003920,-0.0
 0001258,0.00003008,0.00001605,0.00000488,-0.00001947,0.00003416,-0.000
 05452,0.00032966,-0.00006759,0.00008608,-0.00011357,0.00008693,-0.0000
 8552,0.00003072,-0.00003013,0.00004126,-0.00003667,0.00021929,-0.00005
 842,-0.00002277,0.00003783,-0.00001084,0.00030839,-0.00046320,0.000102
 72,0.00023844,0.00024009,-0.00018650,-0.00398125,-0.00231657,0.0033017
 5,-0.00089822,0.00086461,-0.00049811,0.00008308,0.00002451,0.00007766,
 -0.00024249,-0.00036941,0.00002351,-0.00011065,0.00003033,-0.00006266,
 -0.02131206,0.01669659,-0.01110933,0.05739357,-0.10506843,0.02997996,0
 .05640552,0.60937067,0.00026956,0.00002975,-0.00000957,-0.00003914,0.0
 0000391,0.00001784,0.00021206,-0.00006239,0.00001430,-0.00047218,0.000
 11960,-0.00016520,0.00015949,-0.00014766,0.00011298,-0.00004383,0.0000
 6088,-0.00003923,-0.00001720,0.00004550,0.00012420,0.00002408,-0.00003
 635,0.00004866,0.00008012,-0.00005900,-0.00032913,-0.00010656,-0.00006
 301,-0.00020914,0.00151858,0.00353411,0.00412622,0.00029443,-0.0003293
 2,0.00046490,-0.00011282,0.00005620,0.00010185,0.00022126,-0.00003083,
 -0.00022032,0.00007529,-0.00003712,-0.00001996,-0.00152502,-0.01011134
 ,0.00729280,-0.05037648,0.02538466,-0.08870395,-0.04466104,0.00346594,
 0.58578412,-0.00010249,-0.00000457,-0.00000771,0.00001283,-0.00000039,
 -0.00000080,-0.00012223,0.00002480,-0.00003638,0.00021008,-0.00008630,
 0.00008211,-0.00006408,0.00008838,-0.00006274,0.00000806,-0.00003036,0
 .00001979,0.00003304,0.00005376,-0.00001149,-0.00003014,0.00002795,-0.
 00002062,-0.00009186,-0.00011797,0.00004019,-0.00006167,0.00001239,-0.
 00003102,-0.00087185,-0.00129548,0.00045389,-0.00029424,0.00037991,-0.
 00024239,0.00003784,0.00000036,0.00000388,-0.00010357,-0.00008485,0.00
 003041,-0.00004586,0.00001927,-0.00001899,-0.00205123,0.00612323,-0.00
 350870,-0.03574322,-0.02302327,0.00512065,-0.15365478,-0.12460100,0.04
 455049,0.18266201,-0.00004502,-0.00000596,-0.00000608,0.00000614,0.000
 00015,0.00000235,-0.00004920,0.00003676,-0.00002793,0.00008634,-0.0000
 2689,0.00003654,-0.00002808,0.00003042,-0.00002756,0.00000630,-0.00000
 998,0.00001210,-0.00003529,-0.00003636,-0.00001546,-0.00000291,0.00000
 841,-0.00000167,-0.00001821,0.00004502,-0.00003516,-0.00001944,-0.0000
 2743,0.00004929,0.00028298,0.00059702,-0.00013225,0.00008293,-0.000096
 51,0.00005399,0.00001934,0.00001901,0.00000031,0.00005248,0.00003967,-
 0.00002075,0.00001022,-0.00000638,0.00000557,0.00277285,-0.00275943,0.
 00199325,0.01409663,0.01112514,-0.00310878,-0.13699121,-0.20696065,0.0
 5247500,0.13872182,0.21407828,0.00000540,-0.00000158,-0.00000716,-0.00
 000128,0.00000226,0.00000295,0.00000253,-0.00001287,0.00000882,-0.0000
 0722,0.00000233,0.00001118,0.00000372,-0.00000243,-0.00000647,-0.00000
 359,0.00000302,0.00000475,0.00003245,0.00000257,-0.00004445,-0.0000051
 1,0.00000418,0.00000337,-0.00000266,-0.00005399,0.00000531,-0.00001542
 ,0.00005520,0.00004736,-0.00034688,-0.00042119,0.00038462,-0.00009193,
 0.00010679,-0.00009676,-0.00000524,-0.00000274,0.00001389,-0.00004295,
 -0.00004534,-0.00000221,-0.00001388,0.00000737,-0.00000478,-0.00180251
 ,0.00262139,-0.00145900,-0.01364966,-0.00991647,0.00232991,0.05082473,
 0.05474913,-0.07171075,-0.04527826,-0.05876176,0.06878214,-0.00010917,
 -0.00001590,-0.00000593,0.00001186,-0.00000019,-0.00000190,-0.00018410
 ,-0.00004463,-0.00000981,0.00019707,-0.00006466,0.00008353,-0.00005884
 ,0.00006299,-0.00005256,0.00001222,-0.00002275,0.00001939,0.00008735,-
 0.00011348,0.00001796,-0.00000842,0.00001734,-0.00001625,-0.00008761,0
 .00007874,0.00001409,0.00001403,-0.00012460,0.00013638,-0.00033822,-0.
 00067172,-0.00090025,0.00014348,0.00010279,-0.00010676,-0.00001089,-0.
 00002387,0.00000056,-0.00013471,0.00009339,0.00000413,-0.00001895,0.00
 000838,0.00000310,0.00371461,0.00848887,-0.00185843,-0.02552646,0.0304
 2227,0.01115613,-0.06127175,0.04383261,0.02461829,0.00742062,-0.016665
 92,-0.01065636,0.07437627,0.00006760,0.00000941,0.00001048,-0.00000882
 ,-0.00000282,-0.00000292,0.00005102,0.00000493,0.00002460,-0.00011417,
 0.00003932,-0.00005002,0.00004106,-0.00003896,0.00004041,-0.00001111,0
 .00001400,-0.00002004,0.00003178,0.00003227,0.00000782,0.00000960,-0.0
 0001765,0.00000110,-0.00002076,0.00000306,0.00009860,-0.00002898,0.000
 06321,-0.00010139,0.00036312,-0.00011425,-0.00033762,-0.00004581,-0.00
 001981,0.00009249,-0.00002019,0.00000768,-0.00000340,0.00005888,-0.000
 01484,-0.00002112,0.00000925,-0.00000259,0.00000069,-0.00326323,-0.001
 36155,0.00084362,0.01153435,-0.00634535,0.00126142,0.05223998,-0.25175
 714,-0.10898675,0.00492521,-0.01613762,-0.01104238,-0.06291587,0.26974
 744,-0.00004414,-0.00000276,-0.00000517,0.00000434,-0.00000121,-0.0000
 0044,-0.00006447,0.00003468,-0.00003198,0.00008948,-0.00003552,0.00004
 305,-0.00002862,0.00003724,-0.00003049,0.00000443,-0.00001283,0.000010
 98,-0.00003233,-0.00000610,-0.00001912,-0.00001212,0.00001282,-0.00001
 000,-0.00007171,0.00001051,-0.00001670,0.00000461,-0.00002460,0.000051
 77,-0.00001668,-0.00001378,-0.00053096,0.00000016,-0.00000806,-0.00005
 344,0.00002735,-0.00000309,-0.00000206,0.00000266,0.00002560,0.0000314
 1,-0.00000605,0.00000129,0.00000238,0.00075184,-0.00073860,0.00115186,
 -0.00690774,0.01475408,0.00774645,0.02981474,-0.11094334,-0.11109027,-
 0.00277688,0.00866005,0.00472306,-0.02614772,0.11607510,0.11124563,-0.
 00010671,-0.00001222,-0.00000028,0.00001109,0.00000121,0.00000101,-0.0
 0018357,-0.00003564,-0.00002023,0.00019850,-0.00007778,0.00006088,-0.0
 0005758,0.00006660,-0.00004855,0.00001071,-0.00002312,0.00001919,0.000
 06028,-0.00006151,0.00009313,-0.00001175,0.00002277,-0.00000672,-0.000
 08042,0.00001256,-0.00010552,0.00002960,-0.00017026,0.00002320,-0.0006
 3759,0.00039301,0.00102092,0.00010626,0.00015985,0.00002783,-0.0000087
 8,-0.00001385,0.00001643,-0.00009596,0.00002724,-0.00011889,-0.0000148
 4,-0.00000160,-0.00001445,0.00380837,0.00610370,-0.00433861,-0.0149489
 5,0.00573463,-0.03930863,-0.05030862,-0.00310444,0.02171885,0.00140027
 ,-0.00035560,0.01994711,0.00131194,-0.00253035,0.00677949,0.05950471,0
 .00006270,0.00000281,0.00000267,-0.00000756,0.00000052,0.00000069,0.00
 005875,-0.00003888,0.00002327,-0.00011552,0.00004670,-0.00003993,0.000
 04082,-0.00004640,0.00003318,-0.00001044,0.00001803,-0.00001123,0.0000
 6211,-0.00000584,-0.00000594,0.00001267,-0.00001377,0.00001557,0.00004
 623,-0.00004734,-0.00003574,-0.00003487,0.00008552,0.00000895,0.000181
 23,-0.00012985,0.00012696,0.00001802,-0.00005787,-0.00004822,-0.000033
 42,-0.00000226,-0.00001216,0.00000349,0.00001760,0.00002925,0.00000676
 ,0.00000118,0.00000385,-0.00198166,0.00080665,-0.00096926,0.00562392,-
 0.00248477,0.01317107,-0.00197081,-0.05511212,0.03220122,-0.00021793,-
 0.00124457,0.02317894,0.00068506,0.00485334,-0.02812968,-0.00335019,0.
 05345296,-0.00006252,-0.00000635,0.00000200,0.00000880,0.00000022,-0.0
 0000238,-0.00006072,-0.00002527,0.00001489,0.00009958,-0.00003310,0.00
 002699,-0.00003459,0.00003144,-0.00001922,0.00001149,-0.00001458,0.000
 00739,0.00001419,-0.00003936,0.00003982,-0.00000155,0.00000656,-0.0000
 1005,0.00001358,0.00006215,0.00003285,0.00003753,-0.00011039,0.0000120
 6,-0.00027482,-0.00034615,-0.00019606,0.00005895,0.00009837,0.00002294
 ,-0.00000237,-0.00001025,0.00000578,-0.00007828,0.00000151,-0.00004340
 ,-0.00000853,0.00000133,-0.00000570,0.00307282,0.00423801,-0.00113040,
 -0.01169331,0.00315519,-0.00671708,0.01173817,0.03240324,-0.31860756,0
 .00109968,-0.00049503,-0.00415881,0.00206148,0.00241320,-0.01297064,-0
 .00709806,-0.03971814,0.34234943,-0.00146652,-0.00022950,-0.00003366,0
 .00018630,0.00001791,-0.00000631,-0.00110346,0.00196549,-0.00123581,0.
 00296205,-0.00070253,0.00088124,-0.00095106,0.00095972,-0.00076260,0.0
 0018615,-0.00036303,0.00030092,-0.00150693,0.00209967,-0.00107281,-0.0
 0071114,0.00045744,-0.00032033,-0.00637185,-0.00284613,-0.00015971,0.0
 0003857,0.00051085,-0.00034569,-0.00028979,0.03593150,-0.02206322,-0.0
 0250739,0.00112151,-0.00101359,-0.00075589,0.00172488,-0.00095764,0.00
 193099,0.00045749,0.00023408,-0.00008255,-0.00007350,-0.00000031,-0.12
 544537,0.07669974,-0.04665139,0.00696328,-0.05085543,0.02140338,0.0021
 9598,-0.00402298,0.00361176,0.00145247,-0.00192714,0.00110702,0.000459
 65,-0.00037258,-0.00137066,0.00001304,0.00092065,0.00109850,0.12480347
 ,0.00146028,0.00038484,-0.00003185,-0.00015400,-0.00003980,0.00001034,
 0.00082230,-0.00045795,0.00049290,-0.00266436,0.00055651,-0.00069956,0
 .00073178,-0.00050954,0.00046727,-0.00019600,0.00021811,-0.00023358,0.
 00168926,-0.00068156,-0.00017815,0.00052541,-0.00038195,0.00016779,0.0
 0366764,0.00345894,0.00013917,-0.00044738,0.00092900,-0.00026879,0.018
 26855,-0.02424838,0.02627768,-0.00632122,-0.00432663,0.00112477,0.0018
 1899,0.00128961,-0.00051348,0.00138453,0.00036668,-0.00029544,0.000336
 47,-0.00004773,0.00013038,0.08349234,-0.59109313,0.27280581,-0.0523409
 1,-0.07675963,0.04452164,0.01622915,-0.00543662,0.00248699,-0.00091496
 ,0.00133191,-0.00047242,-0.00312883,0.00103792,0.00030819,-0.00278500,
 -0.00010165,-0.00161257,-0.06147405,0.69451104,-0.00102062,-0.00023614
 ,0.00002391,0.00011569,0.00001600,-0.00001945,-0.00064502,0.00068526,-
 0.00031125,0.00187224,-0.00036140,0.00058101,-0.00054484,0.00044635,-0
 .00031903,0.00014045,-0.00020090,0.00014077,-0.00080454,-0.00013777,-0
 .00180026,-0.00034295,0.00014414,-0.00041284,-0.00345468,-0.00104294,0
 .00230786,0.00013322,-0.00010002,0.00062785,-0.01310689,0.02945181,0.0
 0380070,0.00271031,0.00244347,-0.00067447,-0.00098994,-0.00050443,-0.0
 0023932,-0.00022651,-0.00045748,-0.00047778,-0.00019914,0.00005261,0.0
 0001645,-0.05010919,0.27160382,-0.22770255,0.02215747,0.04482422,0.011
 75524,-0.00662956,-0.00121429,-0.00698280,0.00059490,-0.00065600,0.001
 17305,0.00164091,-0.00030390,-0.00024533,0.00135189,0.00017469,0.00134
 716,0.04735680,-0.34462711,0.21741109\\0.00000014,0.00000097,-0.000000
 69,0.00000025,0.00000128,-0.00000064,0.00000017,0.00000055,-0.00000011
 ,0.00000031,0.00000102,-0.00000011,0.00000060,0.00000141,0.00000045,0.
 00000069,0.00000145,0.00000082,0.00000026,0.00000046,0.00000052,0.0000
 0053,0.00000073,0.00000100,0.00000015,0.00000009,0.00000046,0.00000027
 ,0.00000003,0.00000096,-0.00000010,-0.00000034,-0.00000009,-0.00000031
 ,-0.00000024,-0.00000073,-0.00000049,-0.00000049,-0.00000121,-0.000000
 13,0.00000021,-0.00000072,-0.00000024,0.00000023,-0.00000118,-0.000000
 39,-0.00000085,-0.00000012,-0.00000019,-0.00000085,0.00000044,-0.00000
 021,-0.00000105,0.00000055,-0.00000006,-0.00000113,0.00000097,-0.00000
 033,-0.00000095,0.,-0.00000043,-0.00000173,0.00000026,-0.00000050,-0.0
 0000082,-0.00000083\\\@
 The archive entry for this job was punched.


 CONFIDENCE IS WHAT YOU FEEL BEFORE YOU FULLY
 COMPREHEND THE SITUATION.
 Job cpu time:       0 days  1 hours 26 minutes 15.0 seconds.
 Elapsed time:       0 days  0 hours  2 minutes 45.3 seconds.
 File lengths (MBytes):  RWF=    242 Int=      0 D2E=      0 Chk=     11 Scr=      1
 Normal termination of Gaussian 16 at Wed Apr 30 05:28:33 2025.
