/home/tahminaafroz
cn012.cluster.local
tahminaafroz
Mon May  5 07:31:12 CDT 2025
 Entering Gaussian System, Link 0=g16
 Initial command:
 /home/apps/g16/l1.exe "/tmp/4-cooch3-phboh2-opt-freq-thf/Gau-1153057.inp" -scrdir="/tmp/4-cooch3-phboh2-opt-freq-thf/"
 Entering Link 1 = /home/apps/g16/l1.exe PID=   1153058.
  
 Copyright (c) 1988-2019, Gaussian, Inc.  All Rights Reserved.
  
 This is part of the Gaussian(R) 16 program.  It is based on
 the Gaussian(R) 09 system (copyright 2009, Gaussian, Inc.),
 the Gaussian(R) 03 system (copyright 2003, Gaussian, Inc.),
 the Gaussian(R) 98 system (copyright 1998, Gaussian, Inc.),
 the Gaussian(R) 94 system (copyright 1995, Gaussian, Inc.),
 the Gaussian 92(TM) system (copyright 1992, Gaussian, Inc.),
 the Gaussian 90(TM) system (copyright 1990, Gaussian, Inc.),
 the Gaussian 88(TM) system (copyright 1988, Gaussian, Inc.),
 the Gaussian 86(TM) system (copyright 1986, Carnegie Mellon
 University), and the Gaussian 82(TM) system (copyright 1983,
 Carnegie Mellon University). Gaussian is a federally registered
 trademark of Gaussian, Inc.
  
 This software contains proprietary and confidential information,
 including trade secrets, belonging to Gaussian, Inc.
  
 This software is provided under written license and may be
 used, copied, transmitted, or stored only in accord with that
 written license.
  
 The following legend is applicable only to US Government
 contracts under FAR:
  
                    RESTRICTED RIGHTS LEGEND
  
 Use, reproduction and disclosure by the US Government is
 subject to restrictions as set forth in subparagraphs (a)
 and (c) of the Commercial Computer Software - Restricted
 Rights clause in FAR 52.227-19.
  
 Gaussian, Inc.
 340 Quinnipiac St., Bldg. 40, Wallingford CT 06492
  
  
 ---------------------------------------------------------------
 Warning -- This program may not be used in any manner that
 competes with the business of Gaussian, Inc. or will provide
 assistance to any competitor of Gaussian, Inc.  The licensee
 of this program is prohibited from giving any competitor of
 Gaussian, Inc. access to this program.  By using this program,
 the user acknowledges that Gaussian, Inc. is engaged in the
 business of creating and licensing software in the field of
 computational chemistry and represents and warrants to the
 licensee that it is not a competitor of Gaussian, Inc. and that
 it will not use this program in any manner prohibited above.
 ---------------------------------------------------------------
  

 Cite this work as:
 Gaussian 16, Revision C.01,
 M. J. Frisch, G. W. Trucks, H. B. Schlegel, G. E. Scuseria, 
 M. A. Robb, J. R. Cheeseman, G. Scalmani, V. Barone, 
 G. A. Petersson, H. Nakatsuji, X. Li, M. Caricato, A. V. Marenich, 
 J. Bloino, B. G. Janesko, R. Gomperts, B. Mennucci, H. P. Hratchian, 
 J. V. Ortiz, A. F. Izmaylov, J. L. Sonnenberg, D. Williams-Young, 
 F. Ding, F. Lipparini, F. Egidi, J. Goings, B. Peng, A. Petrone, 
 T. Henderson, D. Ranasinghe, V. G. Zakrzewski, J. Gao, N. Rega, 
 G. Zheng, W. Liang, M. Hada, M. Ehara, K. Toyota, R. Fukuda, 
 J. Hasegawa, M. Ishida, T. Nakajima, Y. Honda, O. Kitao, H. Nakai, 
 T. Vreven, K. Throssell, J. A. Montgomery, Jr., J. E. Peralta, 
 F. Ogliaro, M. J. Bearpark, J. J. Heyd, E. N. Brothers, K. N. Kudin, 
 V. N. Staroverov, T. A. Keith, R. Kobayashi, J. Normand, 
 K. Raghavachari, A. P. Rendell, J. C. Burant, S. S. Iyengar, 
 J. Tomasi, M. Cossi, J. M. Millam, M. Klene, C. Adamo, R. Cammi, 
 J. W. Ochterski, R. L. Martin, K. Morokuma, O. Farkas, 
 J. B. Foresman, and D. J. Fox, Gaussian, Inc., Wallingford CT, 2019.
 
 ******************************************
 Gaussian 16:  AS64L-G16RevC.01  3-Jul-2019
                 5-May-2025 
 ******************************************
 %mem=20GB
 %nprocshared=32
 Will use up to   32 processors via shared memory.
 %chk=4-cooch3-phboh2-opt-freq-thf.chk
 ----------------------------------------------------------------------
 # opt=(calcfc,tight) freq 6-311+g(d,p) scrf=(smd,solvent=thf) nosymm s
 cf=(qc,fermi,xqc) geom=connectivity int=ultrafine m062x
 ----------------------------------------------------------------------
 1/7=10,10=4,18=20,19=15,26=6,38=1,57=2/1,3;
 2/9=110,12=2,15=1,17=6,18=5,40=1/2;
 3/5=4,6=6,7=111,11=2,25=1,30=1,70=32201,71=2,72=20,74=-55,75=-5,140=1/1,2,3;
 4//1;
 5/5=2,22=13,38=5,53=20/2;
 8/6=4,10=90,11=11/1;
 11/6=1,8=1,9=11,15=111,16=1,31=1/1,2,10;
 10/6=1,13=1,31=1/2;
 6/7=2,8=2,9=2,10=2,28=1/1;
 7/10=1,25=1,30=1/1,2,3,16;
 1/7=10,10=4,18=20,19=15,26=6/3(2);
 2/9=110,15=1/2;
 99//99;
 2/9=110,15=1/2;
 3/5=4,6=6,7=111,11=2,25=1,30=1,70=32205,71=1,72=20,74=-55,75=-5/1,2,3;
 4/5=5,16=3,69=1/1;
 5/5=2,22=13,38=5,53=20/2;
 7/30=1/1,2,3,16;
 1/7=10,18=20,19=15,26=6/3(-5);
 2/9=110,15=1/2;
 6/7=2,8=2,9=2,10=2,19=2,28=1/1;
 99/9=1/99;
 ----------------------------
 4-cooch3-phboh2-opt-freq-thf
 ----------------------------
 Symbolic Z-matrix:
 Charge =  0 Multiplicity = 1
 O                     8.7328    7.30543   5.35417 
 H                     9.55189   6.9545    5.71545 
 C                     6.23943   7.01239   5.19077 
 B                     7.65329   6.54918   5.69324 
 O                     7.86585   5.43429   6.45595 
 H                     7.07014   4.95996   6.70196 
 C                     5.08769   6.23862   5.36931 
 H                     5.14221   5.26993   5.85858 
 C                     3.84677   6.67378   4.92231 
 H                     2.96109   6.06815   5.06351 
 C                     3.74458   7.90706   4.28079 
 C                     4.87979   8.69297   4.08764 
 H                     4.77398   9.64631   3.58406 
 C                     6.1134    8.24483   4.53733 
 H                     6.99922   8.85105   4.38675 
 C                     2.4396    8.42954   3.7791 
 O                     1.42248   7.58864   4.01827 
 C                     0.14471   8.03291   3.55973 
 H                    -0.55502   7.24638   3.82883 
 H                    -0.12464   8.97166   4.04401 
 H                     0.16199   8.18151   2.47994 
 O                     2.30085   9.48558   3.22042 
 

 GradGradGradGradGradGradGradGradGradGradGradGradGradGradGradGradGradGrad
 Berny optimization.
 Initialization pass.
                           ----------------------------
                           !    Initial Parameters    !
                           ! (Angstroms and Degrees)  !
 --------------------------                            --------------------------
 ! Name  Definition              Value          Derivative Info.                !
 --------------------------------------------------------------------------------
 ! R1    R(1,2)                  0.9616         calculate D2E/DX2 analytically  !
 ! R2    R(1,4)                  1.361          calculate D2E/DX2 analytically  !
 ! R3    R(3,4)                  1.5704         calculate D2E/DX2 analytically  !
 ! R4    R(3,7)                  1.399          calculate D2E/DX2 analytically  !
 ! R5    R(3,14)                 1.4006         calculate D2E/DX2 analytically  !
 ! R6    R(4,5)                  1.3674         calculate D2E/DX2 analytically  !
 ! R7    R(5,6)                  0.9585         calculate D2E/DX2 analytically  !
 ! R8    R(7,8)                  1.0866         calculate D2E/DX2 analytically  !
 ! R9    R(7,9)                  1.3889         calculate D2E/DX2 analytically  !
 ! R10   R(9,10)                 1.0822         calculate D2E/DX2 analytically  !
 ! R11   R(9,11)                 1.3939         calculate D2E/DX2 analytically  !
 ! R12   R(11,12)                1.3942         calculate D2E/DX2 analytically  !
 ! R13   R(11,16)                1.4925         calculate D2E/DX2 analytically  !
 ! R14   R(12,13)                1.0833         calculate D2E/DX2 analytically  !
 ! R15   R(12,14)                1.3874         calculate D2E/DX2 analytically  !
 ! R16   R(14,15)                1.0839         calculate D2E/DX2 analytically  !
 ! R17   R(16,17)                1.3412         calculate D2E/DX2 analytically  !
 ! R18   R(16,22)                1.2027         calculate D2E/DX2 analytically  !
 ! R19   R(17,18)                1.4284         calculate D2E/DX2 analytically  !
 ! R20   R(18,19)                1.0866         calculate D2E/DX2 analytically  !
 ! R21   R(18,20)                1.0901         calculate D2E/DX2 analytically  !
 ! R22   R(18,21)                1.0901         calculate D2E/DX2 analytically  !
 ! A1    A(2,1,4)              112.2882         calculate D2E/DX2 analytically  !
 ! A2    A(4,3,7)              122.4965         calculate D2E/DX2 analytically  !
 ! A3    A(4,3,14)             119.33           calculate D2E/DX2 analytically  !
 ! A4    A(7,3,14)             118.1735         calculate D2E/DX2 analytically  !
 ! A5    A(1,4,3)              118.0684         calculate D2E/DX2 analytically  !
 ! A6    A(1,4,5)              117.9505         calculate D2E/DX2 analytically  !
 ! A7    A(3,4,5)              123.9805         calculate D2E/DX2 analytically  !
 ! A8    A(4,5,6)              114.683          calculate D2E/DX2 analytically  !
 ! A9    A(3,7,8)              120.6132         calculate D2E/DX2 analytically  !
 ! A10   A(3,7,9)              121.4124         calculate D2E/DX2 analytically  !
 ! A11   A(8,7,9)              117.9728         calculate D2E/DX2 analytically  !
 ! A12   A(7,9,10)             120.9231         calculate D2E/DX2 analytically  !
 ! A13   A(7,9,11)             119.3951         calculate D2E/DX2 analytically  !
 ! A14   A(10,9,11)            119.6817         calculate D2E/DX2 analytically  !
 ! A15   A(9,11,12)            120.1869         calculate D2E/DX2 analytically  !
 ! A16   A(9,11,16)            121.9058         calculate D2E/DX2 analytically  !
 ! A17   A(12,11,16)           117.9072         calculate D2E/DX2 analytically  !
 ! A18   A(11,12,13)           118.7466         calculate D2E/DX2 analytically  !
 ! A19   A(11,12,14)           119.803          calculate D2E/DX2 analytically  !
 ! A20   A(13,12,14)           121.4503         calculate D2E/DX2 analytically  !
 ! A21   A(3,14,12)            121.0274         calculate D2E/DX2 analytically  !
 ! A22   A(3,14,15)            118.9074         calculate D2E/DX2 analytically  !
 ! A23   A(12,14,15)           120.0651         calculate D2E/DX2 analytically  !
 ! A24   A(11,16,17)           112.5595         calculate D2E/DX2 analytically  !
 ! A25   A(11,16,22)           124.3583         calculate D2E/DX2 analytically  !
 ! A26   A(17,16,22)           123.0822         calculate D2E/DX2 analytically  !
 ! A27   A(16,17,18)           115.2223         calculate D2E/DX2 analytically  !
 ! A28   A(17,18,19)           105.7488         calculate D2E/DX2 analytically  !
 ! A29   A(17,18,20)           110.2585         calculate D2E/DX2 analytically  !
 ! A30   A(17,18,21)           110.2549         calculate D2E/DX2 analytically  !
 ! A31   A(19,18,20)           110.7454         calculate D2E/DX2 analytically  !
 ! A32   A(19,18,21)           110.7439         calculate D2E/DX2 analytically  !
 ! A33   A(20,18,21)           109.0613         calculate D2E/DX2 analytically  !
 ! D1    D(2,1,4,3)            179.1206         calculate D2E/DX2 analytically  !
 ! D2    D(2,1,4,5)             -0.6207         calculate D2E/DX2 analytically  !
 ! D3    D(7,3,4,1)            173.4525         calculate D2E/DX2 analytically  !
 ! D4    D(7,3,4,5)             -6.8231         calculate D2E/DX2 analytically  !
 ! D5    D(14,3,4,1)            -6.5329         calculate D2E/DX2 analytically  !
 ! D6    D(14,3,4,5)           173.1916         calculate D2E/DX2 analytically  !
 ! D7    D(4,3,7,8)             -0.8434         calculate D2E/DX2 analytically  !
 ! D8    D(4,3,7,9)            179.6341         calculate D2E/DX2 analytically  !
 ! D9    D(14,3,7,8)           179.1421         calculate D2E/DX2 analytically  !
 ! D10   D(14,3,7,9)            -0.3804         calculate D2E/DX2 analytically  !
 ! D11   D(4,3,14,12)         -179.5262         calculate D2E/DX2 analytically  !
 ! D12   D(4,3,14,15)            0.3885         calculate D2E/DX2 analytically  !
 ! D13   D(7,3,14,12)            0.4878         calculate D2E/DX2 analytically  !
 ! D14   D(7,3,14,15)         -179.5975         calculate D2E/DX2 analytically  !
 ! D15   D(1,4,5,6)            177.2348         calculate D2E/DX2 analytically  !
 ! D16   D(3,4,5,6)             -2.49           calculate D2E/DX2 analytically  !
 ! D17   D(3,7,9,10)           179.9218         calculate D2E/DX2 analytically  !
 ! D18   D(3,7,9,11)             0.0552         calculate D2E/DX2 analytically  !
 ! D19   D(8,7,9,10)             0.3872         calculate D2E/DX2 analytically  !
 ! D20   D(8,7,9,11)          -179.4794         calculate D2E/DX2 analytically  !
 ! D21   D(7,9,11,12)            0.1739         calculate D2E/DX2 analytically  !
 ! D22   D(7,9,11,16)         -179.9546         calculate D2E/DX2 analytically  !
 ! D23   D(10,9,11,12)        -179.6944         calculate D2E/DX2 analytically  !
 ! D24   D(10,9,11,16)           0.1771         calculate D2E/DX2 analytically  !
 ! D25   D(9,11,12,13)         179.8479         calculate D2E/DX2 analytically  !
 ! D26   D(9,11,12,14)          -0.0676         calculate D2E/DX2 analytically  !
 ! D27   D(16,11,12,13)         -0.0287         calculate D2E/DX2 analytically  !
 ! D28   D(16,11,12,14)       -179.9442         calculate D2E/DX2 analytically  !
 ! D29   D(9,11,16,17)          -0.0083         calculate D2E/DX2 analytically  !
 ! D30   D(9,11,16,22)        -179.9991         calculate D2E/DX2 analytically  !
 ! D31   D(12,11,16,17)        179.8661         calculate D2E/DX2 analytically  !
 ! D32   D(12,11,16,22)         -0.1248         calculate D2E/DX2 analytically  !
 ! D33   D(11,12,14,3)          -0.2704         calculate D2E/DX2 analytically  !
 ! D34   D(11,12,14,15)        179.8159         calculate D2E/DX2 analytically  !
 ! D35   D(13,12,14,3)         179.8164         calculate D2E/DX2 analytically  !
 ! D36   D(13,12,14,15)         -0.0973         calculate D2E/DX2 analytically  !
 ! D37   D(11,16,17,18)       -179.949          calculate D2E/DX2 analytically  !
 ! D38   D(22,16,17,18)          0.042          calculate D2E/DX2 analytically  !
 ! D39   D(16,17,18,19)        179.9682         calculate D2E/DX2 analytically  !
 ! D40   D(16,17,18,20)        -60.2707         calculate D2E/DX2 analytically  !
 ! D41   D(16,17,18,21)         60.2108         calculate D2E/DX2 analytically  !
 --------------------------------------------------------------------------------
 Trust Radius=3.00D-01 FncErr=5.00D-06 GrdErr=5.00D-06 EigMax=2.50D+02 EigMin=1.00D-04
 Number of steps in this run=    106 maximum allowed number of steps=    132.
 GradGradGradGradGradGradGradGradGradGradGradGradGradGradGradGradGradGrad

                          Input orientation:                          
 ---------------------------------------------------------------------
 Center     Atomic      Atomic             Coordinates (Angstroms)
 Number     Number       Type             X           Y           Z
 ---------------------------------------------------------------------
      1          8           0        8.732804    7.305432    5.354167
      2          1           0        9.551892    6.954496    5.715446
      3          6           0        6.239429    7.012391    5.190772
      4          5           0        7.653289    6.549184    5.693239
      5          8           0        7.865849    5.434288    6.455947
      6          1           0        7.070144    4.959964    6.701959
      7          6           0        5.087691    6.238617    5.369310
      8          1           0        5.142209    5.269930    5.858584
      9          6           0        3.846774    6.673775    4.922312
     10          1           0        2.961094    6.068155    5.063507
     11          6           0        3.744580    7.907063    4.280786
     12          6           0        4.879793    8.692972    4.087636
     13          1           0        4.773983    9.646307    3.584056
     14          6           0        6.113396    8.244832    4.537326
     15          1           0        6.999220    8.851046    4.386753
     16          6           0        2.439602    8.429542    3.779099
     17          8           0        1.422479    7.588638    4.018274
     18          6           0        0.144708    8.032913    3.559726
     19          1           0       -0.555024    7.246383    3.828825
     20          1           0       -0.124638    8.971664    4.044006
     21          1           0        0.161991    8.181506    2.479937
     22          8           0        2.300849    9.485577    3.220420
 ---------------------------------------------------------------------
                    Distance matrix (angstroms):
                    1          2          3          4          5
     1  O    0.000000
     2  H    0.961553   0.000000
     3  C    2.515848   3.354258   0.000000
     4  B    1.360968   1.941511   1.570361   0.000000
     5  O    2.338100   2.387910   2.595442   1.367442   0.000000
     6  H    3.175248   3.333233   2.680714   1.970582   0.958463
     7  C    3.798048   4.534466   1.398965   2.604549   3.089642
     8  H    4.158134   4.722664   2.164725   2.823004   2.793219
     9  C    4.945582   5.766822   2.431364   3.885796   4.476754
    10  H    5.909989   6.682009   3.413980   4.758639   5.137830
    11  C    5.137751   6.057269   2.802282   4.372284   5.275490
    12  C    4.286614   5.244099   2.426906   3.855654   5.014424
    13  H    4.928007   5.883628   3.415638   4.725593   5.962256
    14  C    2.900172   3.856966   1.400638   2.565663   3.827709
    15  H    2.515974   3.446514   2.145782   2.726404   4.087401
    16  C    6.583985   7.517305   4.294161   5.863635   6.751386
    17  O    7.436778   8.328859   4.990974   6.535210   7.218067
    18  C    8.803672   9.711088   6.391197   7.945572   8.646211
    19  H    9.412433  10.285635   6.933559   8.446214   9.005363
    20  H    9.107531  10.024865   6.756861   8.311710   9.065229
    21  H    9.082265  10.007213   6.756531   8.313202   9.094245
    22  O    7.118704   8.075218   5.050876   6.586794   7.605972
                    6          7          8          9         10
     6  H    0.000000
     7  C    2.709433   0.000000
     8  H    2.127039   1.086607   0.000000
     9  C    4.061331   1.388901   2.127331   0.000000
    10  H    4.560362   2.155223   2.454908   1.082193   0.000000
    11  C    5.060321   2.402612   3.375986   1.393915   2.146645
    12  C    5.056448   2.776647   3.862944   2.416810   3.394613
    13  H    6.079102   3.859779   4.945881   3.389188   4.275338
    14  C    4.048625   2.401909   3.396906   2.784602   3.866755
    15  H    4.528325   3.382920   4.294085   3.868494   4.950650
    16  C    6.482515   3.786991   4.648816   2.523844   2.738212
    17  O    6.782935   4.132993   4.753897   2.744352   2.402440
    18  C    8.202335   5.561220   6.155797   4.172432   3.748821
    19  H    8.463203   5.935395   6.362763   4.571588   3.908420
    20  H    8.655827   6.032773   6.688438   4.671598   4.357923
    21  H    8.713574   6.032066   6.685440   4.670768   4.356152
    22  O    7.439655   4.788211   5.727558   3.632155   3.938485
                   11         12         13         14         15
    11  C    0.000000
    12  C    1.394155   0.000000
    13  H    2.137773   1.083345   0.000000
    14  C    2.406489   1.387381   2.160297   0.000000
    15  H    3.390430   2.146259   2.495685   1.083906   0.000000
    16  C    1.492529   2.473686   2.639677   3.755767   4.619202
    17  O    2.358487   3.630067   3.956656   4.764946   5.729703
    18  C    3.673533   4.809927   4.902430   6.051929   6.952528
    19  H    4.373484   5.629995   5.849604   6.779875   7.742921
    20  H    4.019986   5.012375   4.966204   6.299581   7.133118
    21  H    4.019119   5.010384   4.963385   6.297307   7.129652
    22  O    2.387560   2.833944   2.504887   4.220095   4.882382
                   16         17         18         19         20
    16  C    0.000000
    17  O    1.341217   0.000000
    18  C    2.339226   1.428407   0.000000
    19  H    3.220268   2.015824   1.086586   0.000000
    20  H    2.634274   2.075330   1.090105   1.791125   0.000000
    21  H    2.633791   2.075284   1.090102   1.791107   1.775618
    22  O    1.202740   2.237517   2.621890   3.679695   2.612544
                   21         22
    21  H    0.000000
    22  O    2.612208   0.000000
 Symmetry turned off by external request.
 Stoichiometry    C8H9BO4
 Framework group  C1[X(C8H9BO4)]
 Deg. of freedom    60
 Full point group                 C1      NOp   1
 Rotational constants (GHZ):           2.6155179           0.3408563           0.3023165
 Standard basis: 6-311+G(d,p) (5D, 7F)
   340 basis functions,   540 primitive gaussians,   353 cartesian basis functions
    47 alpha electrons       47 beta electrons
       nuclear repulsion energy       727.6109739039 Hartrees.
 NAtoms=   22 NActive=   22 NUniq=   22 SFac= 1.00D+00 NAtFMM=   60 NAOKFM=F Big=F
 Integral buffers will be    131072 words long.
 Raffenetti 2 integral format.
 Two-electron integral symmetry is turned off.
 Force inversion solution in PCM.
 ------------------------------------------------------------------------------
 Polarizable Continuum Model (PCM)
 =================================
 Model                : PCM.
 Atomic radii         : SMD-Coulomb.
 Polarization charges : Total charges.
 Charge compensation  : None.
 Solution method      : Matrix inversion.
 Cavity type          : VdW (van der Waals Surface) (Alpha=1.000).
 Cavity algorithm     : GePol (No added spheres)
                        Default sphere list used, NSphG=   22.
                        Lebedev-Laikov grids with approx.  5.0 points / Ang**2.
                        Smoothing algorithm: York/Karplus (Gamma=1.0000).
                        Polarization charges: spherical gaussians, with
                                              point-specific exponents (IZeta= 3).
                        Self-potential: point-specific (ISelfS= 7).
                        Self-field    : sphere-specific E.n sum rule (ISelfD= 2).
 1st derivatives      : Analytical E(r).r(x)/FMM algorithm (CHGder, D1EAlg=3).
                        Cavity 1st derivative terms included.
 2nd derivatives      : Analytical E(r).r(xy)/FMM algorithm (CHGder, D2EAlg=3).
                        Cavity 2nd derivative terms included.
 Solvent              : TetraHydroFuran, Eps=   7.425700 Eps(inf)=   1.974025
 ------------------------------------------------------------------------------
 ------------------------------------------------------------------------------
 Atomic radii for non-electrostatic terms: SMD-CDS.
 ------------------------------------------------------------------------------
 Nuclear repulsion after PCM non-electrostatic terms =      727.6065208549 Hartrees.
 One-electron integrals computed using PRISM.
 NBasis=   340 RedAO= T EigKep=  1.81D-06  NBF=   340
 NBsUse=   339 1.00D-06 EigRej=  9.06D-07 NBFU=   339
 ExpMin= 3.15D-02 ExpMax= 8.59D+03 ExpMxC= 1.30D+03 IAcc=3 IRadAn=         5 AccDes= 0.00D+00
 Harris functional with IExCor= 1009 and IRadAn=       5 diagonalized for initial guess.
 HarFok:  IExCor= 1009 AccDes= 0.00D+00 IRadAn=         5 IDoV= 1 UseB2=F ITyADJ=14
 ICtDFT=  3500011 ScaDFX=  1.000000  1.000000  1.000000  1.000000
 FoFCou: FMM=F IPFlag=           0 FMFlag=      100000 FMFlg1=           0
         NFxFlg=           0 DoJE=T BraDBF=F KetDBF=T FulRan=T
         wScrn=  0.000000 ICntrl=       500 IOpCl=  0 I1Cent=   200000004 NGrid=           0
         NMat0=    1 NMatS0=      1 NMatT0=    0 NMatD0=    1 NMtDS0=    0 NMtDT0=    0
 Symmetry not used in FoFCou.
 Requested convergence on RMS density matrix=1.00D-08 within 128 cycles.
 Requested convergence on MAX density matrix=1.00D-06.
 Requested convergence on             energy=1.00D-06.
 Level shift goal  0.100 maximum shift  0.100.
 No special actions if energy rises.
 Dynamic level shift is on during FON iterations.
 Inv3:  Mode=1 IEnd=    11279163.
 Iteration    1 A*A^-1 deviation from unit magnitude is 6.88D-15 for   1923.
 Iteration    1 A*A^-1 deviation from orthogonality  is 2.02D-15 for   1938   1738.
 Iteration    1 A^-1*A deviation from unit magnitude is 6.44D-15 for   1923.
 Iteration    1 A^-1*A deviation from orthogonality  is 2.10D-14 for   1766   1762.
 Error on total polarization charges =  0.02238
 SCF Done:  E(RM062X) =  -636.104156328     A.U. after   14 cycles
            NFock= 14  Conv=0.71D-08     -V/T= 2.0035
 SMD-CDS (non-electrostatic) energy       (kcal/mol) =      -2.79
 (included in total energy above)
 DoSCS=F DFT=T ScalE2(SS,OS)=  1.000000  1.000000
 Range of M.O.s used for correlation:     1   339
 NBasis=   340 NAE=    47 NBE=    47 NFC=     0 NFV=     0
 NROrb=    339 NOA=    47 NOB=    47 NVA=   292 NVB=   292

 **** Warning!!: The largest alpha MO coefficient is  0.15478438D+03

 Symmetrizing basis deriv contribution to polar:
 IMax=3 JMax=2 DiffMx= 0.00D+00
 G2DrvN: will do    23 centers at a time, making    1 passes.
 Calling FoFCou, ICntrl=  3107 FMM=F I1Cent=   0 AccDes= 0.00D+00.
 NEqPCM:  Using equilibrium solvation (IEInf=0, Eps=   7.4257, EpsInf=   1.9740)
 G2PCM: DoFxE=T DoFxN=T DoGrad=T DoDP/DQ/DG/TGxP=FFFF NFrqRd=   0 IEInf=0 SqF1=F DoCFld=F IF1Alg=4.
 End of G2Drv F.D. properties file   721 does not exist.
 End of G2Drv F.D. properties file   722 does not exist.
 End of G2Drv F.D. properties file   788 does not exist.
          IDoAtm=1111111111111111111111
 NEqPCM:  Using equilibrium solvation (IEInf=0, Eps=   7.4257, EpsInf=   1.9740)
          Differentiating once with respect to nuclear coordinates.
 Keep R1 ints in memory in canonical form, NReq=1717245326.
          There are    69 degrees of freedom in the 1st order CPHF.  IDoFFX=6 NUNeed=     0.
     63 vectors produced by pass  0 Test12= 1.99D-14 1.45D-09 XBig12= 2.58D-01 1.13D-01.
 AX will form    63 AO Fock derivatives at one time.
     63 vectors produced by pass  1 Test12= 1.99D-14 1.45D-09 XBig12= 1.20D-02 2.77D-02.
     63 vectors produced by pass  2 Test12= 1.99D-14 1.45D-09 XBig12= 4.03D-04 3.10D-03.
     63 vectors produced by pass  3 Test12= 1.99D-14 1.45D-09 XBig12= 2.84D-06 2.63D-04.
     63 vectors produced by pass  4 Test12= 1.99D-14 1.45D-09 XBig12= 2.00D-08 1.55D-05.
     63 vectors produced by pass  5 Test12= 1.99D-14 1.45D-09 XBig12= 9.99D-11 8.89D-07.
     56 vectors produced by pass  6 Test12= 1.99D-14 1.45D-09 XBig12= 3.60D-13 6.25D-08.
     14 vectors produced by pass  7 Test12= 1.99D-14 1.45D-09 XBig12= 1.29D-15 3.47D-09.
 InvSVY:  IOpt=1 It=  1 EMax= 7.22D-16
 Solved reduced A of dimension   448 with    69 vectors.
 End of Minotr F.D. properties file   721 does not exist.
 End of Minotr F.D. properties file   722 does not exist.
 End of Minotr F.D. properties file   788 does not exist.

 **********************************************************************

            Population analysis using the SCF Density.

 **********************************************************************

 Alpha  occ. eigenvalues --  -19.67255 -19.63846 -19.63349 -19.61980 -10.68068
 Alpha  occ. eigenvalues --  -10.58412 -10.56608 -10.55577 -10.55494 -10.55309
 Alpha  occ. eigenvalues --  -10.55038 -10.54000  -7.08742  -1.24471  -1.17014
 Alpha  occ. eigenvalues --   -1.15046  -1.13353  -0.97568  -0.87778  -0.85474
 Alpha  occ. eigenvalues --   -0.81758  -0.72163  -0.70073  -0.66036  -0.64819
 Alpha  occ. eigenvalues --   -0.63521  -0.61622  -0.57473  -0.57167  -0.55339
 Alpha  occ. eigenvalues --   -0.52527  -0.52318  -0.49975  -0.49215  -0.48539
 Alpha  occ. eigenvalues --   -0.47745  -0.46676  -0.45873  -0.43888  -0.43244
 Alpha  occ. eigenvalues --   -0.40733  -0.40640  -0.39394  -0.38053  -0.36373
 Alpha  occ. eigenvalues --   -0.32158  -0.31907
 Alpha virt. eigenvalues --   -0.03432  -0.00002   0.01063   0.01659   0.02194
 Alpha virt. eigenvalues --    0.03030   0.03183   0.04117   0.04795   0.04884
 Alpha virt. eigenvalues --    0.05389   0.06539   0.06617   0.07964   0.08094
 Alpha virt. eigenvalues --    0.09171   0.09424   0.09557   0.12081   0.12201
 Alpha virt. eigenvalues --    0.13158   0.13880   0.13998   0.14099   0.14698
 Alpha virt. eigenvalues --    0.15000   0.15429   0.15987   0.16895   0.17226
 Alpha virt. eigenvalues --    0.18477   0.19226   0.19297   0.19707   0.20053
 Alpha virt. eigenvalues --    0.20605   0.20877   0.21708   0.22589   0.23102
 Alpha virt. eigenvalues --    0.23636   0.23963   0.24246   0.24471   0.24897
 Alpha virt. eigenvalues --    0.25305   0.25482   0.26194   0.26631   0.27800
 Alpha virt. eigenvalues --    0.27872   0.28877   0.29255   0.29431   0.30761
 Alpha virt. eigenvalues --    0.31391   0.31644   0.31964   0.32673   0.33573
 Alpha virt. eigenvalues --    0.34252   0.35030   0.35309   0.35841   0.37589
 Alpha virt. eigenvalues --    0.38312   0.39002   0.41864   0.42366   0.42831
 Alpha virt. eigenvalues --    0.44626   0.45372   0.47364   0.48887   0.49166
 Alpha virt. eigenvalues --    0.51060   0.51132   0.53201   0.54099   0.54329
 Alpha virt. eigenvalues --    0.55659   0.57426   0.58145   0.59152   0.59771
 Alpha virt. eigenvalues --    0.60662   0.61746   0.62178   0.63569   0.64129
 Alpha virt. eigenvalues --    0.65294   0.67435   0.67800   0.68035   0.68581
 Alpha virt. eigenvalues --    0.69634   0.70257   0.71027   0.72143   0.73785
 Alpha virt. eigenvalues --    0.74722   0.75757   0.76130   0.77301   0.78596
 Alpha virt. eigenvalues --    0.81059   0.82317   0.84292   0.85513   0.88978
 Alpha virt. eigenvalues --    0.90796   0.90975   0.92607   0.93258   0.95294
 Alpha virt. eigenvalues --    0.95841   0.96171   1.00303   1.01444   1.02636
 Alpha virt. eigenvalues --    1.03569   1.05486   1.06505   1.07016   1.07061
 Alpha virt. eigenvalues --    1.08743   1.09405   1.11141   1.11299   1.12848
 Alpha virt. eigenvalues --    1.13418   1.15190   1.16540   1.16822   1.17049
 Alpha virt. eigenvalues --    1.20591   1.21395   1.23249   1.24206   1.28265
 Alpha virt. eigenvalues --    1.29077   1.32649   1.35086   1.37530   1.39262
 Alpha virt. eigenvalues --    1.39516   1.41623   1.43841   1.46175   1.49254
 Alpha virt. eigenvalues --    1.49795   1.50407   1.51816   1.54085   1.55753
 Alpha virt. eigenvalues --    1.55885   1.56921   1.59208   1.59651   1.60851
 Alpha virt. eigenvalues --    1.61655   1.64434   1.66688   1.68754   1.70640
 Alpha virt. eigenvalues --    1.72333   1.74043   1.74659   1.75076   1.76360
 Alpha virt. eigenvalues --    1.77319   1.79605   1.80431   1.81096   1.85309
 Alpha virt. eigenvalues --    1.86638   1.88519   1.92328   1.93492   1.95016
 Alpha virt. eigenvalues --    1.96752   1.97055   1.97509   2.03287   2.04135
 Alpha virt. eigenvalues --    2.06121   2.06574   2.07009   2.09724   2.11009
 Alpha virt. eigenvalues --    2.14706   2.14741   2.16846   2.21075   2.22641
 Alpha virt. eigenvalues --    2.24554   2.26501   2.30881   2.36779   2.43376
 Alpha virt. eigenvalues --    2.45263   2.46607   2.48852   2.53811   2.54520
 Alpha virt. eigenvalues --    2.55519   2.57692   2.58790   2.61642   2.62395
 Alpha virt. eigenvalues --    2.65545   2.67932   2.68345   2.70125   2.71258
 Alpha virt. eigenvalues --    2.73630   2.74041   2.78667   2.78699   2.80792
 Alpha virt. eigenvalues --    2.80958   2.82337   2.84680   2.86894   2.89533
 Alpha virt. eigenvalues --    2.93366   2.94903   2.97380   2.98899   3.00136
 Alpha virt. eigenvalues --    3.07294   3.10514   3.11083   3.11308   3.14659
 Alpha virt. eigenvalues --    3.16924   3.24221   3.25066   3.26642   3.28917
 Alpha virt. eigenvalues --    3.30513   3.31699   3.36258   3.40663   3.44310
 Alpha virt. eigenvalues --    3.44918   3.48467   3.53968   3.56262   3.60291
 Alpha virt. eigenvalues --    3.62828   3.65625   3.66428   3.70174   3.78457
 Alpha virt. eigenvalues --    3.83248   3.91589   3.92897   3.95164   4.05256
 Alpha virt. eigenvalues --    4.09813   4.12211   4.17468   4.20691   4.24777
 Alpha virt. eigenvalues --    4.41242   4.86759   5.08304   5.09238   5.09984
 Alpha virt. eigenvalues --    5.16344   5.34790   5.39745   5.49239   5.49799
 Alpha virt. eigenvalues --    5.69028   5.76847   5.78248   5.95215  14.79444
 Alpha virt. eigenvalues --   23.70109  23.94197  24.01409  24.02658  24.03788
 Alpha virt. eigenvalues --   24.13369  24.18628  24.25951  50.00857  50.01829
 Alpha virt. eigenvalues --   50.05209  50.15770
          Condensed to atoms (all electrons):
               1          2          3          4          5          6
     1  O    7.796017   0.285372  -0.051303   0.434220  -0.128304   0.016789
     2  H    0.285372   0.416067   0.058400  -0.007197  -0.026929   0.002516
     3  C   -0.051303   0.058400   9.676238   0.237107  -0.176546  -0.008891
     4  B    0.434220  -0.007197   0.237107   3.329915   0.379128   0.012858
     5  O   -0.128304  -0.026929  -0.176546   0.379128   7.956393   0.273879
     6  H    0.016789   0.002516  -0.008891   0.012858   0.273879   0.392203
     7  C    0.033002   0.010299  -0.466359   0.110327  -0.073217  -0.036855
     8  H    0.002230   0.000002  -0.019437   0.009676  -0.005431   0.008496
     9  C    0.079103   0.010819  -1.044377   0.072793   0.005463   0.070424
    10  H   -0.000050  -0.000001  -0.020465  -0.000441   0.000199  -0.000030
    11  C   -0.013454  -0.003427  -1.292646   0.012351   0.020457  -0.003291
    12  C   -0.006296  -0.017416  -0.954682  -0.022172   0.020387   0.000848
    13  H    0.000372   0.000003   0.014163   0.000024  -0.000026   0.000002
    14  C   -0.064046  -0.052876   0.707488  -0.040914   0.148155  -0.017018
    15  H    0.002057  -0.000216  -0.004261  -0.008011   0.001642  -0.000040
    16  C    0.002091   0.000182  -0.266740  -0.027977  -0.001708   0.000125
    17  O    0.000003   0.000000  -0.006351   0.000454   0.000008  -0.000003
    18  C    0.000043   0.000001  -0.007151   0.000346  -0.000027   0.000008
    19  H    0.000000   0.000000  -0.000330  -0.000005   0.000000   0.000000
    20  H    0.000000   0.000000   0.000231   0.000003   0.000000   0.000000
    21  H    0.000000   0.000000   0.000261   0.000005   0.000000   0.000000
    22  O   -0.000019   0.000000  -0.003991   0.000210   0.000004   0.000000
               7          8          9         10         11         12
     1  O    0.033002   0.002230   0.079103  -0.000050  -0.013454  -0.006296
     2  H    0.010299   0.000002   0.010819  -0.000001  -0.003427  -0.017416
     3  C   -0.466359  -0.019437  -1.044377  -0.020465  -1.292646  -0.954682
     4  B    0.110327   0.009676   0.072793  -0.000441   0.012351  -0.022172
     5  O   -0.073217  -0.005431   0.005463   0.000199   0.020457   0.020387
     6  H   -0.036855   0.008496   0.070424  -0.000030  -0.003291   0.000848
     7  C   19.140787   0.252988 -11.291639   0.094685   1.650617  -1.862990
     8  H    0.252988   0.485102   0.141482  -0.006123  -0.019933  -0.003324
     9  C  -11.291639   0.141482  21.293228   0.273906  -1.949587   0.339975
    10  H    0.094685  -0.006123   0.273906   0.444346  -0.029682  -0.033152
    11  C    1.650617  -0.019933  -1.949587  -0.029682  16.589247   1.430663
    12  C   -1.862990  -0.003324   0.339975  -0.033152   1.430663   8.244123
    13  H   -0.022695   0.000071  -0.007771  -0.000091  -0.097114   0.381927
    14  C    0.415674  -0.039036  -3.474424   0.002403  -1.259207  -0.173180
    15  H   -0.017881  -0.000063   0.005681   0.000033   0.022352  -0.049348
    16  C   -1.607477   0.020086   1.924652   0.065653  -8.517550  -1.009802
    17  O    0.040361   0.000514   0.058822   0.008603  -0.802347  -0.046345
    18  C   -0.138912   0.000393   0.042225  -0.000856  -0.675278  -0.021113
    19  H    0.000926  -0.000001  -0.021868   0.000176   0.041875   0.009883
    20  H   -0.002097   0.000000   0.004439  -0.000027   0.006588  -0.005765
    21  H   -0.001678   0.000000   0.006139  -0.000024   0.005810  -0.007203
    22  O    0.136698  -0.000036  -0.092113   0.000024   0.150795  -0.031252
              13         14         15         16         17         18
     1  O    0.000372  -0.064046   0.002057   0.002091   0.000003   0.000043
     2  H    0.000003  -0.052876  -0.000216   0.000182   0.000000   0.000001
     3  C    0.014163   0.707488  -0.004261  -0.266740  -0.006351  -0.007151
     4  B    0.000024  -0.040914  -0.008011  -0.027977   0.000454   0.000346
     5  O   -0.000026   0.148155   0.001642  -0.001708   0.000008  -0.000027
     6  H    0.000002  -0.017018  -0.000040   0.000125  -0.000003   0.000008
     7  C   -0.022695   0.415674  -0.017881  -1.607477   0.040361  -0.138912
     8  H    0.000071  -0.039036  -0.000063   0.020086   0.000514   0.000393
     9  C   -0.007771  -3.474424   0.005681   1.924652   0.058822   0.042225
    10  H   -0.000091   0.002403   0.000033   0.065653   0.008603  -0.000856
    11  C   -0.097114  -1.259207   0.022352  -8.517550  -0.802347  -0.675278
    12  C    0.381927  -0.173180  -0.049348  -1.009802  -0.046345  -0.021113
    13  H    0.447677  -0.009964  -0.004593   0.090396   0.001710   0.002035
    14  C   -0.009964   9.553626   0.391340   0.159530   0.014860   0.013955
    15  H   -0.004593   0.391340   0.454077   0.005929   0.000079   0.000010
    16  C    0.090396   0.159530   0.005929  14.134717   0.517333   0.377080
    17  O    0.001710   0.014860   0.000079   0.517333   8.405204   0.237429
    18  C    0.002035   0.013955   0.000010   0.377080   0.237429   5.280183
    19  H   -0.000002   0.001505   0.000000   0.014680  -0.065118   0.386224
    20  H   -0.000008  -0.001657   0.000000  -0.012851  -0.031428   0.425474
    21  H   -0.000008  -0.002037   0.000000  -0.012737  -0.031085   0.425554
    22  O    0.004305   0.078554  -0.000074   0.168738  -0.189818  -0.108740
              19         20         21         22
     1  O    0.000000   0.000000   0.000000  -0.000019
     2  H    0.000000   0.000000   0.000000   0.000000
     3  C   -0.000330   0.000231   0.000261  -0.003991
     4  B   -0.000005   0.000003   0.000005   0.000210
     5  O    0.000000   0.000000   0.000000   0.000004
     6  H    0.000000   0.000000   0.000000   0.000000
     7  C    0.000926  -0.002097  -0.001678   0.136698
     8  H   -0.000001   0.000000   0.000000  -0.000036
     9  C   -0.021868   0.004439   0.006139  -0.092113
    10  H    0.000176  -0.000027  -0.000024   0.000024
    11  C    0.041875   0.006588   0.005810   0.150795
    12  C    0.009883  -0.005765  -0.007203  -0.031252
    13  H   -0.000002  -0.000008  -0.000008   0.004305
    14  C    0.001505  -0.001657  -0.002037   0.078554
    15  H    0.000000   0.000000   0.000000  -0.000074
    16  C    0.014680  -0.012851  -0.012737   0.168738
    17  O   -0.065118  -0.031428  -0.031085  -0.189818
    18  C    0.386224   0.425474   0.425554  -0.108740
    19  H    0.479529  -0.021952  -0.021936   0.004600
    20  H   -0.021952   0.489171  -0.034082  -0.004631
    21  H   -0.021936  -0.034082   0.489519  -0.004865
    22  O    0.004600  -0.004631  -0.004865   8.210682
 Mulliken charges:
               1
     1  O   -0.387829
     2  H    0.324401
     3  C   -0.370360
     4  B    0.507299
     5  O   -0.393528
     6  H    0.287981
     7  C   -0.364566
     8  H    0.172345
     9  C   -0.447374
    10  H    0.200913
    11  C    0.732760
    12  C   -0.183764
    13  H    0.199589
    14  C   -0.352731
    15  H    0.201287
    16  C   -0.024350
    17  O   -0.112887
    18  C   -0.238885
    19  H    0.191811
    20  H    0.188591
    21  H    0.188369
    22  O   -0.319071
 Sum of Mulliken charges =   0.00000
 Mulliken charges with hydrogens summed into heavy atoms:
               1
     1  O   -0.063428
     3  C   -0.370360
     4  B    0.507299
     5  O   -0.105547
     7  C   -0.192221
     9  C   -0.246461
    11  C    0.732760
    12  C    0.015824
    14  C   -0.151443
    16  C   -0.024350
    17  O   -0.112887
    18  C    0.329886
    22  O   -0.319071
 APT charges:
               1
     1  O   -0.572712
     2  H    1.959167
     3  C   -0.612862
     4  B   -0.305300
     5  O    1.137784
     6  H   -1.063251
     7  C    0.430338
     8  H   -0.208440
     9  C    0.071826
    10  H   -0.750003
    11  C   -0.131372
    12  C   -0.688660
    13  H    1.271033
    14  C   -1.495445
    15  H    1.851815
    16  C   -1.280661
    17  O   -0.455538
    18  C   -1.023319
    19  H   -0.440190
    20  H    1.639950
    21  H    0.024352
    22  O    0.641488
 Sum of APT charges =   0.00000
 APT charges with hydrogens summed into heavy atoms:
               1
     1  O    1.386455
     3  C   -0.612862
     4  B   -0.305300
     5  O    0.074532
     7  C    0.221899
     9  C   -0.678177
    11  C   -0.131372
    12  C    0.582373
    14  C    0.356369
    16  C   -1.280661
    17  O   -0.455538
    18  C    0.200794
    22  O    0.641488
 Electronic spatial extent (au):  <R**2>=          36620.8690
 Charge=              0.0000 electrons
 Dipole moment (field-independent basis, Debye):
    X=             -1.1650    Y=             -3.1406    Z=              1.6943  Tot=              3.7539
 Quadrupole moment (field-independent basis, Debye-Ang):
   XX=            -71.5888   YY=           -122.7583   ZZ=            -60.6083
   XY=            -20.0044   XZ=              4.4563   YZ=             -2.7768
 Traceless Quadrupole moment (field-independent basis, Debye-Ang):
   XX=             13.3963   YY=            -37.7732   ZZ=             24.3768
   XY=            -20.0044   XZ=              4.4563   YZ=             -2.7768
 Octapole moment (field-independent basis, Debye-Ang**2):
  XXX=           -958.3956  YYY=          -2256.7097  ZZZ=           -951.5458  XYY=           -571.8925
  XXY=           -576.4671  XXZ=           -282.5011  XZZ=           -285.5224  YZZ=           -541.8320
  YYZ=           -470.5257  XYZ=            -31.5902
 Hexadecapole moment (field-independent basis, Debye-Ang**3):
 XXXX=         -11430.2214 YYYY=         -32216.3334 ZZZZ=          -9630.1257 XXXY=          -7016.8410
 XXXZ=          -4530.6505 YYYX=          -9711.7296 YYYZ=          -9314.6782 ZZZX=          -4823.7323
 ZZZY=          -7451.2083 XXYY=          -6815.0958 XXZZ=          -3302.5750 YYZZ=          -6374.0111
 XXYZ=          -2299.6534 YYXZ=          -2397.3316 ZZXY=          -2422.9410
 N-N= 7.276065208549D+02 E-N=-2.944130480850D+03  KE= 6.338880597512D+02
  Exact polarizability:       0.000       0.000       0.000       0.000       0.000       0.000
 Approx polarizability:     165.608       0.882     148.450      13.063     -30.677     107.827
 D2PCM: PCM CHGder 2nd derivatives, FixD1E=F FixD2E=F DoIter=F DoCFld=F I1PDM=0
 Calling FoFJK, ICntrl=    100127 FMM=F ISym2X=0 I1Cent= 0 IOpClX= 0 NMat=1 NMatS=1 NMatT=0.
 -------------------------------------------------------------------
 Center     Atomic                   Forces (Hartrees/Bohr)
 Number     Number              X              Y              Z
 -------------------------------------------------------------------
      1        8          -0.001164785    0.001762094   -0.001489159
      2        1           0.002581565   -0.000852455    0.000963304
      3        6          -0.000795524    0.000535562   -0.000495758
      4        5          -0.000188564   -0.002014181    0.001387205
      5        8           0.002944793    0.002272225   -0.001040866
      6        1          -0.002945775   -0.001968673    0.000846432
      7        6           0.000050859   -0.001782333    0.000833176
      8        1          -0.000430841    0.000266299   -0.000106738
      9        6          -0.000415974    0.000489068   -0.000424407
     10        1           0.000368411   -0.000709899    0.000454101
     11        6          -0.000201761    0.000565756   -0.000319376
     12        6          -0.000307171    0.000414900   -0.000280007
     13        1           0.001038693    0.000301740    0.000019492
     14        6           0.000480094    0.000103031    0.000053806
     15        1          -0.000345911    0.000799860   -0.000388579
     16        6          -0.002723969   -0.007039891    0.003082027
     17        8           0.005412405    0.002555309   -0.000359255
     18        6          -0.001417146    0.001052933   -0.000778181
     19        1          -0.000598743    0.000127162   -0.000172204
     20        1          -0.000808985   -0.000218266    0.000708065
     21        1          -0.000605630   -0.000760754   -0.000429511
     22        8           0.000073960    0.004100514   -0.002063565
 -------------------------------------------------------------------
 Cartesian Forces:  Max     0.007039891 RMS     0.001692455
 FormGI is forming the generalized inverse of G from B-inverse, IUseBI=4.

 GradGradGradGradGradGradGradGradGradGradGradGradGradGradGradGradGradGrad
 Berny optimization.
 Internal  Forces:  Max     0.004548742 RMS     0.001028646
 Search for a local minimum.
 Step number   1 out of a maximum of  106
 All quantities printed in internal units (Hartrees-Bohrs-Radians)
 Mixed Optimization -- RFO/linear search
 Second derivative matrix not updated -- analytic derivatives used.
 ITU=  0
     Eigenvalues ---    0.00086   0.00274   0.00432   0.01021   0.01350
     Eigenvalues ---    0.01517   0.01700   0.01763   0.02077   0.02166
     Eigenvalues ---    0.02216   0.02461   0.02695   0.02769   0.02865
     Eigenvalues ---    0.03887   0.07103   0.08348   0.08442   0.10565
     Eigenvalues ---    0.11085   0.11206   0.11578   0.11978   0.12663
     Eigenvalues ---    0.13472   0.15684   0.17636   0.18463   0.18592
     Eigenvalues ---    0.19130   0.19184   0.19200   0.19827   0.20873
     Eigenvalues ---    0.23853   0.25896   0.26902   0.28846   0.29427
     Eigenvalues ---    0.34676   0.34992   0.35759   0.35774   0.36490
     Eigenvalues ---    0.36544   0.36910   0.38434   0.38929   0.39565
     Eigenvalues ---    0.42443   0.44322   0.47752   0.48018   0.49201
     Eigenvalues ---    0.49795   0.52112   0.54589   0.55681   0.91105
 RFO step:  Lambda=-3.19912291D-04 EMin= 8.58308268D-04
 Linear search not attempted -- first point.
 Iteration  1 RMS(Cart)=  0.01408989 RMS(Int)=  0.00009973
 Iteration  2 RMS(Cart)=  0.00012953 RMS(Int)=  0.00000395
 Iteration  3 RMS(Cart)=  0.00000001 RMS(Int)=  0.00000395
 Variable       Old X    -DE/DX   Delta X   Delta X   Delta X     New X
                                 (Linear)    (Quad)   (Total)
    R1        1.81707   0.00287   0.00000   0.00516   0.00516   1.82223
    R2        2.57186   0.00177   0.00000   0.00420   0.00420   2.57605
    R3        2.96755   0.00155   0.00000   0.00601   0.00601   2.97356
    R4        2.64366   0.00086   0.00000   0.00170   0.00170   2.64536
    R5        2.64682   0.00112   0.00000   0.00150   0.00150   2.64832
    R6        2.58409  -0.00036   0.00000  -0.00226  -0.00226   2.58183
    R7        1.81123   0.00363   0.00000   0.00664   0.00664   1.81787
    R8        2.05339  -0.00031   0.00000  -0.00096  -0.00096   2.05243
    R9        2.62464   0.00045   0.00000   0.00153   0.00153   2.62617
   R10        2.04505   0.00015   0.00000   0.00052   0.00052   2.04557
   R11        2.63412   0.00106   0.00000   0.00165   0.00165   2.63576
   R12        2.63457   0.00103   0.00000   0.00140   0.00140   2.63597
   R13        2.82047   0.00052   0.00000   0.00196   0.00196   2.82243
   R14        2.04723   0.00016   0.00000   0.00029   0.00029   2.04752
   R15        2.62177   0.00017   0.00000   0.00104   0.00104   2.62281
   R16        2.04829   0.00022   0.00000   0.00055   0.00055   2.04883
   R17        2.53453  -0.00340   0.00000  -0.01320  -0.01320   2.52133
   R18        2.27285   0.00455   0.00000   0.00670   0.00670   2.27955
   R19        2.69930   0.00334   0.00000   0.00867   0.00867   2.70797
   R20        2.05335   0.00025   0.00000   0.00090   0.00090   2.05425
   R21        2.06000   0.00033   0.00000   0.00036   0.00036   2.06036
   R22        2.05999   0.00031   0.00000   0.00025   0.00025   2.06025
    A1        1.95980   0.00049   0.00000   0.00226   0.00226   1.96206
    A2        2.13797  -0.00018   0.00000  -0.00007  -0.00007   2.13790
    A3        2.08270   0.00019   0.00000   0.00120   0.00120   2.08390
    A4        2.06252  -0.00001   0.00000  -0.00114  -0.00114   2.06138
    A5        2.06068  -0.00043   0.00000  -0.00404  -0.00404   2.05664
    A6        2.05863   0.00004   0.00000   0.00089   0.00089   2.05952
    A7        2.16387   0.00039   0.00000   0.00316   0.00316   2.16702
    A8        2.00160   0.00020   0.00000   0.00103   0.00103   2.00263
    A9        2.10510   0.00061   0.00000   0.00482   0.00482   2.10991
   A10        2.11905  -0.00038   0.00000  -0.00169  -0.00169   2.11735
   A11        2.05901  -0.00022   0.00000  -0.00310  -0.00311   2.05591
   A12        2.11051  -0.00120   0.00000  -0.00960  -0.00960   2.10090
   A13        2.08384   0.00054   0.00000   0.00363   0.00363   2.08747
   A14        2.08884   0.00066   0.00000   0.00597   0.00597   2.09481
   A15        2.09766  -0.00038   0.00000  -0.00308  -0.00308   2.09457
   A16        2.12766  -0.00036   0.00000  -0.00137  -0.00137   2.12629
   A17        2.05787   0.00073   0.00000   0.00445   0.00445   2.06232
   A18        2.07252   0.00111   0.00000   0.00917   0.00917   2.08169
   A19        2.09096  -0.00002   0.00000   0.00045   0.00045   2.09141
   A20        2.11971  -0.00108   0.00000  -0.00962  -0.00962   2.11009
   A21        2.11233   0.00025   0.00000   0.00183   0.00183   2.11416
   A22        2.07533   0.00082   0.00000   0.00690   0.00690   2.08222
   A23        2.09553  -0.00108   0.00000  -0.00873  -0.00873   2.08680
   A24        1.96453  -0.00029   0.00000   0.00125   0.00125   1.96578
   A25        2.17046  -0.00054   0.00000  -0.00509  -0.00509   2.16537
   A26        2.14819   0.00084   0.00000   0.00385   0.00385   2.15204
   A27        2.01101   0.00354   0.00000   0.01157   0.01157   2.02258
   A28        1.84566   0.00026   0.00000  -0.00096  -0.00097   1.84469
   A29        1.92437   0.00053   0.00000   0.00091   0.00090   1.92527
   A30        1.92431   0.00058   0.00000   0.00162   0.00161   1.92592
   A31        1.93287  -0.00096   0.00000  -0.00646  -0.00647   1.92640
   A32        1.93285  -0.00094   0.00000  -0.00626  -0.00627   1.92658
   A33        1.90348   0.00051   0.00000   0.01070   0.01068   1.91416
    D1        3.12624   0.00004   0.00000   0.00393   0.00393   3.13017
    D2       -0.01083  -0.00002   0.00000   0.00261   0.00261  -0.00823
    D3        3.02732  -0.00003   0.00000   0.01791   0.01791   3.04523
    D4       -0.11909   0.00003   0.00000   0.01931   0.01931  -0.09978
    D5       -0.11402  -0.00005   0.00000   0.01716   0.01716  -0.09686
    D6        3.02276   0.00001   0.00000   0.01856   0.01856   3.04132
    D7       -0.01472   0.00004   0.00000   0.00391   0.00391  -0.01081
    D8        3.13521  -0.00001   0.00000   0.00042   0.00042   3.13563
    D9        3.12662   0.00006   0.00000   0.00465   0.00465   3.13127
   D10       -0.00664   0.00001   0.00000   0.00116   0.00116  -0.00548
   D11       -3.13332   0.00001   0.00000  -0.00073  -0.00073  -3.13405
   D12        0.00678  -0.00002   0.00000  -0.00156  -0.00156   0.00522
   D13        0.00851  -0.00001   0.00000  -0.00145  -0.00145   0.00707
   D14       -3.13457  -0.00004   0.00000  -0.00228  -0.00228  -3.13685
   D15        3.09333   0.00017   0.00000   0.01752   0.01752   3.11085
   D16       -0.04346   0.00011   0.00000   0.01613   0.01613  -0.02733
   D17        3.14023   0.00004   0.00000   0.00177   0.00176  -3.14120
   D18        0.00096  -0.00001   0.00000  -0.00043  -0.00043   0.00053
   D19        0.00676  -0.00001   0.00000  -0.00166  -0.00166   0.00509
   D20       -3.13251  -0.00007   0.00000  -0.00386  -0.00385  -3.13636
   D21        0.00303   0.00002   0.00000  -0.00004  -0.00004   0.00300
   D22       -3.14080   0.00007   0.00000   0.00306   0.00306  -3.13774
   D23       -3.13626  -0.00003   0.00000  -0.00219  -0.00220  -3.13846
   D24        0.00309   0.00001   0.00000   0.00091   0.00090   0.00399
   D25        3.13894   0.00001   0.00000   0.00062   0.00062   3.13956
   D26       -0.00118  -0.00002   0.00000  -0.00025  -0.00025  -0.00144
   D27       -0.00050  -0.00004   0.00000  -0.00236  -0.00236  -0.00286
   D28       -3.14062  -0.00006   0.00000  -0.00323  -0.00324   3.13933
   D29       -0.00014   0.00000   0.00000  -0.00439  -0.00440  -0.00454
   D30       -3.14158  -0.00005   0.00000  -0.00546  -0.00546   3.13615
   D31        3.13925   0.00005   0.00000  -0.00136  -0.00136   3.13789
   D32       -0.00218  -0.00001   0.00000  -0.00243  -0.00242  -0.00460
   D33       -0.00472   0.00002   0.00000   0.00102   0.00102  -0.00370
   D34        3.13838   0.00005   0.00000   0.00184   0.00184   3.14022
   D35        3.13839  -0.00001   0.00000   0.00011   0.00011   3.13850
   D36       -0.00170   0.00002   0.00000   0.00093   0.00093  -0.00077
   D37       -3.14070  -0.00013   0.00000  -0.00573  -0.00573   3.13676
   D38        0.00073  -0.00008   0.00000  -0.00468  -0.00468  -0.00394
   D39        3.14104   0.00000   0.00000   0.00015   0.00015   3.14119
   D40       -1.05192  -0.00071   0.00000  -0.00764  -0.00765  -1.05957
   D41        1.05088   0.00065   0.00000   0.00732   0.00733   1.05821
         Item               Value     Threshold  Converged?
 Maximum Force            0.004549     0.000015     NO 
 RMS     Force            0.001029     0.000010     NO 
 Maximum Displacement     0.052019     0.000060     NO 
 RMS     Displacement     0.014099     0.000040     NO 
 Predicted change in Energy=-1.605375D-04
 GradGradGradGradGradGradGradGradGradGradGradGradGradGradGradGradGradGrad

                          Input orientation:                          
 ---------------------------------------------------------------------
 Center     Atomic      Atomic             Coordinates (Angstroms)
 Number     Number       Type             X           Y           Z
 ---------------------------------------------------------------------
      1          8           0        8.732811    7.314550    5.374728
      2          1           0        9.556347    6.963652    5.733200
      3          6           0        6.240179    7.012226    5.193168
      4          5           0        7.654848    6.546546    5.700991
      5          8           0        7.869838    5.424619    6.450447
      6          1           0        7.074605    4.932437    6.675747
      7          6           0        5.085348    6.241908    5.373717
      8          1           0        5.130759    5.276875    5.869968
      9          6           0        3.846629    6.680300    4.921297
     10          1           0        2.963339    6.072350    5.069397
     11          6           0        3.745992    7.911235    4.273145
     12          6           0        4.885011    8.692724    4.079121
     13          1           0        4.793397    9.646081    3.572473
     14          6           0        6.116666    8.242788    4.534020
     15          1           0        6.999406    8.853088    4.379793
     16          6           0        2.439466    8.432679    3.771321
     17          8           0        1.427171    7.597115    4.010625
     18          6           0        0.137463    8.032346    3.562626
     19          1           0       -0.552617    7.238736    3.837728
     20          1           0       -0.139807    8.964359    4.055792
     21          1           0        0.140044    8.175631    2.481850
     22          8           0        2.305221    9.492428    3.210935
 ---------------------------------------------------------------------
                    Distance matrix (angstroms):
                    1          2          3          4          5
     1  O    0.000000
     2  H    0.964284   0.000000
     3  C    2.517455   3.360203   0.000000
     4  B    1.363188   1.946976   1.573540   0.000000
     5  O    2.339601   2.393195   2.599430   1.366245   0.000000
     6  H    3.180686   3.342645   2.686974   1.972861   0.961976
     7  C    3.801914   4.543124   1.399866   2.608111   3.095270
     8  H    4.167993   4.738118   2.168022   2.830485   2.803808
     9  C    4.947995   5.774111   2.431702   3.889517   4.483442
    10  H    5.909577   6.686016   3.411213   4.757523   5.138150
    11  C    5.141778   6.065468   2.806355   4.379528   5.284885
    12  C    4.287602   5.248529   2.429333   3.861158   5.021244
    13  H    4.919669   5.877913   3.414238   4.724998   5.963889
    14  C    2.900453   3.860780   1.401433   2.570031   3.832542
    15  H    2.522239   3.455377   2.150994   2.737755   4.098739
    16  C    6.589941   7.527085   4.299390   5.872081   6.761293
    17  O    7.437271   8.333790   4.990547   6.537966   7.223603
    18  C    8.813567   9.724653   6.398630   7.955582   8.656175
    19  H    9.412082  10.288811   6.930412   8.444723   9.003059
    20  H    9.120571  10.041511   6.768211   8.325211   9.078466
    21  H    9.107462  10.035285   6.776165   8.336010   9.114140
    22  O    7.123137   8.083030   5.056140   6.595234   7.616199
                    6          7          8          9         10
     6  H    0.000000
     7  C    2.714248   0.000000
     8  H    2.132242   1.086102   0.000000
     9  C    4.068532   1.389711   2.125693   0.000000
    10  H    4.558757   2.150414   2.443645   1.082469   0.000000
    11  C    5.072021   2.406612   3.377466   1.394786   2.151294
    12  C    5.067203   2.778959   3.864654   2.416060   3.397033
    13  H    6.087090   3.862397   4.947955   3.392867   4.285026
    14  C    4.057470   2.402547   3.399031   2.782880   3.865347
    15  H    4.544069   3.386704   4.301367   3.867070   4.949535
    16  C    6.493989   3.790493   4.648276   2.524556   2.744194
    17  O    6.789470   4.132416   4.749446   2.742927   2.409507
    18  C    8.211266   5.564825   6.152191   4.175156   3.754667
    19  H    8.458598   5.927864   6.346625   4.565012   3.903769
    20  H    8.669965   6.037459   6.683385   4.675221   4.361265
    21  H    8.728987   6.046339   6.692486   4.682487   4.369232
    22  O    7.452883   4.792976   5.729312   3.634466   3.947650
                   11         12         13         14         15
    11  C    0.000000
    12  C    1.394895   0.000000
    13  H    2.144222   1.083501   0.000000
    14  C    2.407920   1.387931   2.155191   0.000000
    15  H    3.388681   2.141678   2.479330   1.084196   0.000000
    16  C    1.493567   2.478519   2.655725   3.760262   4.619527
    17  O    2.354681   3.627907   3.965062   4.762584   5.723946
    18  C    3.679808   4.821004   4.927673   6.061251   6.958997
    19  H    4.372629   5.633839   5.869032   6.780286   7.741641
    20  H    4.031842   5.032209   5.003483   6.316077   7.147427
    21  H    4.035035   5.033227   5.000538   6.319488   7.149264
    22  O    2.388365   2.837004   2.518996   4.223657   4.879586
                   16         17         18         19         20
    16  C    0.000000
    17  O    1.334232   0.000000
    18  C    2.345855   1.432995   0.000000
    19  H    3.222184   2.019378   1.087064   0.000000
    20  H    2.648822   2.080100   1.090294   1.787663   0.000000
    21  H    2.648802   2.080512   1.090236   1.787724   1.782612
    22  O    1.206285   2.236669   2.637177   3.693133   2.640228
                   21         22
    21  H    0.000000
    22  O    2.636951   0.000000
 Symmetry turned off by external request.
 Stoichiometry    C8H9BO4
 Framework group  C1[X(C8H9BO4)]
 Deg. of freedom    60
 Full point group                 C1      NOp   1
 Rotational constants (GHZ):           2.6077874           0.3402713           0.3017058
 Standard basis: 6-311+G(d,p) (5D, 7F)
   340 basis functions,   540 primitive gaussians,   353 cartesian basis functions
    47 alpha electrons       47 beta electrons
       nuclear repulsion energy       726.9456909888 Hartrees.
 NAtoms=   22 NActive=   22 NUniq=   22 SFac= 1.00D+00 NAtFMM=   60 NAOKFM=F Big=F
 Integral buffers will be    131072 words long.
 Raffenetti 2 integral format.
 Two-electron integral symmetry is turned off.
 ------------------------------------------------------------------------------
 Polarizable Continuum Model (PCM)
 =================================
 Model                : PCM.
 Atomic radii         : SMD-Coulomb.
 Polarization charges : Total charges.
 Charge compensation  : None.
 Solution method      : Matrix inversion.
 Cavity type          : VdW (van der Waals Surface) (Alpha=1.000).
 Cavity algorithm     : GePol (No added spheres)
                        Default sphere list used, NSphG=   22.
                        Lebedev-Laikov grids with approx.  5.0 points / Ang**2.
                        Smoothing algorithm: York/Karplus (Gamma=1.0000).
                        Polarization charges: spherical gaussians, with
                                              point-specific exponents (IZeta= 3).
                        Self-potential: point-specific (ISelfS= 7).
                        Self-field    : sphere-specific E.n sum rule (ISelfD= 2).
 1st derivatives      : Analytical E(r).r(x)/FMM algorithm (CHGder, D1EAlg=3).
                        Cavity 1st derivative terms included.
 Solvent              : TetraHydroFuran, Eps=   7.425700 Eps(inf)=   1.974025
 ------------------------------------------------------------------------------
 ------------------------------------------------------------------------------
 Atomic radii for non-electrostatic terms: SMD-CDS.
 ------------------------------------------------------------------------------
 Nuclear repulsion after PCM non-electrostatic terms =      726.9412193478 Hartrees.
 One-electron integrals computed using PRISM.
 NBasis=   340 RedAO= T EigKep=  1.80D-06  NBF=   340
 NBsUse=   339 1.00D-06 EigRej=  9.08D-07 NBFU=   339
 Initial guess from the checkpoint file:  "4-cooch3-phboh2-opt-freq-thf.chk"
 B after Tr=     0.009040    0.008442   -0.016752
         Rot=    1.000000   -0.000161    0.000613    0.000134 Ang=  -0.07 deg.
 ExpMin= 3.15D-02 ExpMax= 8.59D+03 ExpMxC= 1.30D+03 IAcc=3 IRadAn=         5 AccDes= 0.00D+00
 Harris functional with IExCor= 1009 and IRadAn=       5 diagonalized for initial guess.
 HarFok:  IExCor= 1009 AccDes= 0.00D+00 IRadAn=         5 IDoV= 1 UseB2=F ITyADJ=14
 ICtDFT=  3500011 ScaDFX=  1.000000  1.000000  1.000000  1.000000
 FoFCou: FMM=F IPFlag=           0 FMFlag=      100000 FMFlg1=           0
         NFxFlg=           0 DoJE=T BraDBF=F KetDBF=T FulRan=T
         wScrn=  0.000000 ICntrl=       500 IOpCl=  0 I1Cent=   200000004 NGrid=           0
         NMat0=    1 NMatS0=      1 NMatT0=    0 NMatD0=    1 NMtDS0=    0 NMtDT0=    0
 Symmetry not used in FoFCou.
 Requested convergence on RMS density matrix=1.00D-08 within 128 cycles.
 Requested convergence on MAX density matrix=1.00D-06.
 Requested convergence on             energy=1.00D-06.
 Level shift goal  0.100 maximum shift  0.100.
 No special actions if energy rises.
 Dynamic level shift is on during FON iterations.
 Inv3:  Mode=1 IEnd=    11290800.
 Iteration    1 A*A^-1 deviation from unit magnitude is 6.22D-15 for   1936.
 Iteration    1 A*A^-1 deviation from orthogonality  is 1.63D-15 for   1930   1739.
 Iteration    1 A^-1*A deviation from unit magnitude is 6.44D-15 for   1936.
 Iteration    1 A^-1*A deviation from orthogonality  is 2.25D-15 for   1912   1764.
 Error on total polarization charges =  0.02243
 SCF Done:  E(RM062X) =  -636.104317399     A.U. after   12 cycles
            NFock= 12  Conv=0.41D-08     -V/T= 2.0036
 SMD-CDS (non-electrostatic) energy       (kcal/mol) =      -2.81
 (included in total energy above)
 D1PCM: PCM CHGder 1st derivatives, ID1Alg=3 FixD1E=F DoIter=F DoCFld=F I1PDM=0.
 Calling FoFJK, ICntrl=      2127 FMM=F ISym2X=0 I1Cent= 0 IOpClX= 0 NMat=1 NMatS=1 NMatT=0.
 -------------------------------------------------------------------
 Center     Atomic                   Forces (Hartrees/Bohr)
 Number     Number              X              Y              Z
 -------------------------------------------------------------------
      1        8          -0.000014083    0.000016931   -0.000014241
      2        1           0.000023280   -0.000011927    0.000012180
      3        6          -0.000006481    0.000000991   -0.000006516
      4        5          -0.000000624   -0.000011279    0.000002503
      5        8           0.000023419    0.000036622    0.000007650
      6        1          -0.000044006   -0.000039505   -0.000010778
      7        6          -0.000000292   -0.000009198    0.000011740
      8        1           0.000018045   -0.000008452    0.000004041
      9        6          -0.000004070    0.000000204   -0.000008835
     10        1          -0.000001389   -0.000002133   -0.000004776
     11        6           0.000004525    0.000001745    0.000000419
     12        6          -0.000004892    0.000005301   -0.000000588
     13        1           0.000006123    0.000007007    0.000003667
     14        6           0.000008550   -0.000000595    0.000002271
     15        1          -0.000000984    0.000004865    0.000005611
     16        6           0.000103872    0.000006041    0.000018570
     17        8          -0.000058150   -0.000058192    0.000019298
     18        6          -0.000047542    0.000007754   -0.000012990
     19        1          -0.000000722   -0.000003858   -0.000003698
     20        1          -0.000007004   -0.000001181    0.000006033
     21        1          -0.000008077   -0.000002433   -0.000004473
     22        8           0.000010503    0.000061292   -0.000027087
 -------------------------------------------------------------------
 Cartesian Forces:  Max     0.000103872 RMS     0.000022690

 GradGradGradGradGradGradGradGradGradGradGradGradGradGradGradGradGradGrad
 Berny optimization.
 Using GEDIIS/GDIIS optimizer.
 FormGI is forming the generalized inverse of G from B-inverse, IUseBI=4.
 Internal  Forces:  Max     0.000136959 RMS     0.000022325
 Search for a local minimum.
 Step number   2 out of a maximum of  106
 All quantities printed in internal units (Hartrees-Bohrs-Radians)
 Mixed Optimization -- En-DIIS/RFO-DIIS
 Update second derivatives using D2CorX and points    1    2
 DE= -1.61D-04 DEPred=-1.61D-04 R= 1.00D+00
 TightC=F SS=  1.41D+00  RLast= 6.02D-02 DXNew= 5.0454D-01 1.8047D-01
 Trust test= 1.00D+00 RLast= 6.02D-02 DXMaxT set to 3.00D-01
 ITU=  1  0
 Use linear search instead of GDIIS.
     Eigenvalues ---    0.00086   0.00274   0.00432   0.01019   0.01350
     Eigenvalues ---    0.01517   0.01700   0.01763   0.02077   0.02165
     Eigenvalues ---    0.02216   0.02461   0.02695   0.02768   0.02865
     Eigenvalues ---    0.03887   0.07102   0.08341   0.08442   0.10566
     Eigenvalues ---    0.11082   0.11209   0.11590   0.11978   0.12663
     Eigenvalues ---    0.13472   0.15681   0.17647   0.18473   0.18599
     Eigenvalues ---    0.19132   0.19184   0.19200   0.19822   0.20892
     Eigenvalues ---    0.23874   0.25881   0.26905   0.28856   0.29433
     Eigenvalues ---    0.34676   0.34996   0.35758   0.35775   0.36488
     Eigenvalues ---    0.36545   0.36909   0.38388   0.38924   0.39567
     Eigenvalues ---    0.42443   0.44326   0.47752   0.48012   0.49206
     Eigenvalues ---    0.49825   0.52094   0.54539   0.55597   0.90900
 RFO step:  Lambda=-2.30521444D-07 EMin= 8.59413171D-04
 Quartic linear search produced a step of  0.00657.
 Iteration  1 RMS(Cart)=  0.00249533 RMS(Int)=  0.00000351
 Iteration  2 RMS(Cart)=  0.00000491 RMS(Int)=  0.00000003
 Iteration  3 RMS(Cart)=  0.00000000 RMS(Int)=  0.00000003
 Variable       Old X    -DE/DX   Delta X   Delta X   Delta X     New X
                                 (Linear)    (Quad)   (Total)
    R1        1.82223   0.00003   0.00003   0.00002   0.00005   1.82228
    R2        2.57605   0.00001   0.00003   0.00001   0.00004   2.57609
    R3        2.97356  -0.00001   0.00004  -0.00001   0.00003   2.97359
    R4        2.64536  -0.00001   0.00001  -0.00001   0.00000   2.64536
    R5        2.64832   0.00000   0.00001  -0.00001   0.00000   2.64832
    R6        2.58183   0.00000  -0.00001  -0.00001  -0.00003   2.58180
    R7        1.81787   0.00005   0.00004   0.00004   0.00008   1.81795
    R8        2.05243   0.00001  -0.00001   0.00002   0.00001   2.05245
    R9        2.62617   0.00001   0.00001   0.00001   0.00002   2.62619
   R10        2.04557   0.00000   0.00000   0.00000   0.00000   2.04557
   R11        2.63576   0.00001   0.00001   0.00001   0.00002   2.63578
   R12        2.63597   0.00001   0.00001   0.00001   0.00002   2.63599
   R13        2.82243   0.00001   0.00001  -0.00001   0.00000   2.82243
   R14        2.04752   0.00000   0.00000   0.00001   0.00001   2.04753
   R15        2.62281   0.00001   0.00001   0.00001   0.00001   2.62282
   R16        2.04883   0.00000   0.00000   0.00000   0.00000   2.04883
   R17        2.52133   0.00014  -0.00009   0.00035   0.00026   2.52160
   R18        2.27955   0.00006   0.00004   0.00000   0.00005   2.27960
   R19        2.70797   0.00006   0.00006   0.00007   0.00012   2.70809
   R20        2.05425   0.00000   0.00001   0.00001   0.00002   2.05427
   R21        2.06036   0.00000   0.00000   0.00001   0.00001   2.06037
   R22        2.06025   0.00000   0.00000   0.00000   0.00000   2.06025
    A1        1.96206   0.00000   0.00001  -0.00002  -0.00001   1.96206
    A2        2.13790  -0.00003   0.00000  -0.00005  -0.00005   2.13785
    A3        2.08390   0.00002   0.00001   0.00002   0.00003   2.08393
    A4        2.06138   0.00001  -0.00001   0.00003   0.00002   2.06140
    A5        2.05664   0.00001  -0.00003   0.00004   0.00002   2.05666
    A6        2.05952   0.00002   0.00001   0.00000   0.00001   2.05952
    A7        2.16702  -0.00003   0.00002  -0.00005  -0.00003   2.16700
    A8        2.00263  -0.00001   0.00001   0.00008   0.00008   2.00271
    A9        2.10991  -0.00002   0.00003  -0.00004  -0.00001   2.10990
   A10        2.11735  -0.00001  -0.00001   0.00000  -0.00001   2.11734
   A11        2.05591   0.00002  -0.00002   0.00005   0.00002   2.05593
   A12        2.10090   0.00000  -0.00006   0.00008   0.00001   2.10092
   A13        2.08747   0.00000   0.00002  -0.00003   0.00000   2.08747
   A14        2.09481   0.00000   0.00004  -0.00005  -0.00001   2.09480
   A15        2.09457   0.00000  -0.00002   0.00003   0.00001   2.09459
   A16        2.12629   0.00000  -0.00001   0.00000  -0.00001   2.12628
   A17        2.06232   0.00000   0.00003  -0.00003   0.00000   2.06232
   A18        2.08169   0.00001   0.00006   0.00001   0.00007   2.08175
   A19        2.09141   0.00000   0.00000  -0.00002  -0.00002   2.09139
   A20        2.11009  -0.00001  -0.00006   0.00001  -0.00005   2.11004
   A21        2.11416  -0.00001   0.00001  -0.00001   0.00000   2.11416
   A22        2.08222   0.00001   0.00005  -0.00002   0.00003   2.08225
   A23        2.08680   0.00000  -0.00006   0.00003  -0.00003   2.08678
   A24        1.96578   0.00000   0.00001  -0.00002  -0.00001   1.96577
   A25        2.16537  -0.00002  -0.00003   0.00004   0.00001   2.16537
   A26        2.15204   0.00002   0.00003  -0.00002   0.00001   2.15205
   A27        2.02258   0.00010   0.00008   0.00016   0.00023   2.02281
   A28        1.84469  -0.00001  -0.00001  -0.00008  -0.00009   1.84461
   A29        1.92527   0.00001   0.00001   0.00000   0.00000   1.92527
   A30        1.92592   0.00001   0.00001   0.00006   0.00007   1.92599
   A31        1.92640  -0.00001  -0.00004   0.00001  -0.00003   1.92637
   A32        1.92658  -0.00001  -0.00004  -0.00002  -0.00006   1.92652
   A33        1.91416   0.00000   0.00007   0.00003   0.00010   1.91426
    D1        3.13017   0.00000   0.00003   0.00051   0.00054   3.13071
    D2       -0.00823   0.00000   0.00002   0.00058   0.00060  -0.00762
    D3        3.04523   0.00001   0.00012   0.00421   0.00433   3.04955
    D4       -0.09978   0.00000   0.00013   0.00413   0.00426  -0.09552
    D5       -0.09686   0.00000   0.00011   0.00390   0.00401  -0.09285
    D6        3.04132   0.00000   0.00012   0.00382   0.00394   3.04526
    D7       -0.01081   0.00000   0.00003  -0.00007  -0.00005  -0.01085
    D8        3.13563   0.00000   0.00000  -0.00031  -0.00030   3.13532
    D9        3.13127   0.00000   0.00003   0.00024   0.00027   3.13154
   D10       -0.00548   0.00000   0.00001   0.00000   0.00001  -0.00547
   D11       -3.13405   0.00000   0.00000   0.00017   0.00017  -3.13389
   D12        0.00522   0.00000  -0.00001   0.00013   0.00012   0.00534
   D13        0.00707   0.00000  -0.00001  -0.00013  -0.00014   0.00693
   D14       -3.13685   0.00000  -0.00001  -0.00017  -0.00018  -3.13703
   D15        3.11085   0.00002   0.00012   0.00226   0.00238   3.11323
   D16       -0.02733   0.00002   0.00011   0.00234   0.00245  -0.02489
   D17       -3.14120   0.00000   0.00001   0.00014   0.00015  -3.14104
   D18        0.00053   0.00000   0.00000   0.00005   0.00005   0.00059
   D19        0.00509   0.00000  -0.00001  -0.00008  -0.00009   0.00500
   D20       -3.13636   0.00000  -0.00003  -0.00017  -0.00020  -3.13656
   D21        0.00300   0.00000   0.00000   0.00001   0.00001   0.00301
   D22       -3.13774   0.00001   0.00002   0.00020   0.00022  -3.13752
   D23       -3.13846   0.00000  -0.00001  -0.00008  -0.00009  -3.13855
   D24        0.00399   0.00000   0.00001   0.00011   0.00012   0.00411
   D25        3.13956   0.00000   0.00000   0.00002   0.00002   3.13958
   D26       -0.00144   0.00000   0.00000  -0.00013  -0.00013  -0.00157
   D27       -0.00286   0.00000  -0.00002  -0.00016  -0.00018  -0.00304
   D28        3.13933   0.00000  -0.00002  -0.00031  -0.00034   3.13899
   D29       -0.00454   0.00000  -0.00003   0.00090   0.00087  -0.00367
   D30        3.13615   0.00000  -0.00004   0.00079   0.00076   3.13691
   D31        3.13789   0.00001  -0.00001   0.00109   0.00108   3.13897
   D32       -0.00460   0.00000  -0.00002   0.00098   0.00097  -0.00363
   D33       -0.00370   0.00000   0.00001   0.00019   0.00020  -0.00350
   D34        3.14022   0.00000   0.00001   0.00023   0.00024   3.14046
   D35        3.13850   0.00000   0.00000   0.00004   0.00004   3.13854
   D36       -0.00077   0.00000   0.00001   0.00008   0.00009  -0.00068
   D37        3.13676  -0.00001  -0.00004  -0.00033  -0.00037   3.13639
   D38       -0.00394   0.00000  -0.00003  -0.00023  -0.00026  -0.00420
   D39        3.14119   0.00000   0.00000   0.00013   0.00013   3.14132
   D40       -1.05957  -0.00001  -0.00005   0.00009   0.00004  -1.05953
   D41        1.05821   0.00001   0.00005   0.00017   0.00021   1.05842
         Item               Value     Threshold  Converged?
 Maximum Force            0.000137     0.000015     NO 
 RMS     Force            0.000022     0.000010     NO 
 Maximum Displacement     0.012285     0.000060     NO 
 RMS     Displacement     0.002495     0.000040     NO 
 Predicted change in Energy=-1.224111D-07
 GradGradGradGradGradGradGradGradGradGradGradGradGradGradGradGradGradGrad

                          Input orientation:                          
 ---------------------------------------------------------------------
 Center     Atomic      Atomic             Coordinates (Angstroms)
 Number     Number       Type             X           Y           Z
 ---------------------------------------------------------------------
      1          8           0        8.732229    7.317339    5.379529
      2          1           0        9.555740    6.966157    5.737855
      3          6           0        6.240230    7.012347    5.193196
      4          5           0        7.654728    6.546983    5.701832
      5          8           0        7.869963    5.423160    6.448346
      6          1           0        7.075224    4.928110    6.669246
      7          6           0        5.085304    6.242271    5.374178
      8          1           0        5.130548    5.277672    5.871305
      9          6           0        3.846667    6.680501    4.921350
     10          1           0        2.963262    6.072827    5.069909
     11          6           0        3.746239    7.910988    4.272296
     12          6           0        4.885376    8.692195    4.077769
     13          1           0        4.793981    9.645220    3.570447
     14          6           0        6.116920    8.242483    4.533215
     15          1           0        6.999703    8.852669    4.378791
     16          6           0        2.439766    8.432353    3.770254
     17          8           0        1.427049    7.597575    4.011286
     18          6           0        0.137094    8.032733    3.563719
     19          1           0       -0.553018    7.239729    3.840516
     20          1           0       -0.139440    8.965495    4.055893
     21          1           0        0.138751    8.174467    2.482734
     22          8           0        2.305798    9.491400    3.208420
 ---------------------------------------------------------------------
                    Distance matrix (angstroms):
                    1          2          3          4          5
     1  O    0.000000
     2  H    0.964311   0.000000
     3  C    2.517499   3.360267   0.000000
     4  B    1.363209   1.947012   1.573556   0.000000
     5  O    2.339612   2.393215   2.599413   1.366230   0.000000
     6  H    3.180794   3.342766   2.687003   1.972932   0.962020
     7  C    3.802087   4.543245   1.399867   2.608092   3.095014
     8  H    4.168236   4.738261   2.168023   2.830433   2.803309
     9  C    4.948152   5.774235   2.431700   3.889512   4.483250
    10  H    5.909793   6.686177   3.411219   4.757520   5.137886
    11  C    5.141836   6.065547   2.806350   4.379539   5.284844
    12  C    4.287551   5.248561   2.429340   3.861195   5.021353
    13  H    4.919513   5.877872   3.414230   4.725013   5.964039
    14  C    2.900342   3.860783   1.401433   2.570066   3.832684
    15  H    2.521976   3.455330   2.151009   2.737825   4.099017
    16  C    6.590001   7.527169   4.299384   5.872090   6.761247
    17  O    7.437492   8.333988   4.990603   6.538018   7.223468
    18  C    8.813927   9.724986   6.398801   7.955740   8.656109
    19  H    9.412248  10.288913   6.930344   8.444613   9.002628
    20  H    9.120030  10.041059   6.768192   8.325104   9.078684
    21  H    9.109005  10.036708   6.776812   8.336739   9.114133
    22  O    7.123151   8.083103   5.056164   6.595282   7.616274
                    6          7          8          9         10
     6  H    0.000000
     7  C    2.713670   0.000000
     8  H    2.130884   1.086109   0.000000
     9  C    4.068119   1.389719   2.125722   0.000000
    10  H    4.558124   2.150431   2.443693   1.082470   0.000000
    11  C    5.071988   2.406626   3.377498   1.394795   2.151295
    12  C    5.067497   2.778988   3.864692   2.416083   3.397050
    13  H    6.087508   3.862431   4.948000   3.392919   4.285080
    14  C    4.057838   2.402561   3.399047   2.782892   3.865360
    15  H    4.544673   3.386724   4.301389   3.867082   4.949548
    16  C    6.493947   3.790501   4.648305   2.524555   2.744178
    17  O    6.789159   4.132451   4.749477   2.742954   2.409458
    18  C    8.211007   5.564917   6.152227   4.175240   3.754606
    19  H    8.457859   5.927707   6.346392   4.564885   3.903497
    20  H    8.670725   6.037530   6.683452   4.675389   4.361480
    21  H    8.728137   6.046670   6.692673   4.682673   4.369007
    22  O    7.453077   4.793016   5.729369   3.634496   3.947662
                   11         12         13         14         15
    11  C    0.000000
[...]
 046,0.02152532,-0.00293232,0.00034170,0.00505676,0.00386855,-0.0006614
 0,-0.00030634,-0.00136896,0.00003137,-0.00009854,0.00027637,-0.0081456
 7,-0.00316303,-0.00588049,0.00001362,-0.00063717,-0.00069733,0.0171654
 6,0.00744933,0.00581914,-0.00150986,0.00508312,0.00396830,0.03209569,0
 .04958819,-0.08395881,0.08382293,-0.24556512,0.28276512,-0.00032153,-0
 .00014533,0.00002477,0.00002067,0.00000020,-0.00000340,-0.00453077,0.0
 0109310,-0.00276947,0.00099051,0.00076143,-0.00019142,-0.00053196,0.00
 040528,-0.00034891,-0.00003315,-0.00011552,0.00007526,-0.00103381,-0.0
 0011062,0.00004302,0.00010785,0.00014456,0.00015249,-0.00433316,-0.002
 87573,-0.00051602,0.00030584,-0.00121101,0.00059677,0.00742455,-0.0219
 5305,0.01186828,-0.05926320,0.01846162,-0.01285537,0.05755799,0.000191
 78,0.00005135,0.00002137,-0.00001646,0.00000860,0.00000857,0.00089170,
 0.00250294,0.00286247,-0.00050034,-0.00010472,-0.00009372,0.00015929,-
 0.00017097,0.00007101,0.00000786,0.00004546,-0.00002499,-0.00005095,0.
 00030206,-0.00064845,0.00014249,-0.00029195,-0.00041509,-0.00339953,0.
 00122056,0.00219525,0.00021226,-0.00042581,0.00045058,0.00222855,-0.01
 087023,0.00814350,0.01751973,-0.27880031,0.12572188,-0.01929926,0.2903
 2639,-0.00012875,-0.00002983,0.00003817,0.00000484,0.00000974,0.000026
 28,-0.00269962,0.00278868,0.00581520,0.00042754,0.00013937,-0.00011327
 ,-0.00014193,0.00008101,-0.00020223,0.00000039,-0.00002772,0.00003445,
 0.00004156,-0.00063615,-0.00059916,0.00015895,-0.00040603,-0.00091480,
 -0.00023682,0.00230531,0.00544037,-0.00012786,0.00019963,0.00025308,-0
 .00061207,0.00369607,0.00217342,-0.01229997,0.12593743,-0.10787939,0.0
 1543141,-0.13890923,0.10175785,-0.00313372,-0.00020458,-0.00024920,0.0
 0072357,0.00006601,-0.00000365,-0.12793332,-0.01607992,-0.00238261,0.0
 0443995,0.01965414,-0.00999364,-0.00566926,0.00314735,-0.00353857,-0.0
 0039001,-0.00085638,0.00061576,0.04964970,-0.02138895,0.01886186,-0.00
 407063,-0.00354254,-0.00034621,-0.02740528,0.03314234,-0.02096828,0.00
 002188,0.00076472,-0.00012636,-0.05725766,-0.03753724,0.00758570,-0.30
 149115,0.09082572,-0.08955424,0.00282637,-0.00156003,0.00030381,0.7189
 7057,-0.00158925,-0.00207055,0.00073884,-0.00047551,-0.00036678,0.0000
 8018,0.03759083,-0.26365608,0.10963390,0.00856020,-0.00298639,0.004543
 83,-0.00145959,0.00169019,-0.00063985,-0.00025670,-0.00033193,0.000074
 82,-0.06689700,-0.03290420,0.00765305,-0.00317464,0.00131066,0.0026905
 1,0.03183613,-0.04003077,0.02339388,0.00080445,-0.00052006,-0.00015451
 ,0.01255366,0.05535585,-0.02251290,0.02314695,-0.14188781,0.04298425,0
 .02472344,-0.00236610,0.00826602,0.07248882,0.57320967,0.00055471,0.00
 074936,-0.00093050,0.00036256,0.00009249,-0.00015029,-0.03055472,0.099
 84111,-0.12209033,-0.00458253,0.00690162,-0.00120996,-0.00046831,0.000
 33594,0.00082751,-0.00004592,-0.00005401,0.00002990,0.04255728,0.01585
 740,0.00513721,-0.00055319,0.00258905,0.00633482,-0.02040468,0.0236673
 1,-0.02188457,-0.00022580,-0.00009501,-0.00090548,-0.01817269,-0.03195
 298,0.01989161,-0.05453905,0.05549040,-0.10458596,-0.01308264,0.003436
 62,0.00064849,0.06720045,-0.20839989,0.26376168,-0.00065563,0.00086939
 ,-0.00057836,-0.00005484,0.,0.00002328,0.00640791,0.00226163,-0.000442
 62,-0.00022821,0.00078631,0.00008620,0.00014971,-0.00037927,0.00020047
 ,0.00001930,0.00002845,-0.00000664,0.00135418,0.00089099,-0.00157426,0
 .00028544,0.00022150,-0.00007557,0.00002830,0.00070469,-0.00016844,-0.
 00006865,-0.00000175,0.00019646,-0.00288884,0.00232962,-0.00315319,-0.
 01696435,-0.01630011,0.00446436,0.00101126,0.00040987,0.00078753,-0.24
 752318,-0.13287232,0.03088422,0.25996039,0.00009140,0.00078087,-0.0004
 1229,0.00029936,0.00034453,-0.00019387,-0.02185993,-0.01100810,0.00288
 086,-0.00158196,-0.00203689,-0.00063273,0.00021721,0.00057374,-0.00008
 410,-0.00009135,0.00003626,-0.00008257,0.00097724,-0.00251905,0.005413
 49,-0.00113704,-0.00057559,0.00016325,0.00075567,-0.00058592,-0.000113
 99,0.00000277,-0.00016156,-0.00051127,0.00194390,0.00160387,0.00365136
 ,0.01067136,0.00983214,-0.00075949,-0.00015715,-0.00043451,-0.00210819
 ,-0.13276494,-0.14563776,0.02993405,0.14199150,0.14935176,-0.00005158,
 -0.00019027,0.00029025,-0.00012295,-0.00024578,-0.00011519,0.01182056,
 0.00722549,0.00069903,0.00141678,-0.00033209,-0.00260528,-0.00021612,0
 .00002313,0.00044856,0.00004023,-0.00007071,-0.00000803,-0.00163926,0.
 00538373,0.00450622,0.00062660,0.00042040,0.00005786,-0.00023391,-0.00
 008916,-0.00104860,0.00019991,-0.00050366,-0.00084934,-0.00297844,0.00
 365797,0.00554538,-0.00938597,-0.00565639,0.00582933,0.00106961,-0.002
 00072,-0.00322744,0.03092089,0.02981408,-0.05073241,-0.03096842,-0.037
 04859,0.04108146,0.00386339,0.00056272,0.00022727,-0.00038797,0.000100
 93,-0.00006300,0.00493691,-0.00379254,0.00312030,-0.00854390,0.0025456
 4,-0.00272380,0.00183683,-0.00264351,0.00184350,-0.00003593,0.00084277
 ,-0.00055645,0.00601196,-0.00273214,0.00107520,0.00139950,-0.00107333,
 0.00080964,0.00350320,0.01442012,-0.00681565,-0.00049904,-0.00207213,0
 .00166265,-0.18222363,0.03191014,-0.03418500,-0.03220444,0.00285923,-0
 .00779110,-0.00079658,0.00137846,-0.00011136,-0.00075659,-0.00466763,0
 .00083331,0.00032051,0.00030588,-0.00012803,0.60466794,-0.00131300,-0.
 00014360,-0.00006749,0.00013116,-0.00000441,0.00001263,-0.00278484,-0.
 00280025,0.00018406,0.00248457,-0.00119730,0.00053159,-0.00048406,0.00
 069068,-0.00046012,-0.00002334,-0.00014309,0.00010877,-0.00054931,-0.0
 0330300,0.00601097,0.00092951,-0.00003373,0.00030915,0.02511039,-0.005
 27849,0.00750543,0.00004560,-0.00198935,-0.00103236,0.02511492,-0.1041
 1794,0.01521256,-0.00552522,0.01581924,-0.00784981,-0.00208788,-0.0030
 6065,-0.00084487,-0.00796374,0.00074137,0.00223126,-0.00127499,0.00052
 528,-0.00044112,-0.02590889,0.82798192,0.00140870,0.00022597,0.0001580
 5,-0.00014292,0.00002674,-0.00000794,0.00254858,-0.00005281,-0.0010012
 7,-0.00259779,0.00052079,-0.00182806,0.00054277,-0.00077508,0.00057760
 ,-0.00001047,0.00025739,-0.00011820,-0.00027493,0.00569098,0.00583805,
 -0.00027092,-0.00006091,0.00021580,-0.01236204,0.00553502,-0.00459243,
 0.00063646,-0.00143389,-0.00323741,-0.03059041,0.01645038,-0.09718023,
 -0.00345733,-0.00627443,0.00517919,0.00165449,-0.00026397,-0.00358691,
 0.00253973,0.00283503,0.00687965,0.00068296,-0.00014538,0.00032975,0.0
 8234295,-0.31351096,0.39381404,-0.00202684,-0.00018659,-0.00018738,0.0
 0021586,-0.00003275,0.00003167,-0.00334698,0.00021701,-0.00072131,0.00
 402291,-0.00139701,0.00147111,-0.00092732,0.00139215,-0.00098613,0.000
 03379,-0.00044059,0.00029938,-0.00003035,-0.00048118,0.00025374,-0.000
 45475,0.00044924,-0.00033910,-0.00490410,-0.00130954,-0.00025678,-0.00
 300081,0.00055531,-0.00077023,-0.04934100,-0.02569427,0.00213462,-0.00
 177307,0.00727914,-0.00422539,0.00125648,-0.00006868,0.00022896,-0.002
 83182,-0.00034207,-0.00027129,-0.00095181,0.00033748,-0.00032603,-0.22
 087452,-0.08031769,0.01319287,0.53277966,-0.00023658,-0.00000616,-0.00
 002059,0.00003320,-0.00002076,-0.00000044,-0.00013741,0.00051689,-0.00
 025108,0.00072200,-0.00018330,0.00026563,-0.00016003,0.00028651,-0.000
 18145,-0.00003085,-0.00008937,0.00003441,-0.00049677,0.00080552,-0.000
 78100,-0.00014833,0.00008613,-0.00005300,0.00138481,-0.00397435,0.0024
 4866,0.00234853,0.00054251,0.00028927,-0.00032265,0.01129773,-0.000241
 57,0.00203876,-0.00028534,0.00112741,0.00095969,0.00036598,0.00000934,
 0.00061831,0.00080430,-0.00048876,0.00007153,-0.00007104,-0.00002190,-
 0.06858285,-0.16384751,0.03615707,0.06894195,0.33342706,-0.00024552,-0
 .00002393,-0.00001366,0.00002416,-0.00000602,-0.00000879,-0.00053849,-
 0.00020247,0.00005918,0.00033380,-0.00012008,0.00018032,-0.00008848,0.
 00010648,-0.00005672,0.00002710,-0.00004812,0.00000873,0.00036545,-0.0
 0074435,-0.00002844,-0.00001360,0.00005597,0.00000604,-0.00164474,0.00
 192227,-0.00105944,-0.00172252,-0.00002393,0.00009279,-0.01071206,-0.0
 0478724,0.01136637,-0.00152242,0.00204467,-0.00019161,-0.00027423,-0.0
 0016385,0.00010549,-0.00077781,-0.00062546,-0.00015115,-0.00018013,0.0
 0002312,-0.00018907,0.00732240,0.03410921,-0.08406665,0.04578249,-0.11
 627964,0.14571964,0.00064797,0.00006975,0.00005207,-0.00006908,0.00001
 169,-0.00001227,0.00109427,-0.00007750,0.00024190,-0.00122085,0.000423
 35,-0.00043827,0.00029216,-0.00040387,0.00028762,-0.00003284,0.0001394
 4,-0.00010140,0.00009491,0.00032100,-0.00013532,0.00015949,-0.00014372
 ,0.00010564,0.00102594,-0.00038477,0.00043276,-0.00015272,0.00097512,-
 0.00049440,0.00351190,-0.00221859,0.00075480,-0.00051096,-0.00039722,0
 .00002942,-0.00028065,-0.00004848,-0.00004143,0.00043972,-0.00039948,0
 .00034805,0.00013545,0.00000665,0.00003437,-0.06727016,-0.01829907,-0.
 00292198,-0.17481564,0.03236670,-0.03566271,0.49698736,-0.00012665,-0.
 00002166,-0.00001552,0.00001750,0.00000752,0.00000702,-0.00004130,0.00
 005334,-0.00007069,0.00024747,-0.00005947,0.00006544,-0.00006567,0.000
 07379,-0.00005896,0.00000956,-0.00002361,0.00002440,-0.00004670,0.0002
 4986,-0.00007385,-0.00004475,0.00003692,-0.00001633,0.00021204,-0.0005
 2081,0.00012417,0.00018354,0.00020942,-0.00018489,-0.00399899,-0.00218
 205,0.00333055,-0.00091843,0.00092134,-0.00050959,0.00011554,0.0000264
 8,0.00006737,-0.00023974,-0.00036378,0.00001647,-0.00012711,0.00003460
 ,-0.00007146,-0.02083345,0.01509239,-0.01067578,0.05476874,-0.10279277
 ,0.02840285,0.05553144,0.60989925,0.00018354,0.00001600,0.00000322,-0.
 00002298,0.00000943,0.00001049,0.00023159,-0.00006846,0.00002006,-0.00
 034177,0.00008969,-0.00013738,0.00008681,-0.00010797,0.00008082,-0.000
 01351,0.00004013,-0.00002266,-0.00001038,0.00000337,0.00013327,0.00004
 716,-0.00003216,0.00005140,0.00016621,0.00000997,-0.00032701,-0.000083
 79,-0.00005381,-0.00021581,0.00157137,0.00363240,0.00427015,0.00030748
 ,-0.00038146,0.00054024,-0.00013223,0.00004022,0.00008011,0.00024522,-
 0.00004330,-0.00022496,0.00009833,-0.00004715,-0.00001872,-0.00176396,
 -0.01027078,0.00622442,-0.04668726,0.02442452,-0.08669279,-0.04605173,
 0.00493688,0.58971293,-0.00009513,-0.00000739,-0.00000821,0.00001005,-
 0.00000170,0.00000071,-0.00014632,0.00003092,-0.00004295,0.00019148,-0
 .00006850,0.00006934,-0.00004485,0.00006949,-0.00004788,0.00000137,-0.
 00002303,0.00001408,0.00001457,0.00003476,-0.00000655,-0.00003182,0.00
 002482,-0.00001992,-0.00005973,-0.00008378,0.00002867,-0.00000796,-0.0
 0000526,-0.00000623,-0.00089697,-0.00125053,0.00042885,-0.00028980,0.0
 0038636,-0.00024341,0.00004373,-0.00000456,0.00000632,-0.00011784,-0.0
 0008904,0.00002932,-0.00005561,0.00002031,-0.00002120,-0.00161564,0.00
 626553,-0.00349720,-0.03569603,-0.02376557,0.00557356,-0.15151547,-0.1
 2373883,0.04473233,0.17968787,-0.00001359,-0.00000268,-0.00000441,0.00
 000149,-0.00000030,0.00000210,-0.00002571,0.00002090,-0.00001766,0.000
 02712,-0.00000671,0.00001468,-0.00000652,0.00000819,-0.00000880,0.0000
 0075,-0.00000191,0.00000406,-0.00002509,-0.00003065,-0.00001016,-0.000
 00158,0.00000326,0.00000001,-0.00001664,0.00004522,-0.00003336,-0.0000
 2815,-0.00003294,0.00003355,0.00026340,0.00053311,-0.00009167,0.000082
 42,-0.00008957,0.00004348,0.00000761,0.00001768,0.00000057,0.00004156,
 0.00003445,-0.00001862,0.00000898,-0.00000498,0.00000521,0.00295500,-0
 .00201058,0.00167270,0.01370298,0.01110570,-0.00314140,-0.13674989,-0.
 21041014,0.05483128,0.13797802,0.21673715,-0.00001158,-0.00000417,-0.0
 0000680,0.00000114,0.00000178,0.00000245,-0.00001429,-0.00000566,-0.00
 000194,0.00002248,-0.00000400,0.00001773,-0.00000504,0.00000618,-0.000
 01032,-0.00000089,-0.00000096,0.00000497,0.00002225,0.00000035,-0.0000
 3493,-0.00000529,0.00000489,0.00000042,0.00000146,-0.00004327,0.000009
 23,0.00000664,0.00003562,0.00002269,-0.00034374,-0.00035768,0.00038559
 ,-0.00008662,0.00009590,-0.00010393,0.00000125,-0.00000105,0.00001786,
 -0.00004006,-0.00004182,-0.00000125,-0.00001510,0.00000703,-0.00000448
 ,-0.00177918,0.00228788,-0.00121528,-0.01329256,-0.00978447,0.00260541
 ,0.05127918,0.05714502,-0.07257130,-0.04576084,-0.06084323,0.06931599,
 -0.00010860,-0.00001314,-0.00000963,0.00001040,-0.00000310,-0.00000002
 ,-0.00022505,-0.00002608,-0.00002972,0.00020608,-0.00006893,0.00008664
 ,-0.00004670,0.00006596,-0.00005045,0.00000347,-0.00002174,0.00001555,
 0.00006866,-0.00009184,0.00001424,-0.00002199,0.00002039,-0.00002148,-
 0.00012953,0.00005077,0.00002896,0.00002493,-0.00013285,0.00013032,-0.
 00038507,-0.00066209,-0.00097472,0.00013584,0.00013185,-0.00011740,0.0
 0001821,-0.00002353,-0.00000318,-0.00013700,0.00010218,0.00000726,-0.0
 0002975,0.00001029,0.00000011,0.00422574,0.00790404,-0.00163902,-0.025
 69489,0.02998338,0.01153436,-0.06236143,0.04565890,0.02580007,0.007509
 81,-0.01609591,-0.01039823,0.07541799,0.00003828,0.00000524,0.00000892
 ,-0.00000391,-0.00000103,-0.00000271,0.00004345,0.00001168,0.00002212,
 -0.00006300,0.00002241,-0.00002961,0.00001695,-0.00002097,0.00002072,-
 0.00000284,0.00000733,-0.00000999,0.00002778,0.00002240,0.00000891,0.0
 0001392,-0.00001315,0.00000237,-0.00000388,0.00000999,0.00007370,-0.00
 002388,0.00007846,-0.00007857,0.00039974,-0.00008008,-0.00038885,-0.00
 003753,-0.00004314,0.00010352,-0.00001909,0.00000740,-0.00000008,0.000
 06821,-0.00001208,-0.00002009,0.00001472,-0.00000486,0.00000283,-0.003
 61801,-0.00173999,0.00110355,0.01134883,-0.00583744,0.00090247,0.05374
 723,-0.25070813,-0.11026090,0.00516511,-0.01602927,-0.01116937,-0.0642
 4513,0.26776376,-0.00004045,-0.00000408,-0.00000532,0.00000344,-0.0000
 0159,0.00000007,-0.00007621,0.00002979,-0.00003120,0.00008139,-0.00002
 881,0.00003753,-0.00001899,0.00002983,-0.00002336,0.00000034,-0.000010
 13,0.00000755,-0.00002358,-0.00000987,-0.00001274,-0.00001428,0.000010
 47,-0.00001037,-0.00006858,0.00000931,-0.00001300,0.00000722,-0.000039
 22,0.00005318,-0.00002823,-0.00008165,-0.00050766,0.00000538,0.0000160
 0,-0.00006536,0.00002353,0.00000077,-0.00000181,-0.00001139,0.00002376
 ,0.00003003,-0.00001161,0.00000337,0.00000065,0.00130408,-0.00010462,0
 .00093320,-0.00732014,0.01414329,0.00757045,0.03138085,-0.11261597,-0.
 11324497,-0.00290761,0.00849281,0.00503000,-0.02785554,0.11760763,0.11
 257309,-0.00010690,-0.00001066,-0.00000492,0.00000968,-0.00000140,0.00
 000277,-0.00022448,-0.00001591,-0.00003337,0.00020717,-0.00008014,0.00
 006597,-0.00004590,0.00006889,-0.00004552,0.00000246,-0.00002229,0.000
 01489,0.00004511,-0.00005074,0.00007832,-0.00002434,0.00002565,-0.0000
 1122,-0.00011169,-0.00001653,-0.00010182,0.00003725,-0.00017452,0.0000
 3869,-0.00069988,0.00043373,0.00104299,0.00009958,0.00018785,0.0000084
 1,0.00001544,-0.00000763,0.00002370,-0.00009865,0.00002653,-0.00012666
 ,-0.00002587,0.00000070,-0.00001717,0.00433101,0.00577225,-0.00393484,
 -0.01547099,0.00550308,-0.03884960,-0.05016896,-0.00232901,0.01776801,
 0.00183923,-0.00036799,0.01941084,0.00147937,-0.00252474,0.00682305,0.
 05898252,0.00003921,0.00000163,0.00000245,-0.00000353,0.00000099,-0.00
 000017,0.00005597,-0.00002866,0.00001521,-0.00007229,0.00003021,-0.000
 02399,0.00001890,-0.00002793,0.00001788,-0.00000267,0.00001091,-0.0000
 0523,0.00004986,-0.00000376,-0.00000597,0.00001540,-0.00001017,0.00001
 250,0.00004439,-0.00003724,-0.00002793,-0.00002581,0.00008884,-0.00001
 415,0.00019639,-0.00003210,0.00011067,0.00001681,-0.00008732,-0.000036
 59,-0.00002530,-0.00000352,-0.00000779,0.00002002,0.00002212,0.0000302
 8,0.00001259,-0.00000140,0.00000623,-0.00252950,-0.00003868,-0.0006526
 7,0.00612330,-0.00214587,0.01267872,-0.00149333,-0.05492756,0.03090120
 ,0.00019600,-0.00089827,0.02310419,0.00017727,0.00510821,-0.02732339,-
 0.00373535,0.05251922,-0.00003931,-0.00000280,-0.00000116,0.00000466,-
 0.00000091,-0.00000061,-0.00005829,-0.00002084,0.00001459,0.00006328,-
 0.00002316,0.00001968,-0.00001683,0.00002030,-0.00001147,0.00000427,-0
 .00000856,0.00000367,0.00000796,-0.00002512,0.00003074,-0.00000765,0.0
 0000611,-0.00000990,-0.00000590,0.00003646,0.00001984,0.00002733,-0.00
 009695,0.00003087,-0.00028971,-0.00035995,-0.00022029,0.00004714,0.000
 10570,0.00000922,0.00000504,-0.00000724,0.00001171,-0.00007815,0.00000
 178,-0.00004107,-0.00001272,0.00000293,-0.00000631,0.00311212,0.004117
 86,-0.00093820,-0.01109107,0.00269353,-0.00595890,0.00776522,0.0315814
 1,-0.32125004,0.00098383,-0.00040015,-0.00441090,0.00169861,0.00246067
 ,-0.01224691,-0.00308319,-0.03850747,0.34353989,-0.00124766,-0.0001793
 0,-0.00007140,0.00012745,-0.00001996,0.00001615,-0.00141031,0.00207149
 ,-0.00135458,0.00262867,-0.00064023,0.00079931,-0.00064034,0.00083684,
 -0.00061255,0.00005396,-0.00029740,0.00021477,-0.00160905,0.00207497,-
 0.00110206,-0.00080630,0.00042040,-0.00033967,-0.00638330,-0.00288857,
 -0.00008722,0.00027893,0.00029234,-0.00018325,-0.00045188,0.03580528,-
 0.02205506,-0.00250267,0.00137394,-0.00114136,-0.00045410,0.00183746,-
 0.00101205,0.00174435,0.00039004,0.00025033,-0.00022569,-0.00003936,-0
 .00003998,-0.11988857,0.07277405,-0.04384965,0.00383222,-0.05109091,0.
 02126902,0.00400959,-0.00423408,0.00386948,0.00127507,-0.00173828,0.00
 100817,0.00003953,-0.00034223,-0.00125264,-0.00007119,0.00092166,0.000
 96337,0.12170130,0.00133377,0.00023463,0.00005973,-0.00012149,0.000016
 90,-0.00001656,0.00127568,-0.00058775,0.00064171,-0.00262008,0.0007760
 2,-0.00083450,0.00056418,-0.00068222,0.00051579,-0.00007362,0.00023920
 ,-0.00019413,0.00167930,-0.00108452,0.00003451,0.00067937,-0.00041439,
 0.00022846,0.00414666,0.00375317,0.00006549,-0.00039316,0.00088033,-0.
 00027529,0.01803715,-0.02474583,0.02647505,-0.00637695,-0.00382859,0.0
 0082187,0.00132747,0.00165384,-0.00053064,0.00130085,-0.00003431,-0.00
 014401,0.00035377,-0.00004138,0.00013275,0.08057308,-0.57114232,0.2633
 7028,-0.05484574,-0.07998441,0.04592073,0.01702354,-0.00459494,0.00233
 092,-0.00113314,0.00101236,-0.00043318,-0.00272072,0.00145325,-0.00014
 769,-0.00268176,0.00046035,-0.00157360,-0.05732814,0.67666060,-0.00091
 856,-0.00015854,-0.00004869,0.00008765,-0.00001510,0.00000790,-0.00094
 620,0.00079684,-0.00038038,0.00180502,-0.00046549,0.00066644,-0.000407
 78,0.00051737,-0.00033836,0.00005295,-0.00019455,0.00011676,-0.0008326
 7,0.00003428,-0.00191785,-0.00044189,0.00015939,-0.00043101,-0.0036749
 8,-0.00119488,0.00237832,0.00015318,-0.00012709,0.00063116,-0.01306587
 ,0.02965098,0.00345756,0.00278994,0.00222367,-0.00065674,-0.00077223,-
 0.00042394,0.00012254,-0.00020324,-0.00031618,-0.00063298,-0.00023673,
 0.00006018,0.00001635,-0.04773589,0.26196074,-0.22237718,0.02307984,0.
 04651077,0.01070280,-0.00685236,-0.00140856,-0.00642145,0.00069499,-0.
 00053100,0.00094882,0.00178327,-0.00035724,-0.00007307,0.00093066,-0.0
 0027397,0.00141557,0.04471089,-0.33644770,0.21281347\\0.00000046,0.000
 00056,-0.00000282,0.00000073,0.00000099,-0.00000267,0.00000026,0.00000
 070,-0.00000042,0.00000052,0.00000134,-0.00000051,0.00000107,0.0000028
 8,0.00000164,0.00000073,0.00000336,0.00000322,0.00000024,0.00000140,0.
 00000186,0.00000028,0.00000228,0.00000372,0.00000002,0.00000068,0.0000
 0194,-0.00000003,0.00000120,0.00000374,-0.00000009,-0.00000067,-0.0000
 0047,-0.00000014,-0.00000124,-0.00000287,-0.00000026,-0.00000223,-0.00
 000471,0.00000012,-0.00000063,-0.00000286,0.00000014,-0.00000114,-0.00
 000466,0.00000013,-0.00000115,-0.00000059,-0.00000072,-0.00000086,0.00
 000191,-0.00000091,-0.00000122,0.00000172,-0.00000060,-0.00000051,0.00
 000389,-0.00000010,-0.00000017,0.00000014,-0.00000142,-0.00000339,0.00
 000154,-0.00000044,-0.00000220,-0.00000274\\\@
 The archive entry for this job was punched.


 KEEP CLOSE TO NATURES HEART, YOURSELF;
 AND BREAK CLEAR AWAY, ONCE IN A WHILE, AND
 CLIMB A MOUNTAIN OR SPEND A WEEK IN THE
 WOODS.  WASH YOUR SPIRIT CLEAN...
                                         -- JOHN MUIR
 Job cpu time:       0 days  1 hours 30 minutes  2.5 seconds.
 Elapsed time:       0 days  0 hours  2 minutes 56.9 seconds.
 File lengths (MBytes):  RWF=    309 Int=      0 D2E=      0 Chk=     20 Scr=      1
 Normal termination of Gaussian 16 at Mon May  5 07:38:35 2025.
