/home/tahminaafroz
cn018.cluster.local
tahminaafroz
Tue May 27 07:43:48 CDT 2025
 Entering Gaussian System, Link 0=g16
 Initial command:
 /home/apps/g16/l1.exe "/tmp/4-cooch3-ph-anion-opt-freq-thf/Gau-697422.inp" -scrdir="/tmp/4-cooch3-ph-anion-opt-freq-thf/"
 Entering Link 1 = /home/apps/g16/l1.exe PID=    697423.
  
 Copyright (c) 1988-2019, Gaussian, Inc.  All Rights Reserved.
  
 This is part of the Gaussian(R) 16 program.  It is based on
 the Gaussian(R) 09 system (copyright 2009, Gaussian, Inc.),
 the Gaussian(R) 03 system (copyright 2003, Gaussian, Inc.),
 the Gaussian(R) 98 system (copyright 1998, Gaussian, Inc.),
 the Gaussian(R) 94 system (copyright 1995, Gaussian, Inc.),
 the Gaussian 92(TM) system (copyright 1992, Gaussian, Inc.),
 the Gaussian 90(TM) system (copyright 1990, Gaussian, Inc.),
 the Gaussian 88(TM) system (copyright 1988, Gaussian, Inc.),
 the Gaussian 86(TM) system (copyright 1986, Carnegie Mellon
 University), and the Gaussian 82(TM) system (copyright 1983,
 Carnegie Mellon University). Gaussian is a federally registered
 trademark of Gaussian, Inc.
  
 This software contains proprietary and confidential information,
 including trade secrets, belonging to Gaussian, Inc.
  
 This software is provided under written license and may be
 used, copied, transmitted, or stored only in accord with that
 written license.
  
 The following legend is applicable only to US Government
 contracts under FAR:
  
                    RESTRICTED RIGHTS LEGEND
  
 Use, reproduction and disclosure by the US Government is
 subject to restrictions as set forth in subparagraphs (a)
 and (c) of the Commercial Computer Software - Restricted
 Rights clause in FAR 52.227-19.
  
 Gaussian, Inc.
 340 Quinnipiac St., Bldg. 40, Wallingford CT 06492
  
  
 ---------------------------------------------------------------
 Warning -- This program may not be used in any manner that
 competes with the business of Gaussian, Inc. or will provide
 assistance to any competitor of Gaussian, Inc.  The licensee
 of this program is prohibited from giving any competitor of
 Gaussian, Inc. access to this program.  By using this program,
 the user acknowledges that Gaussian, Inc. is engaged in the
 business of creating and licensing software in the field of
 computational chemistry and represents and warrants to the
 licensee that it is not a competitor of Gaussian, Inc. and that
 it will not use this program in any manner prohibited above.
 ---------------------------------------------------------------
  

 Cite this work as:
 Gaussian 16, Revision C.01,
 M. J. Frisch, G. W. Trucks, H. B. Schlegel, G. E. Scuseria, 
 M. A. Robb, J. R. Cheeseman, G. Scalmani, V. Barone, 
 G. A. Petersson, H. Nakatsuji, X. Li, M. Caricato, A. V. Marenich, 
 J. Bloino, B. G. Janesko, R. Gomperts, B. Mennucci, H. P. Hratchian, 
 J. V. Ortiz, A. F. Izmaylov, J. L. Sonnenberg, D. Williams-Young, 
 F. Ding, F. Lipparini, F. Egidi, J. Goings, B. Peng, A. Petrone, 
 T. Henderson, D. Ranasinghe, V. G. Zakrzewski, J. Gao, N. Rega, 
 G. Zheng, W. Liang, M. Hada, M. Ehara, K. Toyota, R. Fukuda, 
 J. Hasegawa, M. Ishida, T. Nakajima, Y. Honda, O. Kitao, H. Nakai, 
 T. Vreven, K. Throssell, J. A. Montgomery, Jr., J. E. Peralta, 
 F. Ogliaro, M. J. Bearpark, J. J. Heyd, E. N. Brothers, K. N. Kudin, 
 V. N. Staroverov, T. A. Keith, R. Kobayashi, J. Normand, 
 K. Raghavachari, A. P. Rendell, J. C. Burant, S. S. Iyengar, 
 J. Tomasi, M. Cossi, J. M. Millam, M. Klene, C. Adamo, R. Cammi, 
 J. W. Ochterski, R. L. Martin, K. Morokuma, O. Farkas, 
 J. B. Foresman, and D. J. Fox, Gaussian, Inc., Wallingford CT, 2019.
 
 ******************************************
 Gaussian 16:  AS64L-G16RevC.01  3-Jul-2019
                27-May-2025 
 ******************************************
 %mem=20GB
 %nprocshared=32
 Will use up to   32 processors via shared memory.
 %chk=4-cooch3-ph-anion-opt-freq-thf.chk
 ----------------------------------------------------------------------
 # opt=(calcfc,tight) freq 6-311+g(d,p) scrf=(smd,solvent=thf) nosymm s
 cf=(qc,fermi,xqc) geom=connectivity int=ultrafine m062x
 ----------------------------------------------------------------------
 1/7=10,10=4,18=20,19=15,26=6,38=1,57=2/1,3;
 2/9=110,12=2,15=1,17=6,18=5,40=1/2;
 3/5=4,6=6,7=111,11=2,25=1,30=1,70=32201,71=2,72=20,74=-55,75=-5,140=1/1,2,3;
 4//1;
 5/5=2,22=13,38=5,53=20/2;
 8/6=4,10=90,11=11/1;
 11/6=1,8=1,9=11,15=111,16=1,31=1/1,2,10;
 10/6=1,13=1,31=1/2;
 6/7=2,8=2,9=2,10=2,28=1/1;
 7/10=1,25=1,30=1/1,2,3,16;
 1/7=10,10=4,18=20,19=15,26=6/3(2);
 2/9=110,15=1/2;
 99//99;
 2/9=110,15=1/2;
 3/5=4,6=6,7=111,11=2,25=1,30=1,70=32205,71=1,72=20,74=-55,75=-5/1,2,3;
 4/5=5,16=3,69=1/1;
 5/5=2,22=13,38=5,53=20/2;
 7/30=1/1,2,3,16;
 1/7=10,18=20,19=15,26=6/3(-5);
 2/9=110,15=1/2;
 6/7=2,8=2,9=2,10=2,19=2,28=1/1;
 99/9=1/99;
 ------------------------------
 4-cooch3-ph-anion-opt-freq-thf
 ------------------------------
 Symbolic Z-matrix:
 Charge = -1 Multiplicity = 1
 C                     6.15963   7.03561   5.15801 
 C                     5.0786    6.21848   5.38401 
 H                     5.16811   5.26476   5.89108 
 C                     3.84067   6.67433   4.92705 
 H                     2.95266   6.07305   5.07738 
 C                     3.74899   7.90771   4.27664 
 C                     4.88524   8.69511   4.07596 
 H                     4.78835   9.64795   3.56863 
 C                     6.13032   8.25541   4.52528 
 H                     7.02125   8.85447   4.37667 
 C                     2.44461   8.43125   3.7756 
 O                     1.43063   7.59558   4.01037 
 C                     0.14221   8.03334   3.56113 
 H                    -0.54868   7.23858   3.83088 
 H                    -0.13626   8.96308   4.05789 
 H                     0.14734   8.18149   2.48103 
 O                     2.31063   9.49297   3.21813 
 

 GradGradGradGradGradGradGradGradGradGradGradGradGradGradGradGradGradGrad
 Berny optimization.
 Initialization pass.
                           ----------------------------
                           !    Initial Parameters    !
                           ! (Angstroms and Degrees)  !
 --------------------------                            --------------------------
 ! Name  Definition              Value          Derivative Info.                !
 --------------------------------------------------------------------------------
 ! R1    R(1,2)                  1.3738         calculate D2E/DX2 analytically  !
 ! R2    R(1,9)                  1.3745         calculate D2E/DX2 analytically  !
 ! R3    R(2,3)                  1.0838         calculate D2E/DX2 analytically  !
 ! R4    R(2,4)                  1.3961         calculate D2E/DX2 analytically  !
 ! R5    R(4,5)                  1.0829         calculate D2E/DX2 analytically  !
 ! R6    R(4,6)                  1.3974         calculate D2E/DX2 analytically  !
 ! R7    R(6,7)                  1.3969         calculate D2E/DX2 analytically  !
 ! R8    R(6,11)                 1.4922         calculate D2E/DX2 analytically  !
 ! R9    R(7,8)                  1.0838         calculate D2E/DX2 analytically  !
 ! R10   R(7,9)                  1.3948         calculate D2E/DX2 analytically  !
 ! R11   R(9,10)                 1.0838         calculate D2E/DX2 analytically  !
 ! R12   R(11,12)                1.3348         calculate D2E/DX2 analytically  !
 ! R13   R(11,17)                1.2066         calculate D2E/DX2 analytically  !
 ! R14   R(12,13)                1.433          calculate D2E/DX2 analytically  !
 ! R15   R(13,14)                1.0871         calculate D2E/DX2 analytically  !
 ! R16   R(13,15)                1.0903         calculate D2E/DX2 analytically  !
 ! R17   R(13,16)                1.0902         calculate D2E/DX2 analytically  !
 ! A1    A(2,1,9)              125.9308         calculate D2E/DX2 analytically  !
 ! A2    A(1,2,3)              122.3676         calculate D2E/DX2 analytically  !
 ! A3    A(1,2,4)              116.7233         calculate D2E/DX2 analytically  !
 ! A4    A(3,2,4)              120.9092         calculate D2E/DX2 analytically  !
 ! A5    A(2,4,5)              120.0256         calculate D2E/DX2 analytically  !
 ! A6    A(2,4,6)              119.9153         calculate D2E/DX2 analytically  !
 ! A7    A(5,4,6)              120.0591         calculate D2E/DX2 analytically  !
 ! A8    A(4,6,7)              120.7319         calculate D2E/DX2 analytically  !
 ! A9    A(4,6,11)             121.5553         calculate D2E/DX2 analytically  !
 ! A10   A(7,6,11)             117.7127         calculate D2E/DX2 analytically  !
 ! A11   A(6,7,8)              119.3463         calculate D2E/DX2 analytically  !
 ! A12   A(6,7,9)              120.1411         calculate D2E/DX2 analytically  !
 ! A13   A(8,7,9)              120.5127         calculate D2E/DX2 analytically  !
 ! A14   A(1,9,7)              116.5578         calculate D2E/DX2 analytically  !
 ! A15   A(1,9,10)             122.4197         calculate D2E/DX2 analytically  !
 ! A16   A(7,9,10)             121.0225         calculate D2E/DX2 analytically  !
 ! A17   A(6,11,12)            112.6653         calculate D2E/DX2 analytically  !
 ! A18   A(6,11,17)            124.1189         calculate D2E/DX2 analytically  !
 ! A19   A(12,11,17)           123.2159         calculate D2E/DX2 analytically  !
 ! A20   A(11,12,13)           115.8888         calculate D2E/DX2 analytically  !
 ! A21   A(12,13,14)           105.6816         calculate D2E/DX2 analytically  !
 ! A22   A(12,13,15)           110.323          calculate D2E/DX2 analytically  !
 ! A23   A(12,13,16)           110.357          calculate D2E/DX2 analytically  !
 ! A24   A(14,13,15)           110.3685         calculate D2E/DX2 analytically  !
 ! A25   A(14,13,16)           110.3755         calculate D2E/DX2 analytically  !
 ! A26   A(15,13,16)           109.6769         calculate D2E/DX2 analytically  !
 ! D1    D(9,1,2,3)           -179.9787         calculate D2E/DX2 analytically  !
 ! D2    D(9,1,2,4)             -0.0023         calculate D2E/DX2 analytically  !
 ! D3    D(2,1,9,7)              0.0273         calculate D2E/DX2 analytically  !
 ! D4    D(2,1,9,10)          -179.9661         calculate D2E/DX2 analytically  !
 ! D5    D(1,2,4,5)           -179.9639         calculate D2E/DX2 analytically  !
 ! D6    D(1,2,4,6)             -0.0194         calculate D2E/DX2 analytically  !
 ! D7    D(3,2,4,5)              0.0128         calculate D2E/DX2 analytically  !
 ! D8    D(3,2,4,6)            179.9573         calculate D2E/DX2 analytically  !
 ! D9    D(2,4,6,7)              0.0154         calculate D2E/DX2 analytically  !
 ! D10   D(2,4,6,11)          -179.8943         calculate D2E/DX2 analytically  !
 ! D11   D(5,4,6,7)            179.9599         calculate D2E/DX2 analytically  !
 ! D12   D(5,4,6,11)             0.0502         calculate D2E/DX2 analytically  !
 ! D13   D(4,6,7,8)            179.9901         calculate D2E/DX2 analytically  !
 ! D14   D(4,6,7,9)              0.0107         calculate D2E/DX2 analytically  !
 ! D15   D(11,6,7,8)            -0.0968         calculate D2E/DX2 analytically  !
 ! D16   D(11,6,7,9)           179.9237         calculate D2E/DX2 analytically  !
 ! D17   D(4,6,11,12)           -0.5974         calculate D2E/DX2 analytically  !
 ! D18   D(4,6,11,17)          179.3855         calculate D2E/DX2 analytically  !
 ! D19   D(7,6,11,12)          179.4903         calculate D2E/DX2 analytically  !
 ! D20   D(7,6,11,17)           -0.5268         calculate D2E/DX2 analytically  !
 ! D21   D(6,7,9,1)             -0.0305         calculate D2E/DX2 analytically  !
 ! D22   D(6,7,9,10)           179.9629         calculate D2E/DX2 analytically  !
 ! D23   D(8,7,9,1)            179.9902         calculate D2E/DX2 analytically  !
 ! D24   D(8,7,9,10)            -0.0163         calculate D2E/DX2 analytically  !
 ! D25   D(6,11,12,13)         179.7728         calculate D2E/DX2 analytically  !
 ! D26   D(17,11,12,13)         -0.2102         calculate D2E/DX2 analytically  !
 ! D27   D(11,12,13,14)        179.8763         calculate D2E/DX2 analytically  !
 ! D28   D(11,12,13,15)        -60.8168         calculate D2E/DX2 analytically  !
 ! D29   D(11,12,13,16)         60.543          calculate D2E/DX2 analytically  !
 --------------------------------------------------------------------------------
 Trust Radius=3.00D-01 FncErr=5.00D-06 GrdErr=5.00D-06 EigMax=2.50D+02 EigMin=1.00D-04
 Number of steps in this run=     82 maximum allowed number of steps=    102.
 GradGradGradGradGradGradGradGradGradGradGradGradGradGradGradGradGradGrad

                          Input orientation:                          
 ---------------------------------------------------------------------
 Center     Atomic      Atomic             Coordinates (Angstroms)
 Number     Number       Type             X           Y           Z
 ---------------------------------------------------------------------
      1          6           0        6.159631    7.035612    5.158010
      2          6           0        5.078598    6.218484    5.384008
      3          1           0        5.168111    5.264762    5.891079
      4          6           0        3.840668    6.674329    4.927046
      5          1           0        2.952657    6.073054    5.077384
      6          6           0        3.748988    7.907711    4.276638
      7          6           0        4.885237    8.695107    4.075959
      8          1           0        4.788352    9.647948    3.568626
      9          6           0        6.130323    8.255414    4.525279
     10          1           0        7.021252    8.854467    4.376667
     11          6           0        2.444610    8.431246    3.775604
     12          8           0        1.430628    7.595580    4.010370
     13          6           0        0.142210    8.033343    3.561132
     14          1           0       -0.548675    7.238584    3.830881
     15          1           0       -0.136262    8.963076    4.057888
     16          1           0        0.147336    8.181489    2.481027
     17          8           0        2.310634    9.492968    3.218128
 ---------------------------------------------------------------------
                    Distance matrix (angstroms):
                    1          2          3          4          5
     1  C    0.000000
     2  C    1.373829   0.000000
     3  H    2.157872   1.083845   0.000000
     4  C    2.358275   1.396094   2.162948   0.000000
     5  H    3.349284   2.152857   2.494729   1.082911   0.000000
     6  C    2.710825   2.418185   3.406686   1.397379   2.154368
     7  C    2.355597   2.807497   3.891265   2.428789   3.407768
     8  H    3.351246   3.891154   4.974970   3.403795   4.292551
     9  C    1.374454   2.447984   3.425677   2.811364   3.894236
    10  H    2.158963   3.425937   4.314343   3.895129   4.978024
    11  C    4.202407   3.797522   4.681807   2.522212   2.741133
    12  O    4.898378   4.134121   4.789421   2.738118   2.402744
    13  C    6.305144   5.566374   6.193010   4.170280   3.747048
    14  H    6.841333   5.926129   6.389212   4.559199   3.895068
    15  H    6.675601   6.040376   6.721197   4.670093   4.351209
    16  H    6.680342   6.049631   6.733790   4.679235   4.365363
    17  O    4.961504   4.803635   5.760865   3.634024   3.945230
                    6          7          8          9         10
     6  C    0.000000
     7  C    1.396899   0.000000
     8  H    2.147087   1.083826   0.000000
     9  C    2.419396   1.394797   2.157596   0.000000
    10  H    3.407941   2.162957   2.503674   1.083838   0.000000
    11  C    1.492155   2.473155   2.648836   3.765290   4.635304
    12  O    2.354383   3.625960   3.960008   4.773641   5.742303
    13  C    3.679209   4.816563   4.918703   6.069299   6.975712
    14  H    4.372223   5.631068   5.861542   6.791550   7.759688
    15  H    4.031974   5.028676   4.996023   6.323712   7.165432
    16  H    4.033741   5.025467   4.987224   6.323019   7.162197
    17  O    2.387958   2.828610   2.507181   4.222583   4.892833
                   11         12         13         14         15
    11  C    0.000000
    12  O    1.334770   0.000000
    13  C    2.346353   1.432994   0.000000
    14  H    3.222616   2.019233   1.087073   0.000000
    15  H    2.650175   2.080252   1.090283   1.787593   0.000000
    16  H    2.648731   2.080629   1.090229   1.787626   1.782638
    17  O    1.206641   2.236546   2.636327   3.692338   2.640697
                   16         17
    16  H    0.000000
    17  O    2.634986   0.000000
 Symmetry turned off by external request.
 Stoichiometry    C8H7O2(1-)
 Framework group  C1[X(C8H7O2)]
 Deg. of freedom    45
 Full point group                 C1      NOp   1
 Rotational constants (GHZ):           3.5148281           0.8770697           0.7050589
 Standard basis: 6-311+G(d,p) (5D, 7F)
   262 basis functions,   416 primitive gaussians,   272 cartesian basis functions
    36 alpha electrons       36 beta electrons
       nuclear repulsion energy       479.2468855361 Hartrees.
 NAtoms=   17 NActive=   17 NUniq=   17 SFac= 1.00D+00 NAtFMM=   60 NAOKFM=F Big=F
 Integral buffers will be    131072 words long.
 Raffenetti 2 integral format.
 Two-electron integral symmetry is turned off.
 Force inversion solution in PCM.
 ------------------------------------------------------------------------------
 Polarizable Continuum Model (PCM)
 =================================
 Model                : PCM.
 Atomic radii         : SMD-Coulomb.
 Polarization charges : Total charges.
 Charge compensation  : None.
 Solution method      : Matrix inversion.
 Cavity type          : VdW (van der Waals Surface) (Alpha=1.000).
 Cavity algorithm     : GePol (No added spheres)
                        Default sphere list used, NSphG=   17.
                        Lebedev-Laikov grids with approx.  5.0 points / Ang**2.
                        Smoothing algorithm: York/Karplus (Gamma=1.0000).
                        Polarization charges: spherical gaussians, with
                                              point-specific exponents (IZeta= 3).
                        Self-potential: point-specific (ISelfS= 7).
                        Self-field    : sphere-specific E.n sum rule (ISelfD= 2).
 1st derivatives      : Analytical E(r).r(x)/FMM algorithm (CHGder, D1EAlg=3).
                        Cavity 1st derivative terms included.
 2nd derivatives      : Analytical E(r).r(xy)/FMM algorithm (CHGder, D2EAlg=3).
                        Cavity 2nd derivative terms included.
 Solvent              : TetraHydroFuran, Eps=   7.425700 Eps(inf)=   1.974025
 ------------------------------------------------------------------------------
 Spheres list:
 ISph  on   Nord     Re0    Alpha      Xe            Ye            Ze
    1   C      1    1.8500  1.000      6.159631      7.035612      5.158010
    2   C      2    1.8500  1.000      5.078598      6.218484      5.384008
    3   H      3    1.2000  1.000      5.168111      5.264762      5.891079
    4   C      4    1.8500  1.000      3.840668      6.674329      4.927046
    5   H      5    1.2000  1.000      2.952657      6.073054      5.077384
    6   C      6    1.8500  1.000      3.748988      7.907711      4.276638
    7   C      7    1.8500  1.000      4.885237      8.695107      4.075959
    8   H      8    1.2000  1.000      4.788352      9.647948      3.568626
    9   C      9    1.8500  1.000      6.130323      8.255414      4.525279
   10   H     10    1.2000  1.000      7.021252      8.854467      4.376667
   11   C     11    1.8500  1.000      2.444610      8.431246      3.775604
   12   O     12    2.2940  1.000      1.430628      7.595580      4.010370
   13   C     13    1.8500  1.000      0.142210      8.033343      3.561132
   14   H     14    1.2000  1.000     -0.548675      7.238584      3.830881
   15   H     15    1.2000  1.000     -0.136262      8.963076      4.057888
   16   H     16    1.2000  1.000      0.147336      8.181489      2.481027
   17   O     17    2.2940  1.000      2.310634      9.492968      3.218128
 ------------------------------------------------------------------------------
 ------------------------------------------------------------------------------
 Atomic radii for non-electrostatic terms: SMD-CDS.
 ------------------------------------------------------------------------------
 Nuclear repulsion after PCM non-electrostatic terms =      479.2436050490 Hartrees.
 One-electron integrals computed using PRISM.
 NBasis=   262 RedAO= T EigKep=  2.07D-06  NBF=   262
 NBsUse=   262 1.00D-06 EigRej= -1.00D+00 NBFU=   262
 ExpMin= 4.38D-02 ExpMax= 8.59D+03 ExpMxC= 1.30D+03 IAcc=3 IRadAn=         5 AccDes= 0.00D+00
 Harris functional with IExCor= 1009 and IRadAn=       5 diagonalized for initial guess.
 HarFok:  IExCor= 1009 AccDes= 0.00D+00 IRadAn=         5 IDoV= 1 UseB2=F ITyADJ=14
 ICtDFT=  3500011 ScaDFX=  1.000000  1.000000  1.000000  1.000000
 FoFCou: FMM=F IPFlag=           0 FMFlag=      100000 FMFlg1=           0
         NFxFlg=           0 DoJE=T BraDBF=F KetDBF=T FulRan=T
         wScrn=  0.000000 ICntrl=       500 IOpCl=  0 I1Cent=   200000004 NGrid=           0
         NMat0=    1 NMatS0=      1 NMatT0=    0 NMatD0=    1 NMtDS0=    0 NMtDT0=    0
 Symmetry not used in FoFCou.
 Requested convergence on RMS density matrix=1.00D-08 within 128 cycles.
 Requested convergence on MAX density matrix=1.00D-06.
 Requested convergence on             energy=1.00D-06.
 Level shift goal  0.100 maximum shift  0.100.
 No special actions if energy rises.
 Dynamic level shift is on during FON iterations.
 Inv3:  Mode=1 IEnd=     6822192.
 Iteration    1 A*A^-1 deviation from unit magnitude is 4.22D-15 for   1503.
 Iteration    1 A*A^-1 deviation from orthogonality  is 2.38D-15 for    600    306.
 Iteration    1 A^-1*A deviation from unit magnitude is 4.44D-15 for   1503.
 Iteration    1 A^-1*A deviation from orthogonality  is 1.22D-15 for   1498   1328.
 Error on total polarization charges =  0.05453
 SCF Done:  E(RM062X) =  -459.501177826     A.U. after   17 cycles
            NFock= 17  Conv=0.16D-08     -V/T= 2.0033
 SMD-CDS (non-electrostatic) energy       (kcal/mol) =      -2.06
 (included in total energy above)
 DoSCS=F DFT=T ScalE2(SS,OS)=  1.000000  1.000000
 Range of M.O.s used for correlation:     1   262
 NBasis=   262 NAE=    36 NBE=    36 NFC=     0 NFV=     0
 NROrb=    262 NOA=    36 NOB=    36 NVA=   226 NVB=   226

 **** Warning!!: The largest alpha MO coefficient is  0.17293513D+03

 Symmetrizing basis deriv contribution to polar:
 IMax=3 JMax=2 DiffMx= 0.00D+00
 G2DrvN: will do    18 centers at a time, making    1 passes.
 Calling FoFCou, ICntrl=  3107 FMM=F I1Cent=   0 AccDes= 0.00D+00.
 NEqPCM:  Using equilibrium solvation (IEInf=0, Eps=   7.4257, EpsInf=   1.9740)
 G2PCM: DoFxE=T DoFxN=T DoGrad=T DoDP/DQ/DG/TGxP=FFFF NFrqRd=   0 IEInf=0 SqF1=F DoCFld=F IF1Alg=4.
 End of G2Drv F.D. properties file   721 does not exist.
 End of G2Drv F.D. properties file   722 does not exist.
 End of G2Drv F.D. properties file   788 does not exist.
          IDoAtm=11111111111111111
 NEqPCM:  Using equilibrium solvation (IEInf=0, Eps=   7.4257, EpsInf=   1.9740)
          Differentiating once with respect to nuclear coordinates.
 Keep R1 ints in memory in canonical form, NReq=628810639.
          There are    54 degrees of freedom in the 1st order CPHF.  IDoFFX=6 NUNeed=     0.
     48 vectors produced by pass  0 Test12= 1.51D-14 1.85D-09 XBig12= 1.63D-01 1.10D-01.
 AX will form    48 AO Fock derivatives at one time.
     48 vectors produced by pass  1 Test12= 1.51D-14 1.85D-09 XBig12= 1.27D-02 2.64D-02.
     48 vectors produced by pass  2 Test12= 1.51D-14 1.85D-09 XBig12= 3.16D-04 5.28D-03.
     48 vectors produced by pass  3 Test12= 1.51D-14 1.85D-09 XBig12= 3.47D-06 4.36D-04.
     48 vectors produced by pass  4 Test12= 1.51D-14 1.85D-09 XBig12= 2.61D-08 2.67D-05.
     48 vectors produced by pass  5 Test12= 1.51D-14 1.85D-09 XBig12= 1.61D-10 2.15D-06.
     41 vectors produced by pass  6 Test12= 1.51D-14 1.85D-09 XBig12= 8.30D-13 1.30D-07.
     15 vectors produced by pass  7 Test12= 1.51D-14 1.85D-09 XBig12= 3.19D-15 6.43D-09.
 InvSVY:  IOpt=1 It=  1 EMax= 5.55D-16
 Solved reduced A of dimension   344 with    54 vectors.
 End of Minotr F.D. properties file   721 does not exist.
 End of Minotr F.D. properties file   722 does not exist.
 End of Minotr F.D. properties file   788 does not exist.

 **********************************************************************

            Population analysis using the SCF Density.

 **********************************************************************

 Alpha  occ. eigenvalues --  -19.64981 -19.59014 -10.65144 -10.57067 -10.51823
 Alpha  occ. eigenvalues --  -10.51157 -10.51037 -10.49179 -10.49178 -10.44154
 Alpha  occ. eigenvalues --   -1.22047  -1.12302  -0.92370  -0.83102  -0.80545
 Alpha  occ. eigenvalues --   -0.77772  -0.66109  -0.64895  -0.61538  -0.58686
 Alpha  occ. eigenvalues --   -0.55065  -0.54301  -0.49421  -0.47798  -0.46641
 Alpha  occ. eigenvalues --   -0.45771  -0.45373  -0.43467  -0.40926  -0.39646
 Alpha  occ. eigenvalues --   -0.36382  -0.36026  -0.33606  -0.27533  -0.26247
 Alpha  occ. eigenvalues --   -0.17174
 Alpha virt. eigenvalues --    0.02409   0.02915   0.04579   0.04959   0.04964
 Alpha virt. eigenvalues --    0.05856   0.06454   0.06691   0.08212   0.08867
 Alpha virt. eigenvalues --    0.09015   0.09847   0.11133   0.11380   0.12392
 Alpha virt. eigenvalues --    0.12563   0.12884   0.13825   0.15645   0.16780
 Alpha virt. eigenvalues --    0.17298   0.17572   0.17801   0.18354   0.19296
 Alpha virt. eigenvalues --    0.19983   0.20603   0.21980   0.22084   0.22640
 Alpha virt. eigenvalues --    0.23319   0.23526   0.24448   0.24701   0.25883
 Alpha virt. eigenvalues --    0.26246   0.27336   0.27737   0.28014   0.28602
 Alpha virt. eigenvalues --    0.28631   0.29692   0.30017   0.30668   0.31728
 Alpha virt. eigenvalues --    0.32516   0.34118   0.35417   0.35794   0.36787
 Alpha virt. eigenvalues --    0.37629   0.38589   0.39957   0.43075   0.44266
 Alpha virt. eigenvalues --    0.45560   0.48541   0.49693   0.52321   0.55371
 Alpha virt. eigenvalues --    0.56326   0.56799   0.59499   0.60709   0.61074
 Alpha virt. eigenvalues --    0.62161   0.63216   0.63339   0.64884   0.66105
 Alpha virt. eigenvalues --    0.66907   0.68819   0.69358   0.69969   0.70217
 Alpha virt. eigenvalues --    0.71549   0.72978   0.75868   0.76607   0.76707
 Alpha virt. eigenvalues --    0.77732   0.78984   0.80566   0.82323   0.82767
 Alpha virt. eigenvalues --    0.84560   0.86970   0.91538   0.93026   0.93415
 Alpha virt. eigenvalues --    0.96005   0.96068   0.98241   1.00144   1.02938
 Alpha virt. eigenvalues --    1.04573   1.06326   1.07984   1.09822   1.10643
 Alpha virt. eigenvalues --    1.10786   1.12132   1.16576   1.16668   1.18574
 Alpha virt. eigenvalues --    1.19033   1.23893   1.25404   1.26111   1.27723
 Alpha virt. eigenvalues --    1.34641   1.35060   1.37311   1.44176   1.45345
 Alpha virt. eigenvalues --    1.47816   1.51007   1.56318   1.58327   1.58420
 Alpha virt. eigenvalues --    1.61369   1.61534   1.61969   1.63530   1.66294
 Alpha virt. eigenvalues --    1.68024   1.71360   1.74065   1.75677   1.75775
 Alpha virt. eigenvalues --    1.77114   1.77410   1.79638   1.80531   1.82029
 Alpha virt. eigenvalues --    1.84716   1.89631   1.90508   1.95317   1.97723
 Alpha virt. eigenvalues --    1.99427   2.01659   2.03059   2.04174   2.06347
 Alpha virt. eigenvalues --    2.07393   2.08336   2.08864   2.12864   2.15886
 Alpha virt. eigenvalues --    2.16267   2.19402   2.25302   2.29195   2.33418
 Alpha virt. eigenvalues --    2.42371   2.43110   2.48823   2.49369   2.49857
 Alpha virt. eigenvalues --    2.54982   2.56494   2.56791   2.62785   2.64763
 Alpha virt. eigenvalues --    2.67382   2.68799   2.73846   2.76261   2.76971
 Alpha virt. eigenvalues --    2.77671   2.80010   2.81535   2.81679   2.84589
 Alpha virt. eigenvalues --    2.89379   2.90041   2.90875   2.96289   2.99347
 Alpha virt. eigenvalues --    3.00277   3.02166   3.02892   3.09126   3.13589
 Alpha virt. eigenvalues --    3.14708   3.19449   3.21199   3.30103   3.31671
 Alpha virt. eigenvalues --    3.35118   3.38801   3.46692   3.48965   3.49987
 Alpha virt. eigenvalues --    3.60082   3.65682   3.69301   3.74211   3.78697
 Alpha virt. eigenvalues --    3.84849   3.85205   3.93217   4.07849   4.13928
 Alpha virt. eigenvalues --    4.20348   4.23662   4.26916   4.43054   4.90066
 Alpha virt. eigenvalues --    5.11865   5.18996   5.37171   5.50940   5.79941
 Alpha virt. eigenvalues --    5.98183  23.70519  23.96817  24.02451  24.06133
 Alpha virt. eigenvalues --   24.10066  24.21362  24.22800  24.34357  50.03969
 Alpha virt. eigenvalues --   50.18200
          Condensed to atoms (all electrons):
               1          2          3          4          5          6
     1  C    8.465718  -1.222573  -0.133322   1.128489  -0.042105  -0.913055
     2  C   -1.222573   8.639558   0.533325  -4.154115   0.057971   1.552233
     3  H   -0.133322   0.533325   0.539359  -0.166961  -0.000418   0.040639
     4  C    1.128489  -4.154115  -0.166961  13.554735   0.312543  -2.072322
     5  H   -0.042105   0.057971  -0.000418   0.312543   0.483385  -0.024017
     6  C   -0.913055   1.552233   0.040639  -2.072322  -0.024017  14.042226
     7  C    0.956629  -0.021035  -0.033013  -2.322819  -0.062049  -1.415683
     8  H   -0.035139   0.009326   0.000142  -0.034786   0.000039  -0.018298
     9  C   -1.220597   1.292719   0.041426  -0.781330   0.019509   1.297830
    10  H   -0.145352   0.044443   0.000422  -0.034806   0.000131   0.055168
    11  C    0.094121  -0.609344   0.020671   0.874173   0.078396  -5.928724
    12  O    0.001307   0.030892  -0.000148   0.022222   0.006667  -0.697427
    13  C   -0.002052  -0.032212   0.000120   0.032430  -0.001071  -0.539236
    14  H   -0.000320   0.000262   0.000000  -0.015937   0.000212   0.032262
    15  H    0.000154  -0.000962   0.000000   0.002910  -0.000024   0.006163
    16  H    0.000174  -0.001078   0.000000   0.003200  -0.000036   0.005786
    17  O   -0.009973   0.075543  -0.000021  -0.101729  -0.000659   0.046912
               7          8          9         10         11         12
     1  C    0.956629  -0.035139  -1.220597  -0.145352   0.094121   0.001307
     2  C   -0.021035   0.009326   1.292719   0.044443  -0.609344   0.030892
     3  H   -0.033013   0.000142   0.041426   0.000422   0.020671  -0.000148
     4  C   -2.322819  -0.034786  -0.781330  -0.034806   0.874173   0.022222
     5  H   -0.062049   0.000039   0.019509   0.000131   0.078396   0.006667
     6  C   -1.415683  -0.018298   1.297830   0.055168  -5.928724  -0.697427
     7  C   11.189919   0.286572  -2.257653  -0.173189   0.106474  -0.081475
     8  H    0.286572   0.487634   0.039727  -0.000721   0.091493   0.000970
     9  C   -2.257653   0.039727   7.742743   0.541670  -0.493781  -0.004434
    10  H   -0.173189  -0.000721   0.541670   0.538528   0.015347   0.000025
    11  C    0.106474   0.091493  -0.493781   0.015347  10.974001   0.476885
    12  O   -0.081475   0.000970  -0.004434   0.000025   0.476885   8.443083
    13  C   -0.021441   0.001108  -0.019369   0.000008   0.222888   0.249219
    14  H    0.007470   0.000000   0.001132   0.000000   0.021185  -0.069708
    15  H   -0.004673  -0.000007  -0.001065   0.000000  -0.014183  -0.030418
    16  H   -0.004785  -0.000007  -0.001136   0.000000  -0.013924  -0.030583
    17  O    0.028953   0.002850   0.029191  -0.000123   0.319222  -0.201151
              13         14         15         16         17
     1  C   -0.002052  -0.000320   0.000154   0.000174  -0.009973
     2  C   -0.032212   0.000262  -0.000962  -0.001078   0.075543
     3  H    0.000120   0.000000   0.000000   0.000000  -0.000021
     4  C    0.032430  -0.015937   0.002910   0.003200  -0.101729
     5  H   -0.001071   0.000212  -0.000024  -0.000036  -0.000659
     6  C   -0.539236   0.032262   0.006163   0.005786   0.046912
     7  C   -0.021441   0.007470  -0.004673  -0.004785   0.028953
     8  H    0.001108   0.000000  -0.000007  -0.000007   0.002850
     9  C   -0.019369   0.001132  -0.001065  -0.001136   0.029191
    10  H    0.000008   0.000000   0.000000   0.000000  -0.000123
    11  C    0.222888   0.021185  -0.014183  -0.013924   0.319222
    12  O    0.249219  -0.069708  -0.030418  -0.030583  -0.201151
    13  C    5.213118   0.389694   0.424828   0.425109  -0.084630
    14  H    0.389694   0.490939  -0.023600  -0.023618   0.004100
    15  H    0.424828  -0.023600   0.496921  -0.034350  -0.004738
    16  H    0.425109  -0.023618  -0.034350   0.497739  -0.004937
    17  O   -0.084630   0.004100  -0.004738  -0.004937   8.261917
 Mulliken charges:
               1
     1  C   -0.922103
     2  C   -0.194952
     3  H    0.157776
     4  C   -0.245898
     5  H    0.171524
     6  C    0.529541
     7  C   -0.178202
     8  H    0.169097
     9  C   -0.226583
    10  H    0.158450
    11  C   -0.234902
    12  O   -0.115927
    13  C   -0.258511
    14  H    0.185928
    15  H    0.183044
    16  H    0.182445
    17  O   -0.360727
 Sum of Mulliken charges =  -1.00000
 Mulliken charges with hydrogens summed into heavy atoms:
               1
     1  C   -0.922103
     2  C   -0.037176
     4  C   -0.074375
     6  C    0.529541
     7  C   -0.009105
     9  C   -0.068133
    11  C   -0.234902
    12  O   -0.115927
    13  C    0.292906
    17  O   -0.360727
 APT charges:
               1
     1  C   -2.040441
     2  C    0.757055
     3  H    0.069311
     4  C   -1.341425
     5  H   -0.687247
     6  C    0.066337
     7  C    0.647978
     8  H    1.211395
     9  C   -0.444515
    10  H    1.682911
    11  C   -1.282014
    12  O   -0.439048
    13  C   -0.990777
    14  H   -0.438206
    15  H    1.619388
    16  H    0.003875
    17  O    0.605422
 Sum of APT charges =  -1.00000
 APT charges with hydrogens summed into heavy atoms:
               1
     1  C   -2.040441
     2  C    0.826366
     4  C   -2.028672
     6  C    0.066337
     7  C    1.859373
     9  C    1.238396
    11  C   -1.282014
    12  O   -0.439048
    13  C    0.194280
    17  O    0.605422
 Electronic spatial extent (au):  <R**2>=          25235.8338
 Charge=             -1.0000 electrons
 Dipole moment (field-independent basis, Debye):
    X=            -29.7816    Y=            -35.8509    Z=            -23.7663  Tot=             52.3170
 Quadrupole moment (field-independent basis, Debye-Ang):
   XX=           -243.2820   YY=           -337.4027   ZZ=           -185.4065
   XY=           -211.4030   XZ=           -151.8104   YZ=           -172.9240
 Traceless Quadrupole moment (field-independent basis, Debye-Ang):
   XX=             12.0818   YY=            -82.0390   ZZ=             69.9572
   XY=           -211.4030   XZ=           -151.8104   YZ=           -172.9240
 Octapole moment (field-independent basis, Debye-Ang**2):
  XXX=          -1875.9169  YYY=          -3639.4674  ZZZ=          -1469.3977  XYY=          -1749.4444
  XXY=          -1723.9136  XXZ=          -1227.5977  XZZ=          -1031.7828  YZZ=          -1369.6076
  YYZ=          -1548.6800  XYZ=          -1069.0857
 Hexadecapole moment (field-independent basis, Debye-Ang**3):
 XXXX=         -14737.1257 YYYY=         -41123.7542 ZZZZ=         -10909.9305 XXXY=         -13224.1253
 XXXZ=          -9565.4947 YYYX=         -16370.6608 YYYZ=         -15873.0217 ZZZX=          -7529.0679
 ZZZY=         -10910.9388 XXYY=         -13469.6609 XXZZ=          -7522.8611 YYZZ=         -11468.6570
 XXYZ=          -8636.0612 YYXZ=          -8643.7179 ZZXY=          -7391.8306
 N-N= 4.792436050490D+02 E-N=-2.042880377193D+03  KE= 4.579880901876D+02
  Exact polarizability:       0.000       0.000       0.000       0.000       0.000       0.000
 Approx polarizability:     155.259      -0.119     141.389      12.110     -27.207     104.305
 D2PCM: PCM CHGder 2nd derivatives, FixD1E=F FixD2E=F DoIter=F DoCFld=F I1PDM=0
 Calling FoFJK, ICntrl=    100127 FMM=F ISym2X=0 I1Cent= 0 IOpClX= 0 NMat=1 NMatS=1 NMatT=0.
 -------------------------------------------------------------------
 Center     Atomic                   Forces (Hartrees/Bohr)
 Number     Number              X              Y              Z
 -------------------------------------------------------------------
      1        6           0.076672851   -0.027748334    0.027882125
      2        6          -0.026734194    0.020426399   -0.015106590
      3        1          -0.001894737   -0.002297534    0.000852904
      4        6          -0.004464080   -0.011440513    0.005135490
      5        1          -0.004509011    0.000934595   -0.001337754
      6        6          -0.009635001    0.003340527   -0.003389743
      7        6           0.007000317    0.010676421   -0.004274338
      8        1          -0.004036460    0.002013683   -0.001721299
      9        6          -0.035926197    0.002209396   -0.007646390
     10        1           0.000771180    0.002703990   -0.001225228
     11        6           0.015097766   -0.004628749    0.005100068
     12        8          -0.008588042   -0.001097704   -0.001008928
     13        6           0.002938641   -0.000611513    0.000846555
     14        1          -0.000399130   -0.000109417   -0.000040031
     15        1          -0.000444366    0.000226808   -0.000159449
     16        1          -0.000415297    0.000182169   -0.000206836
     17        8          -0.005434241    0.005219775   -0.003700556
 -------------------------------------------------------------------
 Cartesian Forces:  Max     0.076672851 RMS     0.014760706
 FormGI is forming the generalized inverse of G from B-inverse, IUseBI=4.

 GradGradGradGradGradGradGradGradGradGradGradGradGradGradGradGradGradGrad
 Berny optimization.
 Internal  Forces:  Max     0.051366380 RMS     0.009639874
 Search for a local minimum.
 Step number   1 out of a maximum of   82
 All quantities printed in internal units (Hartrees-Bohrs-Radians)
 Mixed Optimization -- RFO/linear search
 Second derivative matrix not updated -- analytic derivatives used.
 ITU=  0
     Eigenvalues ---    0.00183   0.00416   0.01011   0.01503   0.01914
     Eigenvalues ---    0.02144   0.02187   0.02787   0.03036   0.03545
     Eigenvalues ---    0.03913   0.07417   0.08328   0.08501   0.10934
     Eigenvalues ---    0.11144   0.11752   0.12166   0.13283   0.18820
     Eigenvalues ---    0.18825   0.19017   0.19586   0.19712   0.21169
     Eigenvalues ---    0.23955   0.25920   0.28045   0.31092   0.34627
     Eigenvalues ---    0.34928   0.35398   0.35478   0.35598   0.36176
     Eigenvalues ---    0.36723   0.38189   0.39579   0.42730   0.45669
     Eigenvalues ---    0.46415   0.49714   0.50686   0.52943   0.89109
 RFO step:  Lambda=-2.60283623D-02 EMin= 1.82591312D-03
 Linear search not attempted -- first point.
 Maximum step size (   0.300) exceeded in Quadratic search.
    -- Step size scaled by   0.906
 Iteration  1 RMS(Cart)=  0.03671213 RMS(Int)=  0.00229900
 Iteration  2 RMS(Cart)=  0.00331771 RMS(Int)=  0.00075158
 Iteration  3 RMS(Cart)=  0.00000312 RMS(Int)=  0.00075157
 Iteration  4 RMS(Cart)=  0.00000000 RMS(Int)=  0.00075157
 Variable       Old X    -DE/DX   Delta X   Delta X   Delta X     New X
                                 (Linear)    (Quad)   (Total)
    R1        2.59616   0.02749   0.00000   0.06234   0.06355   2.65971
    R2        2.59734   0.02741   0.00000   0.06184   0.06305   2.66039
    R3        2.04817   0.00226   0.00000   0.00818   0.00818   2.05635
    R4        2.63824   0.00708   0.00000  -0.00419  -0.00417   2.63406
    R5        2.04641   0.00299   0.00000   0.00327   0.00327   2.04967
    R6        2.64066  -0.00049   0.00000  -0.00090  -0.00214   2.63853
    R7        2.63976  -0.00044   0.00000  -0.00118  -0.00241   2.63734
    R8        2.81976  -0.00298   0.00000  -0.01893  -0.01893   2.80084
    R9        2.04813   0.00294   0.00000   0.00322   0.00322   2.05136
   R10        2.63578   0.00721   0.00000  -0.00422  -0.00420   2.63159
   R11        2.04816   0.00230   0.00000   0.00832   0.00832   2.05648
   R12        2.52235   0.00604   0.00000   0.01466   0.01466   2.53701
   R13        2.28022   0.00691   0.00000   0.00695   0.00695   2.28717
   R14        2.70797  -0.00175   0.00000  -0.00756  -0.00756   2.70040
   R15        2.05427   0.00033   0.00000   0.00112   0.00112   2.05540
   R16        2.06034   0.00024   0.00000   0.00089   0.00089   2.06123
   R17        2.06024   0.00022   0.00000   0.00093   0.00093   2.06116
    A1        2.19791  -0.05137   0.00000  -0.19837  -0.19474   2.00316
    A2        2.13572  -0.01117   0.00000  -0.04816  -0.04868   2.08704
    A3        2.03721   0.02666   0.00000   0.11448   0.11551   2.15272
    A4        2.11026  -0.01549   0.00000  -0.06632  -0.06684   2.04342
    A5        2.09484   0.00319   0.00000   0.00852   0.00926   2.10410
    A6        2.09292   0.00129   0.00000  -0.00001  -0.00149   2.09143
    A7        2.09543  -0.00448   0.00000  -0.00851  -0.00777   2.08766
    A8        2.10717  -0.00448   0.00000  -0.03066  -0.03342   2.07375
    A9        2.12154   0.00207   0.00000   0.01475   0.01613   2.13767
   A10        2.05447   0.00241   0.00000   0.01592   0.01730   2.07177
   A11        2.08299  -0.00454   0.00000  -0.00833  -0.00760   2.07539
   A12        2.09686   0.00123   0.00000  -0.00028  -0.00175   2.09510
   A13        2.10334   0.00331   0.00000   0.00862   0.00935   2.11269
   A14        2.03432   0.02666   0.00000   0.11484   0.11589   2.15020
   A15        2.13663  -0.01125   0.00000  -0.04898  -0.04950   2.08712
   A16        2.11224  -0.01542   0.00000  -0.06586  -0.06638   2.04586
   A17        1.96638   0.00283   0.00000   0.00548   0.00547   1.97186
   A18        2.16628   0.00403   0.00000   0.01314   0.01314   2.17943
   A19        2.15052  -0.00686   0.00000  -0.01862  -0.01862   2.13190
   A20        2.02264  -0.00037   0.00000  -0.00084  -0.00084   2.02180
   A21        1.84449   0.00019   0.00000   0.00164   0.00164   1.84613
   A22        1.92550   0.00054   0.00000   0.00424   0.00424   1.92974
   A23        1.92609   0.00050   0.00000   0.00377   0.00376   1.92985
   A24        1.92629  -0.00034   0.00000  -0.00256  -0.00257   1.92372
   A25        1.92642  -0.00036   0.00000  -0.00286  -0.00286   1.92355
   A26        1.91422  -0.00050   0.00000  -0.00398  -0.00398   1.91024
    D1       -3.14122  -0.00001   0.00000   0.00118   0.00096  -3.14026
    D2       -0.00004   0.00007   0.00000   0.00463   0.00454   0.00450
    D3        0.00048  -0.00003   0.00000  -0.00330  -0.00318  -0.00271
    D4       -3.14100  -0.00006   0.00000  -0.00240  -0.00222   3.13997
    D5       -3.14096  -0.00008   0.00000  -0.00341  -0.00360   3.13862
    D6       -0.00034  -0.00004   0.00000  -0.00236  -0.00259  -0.00293
    D7        0.00022   0.00000   0.00000  -0.00001  -0.00010   0.00012
    D8        3.14085   0.00003   0.00000   0.00104   0.00090  -3.14143
    D9        0.00027   0.00000   0.00000  -0.00084  -0.00098  -0.00071
   D10       -3.13975  -0.00004   0.00000  -0.00249  -0.00252   3.14092
   D11        3.14089   0.00003   0.00000   0.00022   0.00003   3.14092
   D12        0.00088   0.00000   0.00000  -0.00143  -0.00151  -0.00064
   D13        3.14142   0.00003   0.00000   0.00106   0.00120  -3.14057
   D14        0.00019   0.00003   0.00000   0.00219   0.00223   0.00241
   D15       -0.00169   0.00006   0.00000   0.00265   0.00268   0.00099
   D16        3.14026   0.00007   0.00000   0.00378   0.00371  -3.13922
   D17       -0.01043  -0.00001   0.00000  -0.00098  -0.00102  -0.01144
   D18        3.13087   0.00006   0.00000   0.00071   0.00068   3.13155
   D19        3.13270  -0.00004   0.00000  -0.00254  -0.00251   3.13019
   D20       -0.00919   0.00003   0.00000  -0.00085  -0.00081  -0.01000
   D21       -0.00053  -0.00003   0.00000  -0.00030  -0.00010  -0.00064
   D22        3.14095   0.00000   0.00000  -0.00118  -0.00105   3.13990
   D23        3.14142  -0.00002   0.00000   0.00084   0.00095  -3.14081
   D24       -0.00028   0.00001   0.00000  -0.00004   0.00001  -0.00028
   D25        3.13763   0.00004   0.00000   0.00266   0.00265   3.14028
   D26       -0.00367  -0.00003   0.00000   0.00098   0.00100  -0.00267
   D27        3.13943  -0.00004   0.00000  -0.00118  -0.00118   3.13825
   D28       -1.06145  -0.00005   0.00000  -0.00103  -0.00103  -1.06249
   D29        1.05667   0.00002   0.00000  -0.00073  -0.00073   1.05594
         Item               Value     Threshold  Converged?
 Maximum Force            0.051366     0.000015     NO 
 RMS     Force            0.009640     0.000010     NO 
 Maximum Displacement     0.233856     0.000060     NO 
 RMS     Displacement     0.037079     0.000040     NO 
 Predicted change in Energy=-1.406882D-02
 GradGradGradGradGradGradGradGradGradGradGradGradGradGradGradGradGradGrad

                          Input orientation:                          
 ---------------------------------------------------------------------
 Center     Atomic      Atomic             Coordinates (Angstroms)
 Number     Number       Type             X           Y           Z
 ---------------------------------------------------------------------
      1          6           0        6.283382    6.990842    5.196890
      2          6           0        5.099166    6.250531    5.371549
      3          1           0        5.137801    5.286072    5.873985
      4          6           0        3.851486    6.684976    4.927174
      5          1           0        2.967692    6.075972    5.083600
      6          6           0        3.735856    7.914067    4.274892
      7          6           0        4.883650    8.684511    4.083200
      8          1           0        4.795353    9.640782    3.577108
      9          6           0        6.116825    8.222992    4.536571
     10          1           0        6.981668    8.859892    4.361435
     11          6           0        2.439351    8.432419    3.777780
     12          8           0        1.416222    7.594805    4.010130
     13          6           0        0.134903    8.035770    3.556491
     14          1           0       -0.561455    7.243458    3.821725
     15          1           0       -0.147016    8.966480    4.050502
     16          1           0        0.141517    8.185598    2.476130
     17          8           0        2.287895    9.494005    3.216564
 ---------------------------------------------------------------------
                    Distance matrix (angstroms):
                    1          2          3          4          5
     1  C    0.000000
     2  C    1.407457   0.000000
     3  H    2.162650   1.088171   0.000000
     4  C    2.465851   1.393885   2.123203   0.000000
     5  H    3.441456   2.157908   2.440906   1.084641   0.000000
     6  C    2.862222   2.414254   3.380666   1.396248   2.150041
     7  C    2.463345   2.762344   3.849791   2.403289   3.387649
     8  H    3.443851   3.847872   4.935222   3.383837   4.279922
     9  C    1.407820   2.371375   3.372338   2.765832   3.850451
    10  H    2.163085   3.372374   4.296492   3.853358   4.937989
    11  C    4.343799   3.791483   4.644912   2.523646   2.745387
    12  O    5.046030   4.150253   4.759659   2.756676   2.422034
    13  C    6.448765   5.579015   6.161218   4.185260   3.767965
    14  H    6.986178   5.952351   6.365897   4.583444   3.925587
    15  H    6.824029   6.053426   6.693264   4.686345   4.373069
    16  H    6.822938   6.058565   6.701904   4.692904   4.385964
    17  O    5.113847   4.802845   5.735028   3.641654   3.953592
                    6          7          8          9         10
     6  C    0.000000
     7  C    1.395622   0.000000
     8  H    2.142658   1.085532   0.000000
     9  C    2.415145   1.392575   2.162634   0.000000
    10  H    3.381918   2.123642   2.450496   1.088241   0.000000
    11  C    1.482139   2.476172   2.655401   3.760776   4.599569
    12  O    2.356423   3.635362   3.973922   4.771522   5.718221
    13  C    3.673932   4.821710   4.929126   6.064569   6.943004
    14  H    4.372866   5.638632   5.873874   6.787482   7.733231
    15  H    4.029221   5.038668   5.010568   6.326511   7.136258
    16  H    4.028467   5.031841   4.998791   6.320690   7.127182
    17  O    2.390158   2.853819   2.537496   4.244832   4.872816
                   11         12         13         14         15
    11  C    0.000000
    12  O    1.342526   0.000000
    13  C    2.348782   1.428992   0.000000
    14  H    3.228064   2.017461   1.087668   0.000000
    15  H    2.654975   2.080105   1.090754   1.786870   0.000000
    16  H    2.652406   2.080160   1.090721   1.786735   1.780919
    17  O    1.210317   2.235290   2.622474   3.681029   2.627265
                   16         17
    16  H    0.000000
    17  O    2.620518   0.000000
 Symmetry turned off by external request.
 Stoichiometry    C8H7O2(1-)
 Framework group  C1[X(C8H7O2)]
 Deg. of freedom    45
 Full point group                 C1      NOp   1
 Rotational constants (GHZ):           3.5920936           0.8577488           0.6954638
 Standard basis: 6-311+G(d,p) (5D, 7F)
   262 basis functions,   416 primitive gaussians,   272 cartesian basis functions
    36 alpha electrons       36 beta electrons
       nuclear repulsion energy       477.4063092197 Hartrees.
 NAtoms=   17 NActive=   17 NUniq=   17 SFac= 1.00D+00 NAtFMM=   60 NAOKFM=F Big=F
 Integral buffers will be    131072 words long.
 Raffenetti 2 integral format.
 Two-electron integral symmetry is turned off.
 ------------------------------------------------------------------------------
 Polarizable Continuum Model (PCM)
 =================================
 Model                : PCM.
 Atomic radii         : SMD-Coulomb.
 Polarization charges : Total charges.
 Charge compensation  : None.
 Solution method      : Matrix inversion.
 Cavity type          : VdW (van der Waals Surface) (Alpha=1.000).
 Cavity algorithm     : GePol (No added spheres)
                        Default sphere list used, NSphG=   17.
                        Lebedev-Laikov grids with approx.  5.0 points / Ang**2.
                        Smoothing algorithm: York/Karplus (Gamma=1.0000).
                        Polarization charges: spherical gaussians, with
                                              point-specific exponents (IZeta= 3).
                        Self-potential: point-specific (ISelfS= 7).
                        Self-field    : sphere-specific E.n sum rule (ISelfD= 2).
 1st derivatives      : Analytical E(r).r(x)/FMM algorithm (CHGder, D1EAlg=3).
                        Cavity 1st derivative terms included.
 Solvent              : TetraHydroFuran, Eps=   7.425700 Eps(inf)=   1.974025
 ------------------------------------------------------------------------------
 Spheres list:
 ISph  on   Nord     Re0    Alpha      Xe            Ye            Ze
    1   C      1    1.8500  1.000      6.283382      6.990842      5.196890
    2   C      2    1.8500  1.000      5.099166      6.250531      5.371549
    3   H      3    1.2000  1.000      5.137801      5.286072      5.873985
    4   C      4    1.8500  1.000      3.851486      6.684976      4.927174
    5   H      5    1.2000  1.000      2.967692      6.075972      5.083600
    6   C      6    1.8500  1.000      3.735856      7.914067      4.274892
    7   C      7    1.8500  1.000      4.883650      8.684511      4.083200
    8   H      8    1.2000  1.000      4.795353      9.640782      3.577108
    9   C      9    1.8500  1.000      6.116825      8.222992      4.536571
   10   H     10    1.2000  1.000      6.981668      8.859892      4.361435
   11   C     11    1.8500  1.000      2.439351      8.432419      3.777780
   12   O     12    2.2940  1.000      1.416222      7.594805      4.010130
   13   C     13    1.8500  1.000      0.134903      8.035770      3.556491
   14   H     14    1.2000  1.000     -0.561455      7.243458      3.821725
   15   H     15    1.2000  1.000     -0.147016      8.966480      4.050502
   16   H     16    1.2000  1.000      0.141517      8.185598      2.476130
   17   O     17    2.2940  1.000      2.287895      9.494005      3.216564
 ------------------------------------------------------------------------------
 ------------------------------------------------------------------------------
 Atomic radii for non-electrostatic terms: SMD-CDS.
 ------------------------------------------------------------------------------
 Nuclear repulsion after PCM non-electrostatic terms =      477.4031092675 Hartrees.
 One-electron integrals computed using PRISM.
 NBasis=   262 RedAO= T EigKep=  2.29D-06  NBF=   262
 NBsUse=   262 1.00D-06 EigRej= -1.00D+00 NBFU=   262
 Initial guess from the checkpoint file:  "4-cooch3-ph-anion-opt-freq-thf.chk"
 B after Tr=     0.010074   -0.005571    0.005415
         Rot=    1.000000   -0.000114   -0.000284   -0.000213 Ang=  -0.04 deg.
 ExpMin= 4.38D-02 ExpMax= 8.59D+03 ExpMxC= 1.30D+03 IAcc=3 IRadAn=         5 AccDes= 0.00D+00
 Harris functional with IExCor= 1009 and IRadAn=       5 diagonalized for initial guess.
 HarFok:  IExCor= 1009 AccDes= 0.00D+00 IRadAn=         5 IDoV= 1 UseB2=F ITyADJ=14
 ICtDFT=  3500011 ScaDFX=  1.000000  1.000000  1.000000  1.000000
 FoFCou: FMM=F IPFlag=           0 FMFlag=      100000 FMFlg1=           0
         NFxFlg=           0 DoJE=T BraDBF=F KetDBF=T FulRan=T
         wScrn=  0.000000 ICntrl=       500 IOpCl=  0 I1Cent=   200000004 NGrid=           0
         NMat0=    1 NMatS0=      1 NMatT0=    0 NMatD0=    1 NMtDS0=    0 NMtDT0=    0
 Symmetry not used in FoFCou.
 Requested convergence on RMS density matrix=1.00D-08 within 128 cycles.
 Requested convergence on MAX density matrix=1.00D-06.
 Requested convergence on             energy=1.00D-06.
 Level shift goal  0.100 maximum shift  0.100.
 No special actions if energy rises.
 Dynamic level shift is on during FON iterations.
 Inv3:  Mode=1 IEnd=     6750000.
 Iteration    1 A*A^-1 deviation from unit magnitude is 5.44D-15 for   1498.
 Iteration    1 A*A^-1 deviation from orthogonality  is 3.37D-15 for    580    245.
 Iteration    1 A^-1*A deviation from unit magnitude is 5.44D-15 for   1498.
 Iteration    1 A^-1*A deviation from orthogonality  is 7.62D-11 for    938    888.
 Error on total polarization charges =  0.05100
 SCF Done:  E(RM062X) =  -459.515155128     A.U. after   15 cycles
            NFock= 15  Conv=0.30D-08     -V/T= 2.0036
 SMD-CDS (non-electrostatic) energy       (kcal/mol) =      -2.01
 (included in total energy above)
 D1PCM: PCM CHGder 1st derivatives, ID1Alg=3 FixD1E=F DoIter=F DoCFld=F I1PDM=0.
 Calling FoFJK, ICntrl=      2127 FMM=F ISym2X=0 I1Cent= 0 IOpClX= 0 NMat=1 NMatS=1 NMatT=0.
 -------------------------------------------------------------------
 Center     Atomic                   Forces (Hartrees/Bohr)
 Number     Number              X              Y              Z
 -------------------------------------------------------------------
      1        6           0.014375467   -0.005285601    0.005381434
      2        6          -0.004294077    0.003633582   -0.002874387
      3        1          -0.000728367   -0.001129238    0.000457061
      4        6          -0.001549377   -0.003577623    0.001606482
      5        1          -0.000914104    0.000081004   -0.000214483
      6        6          -0.003145435    0.001098957   -0.001034142
      7        6           0.002020024    0.003430411   -0.001448317
      8        1          -0.000704139    0.000499863   -0.000359712
      9        6          -0.006155764    0.000272007   -0.001111615
     10        1           0.000464658    0.001182960   -0.000540323
     11        6           0.002811518   -0.000531955    0.000655141
     12        8          -0.001547888   -0.000251945   -0.000082417
     13        6           0.000676594   -0.000172532    0.000177577
     14        1          -0.000097968   -0.000010694   -0.000010624
     15        1          -0.000133633    0.000050224   -0.000053801
     16        1          -0.000133069    0.000053753   -0.000031421
     17        8          -0.000944440    0.000656828   -0.000516453
 -------------------------------------------------------------------
 Cartesian Forces:  Max     0.014375467 RMS     0.002833581

 GradGradGradGradGradGradGradGradGradGradGradGradGradGradGradGradGradGrad
 Berny optimization.
 Using GEDIIS/GDIIS optimizer.
 FormGI is forming the generalized inverse of G from B-inverse, IUseBI=4.
 Internal  Forces:  Max     0.008284634 RMS     0.001856454
 Search for a local minimum.
 Step number   2 out of a maximum of   82
 All quantities printed in internal units (Hartrees-Bohrs-Radians)
 Mixed Optimization -- RFO/linear search
 Update second derivatives using D2CorX and points    1    2
 DE= -1.40D-02 DEPred=-1.41D-02 R= 9.93D-01
 TightC=F SS=  1.41D+00  RLast= 3.00D-01 DXNew= 5.0454D-01 8.9997D-01
 Trust test= 9.93D-01 RLast= 3.00D-01 DXMaxT set to 5.05D-01
 ITU=  1  0
 Use linear search instead of GDIIS.
     Eigenvalues ---    0.00183   0.00416   0.01010   0.01503   0.01914
     Eigenvalues ---    0.02144   0.02183   0.02785   0.03027   0.03535
     Eigenvalues ---    0.03910   0.07416   0.08328   0.08501   0.10935
     Eigenvalues ---    0.11144   0.11752   0.12175   0.13282   0.18825
     Eigenvalues ---    0.18870   0.19022   0.19594   0.20378   0.21170
     Eigenvalues ---    0.23938   0.25920   0.28039   0.31092   0.34627
     Eigenvalues ---    0.34929   0.35435   0.35494   0.35598   0.36152
     Eigenvalues ---    0.36723   0.38192   0.39602   0.42715   0.45560
     Eigenvalues ---    0.46446   0.49712   0.50665   0.51811   0.89099
 RFO step:  Lambda=-7.65813320D-05 EMin= 1.82590060D-03
 Quartic linear search produced a step of  0.21154.
 Iteration  1 RMS(Cart)=  0.02792985 RMS(Int)=  0.00045996
 Iteration  2 RMS(Cart)=  0.00055284 RMS(Int)=  0.00018482
 Iteration  3 RMS(Cart)=  0.00000018 RMS(Int)=  0.00018482
 Variable       Old X    -DE/DX   Delta X   Delta X   Delta X     New X
                                 (Linear)    (Quad)   (Total)
    R1        2.65971   0.00648   0.01344   0.00274   0.01647   2.67618
    R2        2.66039   0.00663   0.01334   0.00329   0.01692   2.67731
    R3        2.05635   0.00119   0.00173   0.00261   0.00434   2.06069
    R4        2.63406   0.00206  -0.00088   0.00225   0.00138   2.63544
    R5        2.04967   0.00067   0.00069   0.00032   0.00101   2.05069
    R6        2.63853   0.00171  -0.00045   0.00479   0.00404   2.64256
    R7        2.63734   0.00172  -0.00051   0.00478   0.00397   2.64132
    R8        2.80084  -0.00067  -0.00400  -0.00092  -0.00493   2.79591
    R9        2.05136   0.00066   0.00068   0.00038   0.00106   2.05242
   R10        2.63159   0.00213  -0.00089   0.00225   0.00137   2.63295
   R11        2.05648   0.00115   0.00176   0.00243   0.00419   2.06066
   R12        2.53701   0.00113   0.00310   0.00066   0.00376   2.54077
   R13        2.28717   0.00093   0.00147  -0.00034   0.00113   2.28829
   R14        2.70040  -0.00033  -0.00160  -0.00042  -0.00202   2.69838
   R15        2.05540   0.00006   0.00024   0.00005   0.00029   2.05568
   R16        2.06123   0.00006   0.00019   0.00010   0.00029   2.06151
   R17        2.06116   0.00003   0.00020   0.00005   0.00024   2.06141
    A1        2.00316  -0.00828  -0.04120   0.00207  -0.03824   1.96492
    A2        2.08704  -0.00152  -0.01030   0.00426  -0.00616   2.08088
    A3        2.15272   0.00466   0.02444  -0.00071   0.02396   2.17668
    A4        2.04342  -0.00314  -0.01414  -0.00353  -0.01779   2.02563
    A5        2.10410   0.00073   0.00196   0.00117   0.00332   2.10742
    A6        2.09143  -0.00010  -0.00031  -0.00086  -0.00154   2.08988
    A7        2.08766  -0.00064  -0.00164  -0.00032  -0.00177   2.08588
    A8        2.07375  -0.00077  -0.00707   0.00124  -0.00651   2.06723
    A9        2.13767   0.00031   0.00341  -0.00063   0.00312   2.14079
   A10        2.07177   0.00047   0.00366  -0.00061   0.00339   2.07517
   A11        2.07539  -0.00059  -0.00161   0.00021  -0.00121   2.07417
   A12        2.09510  -0.00016  -0.00037  -0.00106  -0.00180   2.09330
   A13        2.11269   0.00075   0.00198   0.00086   0.00302   2.11571
   A14        2.15020   0.00465   0.02451  -0.00064   0.02412   2.17432
   A15        2.08712  -0.00154  -0.01047   0.00388  -0.00671   2.08041
   A16        2.04586  -0.00311  -0.01404  -0.00324  -0.01741   2.02845
   A17        1.97186   0.00035   0.00116  -0.00040   0.00076   1.97261
   A18        2.17943   0.00079   0.00278   0.00054   0.00332   2.18275
   A19        2.13190  -0.00114  -0.00394  -0.00014  -0.00408   2.12782
   A20        2.02180  -0.00003  -0.00018  -0.00003  -0.00021   2.02158
   A21        1.84613   0.00005   0.00035   0.00029   0.00063   1.84676
   A22        1.92974   0.00015   0.00090   0.00032   0.00121   1.93095
   A23        1.92985   0.00017   0.00080   0.00096   0.00176   1.93161
   A24        1.92372  -0.00011  -0.00054  -0.00071  -0.00125   1.92247
   A25        1.92355  -0.00010  -0.00061  -0.00020  -0.00081   1.92274
   A26        1.91024  -0.00016  -0.00084  -0.00063  -0.00148   1.90876
    D1       -3.14026  -0.00001   0.00020  -0.00439  -0.00417   3.13876
    D2        0.00450  -0.00009   0.00096  -0.00934  -0.00840  -0.00390
    D3       -0.00271   0.00003  -0.00067   0.00012  -0.00058  -0.00329
    D4        3.13997   0.00006  -0.00047   0.00112   0.00067   3.14064
    D5        3.13862   0.00005  -0.00076   0.00866   0.00794  -3.13662
    D6       -0.00293   0.00007  -0.00055   0.01096   0.01043   0.00750
    D7        0.00012  -0.00003  -0.00002   0.00381   0.00381   0.00393
    D8       -3.14143  -0.00001   0.00019   0.00611   0.00630  -3.13514
    D9       -0.00071  -0.00001  -0.00021  -0.00286  -0.00301  -0.00372
   D10        3.14092  -0.00001  -0.00053  -0.00314  -0.00361   3.13731
   D11        3.14092   0.00001   0.00001  -0.00059  -0.00055   3.14037
   D12       -0.00064   0.00001  -0.00032  -0.00087  -0.00115  -0.00179
   D13       -3.14057  -0.00001   0.00025  -0.00279  -0.00251   3.14011
   D14        0.00241  -0.00005   0.00047  -0.00591  -0.00538  -0.00297
   D15        0.00099  -0.00001   0.00057  -0.00253  -0.00193  -0.00094
   D16       -3.13922  -0.00005   0.00078  -0.00565  -0.00480   3.13917
   D17       -0.01144   0.00012  -0.00021   0.04879   0.04858   0.03714
   D18        3.13155   0.00003   0.00014   0.04602   0.04617  -3.10547
   D19        3.13019   0.00012  -0.00053   0.04852   0.04798  -3.10502
   D20       -0.01000   0.00003  -0.00017   0.04574   0.04556   0.03556
   D21       -0.00064   0.00005  -0.00002   0.00741   0.00741   0.00678
   D22        3.13990   0.00002  -0.00022   0.00643   0.00621  -3.13708
   D23       -3.14081   0.00001   0.00020   0.00423   0.00447  -3.13634
   D24       -0.00028  -0.00002   0.00000   0.00325   0.00326   0.00299
   D25        3.14028  -0.00008   0.00056  -0.00046   0.00010   3.14038
   D26       -0.00267   0.00002   0.00021   0.00223   0.00244  -0.00024
   D27        3.13825   0.00002  -0.00025  -0.00062  -0.00087   3.13738
   D28       -1.06249   0.00000  -0.00022  -0.00112  -0.00134  -1.06383
   D29        1.05594   0.00002  -0.00015  -0.00106  -0.00122   1.05473
         Item               Value     Threshold  Converged?
 Maximum Force            0.008285     0.000015     NO 
 RMS     Force            0.001856     0.000010     NO 
 Maximum Displacement     0.103160     0.000060     NO 
 RMS     Displacement     0.027951     0.000040     NO 
 Predicted change in Energy=-4.989384D-04
 GradGradGradGradGradGradGradGradGradGradGradGradGradGradGradGradGradGrad

                          Input orientation:                          
 ---------------------------------------------------------------------
 Center     Atomic      Atomic             Coordinates (Angstroms)
 Number     Number       Type             X           Y           Z
 ---------------------------------------------------------------------
      1          6           0        6.307423    6.987851    5.218492
      2          6           0        5.106143    6.251285    5.359704
      3          1           0        5.132944    5.278085    5.850915
      4          6           0        3.855919    6.677488    4.912222
      5          1           0        2.974624    6.061492    5.058766
      6          6           0        3.734383    7.910794    4.264410
      7          6           0        4.883647    8.686693    4.088899
      8          1           0        4.796894    9.645080    3.585344
      9          6           0        6.111881    8.226290    4.558738
     10          1           0        6.967443    8.881851    4.393369
     11          6           0        2.441655    8.423308    3.759238
     12          8           0        1.409676    7.605092    4.029916
     13          6           0        0.130962    8.043372    3.569736
     14          1           0       -0.572652    7.269120    3.867754
     15          1           0       -0.138685    8.994178    4.031617
     16          1           0        0.129736    8.155158    2.484629
     17          8           0        2.292304    9.466037    3.161975
 ---------------------------------------------------------------------
                    Distance matrix (angstroms):
                    1          2          3          4          5
     1  C    0.000000
     2  C    1.416173   0.000000
     3  H    2.168563   1.090470   0.000000
     4  C    2.489979   1.394614   2.114300   0.000000
     5  H    3.462832   2.161008   2.428903   1.085176   0.000000
     6  C    2.895277   2.415650   3.377000   1.398383   2.151314
     7  C    2.487807   2.756023   3.845187   2.402289   3.387727
     8  H    3.465506   3.842113   4.931165   3.384175   4.281792
     9  C    1.416771   2.356629   3.364514   2.759185   3.844315
    10  H    2.168799   3.364242   4.298484   3.848377   4.933537
    11  C    4.374257   3.791922   4.637950   2.525353   2.747910
    12  O    5.077562   4.155118   4.753286   2.760983   2.426994
    13  C    6.479290   5.582830   6.153894   4.188463   3.772463
    14  H    7.017053   5.959078   6.360108   4.588375   3.931926
    15  H    6.854657   6.065929   6.701437   4.700998   4.398679
    16  H    6.855686   6.054372   6.681431   4.686274   4.370699
    17  O    5.147023   4.804408   5.730495   3.644759   3.956552
                    6          7          8          9         10
     6  C    0.000000
     7  C    1.397724   0.000000
     8  H    2.144250   1.086093   0.000000
     9  C    2.416333   1.393298   2.165561   0.000000
    10  H    3.378204   2.114946   2.438588   1.090456   0.000000
    11  C    1.479532   2.478179   2.658968   3.761459   4.592945
    12  O    2.356418   3.638931   3.979000   4.772450   5.714105
    13  C    3.672165   4.824045   4.933217   6.064898   6.936779
    14  H    4.372600   5.641774   5.878517   6.787976   7.728532
    15  H    4.028469   5.032062   4.998276   6.319579   7.116216
    16  H    4.027507   5.045382   5.021335   6.331907   7.136219
    17  O    2.390342   2.860354   2.546422   4.251716   4.869757
                   11         12         13         14         15
    11  C    0.000000
    12  O    1.344517   0.000000
    13  C    2.349376   1.427923   0.000000
    14  H    3.229547   2.017125   1.087820   0.000000
    15  H    2.656734   2.080140   1.090906   1.786338   0.000000
    16  H    2.653583   2.080560   1.090850   1.786462   1.780218
    17  O    1.210913   2.235055   2.619474   3.678660   2.624621
                   16         17
    16  H    0.000000
    17  O    2.617996   0.000000
 Symmetry turned off by external request.
 Stoichiometry    C8H7O2(1-)
 Framework group  C1[X(C8H7O2)]
 Deg. of freedom    45
 Full point group                 C1      NOp   1
 Rotational constants (GHZ):           3.6027974           0.8533429           0.6930439
 Standard basis: 6-311+G(d,p) (5D, 7F)
   262 basis functions,   416 primitive gaussians,   272 cartesian basis functions
    36 alpha electrons       36 beta electrons
       nuclear repulsion energy       476.8122973534 Hartrees.
 NAtoms=   17 NActive=   17 NUniq=   17 SFac= 1.00D+00 NAtFMM=   60 NAOKFM=F Big=F
 Integral buffers will be    131072 words long.
 Raffenetti 2 integral format.
 Two-electron integral symmetry is turned off.
 ------------------------------------------------------------------------------
 Polarizable Continuum Model (PCM)
 =================================
 Model                : PCM.
 Atomic radii         : SMD-Coulomb.
 Polarization charges : Total charges.
 Charge compensation  : None.
 Solution method      : Matrix inversion.
 Cavity type          : VdW (van der Waals Surface) (Alpha=1.000).
 Cavity algorithm     : GePol (No added spheres)
                        Default sphere list used, NSphG=   17.
                        Lebedev-Laikov grids with approx.  5.0 points / Ang**2.
                        Smoothing algorithm: York/Karplus (Gamma=1.0000).
                        Polarization charges: spherical gaussians, with
                                              point-specific exponents (IZeta= 3).
                        Self-potential: point-specific (ISelfS= 7).
                        Self-field    : sphere-specific E.n sum rule (ISelfD= 2).
 1st derivatives      : Analytical E(r).r(x)/FMM algorithm (CHGder, D1EAlg=3).
                        Cavity 1st derivative terms included.
 Solvent              : TetraHydroFuran, Eps=   7.425700 Eps(inf)=   1.974025
 ------------------------------------------------------------------------------
 Spheres list:
 ISph  on   Nord     Re0    Alpha      Xe            Ye            Ze
    1   C      1    1.8500  1.000      6.307423      6.987851      5.218492
    2   C      2    1.8500  1.000      5.106143      6.251285      5.359704
    3   H      3    1.2000  1.000      5.132944      5.278085      5.850915
    4   C      4    1.8500  1.000      3.855919      6.677488      4.912222
    5   H      5    1.2000  1.000      2.974624      6.061492      5.058766
    6   C      6    1.8500  1.000      3.734383      7.910794      4.264410
    7   C      7    1.8500  1.000      4.883647      8.686693      4.088899
    8   H      8    1.2000  1.000      4.796894      9.645080      3.585344
    9   C      9    1.8500  1.000      6.111881      8.226290      4.558738
   10   H     10    1.2000  1.000      6.967443      8.881851      4.393369
   11   C     11    1.8500  1.000      2.441655      8.423308      3.759238
   12   O     12    2.2940  1.000      1.409676      7.605092      4.029916
   13   C     13    1.8500  1.000      0.130962      8.043372      3.569736
   14   H     14    1.2000  1.000     -0.572652      7.269120      3.867754
   15   H     15    1.2000  1.000     -0.138685      8.994178      4.031617
   16   H     16    1.2000  1.000      0.129736      8.155158      2.484629
   17   O     17    2.2940  1.000      2.292304      9.466037      3.161975
 ------------------------------------------------------------------------------
 ------------------------------------------------------------------------------
 Atomic radii for non-electrostatic terms: SMD-CDS.
 ------------------------------------------------------------------------------
 Nuclear repulsion after PCM non-electrostatic terms =      476.8091253237 Hartrees.
 One-electron integrals computed using PRISM.
 NBasis=   262 RedAO= T EigKep=  2.32D-06  NBF=   262
 NBsUse=   262 1.00D-06 EigRej= -1.00D+00 NBFU=   262
 Initial guess from the checkpoint file:  "4-cooch3-ph-anion-opt-freq-thf.chk"
 B after Tr=    -0.009511   -0.053331    0.096026
         Rot=    0.999994    0.003463    0.000114    0.000490 Ang=   0.40 deg.
 ExpMin= 4.38D-02 ExpMax= 8.59D+03 ExpMxC= 1.30D+03 IAcc=3 IRadAn=         5 AccDes= 0.00D+00
 Harris functional with IExCor= 1009 and IRadAn=       5 diagonalized for initial guess.
 HarFok:  IExCor= 1009 AccDes= 0.00D+00 IRadAn=         5 IDoV= 1 UseB2=F ITyADJ=14
 ICtDFT=  3500011 ScaDFX=  1.000000  1.000000  1.000000  1.000000
 FoFCou: FMM=F IPFlag=           0 FMFlag=      100000 FMFlg1=           0
         NFxFlg=           0 DoJE=T BraDBF=F KetDBF=T FulRan=T
         wScrn=  0.000000 ICntrl=       500 IOpCl=  0 I1Cent=   200000004 NGrid=           0
         NMat0=    1 NMatS0=      1 NMatT0=    0 NMatD0=    1 NMtDS0=    0 NMtDT0=    0
 Symmetry not used in FoFCou.
 Requested convergence on RMS density matrix=1.00D-08 within 128 cycles.
 Requested convergence on MAX density matrix=1.00D-06.
 Requested convergence on             energy=1.00D-06.
 Level shift goal  0.100 maximum shift  0.100.
 No special actions if energy rises.
 Dynamic level shift is on during FON iterations.
 Inv3:  Mode=1 IEnd=     6741003.
 Iteration    1 A*A^-1 deviation from unit magnitude is 3.33D-15 for   1490.
 Iteration    1 A*A^-1 deviation from orthogonality  is 2.12D-15 for   1003    885.
 Iteration    1 A^-1*A deviation from unit magnitude is 3.44D-15 for   1478.
 Iteration    1 A^-1*A deviation from orthogonality  is 3.95D-13 for    970    893.
 Error on total polarization charges =  0.05026
 SCF Done:  E(RM062X) =  -459.515645779     A.U. after   13 cycles
            NFock= 13  Conv=0.88D-08     -V/T= 2.0037
 SMD-CDS (non-electrostatic) energy       (kcal/mol) =      -1.99
 (included in total energy above)
 D1PCM: PCM CHGder 1st derivatives, ID1Alg=3 FixD1E=F DoIter=F DoCFld=F I1PDM=0.
 Calling FoFJK, ICntrl=      2127 FMM=F ISym2X=0 I1Cent= 0 IOpClX= 0 NMat=1 NMatS=1 NMatT=0.
 -------------------------------------------------------------------
 Center     Atomic                   Forces (Hartrees/Bohr)
 Number     Number              X              Y              Z
 -------------------------------------------------------------------
      1        6           0.000779171   -0.000319078    0.000245909
      2        6          -0.000482944   -0.000343096    0.000205849
      3        1          -0.000039793   -0.000148826    0.000141100
      4        6          -0.000284778   -0.000251590    0.000039540
      5        1          -0.000060807   -0.000046313   -0.000056732
      6        6          -0.000214060    0.000066357   -0.000059231
      7        6           0.000022297    0.000367864   -0.000137278
      8        1          -0.000041768    0.000080265    0.000017206
      9        6           0.000232889    0.000489235   -0.000287745
     10        1           0.000117496    0.000144813   -0.000086242
     11        6           0.000013886    0.000060554   -0.000035519
     12        8          -0.000004742   -0.000090167   -0.000037017
     13        6          -0.000000994   -0.000027353   -0.000008286
     14        1           0.000000368   -0.000015145   -0.000010765
     15        1          -0.000000869    0.000013051   -0.000007378
     16        1          -0.000003529    0.000004767   -0.000005292
     17        8          -0.000031823    0.000014662    0.000081880
 -------------------------------------------------------------------
 Cartesian Forces:  Max     0.000779171 RMS     0.000199061

 GradGradGradGradGradGradGradGradGradGradGradGradGradGradGradGradGradGrad
 Berny optimization.
 Using GEDIIS/GDIIS optimizer.
 FormGI is forming the generalized inverse of G from B-inverse, IUseBI=4.
 Internal  Forces:  Max     0.000890641 RMS     0.000184860
 Search for a local minimum.
 Step number   3 out of a maximum of   82
 All quantities printed in internal units (Hartrees-Bohrs-Radians)
 Mixed Optimization -- En-DIIS/RFO-DIIS
 Update second derivatives using D2CorX and points    1    2    3
 DE= -4.91D-04 DEPred=-4.99D-04 R= 9.83D-01
 TightC=F SS=  1.41D+00  RLast= 1.16D-01 DXNew= 8.4853D-01 3.4900D-01
 Trust test= 9.83D-01 RLast= 1.16D-01 DXMaxT set to 5.05D-01
 ITU=  1  1  0
 Use linear search instead of GDIIS.
     Eigenvalues ---    0.00189   0.00417   0.01012   0.01503   0.01915
     Eigenvalues ---    0.02143   0.02181   0.02785   0.03024   0.03530
     Eigenvalues ---    0.03909   0.07416   0.08328   0.08501   0.10939
     Eigenvalues ---    0.11157   0.11751   0.12167   0.13281   0.18825
     Eigenvalues ---    0.18876   0.19021   0.19589   0.20855   0.21179
     Eigenvalues ---    0.23920   0.25920   0.28038   0.31082   0.34627
     Eigenvalues ---    0.34929   0.35441   0.35511   0.35597   0.36116
     Eigenvalues ---    0.36723   0.38195   0.39554   0.42721   0.45179
     Eigenvalues ---    0.46500   0.49711   0.50019   0.50664   0.89105
 RFO step:  Lambda=-2.97736802D-05 EMin= 1.88784375D-03
 Quartic linear search produced a step of  0.00862.
 Iteration  1 RMS(Cart)=  0.02737454 RMS(Int)=  0.00039775
 Iteration  2 RMS(Cart)=  0.00053032 RMS(Int)=  0.00000494
 Iteration  3 RMS(Cart)=  0.00000022 RMS(Int)=  0.00000494
 Variable       Old X    -DE/DX   Delta X   Delta X   Delta X     New X
                                 (Linear)    (Quad)   (Total)
    R1        2.67618   0.00089   0.00014   0.00220   0.00234   2.67852
    R2        2.67731   0.00088   0.00015   0.00203   0.00217   2.67948
    R3        2.06069   0.00020   0.00004   0.00056   0.00060   2.06128
    R4        2.63544   0.00027   0.00001   0.00042   0.00043   2.63587
    R5        2.05069   0.00007   0.00001   0.00019   0.00020   2.05088
    R6        2.64256   0.00036   0.00003   0.00077   0.00081   2.64337
    R7        2.64132   0.00047   0.00003   0.00092   0.00096   2.64227
    R8        2.79591   0.00002  -0.00004   0.00003  -0.00001   2.79590
    R9        2.05242   0.00007   0.00001   0.00021   0.00022   2.05264
   R10        2.63295   0.00040   0.00001   0.00089   0.00090   2.63385
   R11        2.06066   0.00019   0.00004   0.00053   0.00057   2.06123
   R12        2.54077   0.00006   0.00003   0.00026   0.00029   2.54106
   R13        2.28829  -0.00002   0.00001  -0.00003  -0.00002   2.28827
   R14        2.69838   0.00001  -0.00002  -0.00004  -0.00006   2.69833
   R15        2.05568   0.00001   0.00000   0.00003   0.00003   2.05572
   R16        2.06151   0.00001   0.00000   0.00004   0.00004   2.06156
   R17        2.06141   0.00000   0.00000   0.00004   0.00004   2.06145
    A1        1.96492  -0.00001  -0.00033  -0.00076  -0.00111   1.96381
    A2        2.08088   0.00006  -0.00005  -0.00034  -0.00039   2.08049
    A3        2.17668  -0.00005   0.00021   0.00057   0.00076   2.17744
    A4        2.02563  -0.00001  -0.00015  -0.00023  -0.00038   2.02525
    A5        2.10742   0.00003   0.00003   0.00037   0.00040   2.10782
    A6        2.08988   0.00000  -0.00001  -0.00029  -0.00032   2.08956
    A7        2.08588  -0.00003  -0.00002  -0.00007  -0.00008   2.08581
    A8        2.06723   0.00019  -0.00006   0.00053   0.00045   2.06769
    A9        2.14079  -0.00023   0.00003  -0.00078  -0.00075   2.14004
   A10        2.07517   0.00003   0.00003   0.00026   0.00030   2.07546
   A11        2.07417  -0.00003  -0.00001  -0.00036  -0.00037   2.07380
   A12        2.09330   0.00000  -0.00002  -0.00010  -0.00013   2.09318
   A13        2.11571   0.00003   0.00003   0.00046   0.00049   2.11621
   A14        2.17432  -0.00013   0.00021   0.00016   0.00036   2.17468
   A15        2.08041   0.00013  -0.00006   0.00039   0.00034   2.08075
   A16        2.02845   0.00000  -0.00015  -0.00055  -0.00069   2.02776
   A17        1.97261  -0.00009   0.00001  -0.00036  -0.00035   1.97226
   A18        2.18275   0.00007   0.00003   0.00044   0.00047   2.18322
   A19        2.12782   0.00002  -0.00004  -0.00008  -0.00011   2.12771
   A20        2.02158   0.00003   0.00000   0.00012   0.00012   2.02171
   A21        1.84676   0.00000   0.00001  -0.00002  -0.00001   1.84675
[...]
   zx        -0.427689D+02     -0.633770D+01     -0.705164D+01
   zy        -0.619341D+01     -0.917768D+00     -0.102115D+01
   zz         0.140521D+03      0.208231D+02      0.231688D+02

 ----------------------------------------------------------------------
 Unable to Open any file for archive entry.
 1\1\GINC-CN018\Freq\RM062X\6-311+G(d,p)\C8H7O2(1-)\TAHMINAAFROZ\27-May
 -2025\0\\#N Geom=AllCheck Guess=TCheck SCRF=Check GenChk RM062X/6-311+
 G(d,p) Freq\\4-cooch3-ph-anion-opt-freq-thf\\-1,1\C,6.3088582471,6.984
 7477228,5.2142387771\C,5.1043436295,6.2531028832,5.3646410671\H,5.1294
 860266,5.2824949813,5.8616136451\C,3.8540178216,6.6808385811,4.9182380
 244\H,2.9713814139,6.0674450381,5.0681352231\C,3.7339125964,7.91347015
 31,4.2680491778\C,4.8848360752,8.6862847686,4.0863796613\H,4.798032433
 5,9.6444206926,3.5821660254\C,6.1145161397,8.2222432446,4.5499915802\H
 ,6.9718558495,8.8737809914,4.3765175257\C,2.4404133997,8.4280222511,3.
 7668374923\O,1.4117655247,7.5999025339,4.0201185796\C,0.1320951335,8.0
 395098653,3.5639480516\H,-0.568503925,7.2571650315,3.8476335055\H,-0.1
 432790977,8.9814881951,4.0403470879\H,0.1329149272,8.1687273943,2.4807
 776123\O,2.2876518046,9.4795296721,3.1860929638\\Version=AS64L-G16RevC
 .01\HF=-459.5156535\RMSD=6.371e-09\RMSF=4.777e-06\ZeroPoint=0.1308238\
 Thermal=0.139476\ETot=-459.3761775\HTot=-459.3752333\GTot=-459.4189767
 \Dipole=-5.204267,0.7768664,-1.3312314\DipoleDeriv=-0.1920337,-0.12191
 77,0.1750154,-0.126487,-0.5722377,-0.1448253,0.1818134,-0.1425573,-0.7
 027762,-0.5534088,0.1162379,-0.1263766,0.1334297,0.1913985,-0.1668362,
 -0.1353649,-0.1711994,-0.1239601,0.0553914,-0.0258275,0.0025105,-0.058
 0329,-0.1898284,0.1431793,0.0182289,0.1491009,0.0407581,0.1214866,-0.0
 939607,0.0824678,-0.3434073,0.1321814,-0.1596726,0.2137434,-0.1148976,
 0.0348256,-0.0654294,-0.1145805,0.0161018,-0.1043709,0.0527887,0.03566
 99,0.009405,0.0327227,0.1451781,-1.1333164,0.3419486,-0.3570017,0.2869
 551,-0.2956531,0.1379855,-0.3254911,0.147941,-0.2652889,0.4186746,-0.1
 080775,0.1445658,0.1754359,-0.0836958,0.0376441,-0.0005802,-0.0138089,
 -0.0646462,0.0961537,0.0398685,-0.0311147,0.0108902,-0.057639,0.112988
 ,-0.016762,0.1178717,0.0978884,-0.220256,0.3956464,-0.2083709,0.357838
 1,-0.0467401,-0.0051235,-0.1944321,0.001016,-0.222848,-0.0925444,-0.17
 45362,0.0521559,-0.1377715,-0.0841255,0.0747614,0.0342248,0.0676704,0.
 0845014,3.0720415,-0.2333254,0.5994316,0.1597045,1.7541021,-0.7000536,
 0.3920455,-0.7661661,0.8532202,-2.3312881,-0.1987659,-0.2433156,-0.544
 6376,-0.7700437,0.117575,-0.0624471,0.1779162,-0.4681284,1.0471393,-0.
 0555302,0.1554554,-0.1640447,0.3373195,-0.0317533,0.2121562,-0.0121385
 ,0.3740785,-0.0479385,-0.0450994,-0.0047697,-0.1188464,-0.0129031,0.04
 38795,0.0322515,0.0567467,0.0889248,-0.0364852,-0.0104226,-0.0375297,0
 .1181129,-0.0458062,-0.0739073,-0.0140036,-0.0904394,0.0232224,-0.0353
 944,0.0057742,0.0490051,0.0594865,0.0895523,0.0197176,-0.0717143,0.003
 9659,-0.1134333,-1.1027923,0.2825679,-0.2682305,0.2957455,-1.3986698,0
 .5587713,-0.2730733,0.5562557,-0.7815161\Polar=194.2998624,-9.442489,1
 44.8239564,23.6155825,-29.0902254,110.532015\Quadrupole=8.3833239,-60.
 2505762,51.8672523,-156.8592097,-112.998536,-128.1321283\PG=C01 [X(C8H
 7O2)]\NImag=0\\0.37629867,0.07452985,0.40164853,0.01824827,-0.15707226
 ,0.14894066,-0.23445440,-0.07457153,0.00422655,0.59078585,-0.09270008,
 -0.14396105,0.03075635,0.01954758,0.57780703,0.01338747,0.03427726,-0.
 06456973,0.07304963,-0.21970021,0.26313548,0.00056248,-0.02343271,0.01
 243819,-0.05477246,0.00834533,-0.00653213,0.06138372,-0.00285629,-0.01
 211762,0.00433194,0.01324752,-0.25870836,0.11329393,-0.00728084,0.2769
 4801,0.00199304,0.00056005,-0.00244692,-0.00900055,0.11241429,-0.09888
 679,0.00968489,-0.12822377,0.09372482,-0.05110521,-0.03643669,0.005539
 67,-0.28413085,0.08624126,-0.08394096,-0.00024448,-0.00171019,-0.00000
 549,0.69482460,0.00870994,0.05406482,-0.01570761,0.01486881,-0.1367069
 7,0.03768549,0.02706470,-0.00797094,0.01118101,0.07355240,0.58105953,-
 0.01751675,-0.02407122,0.02900074,-0.04758520,0.05080717,-0.10264621,-
 0.01458380,0.00592342,-0.00137495,0.06489469,-0.21078141,0.25957735,-0
 .00386047,0.00187943,-0.00274689,-0.01532441,-0.01776856,0.00511569,0.
 00092917,0.00052232,0.00067258,-0.24158047,-0.13287849,0.03051454,0.25
 573267,0.00144653,0.00140904,0.00255592,0.00924908,0.01001971,-0.00036
 842,-0.00016344,-0.00024157,-0.00202457,-0.12977964,-0.14601274,0.0303
 4664,0.14206516,0.14867832,-0.00251938,0.00263858,0.00412129,-0.008625
 64,-0.00531527,0.00707460,0.00101938,-0.00190237,-0.00302278,0.0289424
 8,0.02971518,-0.04919147,-0.03008631,-0.03608530,0.03887359,-0.0084559
 9,-0.02545819,0.01292382,0.01486541,0.02633999,-0.01215820,-0.00428148
 ,0.00250774,-0.00357573,-0.11612906,0.02708786,-0.02397984,0.00493624,
 -0.02334473,0.01221828,0.64731316,-0.02534080,-0.04844406,0.01563909,0
 .07719163,-0.00693716,0.02193871,0.00060166,0.00293438,0.00279230,-0.0
 2420386,-0.27000940,0.10170742,0.00199522,-0.01030401,0.00707323,0.057
 39223,0.59414281,0.01294738,0.01576981,-0.01407949,-0.03810470,0.01248
 434,-0.00517853,-0.00259129,0.00315068,0.00616224,0.00212809,0.1114053
 5,-0.11755999,-0.00061792,0.00239881,0.00150234,0.06552047,-0.22460641
 ,0.25917841,0.02843066,0.07182846,-0.03492674,-0.06544934,-0.00234529,
 -0.00917370,-0.00138811,-0.00054399,0.00027989,0.03650039,-0.05999921,
 0.03601144,0.00196136,0.00176026,-0.00190692,-0.24483689,-0.07478014,0
 .00420265,0.65241108,0.02697875,-0.00199694,0.01595670,-0.01206143,-0.
 00395154,-0.00463724,-0.00048339,0.00020001,-0.00085349,-0.01836980,-0
 .03455168,0.01749090,0.00080497,-0.00255557,0.00520341,-0.12727706,-0.
 17890324,0.03569667,0.03200085,0.61166042,-0.01209901,0.02410230,0.005
 05519,-0.00427724,-0.00286019,-0.00809431,0.00024071,-0.00088637,-0.00
 085609,0.01485975,0.00981010,0.00421129,-0.00140172,0.00537564,0.00437
 433,0.03089248,0.04540182,-0.07902058,0.07890184,-0.23484326,0.2729991
 3,-0.00408469,0.00127521,-0.00248551,-0.00116084,-0.00014878,-0.000112
 42,0.00019927,0.00020445,0.00027774,-0.00419192,-0.00299749,-0.0005697
 3,0.00021312,-0.00131548,0.00055717,0.00704556,-0.02188162,0.01178321,
 -0.05907188,0.01744685,-0.01233284,0.05591848,0.00168513,0.00159023,0.
 00250794,0.00021566,0.00054011,-0.00031671,0.00017343,-0.00044877,-0.0
 0068958,-0.00399987,0.00157153,0.00211978,0.00023858,-0.00044590,0.000
 67650,0.00282683,-0.01186566,0.00836738,0.01480342,-0.27197833,0.12122
 602,-0.01711464,0.28560421,-0.00270934,0.00242174,0.00415974,-0.000294
 30,-0.00037701,-0.00002251,0.00028981,-0.00068037,-0.00145772,-0.00005
 587,0.00228206,0.00597692,-0.00022815,0.00038908,0.00055726,-0.0007132
 2,0.00379438,0.00148709,-0.01102281,0.12169888,-0.10365763,0.01402286,
 -0.13542194,0.09788146,-0.10843701,0.00800582,-0.01412402,0.03758725,-
 0.02706490,0.02111452,-0.00244988,-0.00389490,-0.00037400,-0.02343713,
 0.03098802,-0.01842782,-0.00020007,0.00063671,-0.00032300,-0.06138967,
 -0.03423739,0.00465769,-0.28482349,0.08765588,-0.08536739,0.00405805,-
 0.00241096,0.00089602,0.65955815,0.02619785,-0.23161800,0.09705233,-0.
 04533510,-0.03174462,0.00627892,-0.00519225,0.00058992,0.00398193,0.02
 153221,-0.03365138,0.01660310,0.00102737,-0.00014846,0.00016366,0.0169
 1803,0.04698527,-0.01683170,0.01676029,-0.13752877,0.03932194,0.024483
 11,-0.00335605,0.00922580,0.07274734,0.52821886,-0.02328804,0.09356908
 ,-0.10226564,0.03039300,0.00982180,-0.00209137,0.00029735,0.00421572,0
 .00820683,-0.01367452,0.01833623,-0.02070260,-0.00053677,0.00010477,-0
 .00031541,-0.02134999,-0.02606327,0.01746324,-0.04922140,0.05228688,-0
 .10298842,-0.01281854,0.00428091,0.00136213,0.05891345,-0.18497239,0.2
 4378313,0.00738811,0.00260439,0.00052582,0.00247384,-0.00002544,-0.001
 42905,0.00004354,0.00012981,-0.00004794,0.00037559,0.00087668,-0.00013
 038,-0.00004502,0.00000017,0.00034095,-0.00342844,0.00307158,-0.003766
 92,-0.02211095,-0.01910884,0.00484958,0.00098118,0.00054605,0.00068669
 ,-0.22201879,-0.12071048,0.02797252,0.23752973,-0.01807243,-0.01687667
 ,0.00403203,-0.00128515,-0.00284536,0.00645634,-0.00112091,-0.00076741
 ,0.00016530,0.00093237,-0.00106500,0.00002367,-0.00001928,-0.00027844,
 -0.00083128,0.00122451,0.00244003,0.00325273,0.00960839,0.00751997,0.0
 0016333,-0.00016852,-0.00029559,-0.00200682,-0.12547128,-0.14008028,0.
 02749747,0.13377553,0.15190712,0.01100206,0.00779052,-0.00437251,-0.00
 078498,0.00668013,0.00678280,0.00058528,0.00039450,-0.00013415,-0.0001
 3599,0.00001572,-0.00139095,0.00035168,-0.00082590,-0.00141791,-0.0027
 9084,0.00359914,0.00603769,-0.00978965,-0.00515674,0.00514857,0.001037
 62,-0.00188615,-0.00303002,0.03043587,0.02845451,-0.04930966,-0.029299
 06,-0.03888042,0.04131435,-0.00241248,-0.00061780,0.00076038,0.0156011
 5,-0.00199434,0.00216187,0.00092869,-0.00143768,0.00072204,-0.00317938
 ,0.02162184,-0.01113024,-0.00096833,-0.00239608,0.00181425,-0.18184317
 ,0.03239989,-0.03601271,-0.04214360,0.00219753,-0.00875718,-0.00044110
 ,0.00168574,-0.00021999,0.00540416,-0.01131376,0.00525424,0.00047759,0
 .00065371,-0.00039237,0.59452970,-0.00021118,-0.00433262,-0.00029595,-
 0.00431688,-0.00389292,0.00599149,0.00103424,0.00007683,0.00063141,0.0
 2792950,-0.00820158,0.00772247,-0.00007288,-0.00191076,-0.00111805,0.0
 2464926,-0.10498104,0.01864020,-0.00152639,0.01553884,-0.00833321,-0.0
 0182498,-0.00336775,-0.00062683,-0.01000837,0.00322019,0.00079628,-0.0
 0160610,0.00029767,-0.00006041,-0.04384889,0.78965766,0.00055949,-0.00
 032504,-0.00453941,0.00332852,0.00638080,0.00670617,-0.00052927,0.0001
 7434,0.00074889,-0.01421822,0.00651519,-0.00905353,0.00060958,-0.00150
 334,-0.00317939,-0.03196788,0.02004637,-0.09311336,-0.00707000,-0.0075
 8790,0.00245214,0.00162965,-0.00001819,-0.00380115,0.00456801,0.000553
 22,0.00899352,0.00076741,0.00034458,0.00069204,0.08978512,-0.30663623,
 0.39820870,-0.00045924,-0.00115632,0.00045388,-0.00303489,-0.00076262,
 -0.00007030,-0.00025801,0.00062603,-0.00035888,-0.00297249,-0.00395855
 ,0.00150685,-0.00226271,0.00077534,-0.00091750,-0.05332309,-0.02473169
 ,0.00146763,0.00182025,0.00815584,-0.00408385,0.00101362,-0.00022996,0
 .00031418,-0.00482525,0.00193266,-0.00187699,-0.00129544,0.00004303,-0
 .00021257,-0.20437528,-0.06962283,0.01230474,0.52274578,0.00064191,0.0
 0021100,0.00020179,-0.00174772,0.00071712,-0.00109184,-0.00009318,0.00
 011394,-0.00007791,0.00203507,-0.00489028,0.00321135,0.00247362,0.0006
 9919,0.00022021,-0.00311269,0.01230773,-0.00077724,0.00344615,0.000044
 82,0.00133707,0.00076279,0.00041261,-0.00004498,-0.00019507,0.00173434
 ,-0.00112337,0.00006970,-0.00010765,-0.00006460,-0.05457823,-0.1531317
 2,0.03530583,0.05477663,0.32042930,-0.00047642,-0.00012992,0.00035516,
 0.00052004,-0.00089207,-0.00022073,-0.00000321,0.00005691,-0.00002870,
 -0.00163104,0.00209369,-0.00092175,-0.00182072,-0.00011613,0.00023492,
 -0.00989266,-0.00456244,0.01258003,-0.00169170,0.00216744,0.00004974,-
 0.00023659,-0.00023909,0.00012852,-0.00069951,-0.00074672,-0.00016286,
 -0.00021951,-0.00007063,-0.00026353,0.00442192,0.03276414,-0.08392584,
 0.04997761,-0.11863736,0.14734250,0.00030007,0.00027504,-0.00007440,0.
 00083058,0.00044412,-0.00011367,0.00009949,-0.00019654,0.00011641,0.00
 071916,0.00023273,0.00007063,-0.00002567,0.00091252,-0.00042795,0.0045
 4834,-0.00284768,0.00142040,-0.00139966,-0.00046216,-0.00010308,-0.000
 20561,-0.00001258,-0.00004671,0.00091879,-0.00100129,0.00072463,0.0001
 8241,0.00009124,0.00000517,-0.06804211,-0.01656718,-0.00348212,-0.1800
 9232,0.03374132,-0.03798048,0.50407149,0.00010060,-0.00002244,0.000007
 34,-0.00018112,0.00026830,-0.00007764,-0.00003105,0.00004212,-0.000028
 39,0.00026288,-0.00064468,0.00021649,0.00021636,0.00022185,-0.00019710
 ,-0.00391916,-0.00236638,0.00305766,-0.00077683,0.00107780,-0.00038043
 ,0.00010767,0.00000146,0.00006860,-0.00031016,-0.00023263,-0.00005109,
 -0.00016991,-0.00001285,-0.00008914,-0.01973702,0.01594961,-0.01126703
 ,0.05556150,-0.10409097,0.03028403,0.05248611,0.60572651,0.00000439,0.
 00001679,-0.00006638,0.00020775,0.00004276,0.00021365,0.00003494,-0.00
 005886,0.00003120,0.00005507,0.00021881,-0.00040241,-0.00007843,-0.000
 07694,-0.00023031,0.00196513,0.00326430,0.00345577,0.00007840,-0.00034
 548,0.00079526,-0.00010969,0.00004275,0.00004418,0.00034552,-0.0001309
 2,-0.00005277,0.00014522,-0.00004164,-0.00007685,-0.00190418,-0.010820
 75,0.00651028,-0.04926526,0.02643936,-0.08792843,-0.04348588,0.0039252
 8,0.58588411,-0.00000589,-0.00001569,0.00000475,-0.00011880,0.00002136
 ,-0.00002704,-0.00002414,0.00003624,-0.00002353,0.00000743,-0.00019879
 ,0.00010193,0.00000655,0.00000555,-0.00000701,-0.00109372,-0.00124961,
 0.00042739,-0.00016313,0.00045110,-0.00026114,0.00003749,-0.00001502,0
 .00001233,-0.00019627,-0.00001290,-0.00002691,-0.00007902,0.00000531,-
 0.00001683,-0.00110311,0.00639745,-0.00362621,-0.03637003,-0.02333525,
 0.00575356,-0.15326213,-0.12291328,0.04631682,0.18207373,-0.00000993,0
 .00002147,-0.00000371,-0.00005542,-0.00003883,-0.00001378,-0.00000225,
 0.00000682,-0.00000134,-0.00000089,0.00002567,-0.00001550,-0.00003863,
 -0.00003888,0.00003339,0.00016294,0.00056076,-0.00016105,0.00010598,-0
 .00006804,0.00005183,0.00000850,0.00001943,-0.00000033,0.00001979,0.00
 004812,-0.00003766,0.00000767,-0.00000594,0.00000340,0.00298000,-0.002
 12892,0.00180936,0.01361370,0.01099373,-0.00313874,-0.13503621,-0.2044
 4581,0.05497248,0.13692882,0.21096483,0.00000022,-0.00000432,0.0000218
 9,0.00001372,-0.00000138,-0.00004419,-0.00000367,0.00000516,0.00000108
 ,0.00000559,-0.00005118,0.00001988,0.00001485,0.00004059,0.00002198,-0
 .00032151,-0.00040395,0.00036603,-0.00008141,0.00011568,-0.00007358,-0
 .00000093,-0.00000461,0.00001979,-0.00003996,-0.00004423,-0.00002084,-
 0.00001809,0.00000242,-0.00000699,-0.00176598,0.00244341,-0.00129459,-
 0.01356751,-0.00968225,0.00284024,0.05261871,0.05709412,-0.07347792,-0
 .04746069,-0.06128676,0.07045628,-0.00007662,-0.00008238,0.00004131,-0
 .00008689,-0.00012605,-0.00002415,-0.00001470,0.00003340,-0.00001632,-
 0.00004927,-0.00007937,0.00010059,0.00000870,-0.00012854,0.00012489,-0
 .00068251,-0.00055500,-0.00092311,0.00031493,0.00013757,-0.00016552,0.
 00000762,-0.00002839,0.00001093,-0.00024222,0.00019536,-0.00008146,-0.
 00004393,0.00000210,0.00001529,0.00451291,0.00765098,-0.00165661,-0.02
 516260,0.03030464,0.01089814,-0.06177122,0.04542029,0.02459787,0.00733
 552,-0.01650599,-0.01021038,0.07446889,0.00001599,0.00003459,0.0000036
 8,0.00005655,0.00003473,0.00000451,0.00001021,-0.00001810,0.00000937,0
 .00001246,0.00002739,0.00004054,-0.00001499,0.00008230,-0.00007809,0.0
 0043247,-0.00003400,-0.00035313,-0.00007907,-0.00006915,0.00010008,-0.
 00001483,0.00001298,-0.00000138,0.00009808,-0.00004276,0.00000976,0.00
 002447,0.00000313,0.00000314,-0.00386234,-0.00221128,0.00131025,0.0123
 0530,-0.00600544,0.00110062,0.05300176,-0.25233833,-0.10719307,0.00489
 755,-0.01622167,-0.01075555,-0.06398740,0.27046493,-0.00001365,0.00001
 068,-0.00000521,-0.00008506,-0.00001939,-0.00002419,-0.00001108,0.0000
 1567,-0.00000806,-0.00003345,-0.00004209,0.00001152,0.00000385,-0.0000
 3560,0.00004693,-0.00011838,-0.00001417,-0.00049946,0.00006662,0.00001
 650,-0.00007379,0.00001777,0.00000131,-0.00000046,-0.00004438,0.000057
 39,-0.00000803,-0.00001606,0.00000043,0.00000592,0.00130225,-0.0002710
 9,0.00096500,-0.00696163,0.01430202,0.00774279,0.02965922,-0.10916340,
 -0.10905875,-0.00290422,0.00874301,0.00496687,-0.02620133,0.11413980,0
 .10824900,-0.00007124,-0.00008800,0.00001676,-0.00011021,-0.00006109,0
 .00008299,-0.00001417,0.00003015,-0.00002094,-0.00003370,-0.00013414,-
 0.00000984,0.00002210,-0.00016292,0.00002845,-0.00094152,0.00045288,0.
 00082422,0.00026954,0.00023909,0.00008133,0.00000803,-0.00002128,0.000
 01760,-0.00021247,0.00014874,-0.00018133,-0.00003372,-0.00001733,-0.00
 002262,0.00453879,0.00544577,-0.00380555,-0.01484029,0.00507446,-0.038
 78191,-0.05004579,-0.00187681,0.01738387,0.00165733,-0.00022298,0.0196
 4814,0.00142904,-0.00236696,0.00672500,0.05863489,0.00001193,-0.000008
 70,-0.00000479,0.00009295,0.00000746,-0.00000018,0.00001207,-0.0000167
 3,0.00001254,0.00003466,0.00000709,-0.00004012,-0.00001888,0.00008430,
 -0.00001094,0.00024757,-0.00006432,0.00010917,-0.00002949,-0.00010236,
 -0.00004152,-0.00001979,-0.00000240,-0.00000854,0.00004829,-0.00001695
 ,0.00005339,0.00001948,0.00000448,0.00000469,-0.00257476,-0.00013924,-
 0.00059142,0.00607755,-0.00169316,0.01314696,-0.00129322,-0.05408134,0
 .02726549,0.00007918,-0.00074393,0.02296939,0.00035025,0.00456571,-0.0
 2771634,-0.00382989,0.05190672,-0.00003044,-0.00004664,0.00003119,-0.0
 0002971,-0.00003740,0.00003258,-0.00000592,0.00001491,-0.00000949,-0.0
 0000993,-0.00000924,0.00002377,0.00001954,-0.00010326,0.00002953,-0.00
 038045,-0.00037733,-0.00018944,0.00009539,0.00013632,0.00001235,0.0000
 0353,-0.00001337,0.00001488,-0.00011442,0.00003717,-0.00006966,-0.0000
 2294,-0.00000343,-0.00000363,0.00350456,0.00447336,-0.00116193,-0.0121
 9215,0.00299226,-0.00652651,0.00812698,0.02774831,-0.31919065,0.001046
 35,-0.00036557,-0.00482888,0.00180766,0.00208454,-0.01226828,-0.002974
 64,-0.03499252,0.34258314,0.00044326,0.00146112,-0.00082184,-0.0035009
 9,0.00205751,-0.00133055,-0.00069893,0.00058274,-0.00032319,-0.0053732
 0,-0.00475693,0.00073293,0.00045723,0.00043950,-0.00023213,-0.00230317
 ,0.03672268,-0.02336248,-0.00032115,0.00169426,-0.00097672,-0.00032637
 ,0.00165785,-0.00096002,0.00070585,0.00162284,-0.00049925,-0.00039666,
 -0.00018129,0.00001193,-0.12148443,0.07649848,-0.04719666,0.00369201,-
 0.05026415,0.02186247,0.00317417,-0.00424008,0.00370846,0.00129817,-0.
 00195510,0.00116888,0.00005235,-0.00052924,-0.00138547,-0.00025660,0.0
 0079209,0.00115657,0.12483846,-0.00112777,0.00039843,0.00003920,0.0050
 8457,-0.00060767,0.00027937,0.00055838,-0.00062252,0.00015085,0.001968
 12,0.00694863,-0.00130470,-0.00041132,0.00074161,-0.00018577,0.0233224
 2,-0.02546173,0.02839676,-0.01023340,-0.00433623,0.00045484,0.00119755
 ,0.00200790,-0.00071234,0.00339311,-0.00237679,0.00127549,0.00049522,0
 .00016279,0.00001759,0.08082218,-0.54044297,0.25548922,-0.05340561,-0.
 07774456,0.04691931,0.01623203,-0.00505221,0.00247963,-0.00108203,0.00
 105120,-0.00043655,-0.00260148,0.00171497,-0.00002472,-0.00260969,0.00
 029340,-0.00153809,-0.06160227,0.64332575,0.00051071,0.00049257,0.0006
 5943,-0.00295183,-0.00018472,-0.00216674,-0.00033019,0.00017458,-0.000
 64943,-0.00271987,-0.00266730,0.00442237,0.00021461,-0.00007196,0.0005
 2050,-0.01627149,0.03077079,0.00140800,0.00524808,0.00265472,-0.000333
 59,-0.00066329,-0.00063295,0.00033752,-0.00141658,0.00099599,-0.001821
 58,-0.00033824,-0.00010410,0.00002483,-0.04954397,0.25469976,-0.225207
 54,0.02348174,0.04748966,0.00870445,-0.00702786,-0.00114758,-0.0064499
 8,0.00069043,-0.00058903,0.00103295,0.00168220,-0.00042507,-0.00004180
 ,0.00098848,-0.00015527,0.00152104,0.04844707,-0.33130007,0.21803957\\
 -0.00000006,-0.00000374,-0.00000328,-0.00000135,-0.00000006,0.00000214
 ,-0.00000285,0.00000173,0.00000603,-0.00000138,0.00000121,0.00000317,-
 0.00000258,0.00000401,0.00000753,0.00000033,-0.00000113,-0.00000145,0.
 00000186,-0.00000471,-0.00000697,0.00000321,-0.00000648,-0.00001063,0.
 00000167,-0.00000604,-0.00000775,0.00000300,-0.00000877,-0.00001226,0.
 00000064,0.00000029,-0.00000077,-0.00000101,0.00000371,0.00000476,-0.0
 0000087,0.00000516,0.00000576,-0.00000221,0.00000804,0.00001039,0.0000
 0253,0.00000773,0.00000262,-0.00000286,0.00000083,0.00000526,0.0000019
 3,-0.00000179,-0.00000454\\\@
 The archive entry for this job was punched.


 THE ONLY TROUBLE WITH A SURE THING IS THE UNCERTAINTY.
     -- FROM A TEABAG (BELONGING TO W.H.?)
 Job cpu time:       0 days  0 hours 47 minutes  0.9 seconds.
 Elapsed time:       0 days  0 hours  1 minutes 32.5 seconds.
 File lengths (MBytes):  RWF=    158 Int=      0 D2E=      0 Chk=     15 Scr=      1
 Normal termination of Gaussian 16 at Tue May 27 07:48:29 2025.
