/home/tahminaafroz
cn013.cluster.local
tahminaafroz
Tue May  6 17:26:54 CDT 2025
 Entering Gaussian System, Link 0=g16
 Initial command:
 /home/apps/g16/l1.exe "/tmp/4-CN-phboh2-opt-freq-2-thf/Gau-744952.inp" -scrdir="/tmp/4-CN-phboh2-opt-freq-2-thf/"
 Entering Link 1 = /home/apps/g16/l1.exe PID=    744953.
  
 Copyright (c) 1988-2019, Gaussian, Inc.  All Rights Reserved.
  
 This is part of the Gaussian(R) 16 program.  It is based on
 the Gaussian(R) 09 system (copyright 2009, Gaussian, Inc.),
 the Gaussian(R) 03 system (copyright 2003, Gaussian, Inc.),
 the Gaussian(R) 98 system (copyright 1998, Gaussian, Inc.),
 the Gaussian(R) 94 system (copyright 1995, Gaussian, Inc.),
 the Gaussian 92(TM) system (copyright 1992, Gaussian, Inc.),
 the Gaussian 90(TM) system (copyright 1990, Gaussian, Inc.),
 the Gaussian 88(TM) system (copyright 1988, Gaussian, Inc.),
 the Gaussian 86(TM) system (copyright 1986, Carnegie Mellon
 University), and the Gaussian 82(TM) system (copyright 1983,
 Carnegie Mellon University). Gaussian is a federally registered
 trademark of Gaussian, Inc.
  
 This software contains proprietary and confidential information,
 including trade secrets, belonging to Gaussian, Inc.
  
 This software is provided under written license and may be
 used, copied, transmitted, or stored only in accord with that
 written license.
  
 The following legend is applicable only to US Government
 contracts under FAR:
  
                    RESTRICTED RIGHTS LEGEND
  
 Use, reproduction and disclosure by the US Government is
 subject to restrictions as set forth in subparagraphs (a)
 and (c) of the Commercial Computer Software - Restricted
 Rights clause in FAR 52.227-19.
  
 Gaussian, Inc.
 340 Quinnipiac St., Bldg. 40, Wallingford CT 06492
  
  
 ---------------------------------------------------------------
 Warning -- This program may not be used in any manner that
 competes with the business of Gaussian, Inc. or will provide
 assistance to any competitor of Gaussian, Inc.  The licensee
 of this program is prohibited from giving any competitor of
 Gaussian, Inc. access to this program.  By using this program,
 the user acknowledges that Gaussian, Inc. is engaged in the
 business of creating and licensing software in the field of
 computational chemistry and represents and warrants to the
 licensee that it is not a competitor of Gaussian, Inc. and that
 it will not use this program in any manner prohibited above.
 ---------------------------------------------------------------
  

 Cite this work as:
 Gaussian 16, Revision C.01,
 M. J. Frisch, G. W. Trucks, H. B. Schlegel, G. E. Scuseria, 
 M. A. Robb, J. R. Cheeseman, G. Scalmani, V. Barone, 
 G. A. Petersson, H. Nakatsuji, X. Li, M. Caricato, A. V. Marenich, 
 J. Bloino, B. G. Janesko, R. Gomperts, B. Mennucci, H. P. Hratchian, 
 J. V. Ortiz, A. F. Izmaylov, J. L. Sonnenberg, D. Williams-Young, 
 F. Ding, F. Lipparini, F. Egidi, J. Goings, B. Peng, A. Petrone, 
 T. Henderson, D. Ranasinghe, V. G. Zakrzewski, J. Gao, N. Rega, 
 G. Zheng, W. Liang, M. Hada, M. Ehara, K. Toyota, R. Fukuda, 
 J. Hasegawa, M. Ishida, T. Nakajima, Y. Honda, O. Kitao, H. Nakai, 
 T. Vreven, K. Throssell, J. A. Montgomery, Jr., J. E. Peralta, 
 F. Ogliaro, M. J. Bearpark, J. J. Heyd, E. N. Brothers, K. N. Kudin, 
 V. N. Staroverov, T. A. Keith, R. Kobayashi, J. Normand, 
 K. Raghavachari, A. P. Rendell, J. C. Burant, S. S. Iyengar, 
 J. Tomasi, M. Cossi, J. M. Millam, M. Klene, C. Adamo, R. Cammi, 
 J. W. Ochterski, R. L. Martin, K. Morokuma, O. Farkas, 
 J. B. Foresman, and D. J. Fox, Gaussian, Inc., Wallingford CT, 2019.
 
 ******************************************
 Gaussian 16:  AS64L-G16RevC.01  3-Jul-2019
                 6-May-2025 
 ******************************************
 %mem=20GB
 %nprocshared=32
 Will use up to   32 processors via shared memory.
 %chk=4-CN-phboh2-opt-freq-2-thf.chk
 ----------------------------------------------------------------------
 # opt=(calcfc,tight) freq 6-311+g(d,p) scrf=(smd,solvent=thf) nosymm s
 cf=(qc,fermi,xqc) geom=connectivity int=ultrafine m062x
 ----------------------------------------------------------------------
 1/7=10,10=4,18=20,19=15,26=6,38=1,57=2/1,3;
 2/9=110,12=2,15=1,17=6,18=5,40=1/2;
 3/5=4,6=6,7=111,11=2,25=1,30=1,70=32201,71=2,72=20,74=-55,75=-5,140=1/1,2,3;
 4//1;
 5/5=2,22=13,38=5,53=20/2;
 8/6=4,10=90,11=11/1;
 11/6=1,8=1,9=11,15=111,16=1,31=1/1,2,10;
 10/6=1,13=1,31=1/2;
 6/7=2,8=2,9=2,10=2,28=1/1;
 7/10=1,25=1,30=1/1,2,3,16;
 1/7=10,10=4,18=20,19=15,26=6/3(2);
 2/9=110,15=1/2;
 99//99;
 2/9=110,15=1/2;
 3/5=4,6=6,7=111,11=2,25=1,30=1,70=32205,71=1,72=20,74=-55,75=-5/1,2,3;
 4/5=5,16=3,69=1/1;
 5/5=2,22=13,38=5,53=20/2;
 7/30=1/1,2,3,16;
 1/7=10,18=20,19=15,26=6/3(-5);
 2/9=110,15=1/2;
 6/7=2,8=2,9=2,10=2,19=2,28=1/1;
 99/9=1/99;
 --------------------------
 4-CN-phboh2-opt-freq-2-thf
 --------------------------
 Symbolic Z-matrix:
 Charge =  0 Multiplicity = 1
 O                     8.7368    7.35992   5.54135 
 H                     9.54359   7.00623   5.92713 
 C                     6.27352   7.02654   5.18612 
 B                     7.66041   6.55828   5.76062 
 O                     7.84883   5.40309   6.46394 
 H                     7.0599    4.87869   6.60857 
 C                     5.10976   6.2594    5.3029 
 H                     5.12877   5.2939    5.79993 
 C                     3.89831   6.69831   4.7884 
 H                     3.00127   6.09927   4.88197 
 C                     3.84092   7.933     4.13915 
 C                     4.98924   8.71757   4.00718 
 H                     4.92908   9.67243   3.50002 
 C                     6.19026   8.25972   4.52814 
 H                     7.08566   8.86206   4.42855 
 C                     2.5907    8.3978    3.60263 
 N                     1.58998   8.76873   3.17383 
 

 GradGradGradGradGradGradGradGradGradGradGradGradGradGradGradGradGradGrad
 Berny optimization.
 Initialization pass.
                           ----------------------------
                           !    Initial Parameters    !
                           ! (Angstroms and Degrees)  !
 --------------------------                            --------------------------
 ! Name  Definition              Value          Derivative Info.                !
 --------------------------------------------------------------------------------
 ! R1    R(1,2)                  0.9617         calculate D2E/DX2 analytically  !
 ! R2    R(1,4)                  1.3599         calculate D2E/DX2 analytically  !
 ! R3    R(3,4)                  1.5725         calculate D2E/DX2 analytically  !
 ! R4    R(3,7)                  1.3987         calculate D2E/DX2 analytically  !
 ! R5    R(3,14)                 1.4002         calculate D2E/DX2 analytically  !
 ! R6    R(4,5)                  1.3655         calculate D2E/DX2 analytically  !
 ! R7    R(5,6)                  0.9583         calculate D2E/DX2 analytically  !
 ! R8    R(7,8)                  1.0861         calculate D2E/DX2 analytically  !
 ! R9    R(7,9)                  1.3874         calculate D2E/DX2 analytically  !
 ! R10   R(9,10)                 1.0827         calculate D2E/DX2 analytically  !
 ! R11   R(9,11)                 1.3962         calculate D2E/DX2 analytically  !
 ! R12   R(11,12)                1.397          calculate D2E/DX2 analytically  !
 ! R13   R(11,16)                1.4377         calculate D2E/DX2 analytically  !
 ! R14   R(12,13)                1.0829         calculate D2E/DX2 analytically  !
 ! R15   R(12,14)                1.3869         calculate D2E/DX2 analytically  !
 ! R16   R(14,15)                1.0837         calculate D2E/DX2 analytically  !
 ! R17   R(16,17)                1.1502         calculate D2E/DX2 analytically  !
 ! A1    A(2,1,4)              112.4917         calculate D2E/DX2 analytically  !
 ! A2    A(4,3,7)              122.682          calculate D2E/DX2 analytically  !
 ! A3    A(4,3,14)             119.1028         calculate D2E/DX2 analytically  !
 ! A4    A(7,3,14)             118.2152         calculate D2E/DX2 analytically  !
 ! A5    A(1,4,3)              117.6227         calculate D2E/DX2 analytically  !
 ! A6    A(1,4,5)              118.1983         calculate D2E/DX2 analytically  !
 ! A7    A(3,4,5)              124.179          calculate D2E/DX2 analytically  !
 ! A8    A(4,5,6)              115.2822         calculate D2E/DX2 analytically  !
 ! A9    A(3,7,8)              120.7435         calculate D2E/DX2 analytically  !
 ! A10   A(3,7,9)              121.4669         calculate D2E/DX2 analytically  !
 ! A11   A(8,7,9)              117.7893         calculate D2E/DX2 analytically  !
 ! A12   A(7,9,10)             121.0867         calculate D2E/DX2 analytically  !
 ! A13   A(7,9,11)             119.216          calculate D2E/DX2 analytically  !
 ! A14   A(10,9,11)            119.6972         calculate D2E/DX2 analytically  !
 ! A15   A(9,11,12)            120.4505         calculate D2E/DX2 analytically  !
 ! A16   A(9,11,16)            119.6825         calculate D2E/DX2 analytically  !
 ! A17   A(12,11,16)           119.867          calculate D2E/DX2 analytically  !
 ! A18   A(11,12,13)           119.5905         calculate D2E/DX2 analytically  !
 ! A19   A(11,12,14)           119.4027         calculate D2E/DX2 analytically  !
 ! A20   A(13,12,14)           121.0068         calculate D2E/DX2 analytically  !
 ! A21   A(3,14,12)            121.2485         calculate D2E/DX2 analytically  !
 ! A22   A(3,14,15)            118.9179         calculate D2E/DX2 analytically  !
 ! A23   A(12,14,15)           119.8337         calculate D2E/DX2 analytically  !
 ! A24   L(11,16,17,10,-1)     179.943          calculate D2E/DX2 analytically  !
 ! A25   L(11,16,17,10,-2)     179.9954         calculate D2E/DX2 analytically  !
 ! D1    D(2,1,4,3)            179.7159         calculate D2E/DX2 analytically  !
 ! D2    D(2,1,4,5)             -0.1997         calculate D2E/DX2 analytically  !
 ! D3    D(7,3,4,1)            177.366          calculate D2E/DX2 analytically  !
 ! D4    D(7,3,4,5)             -2.7238         calculate D2E/DX2 analytically  !
 ! D5    D(14,3,4,1)            -2.5763         calculate D2E/DX2 analytically  !
 ! D6    D(14,3,4,5)           177.3338         calculate D2E/DX2 analytically  !
 ! D7    D(4,3,7,8)             -0.3173         calculate D2E/DX2 analytically  !
 ! D8    D(4,3,7,9)            179.8843         calculate D2E/DX2 analytically  !
 ! D9    D(14,3,7,8)           179.6256         calculate D2E/DX2 analytically  !
 ! D10   D(14,3,7,9)            -0.1729         calculate D2E/DX2 analytically  !
 ! D11   D(4,3,14,12)         -179.8477         calculate D2E/DX2 analytically  !
 ! D12   D(4,3,14,15)            0.1278         calculate D2E/DX2 analytically  !
 ! D13   D(7,3,14,12)            0.2074         calculate D2E/DX2 analytically  !
 ! D14   D(7,3,14,15)         -179.8171         calculate D2E/DX2 analytically  !
 ! D15   D(1,4,5,6)            178.8685         calculate D2E/DX2 analytically  !
 ! D16   D(3,4,5,6)             -1.0411         calculate D2E/DX2 analytically  !
 ! D17   D(3,7,9,10)           179.9779         calculate D2E/DX2 analytically  !
 ! D18   D(3,7,9,11)             0.0385         calculate D2E/DX2 analytically  !
 ! D19   D(8,7,9,10)             0.1737         calculate D2E/DX2 analytically  !
 ! D20   D(8,7,9,11)          -179.7657         calculate D2E/DX2 analytically  !
 ! D21   D(7,9,11,12)            0.0669         calculate D2E/DX2 analytically  !
 ! D22   D(7,9,11,16)         -179.9784         calculate D2E/DX2 analytically  !
 ! D23   D(10,9,11,12)        -179.8733         calculate D2E/DX2 analytically  !
 ! D24   D(10,9,11,16)           0.0813         calculate D2E/DX2 analytically  !
 ! D25   D(9,11,12,13)         179.9301         calculate D2E/DX2 analytically  !
 ! D26   D(9,11,12,14)          -0.0331         calculate D2E/DX2 analytically  !
 ! D27   D(16,11,12,13)         -0.0244         calculate D2E/DX2 analytically  !
 ! D28   D(16,11,12,14)       -179.9877         calculate D2E/DX2 analytically  !
 ! D29   D(11,12,14,3)          -0.1071         calculate D2E/DX2 analytically  !
 ! D30   D(11,12,14,15)        179.9177         calculate D2E/DX2 analytically  !
 ! D31   D(13,12,14,3)         179.9302         calculate D2E/DX2 analytically  !
 ! D32   D(13,12,14,15)         -0.0451         calculate D2E/DX2 analytically  !
 --------------------------------------------------------------------------------
 Trust Radius=3.00D-01 FncErr=5.00D-06 GrdErr=5.00D-06 EigMax=2.50D+02 EigMin=1.00D-04
 Number of steps in this run=     84 maximum allowed number of steps=    102.
 GradGradGradGradGradGradGradGradGradGradGradGradGradGradGradGradGradGrad

                          Input orientation:                          
 ---------------------------------------------------------------------
 Center     Atomic      Atomic             Coordinates (Angstroms)
 Number     Number       Type             X           Y           Z
 ---------------------------------------------------------------------
      1          8           0        8.736799    7.359924    5.541354
      2          1           0        9.543590    7.006229    5.927132
      3          6           0        6.273520    7.026542    5.186123
      4          5           0        7.660411    6.558281    5.760621
      5          8           0        7.848828    5.403086    6.463936
      6          1           0        7.059902    4.878690    6.608567
      7          6           0        5.109756    6.259396    5.302902
      8          1           0        5.128774    5.293896    5.799926
      9          6           0        3.898314    6.698313    4.788399
     10          1           0        3.001274    6.099268    4.881971
     11          6           0        3.840922    7.932997    4.139149
     12          6           0        4.989244    8.717565    4.007185
     13          1           0        4.929083    9.672432    3.500019
     14          6           0        6.190259    8.259720    4.528140
     15          1           0        7.085657    8.862061    4.428545
     16          6           0        2.590701    8.397799    3.602625
     17          7           0        1.589978    8.768726    3.173831
 ---------------------------------------------------------------------
                    Distance matrix (angstroms):
                    1          2          3          4          5
     1  O    0.000000
     2  H    0.961684   0.000000
     3  C    2.510991   3.353038   0.000000
     4  B    1.359897   1.942871   1.572508   0.000000
     5  O    2.338560   2.393835   2.598078   1.365514   0.000000
     6  H    3.179221   3.340581   2.693513   1.975006   0.958287
     7  C    3.797823   4.539417   1.398748   2.608578   3.095768
     8  H    4.165714   4.736968   2.165470   2.830088   2.802057
     9  C    4.941215   5.767206   2.430539   3.888213   4.482365
    10  H    5.909339   6.687065   3.414665   4.763431   5.146461
    11  C    5.124861   6.047826   2.799169   4.371214   5.279052
    12  C    4.270952   5.230386   2.428748   3.856446   5.019822
    13  H    4.900351   5.856039   3.413384   4.718942   5.961294
    14  C    2.884632   3.843598   1.400215   2.564225   3.828644
    15  H    2.494199   3.425100   2.145372   2.722530   4.085310
    16  C    6.527662   7.462068   4.236858   5.808850   6.693527
    17  N    7.659435   8.599244   5.387030   6.959002   7.831062
                    6          7          8          9         10
     6  H    0.000000
     7  C    2.722899   0.000000
     8  H    2.134374   1.086087   0.000000
     9  C    4.076724   1.387427   2.123583   0.000000
    10  H    4.576397   2.156043   2.453064   1.082724   0.000000
    11  C    5.078253   2.401083   3.373662   1.396160   2.149269
    12  C    5.078560   2.781367   3.867156   2.424418   3.401875
    13  H    6.097821   3.864175   4.949851   3.401146   4.288792
    14  C    4.063966   2.401882   3.397102   2.785451   3.868123
    15  H    4.540969   3.382684   4.294401   3.869167   4.951849
    16  C    6.433784   3.716093   4.572107   2.450340   2.662431
    17  N    7.539885   4.818560   5.611942   3.495977   3.469222
                   11         12         13         14         15
    11  C    0.000000
    12  C    1.396999   0.000000
    13  H    2.149003   1.082870   0.000000
    14  C    2.403632   1.386886   2.154844   0.000000
    15  H    3.387509   2.143215   2.483883   1.083730   0.000000
    16  C    1.437690   2.453350   2.665192   3.719202   4.593725
    17  N    2.587862   3.500301   3.474580   4.822429   5.637864
                   16         17
    16  C    0.000000
    17  N    1.150173   0.000000
 Symmetry turned off by external request.
 Stoichiometry    C7H6BNO2
 Framework group  C1[X(C7H6BNO2)]
 Deg. of freedom    45
 Full point group                 C1      NOp   1
 Rotational constants (GHZ):           3.6839503           0.5466138           0.4760514
 Standard basis: 6-311+G(d,p) (5D, 7F)
   278 basis functions,   444 primitive gaussians,   289 cartesian basis functions
    38 alpha electrons       38 beta electrons
       nuclear repulsion energy       510.3365803165 Hartrees.
 NAtoms=   17 NActive=   17 NUniq=   17 SFac= 1.00D+00 NAtFMM=   60 NAOKFM=F Big=F
 Integral buffers will be    131072 words long.
 Raffenetti 2 integral format.
 Two-electron integral symmetry is turned off.
 Force inversion solution in PCM.
 ------------------------------------------------------------------------------
 Polarizable Continuum Model (PCM)
 =================================
 Model                : PCM.
 Atomic radii         : SMD-Coulomb.
 Polarization charges : Total charges.
 Charge compensation  : None.
 Solution method      : Matrix inversion.
 Cavity type          : VdW (van der Waals Surface) (Alpha=1.000).
 Cavity algorithm     : GePol (No added spheres)
                        Default sphere list used, NSphG=   17.
                        Lebedev-Laikov grids with approx.  5.0 points / Ang**2.
                        Smoothing algorithm: York/Karplus (Gamma=1.0000).
                        Polarization charges: spherical gaussians, with
                                              point-specific exponents (IZeta= 3).
                        Self-potential: point-specific (ISelfS= 7).
                        Self-field    : sphere-specific E.n sum rule (ISelfD= 2).
 1st derivatives      : Analytical E(r).r(x)/FMM algorithm (CHGder, D1EAlg=3).
                        Cavity 1st derivative terms included.
 2nd derivatives      : Analytical E(r).r(xy)/FMM algorithm (CHGder, D2EAlg=3).
                        Cavity 2nd derivative terms included.
 Solvent              : TetraHydroFuran, Eps=   7.425700 Eps(inf)=   1.974025
 ------------------------------------------------------------------------------
 Spheres list:
 ISph  on   Nord     Re0    Alpha      Xe            Ye            Ze
    1   O      1    2.2940  1.000      8.736799      7.359924      5.541354
    2   H      2    1.2000  1.000      9.543590      7.006229      5.927132
    3   C      3    1.8500  1.000      6.273520      7.026542      5.186123
    4   B      4    1.8000  1.000      7.660411      6.558281      5.760621
    5   O      5    2.2940  1.000      7.848828      5.403086      6.463936
    6   H      6    1.2000  1.000      7.059902      4.878690      6.608567
    7   C      7    1.8500  1.000      5.109756      6.259396      5.302902
    8   H      8    1.2000  1.000      5.128774      5.293896      5.799926
    9   C      9    1.8500  1.000      3.898314      6.698313      4.788399
   10   H     10    1.2000  1.000      3.001274      6.099268      4.881971
   11   C     11    1.8500  1.000      3.840922      7.932997      4.139149
   12   C     12    1.8500  1.000      4.989244      8.717565      4.007185
   13   H     13    1.2000  1.000      4.929083      9.672432      3.500019
   14   C     14    1.8500  1.000      6.190259      8.259720      4.528140
   15   H     15    1.2000  1.000      7.085657      8.862061      4.428545
   16   C     16    1.8500  1.000      2.590701      8.397799      3.602625
   17   N     17    1.8900  1.000      1.589978      8.768726      3.173831
 ------------------------------------------------------------------------------
 ------------------------------------------------------------------------------
 Atomic radii for non-electrostatic terms: SMD-CDS.
 ------------------------------------------------------------------------------
 Nuclear repulsion after PCM non-electrostatic terms =      510.3346450026 Hartrees.
 One-electron integrals computed using PRISM.
 NBasis=   278 RedAO= T EigKep=  2.30D-06  NBF=   278
 NBsUse=   278 1.00D-06 EigRej= -1.00D+00 NBFU=   278
 ExpMin= 3.15D-02 ExpMax= 8.59D+03 ExpMxC= 1.30D+03 IAcc=3 IRadAn=         5 AccDes= 0.00D+00
 Harris functional with IExCor= 1009 and IRadAn=       5 diagonalized for initial guess.
 HarFok:  IExCor= 1009 AccDes= 0.00D+00 IRadAn=         5 IDoV= 1 UseB2=F ITyADJ=14
 ICtDFT=  3500011 ScaDFX=  1.000000  1.000000  1.000000  1.000000
 FoFCou: FMM=F IPFlag=           0 FMFlag=      100000 FMFlg1=           0
         NFxFlg=           0 DoJE=T BraDBF=F KetDBF=T FulRan=T
         wScrn=  0.000000 ICntrl=       500 IOpCl=  0 I1Cent=   200000004 NGrid=           0
         NMat0=    1 NMatS0=      1 NMatT0=    0 NMatD0=    1 NMtDS0=    0 NMtDT0=    0
 Symmetry not used in FoFCou.
 Requested convergence on RMS density matrix=1.00D-08 within 128 cycles.
 Requested convergence on MAX density matrix=1.00D-06.
 Requested convergence on             energy=1.00D-06.
 Level shift goal  0.100 maximum shift  0.100.
 No special actions if energy rises.
 Dynamic level shift is on during FON iterations.
 Inv3:  Mode=1 IEnd=     8386752.
 Iteration    1 A*A^-1 deviation from unit magnitude is 5.11D-15 for   1668.
 Iteration    1 A*A^-1 deviation from orthogonality  is 1.43D-15 for   1672   1671.
 Iteration    1 A^-1*A deviation from unit magnitude is 5.11D-15 for   1668.
 Iteration    1 A^-1*A deviation from orthogonality  is 1.95D-15 for    849    636.
 Error on total polarization charges =  0.02428
 SCF Done:  E(RM062X) =  -500.479608066     A.U. after   14 cycles
            NFock= 14  Conv=0.60D-08     -V/T= 2.0036
 SMD-CDS (non-electrostatic) energy       (kcal/mol) =      -1.21
 (included in total energy above)
 DoSCS=F DFT=T ScalE2(SS,OS)=  1.000000  1.000000
 Range of M.O.s used for correlation:     1   278
 NBasis=   278 NAE=    38 NBE=    38 NFC=     0 NFV=     0
 NROrb=    278 NOA=    38 NOB=    38 NVA=   240 NVB=   240

 **** Warning!!: The largest alpha MO coefficient is  0.16903835D+03

 Symmetrizing basis deriv contribution to polar:
 IMax=3 JMax=2 DiffMx= 0.00D+00
 G2DrvN: will do    18 centers at a time, making    1 passes.
 Calling FoFCou, ICntrl=  3107 FMM=F I1Cent=   0 AccDes= 0.00D+00.
 NEqPCM:  Using equilibrium solvation (IEInf=0, Eps=   7.4257, EpsInf=   1.9740)
 G2PCM: DoFxE=T DoFxN=T DoGrad=T DoDP/DQ/DG/TGxP=FFFF NFrqRd=   0 IEInf=0 SqF1=F DoCFld=F IF1Alg=4.
 End of G2Drv F.D. properties file   721 does not exist.
 End of G2Drv F.D. properties file   722 does not exist.
 End of G2Drv F.D. properties file   788 does not exist.
          IDoAtm=11111111111111111
 NEqPCM:  Using equilibrium solvation (IEInf=0, Eps=   7.4257, EpsInf=   1.9740)
          Differentiating once with respect to nuclear coordinates.
 Keep R1 ints in memory in canonical form, NReq=787822734.
          There are    54 degrees of freedom in the 1st order CPHF.  IDoFFX=6 NUNeed=     0.
     48 vectors produced by pass  0 Test12= 1.69D-14 1.85D-09 XBig12= 1.86D-01 1.49D-01.
 AX will form    48 AO Fock derivatives at one time.
     48 vectors produced by pass  1 Test12= 1.69D-14 1.85D-09 XBig12= 8.64D-03 3.16D-02.
     48 vectors produced by pass  2 Test12= 1.69D-14 1.85D-09 XBig12= 2.82D-04 2.72D-03.
     48 vectors produced by pass  3 Test12= 1.69D-14 1.85D-09 XBig12= 2.03D-06 1.80D-04.
     48 vectors produced by pass  4 Test12= 1.69D-14 1.85D-09 XBig12= 1.75D-08 1.46D-05.
     48 vectors produced by pass  5 Test12= 1.69D-14 1.85D-09 XBig12= 9.95D-11 1.11D-06.
     46 vectors produced by pass  6 Test12= 1.69D-14 1.85D-09 XBig12= 4.27D-13 6.99D-08.
     11 vectors produced by pass  7 Test12= 1.69D-14 1.85D-09 XBig12= 1.55D-15 4.81D-09.
 InvSVY:  IOpt=1 It=  1 EMax= 4.44D-16
 Solved reduced A of dimension   345 with    54 vectors.
 End of Minotr F.D. properties file   721 does not exist.
 End of Minotr F.D. properties file   722 does not exist.
 End of Minotr F.D. properties file   788 does not exist.

 **********************************************************************

            Population analysis using the SCF Density.

 **********************************************************************

 Alpha  occ. eigenvalues --  -19.64146 -19.63636 -14.76430 -10.59575 -10.59462
 Alpha  occ. eigenvalues --  -10.56823 -10.56695 -10.56293 -10.55825 -10.54747
 Alpha  occ. eigenvalues --   -7.09140  -1.17316  -1.13671  -1.03686  -0.98493
 Alpha  occ. eigenvalues --   -0.88089  -0.86490  -0.73981  -0.71204  -0.66079
 Alpha  occ. eigenvalues --   -0.64408  -0.62920  -0.56582  -0.54348  -0.52366
 Alpha  occ. eigenvalues --   -0.50598  -0.49112  -0.48493  -0.47667  -0.46202
 Alpha  occ. eigenvalues --   -0.45916  -0.43304  -0.42545  -0.41022  -0.40729
 Alpha  occ. eigenvalues --   -0.39798  -0.32817  -0.32503
 Alpha virt. eigenvalues --   -0.03901  -0.00149   0.00285   0.01625   0.01982
 Alpha virt. eigenvalues --    0.02972   0.03505   0.04223   0.04931   0.05797
 Alpha virt. eigenvalues --    0.06204   0.07198   0.07415   0.07866   0.08737
 Alpha virt. eigenvalues --    0.09178   0.10275   0.11027   0.11370   0.13390
 Alpha virt. eigenvalues --    0.13751   0.14034   0.14625   0.14938   0.15259
 Alpha virt. eigenvalues --    0.16197   0.16382   0.17139   0.17182   0.18371
 Alpha virt. eigenvalues --    0.19191   0.19501   0.20293   0.21683   0.21960
 Alpha virt. eigenvalues --    0.22350   0.23559   0.23923   0.24113   0.24423
 Alpha virt. eigenvalues --    0.24571   0.24763   0.25036   0.25651   0.26115
 Alpha virt. eigenvalues --    0.27133   0.27361   0.27907   0.28266   0.29328
 Alpha virt. eigenvalues --    0.30228   0.31132   0.32532   0.32628   0.33987
 Alpha virt. eigenvalues --    0.34391   0.36478   0.37916   0.38253   0.41915
 Alpha virt. eigenvalues --    0.45227   0.46357   0.47747   0.48943   0.50124
 Alpha virt. eigenvalues --    0.50948   0.52052   0.53826   0.55116   0.57060
 Alpha virt. eigenvalues --    0.57187   0.58935   0.59170   0.60900   0.63538
 Alpha virt. eigenvalues --    0.63835   0.64635   0.66684   0.66794   0.67593
 Alpha virt. eigenvalues --    0.68594   0.69111   0.70507   0.71185   0.71579
 Alpha virt. eigenvalues --    0.73395   0.75169   0.76518   0.77590   0.79432
 Alpha virt. eigenvalues --    0.82073   0.83997   0.85826   0.89193   0.89890
 Alpha virt. eigenvalues --    0.90178   0.90915   0.92766   0.93231   0.94199
 Alpha virt. eigenvalues --    0.94689   0.95182   1.00428   1.01190   1.03065
 Alpha virt. eigenvalues --    1.03583   1.05022   1.05379   1.08355   1.08735
 Alpha virt. eigenvalues --    1.09605   1.10488   1.12580   1.12782   1.13468
 Alpha virt. eigenvalues --    1.15275   1.18095   1.18921   1.20847   1.28629
 Alpha virt. eigenvalues --    1.31889   1.32912   1.34163   1.35969   1.36466
 Alpha virt. eigenvalues --    1.38685   1.45663   1.48528   1.49384   1.50582
 Alpha virt. eigenvalues --    1.52041   1.54349   1.57621   1.57991   1.60328
 Alpha virt. eigenvalues --    1.60434   1.64953   1.67637   1.69186   1.70101
 Alpha virt. eigenvalues --    1.70968   1.75790   1.77232   1.77637   1.80030
 Alpha virt. eigenvalues --    1.80265   1.81284   1.85432   1.87270   1.92786
 Alpha virt. eigenvalues --    1.94814   1.96067   1.96653   2.00497   2.00845
 Alpha virt. eigenvalues --    2.01645   2.05765   2.09675   2.11223   2.13176
 Alpha virt. eigenvalues --    2.13691   2.14749   2.15558   2.16242   2.21973
 Alpha virt. eigenvalues --    2.28701   2.36655   2.39249   2.43104   2.43518
 Alpha virt. eigenvalues --    2.47245   2.57505   2.58620   2.61150   2.64235
 Alpha virt. eigenvalues --    2.65674   2.66319   2.68250   2.69915   2.72362
 Alpha virt. eigenvalues --    2.74153   2.74743   2.78620   2.80276   2.80769
 Alpha virt. eigenvalues --    2.83700   2.84008   2.90421   2.92180   2.94019
 Alpha virt. eigenvalues --    2.96170   3.02506   3.02990   3.06632   3.09738
 Alpha virt. eigenvalues --    3.10812   3.11493   3.13622   3.23830   3.25985
 Alpha virt. eigenvalues --    3.26517   3.26898   3.31553   3.39842   3.42210
 Alpha virt. eigenvalues --    3.46618   3.52766   3.55002   3.59411   3.61806
 Alpha virt. eigenvalues --    3.65841   3.66586   3.91649   3.94268   4.03571
 Alpha virt. eigenvalues --    4.05384   4.07369   4.11480   4.12589   4.18640
 Alpha virt. eigenvalues --    4.25297   4.67770   4.84717   5.07785   5.08786
 Alpha virt. eigenvalues --    5.39600   5.49353   5.68893   5.76913  14.79118
 Alpha virt. eigenvalues --   23.66348  24.01235  24.01572  24.11666  24.17368
 Alpha virt. eigenvalues --   24.24516  24.50813  35.97786  50.00602  50.05347
          Condensed to atoms (all electrons):
               1          2          3          4          5          6
     1  O    7.757790   0.288904   0.069118   0.442867  -0.126134   0.017643
     2  H    0.288904   0.412989   0.041111  -0.006730  -0.030966   0.002858
     3  C    0.069118   0.041111   8.520892   0.258357  -0.160468   0.012001
     4  B    0.442867  -0.006730   0.258357   3.323164   0.379516   0.013774
     5  O   -0.126134  -0.030966  -0.160468   0.379516   7.954443   0.272829
     6  H    0.017643   0.002858   0.012001   0.013774   0.272829   0.390001
     7  C    0.055749  -0.009089  -1.528533   0.128922   0.006633  -0.053848
     8  H    0.002028  -0.000023   0.030643   0.009572  -0.005795   0.008852
     9  C    0.065604   0.006281   0.473009   0.057872  -0.024908   0.060781
    10  H   -0.000037   0.000000  -0.014007  -0.000294   0.000236  -0.000037
    11  C   -0.011960  -0.001259  -0.984716   0.014884   0.013079  -0.003453
    12  C   -0.012133  -0.017329  -0.353690  -0.005179   0.060622  -0.014509
    13  H    0.000353   0.000001  -0.003792   0.000076  -0.000031   0.000002
    14  C   -0.172173  -0.014988   0.171324  -0.072476   0.038675   0.009735
    15  H    0.003600  -0.000269   0.048787  -0.009149   0.002024  -0.000071
    16  C   -0.001010   0.000015  -0.013297  -0.040487  -0.000798  -0.000184
    17  N    0.000002   0.000000   0.000594   0.000689   0.000016   0.000000
               7          8          9         10         11         12
     1  O    0.055749   0.002028   0.065604  -0.000037  -0.011960  -0.012133
     2  H   -0.009089  -0.000023   0.006281   0.000000  -0.001259  -0.017329
     3  C   -1.528533   0.030643   0.473009  -0.014007  -0.984716  -0.353690
     4  B    0.128922   0.009572   0.057872  -0.000294   0.014884  -0.005179
     5  O    0.006633  -0.005795  -0.024908   0.000236   0.013079   0.060622
     6  H   -0.053848   0.008852   0.060781  -0.000037  -0.003453  -0.014509
     7  C   12.430741   0.351101  -4.327946   0.056823   1.894682   0.878973
     8  H    0.351101   0.472698  -0.018456  -0.004930  -0.018635  -0.012266
     9  C   -4.327946  -0.018456  11.716351   0.293054  -2.034738  -1.688286
    10  H    0.056823  -0.004930   0.293054   0.443842  -0.043051  -0.005909
    11  C    1.894682  -0.018635  -2.034738  -0.043051  14.175080  -1.750133
    12  C    0.878973  -0.012266  -1.688286  -0.005909  -1.750133  11.602478
    13  H   -0.014726   0.000054  -0.003691  -0.000047  -0.055199   0.279986
    14  C   -2.557778  -0.003783   0.388407  -0.012259   1.779734  -4.257144
    15  H    0.001860  -0.000063  -0.008265   0.000042  -0.016183  -0.020912
    16  C   -1.247949   0.006778   1.467254   0.080298  -9.624047   1.734063
    17  N    0.041126  -0.000048  -0.059581  -0.002158   0.723249  -0.053996
              13         14         15         16         17
     1  O    0.000353  -0.172173   0.003600  -0.001010   0.000002
     2  H    0.000001  -0.014988  -0.000269   0.000015   0.000000
     3  C   -0.003792   0.171324   0.048787  -0.013297   0.000594
     4  B    0.000076  -0.072476  -0.009149  -0.040487   0.000689
     5  O   -0.000031   0.038675   0.002024  -0.000798   0.000016
     6  H    0.000002   0.009735  -0.000071  -0.000184   0.000000
     7  C   -0.014726  -2.557778   0.001860  -1.247949   0.041126
     8  H    0.000054  -0.003783  -0.000063   0.006778  -0.000048
     9  C   -0.003691   0.388407  -0.008265   1.467254  -0.059581
    10  H   -0.000047  -0.012259   0.000042   0.080298  -0.002158
    11  C   -0.055199   1.779734  -0.016183  -9.624047   0.723249
    12  C    0.279986  -4.257144  -0.020912   1.734063  -0.053996
    13  H    0.444099   0.072616  -0.004872   0.078946  -0.002200
    14  C    0.072616  12.049936   0.341322  -1.621458   0.047258
    15  H   -0.004872   0.341322   0.447003   0.007552  -0.000050
    16  C    0.078946  -1.621458   0.007552  16.744837  -0.349523
    17  N   -0.002200   0.047258  -0.000050  -0.349523   6.952243
 Mulliken charges:
               1
     1  O   -0.380210
     2  H    0.328497
     3  C   -0.567332
     4  B    0.504623
     5  O   -0.378971
     6  H    0.283626
     7  C   -0.106740
     8  H    0.182274
     9  C   -0.362741
    10  H    0.208435
    11  C    1.942667
    12  C   -0.364636
    13  H    0.208426
    14  C   -0.186948
    15  H    0.207642
    16  C   -1.220989
    17  N   -0.297619
 Sum of Mulliken charges =   0.00000
 Mulliken charges with hydrogens summed into heavy atoms:
               1
     1  O   -0.051713
     3  C   -0.567332
     4  B    0.504623
     5  O   -0.095345
     7  C    0.075533
     9  C   -0.154307
    11  C    1.942667
    12  C   -0.156210
    14  C    0.020694
    16  C   -1.220989
    17  N   -0.297619
 APT charges:
               1
     1  O   -0.410153
     2  H    2.009668
     3  C   -1.199202
     4  B   -0.356532
     5  O    1.221055
     6  H   -1.215662
     7  C   -0.360865
     8  H   -0.233464
     9  C    0.348284
    10  H   -0.790933
    11  C   -1.047745
    12  C   -0.470112
    13  H    1.323642
    14  C   -0.517605
    15  H    1.916396
    16  C    0.404867
    17  N   -0.621638
 Sum of APT charges =   0.00000
 APT charges with hydrogens summed into heavy atoms:
               1
     1  O    1.599515
     3  C   -1.199202
     4  B   -0.356532
     5  O    0.005393
     7  C   -0.594329
     9  C   -0.442649
    11  C   -1.047745
    12  C    0.853530
    14  C    1.398790
    16  C    0.404867
    17  N   -0.621638
 Electronic spatial extent (au):  <R**2>=          31228.2051
 Charge=              0.0000 electrons
 Dipole moment (field-independent basis, Debye):
    X=              3.9211    Y=             -3.1030    Z=              2.6581  Tot=              5.6630
 Quadrupole moment (field-independent basis, Debye-Ang):
   XX=            -38.1253   YY=           -104.2221   ZZ=            -41.4556
   XY=             22.1117   XZ=             24.7370   YZ=              3.0055
 Traceless Quadrupole moment (field-independent basis, Debye-Ang):
   XX=             23.1424   YY=            -42.9545   ZZ=             19.8121
   XY=             22.1117   XZ=             24.7370   YZ=              3.0055
 Octapole moment (field-independent basis, Debye-Ang**2):
  XXX=           -825.6885  YYY=          -1813.0615  ZZZ=           -767.9076  XYY=           -193.5840
  XXY=           -305.8264  XXZ=           -145.0089  XZZ=           -192.5359  YZZ=           -401.8236
  YYZ=           -371.8934  XYZ=            128.2624
 Hexadecapole moment (field-independent basis, Debye-Ang**3):
 XXXX=         -10776.4176 YYYY=         -24947.0196 ZZZZ=          -8281.9243 XXXY=          -5971.1190
 XXXZ=          -3919.5526 YYYX=          -6110.7276 YYYZ=          -7562.2749 ZZZX=          -4360.3958
 ZZZY=          -6050.6585 XXYY=          -4527.8391 XXZZ=          -2692.5811 YYZZ=          -5089.5563
 XXYZ=          -1229.1413 YYXZ=          -1025.7430 ZZXY=          -1709.9612
 N-N= 5.103346450026D+02 E-N=-2.188709441176D+03  KE= 4.986604920521D+02
  Exact polarizability:       0.000       0.000       0.000       0.000       0.000       0.000
 Approx polarizability:     163.124      -7.024     123.537      24.805     -27.936      93.811
 D2PCM: PCM CHGder 2nd derivatives, FixD1E=F FixD2E=F DoIter=F DoCFld=F I1PDM=0
 Calling FoFJK, ICntrl=    100127 FMM=F ISym2X=0 I1Cent= 0 IOpClX= 0 NMat=1 NMatS=1 NMatT=0.
 -------------------------------------------------------------------
 Center     Atomic                   Forces (Hartrees/Bohr)
 Number     Number              X              Y              Z
 -------------------------------------------------------------------
      1        8          -0.000891642    0.001891629   -0.001313355
      2        1           0.002468291   -0.000911453    0.001081346
      3        6          -0.001124791    0.000773964   -0.000714816
      4        5          -0.000484774   -0.002013929    0.001115633
      5        8           0.003154457    0.002275544   -0.000700100
      6        1          -0.003191305   -0.001976489    0.000413773
      7        6           0.000030885   -0.001561899    0.000792669
      8        1          -0.000386633    0.000195554   -0.000094331
      9        6          -0.001300200   -0.000343147   -0.000121753
     10        1           0.000037623   -0.000566903    0.000273250
     11        6           0.000988464   -0.000380689    0.000426692
     12        6          -0.000232452    0.001981247   -0.001078892
     13        1           0.000374748    0.000360807   -0.000090707
     14        6           0.000167216   -0.000407008    0.000253599
     15        1          -0.000556460    0.000879785   -0.000554745
     16        6           0.001594828   -0.000443190    0.000596240
     17        7          -0.000648254    0.000246176   -0.000284504
 -------------------------------------------------------------------
 Cartesian Forces:  Max     0.003191305 RMS     0.001167376
 FormGI is forming the generalized inverse of G from B-inverse, IUseBI=4.

 GradGradGradGradGradGradGradGradGradGradGradGradGradGradGradGradGradGrad
 Berny optimization.
 Internal  Forces:  Max     0.003767977 RMS     0.000797482
 Search for a local minimum.
 Step number   1 out of a maximum of   84
 All quantities printed in internal units (Hartrees-Bohrs-Radians)
 Mixed Optimization -- En-DIIS/RFO-DIIS
 Second derivative matrix not updated -- analytic derivatives used.
 ITU=  0
     Eigenvalues ---    0.00243   0.01001   0.01401   0.01583   0.01699
     Eigenvalues ---    0.01796   0.02187   0.02408   0.02591   0.02720
     Eigenvalues ---    0.02829   0.02883   0.03854   0.06627   0.08337
     Eigenvalues ---    0.10496   0.11189   0.11243   0.11653   0.12049
     Eigenvalues ---    0.12734   0.15628   0.16202   0.18403   0.18666
     Eigenvalues ---    0.19128   0.19273   0.20078   0.27230   0.29365
     Eigenvalues ---    0.35916   0.36039   0.36588   0.36720   0.36914
     Eigenvalues ---    0.39460   0.42603   0.43145   0.47543   0.48099
     Eigenvalues ---    0.49623   0.52158   0.54540   0.55696   1.30074
 RFO step:  Lambda=-1.41148101D-04 EMin= 2.43329125D-03
 Linear search not attempted -- first point.
 Iteration  1 RMS(Cart)=  0.01247783 RMS(Int)=  0.00007168
 Iteration  2 RMS(Cart)=  0.00010047 RMS(Int)=  0.00000093
 Iteration  3 RMS(Cart)=  0.00000001 RMS(Int)=  0.00000093
 Variable       Old X    -DE/DX   Delta X   Delta X   Delta X     New X
                                 (Linear)    (Quad)   (Total)
    R1        1.81732   0.00284   0.00000   0.00516   0.00516   1.82248
    R2        2.56983   0.00187   0.00000   0.00422   0.00422   2.57405
    R3        2.97161   0.00137   0.00000   0.00557   0.00557   2.97718
    R4        2.64325   0.00102   0.00000   0.00215   0.00215   2.64540
    R5        2.64602   0.00135   0.00000   0.00138   0.00138   2.64740
    R6        2.58045  -0.00041   0.00000  -0.00158  -0.00158   2.57886
    R7        1.81090   0.00377   0.00000   0.00689   0.00689   1.81779
    R8        2.05241  -0.00022   0.00000  -0.00078  -0.00078   2.05163
    R9        2.62186  -0.00003   0.00000   0.00080   0.00080   2.62265
   R10        2.04605   0.00031   0.00000   0.00065   0.00065   2.04670
   R11        2.63836   0.00088   0.00000   0.00109   0.00109   2.63945
   R12        2.63994   0.00046   0.00000   0.00076   0.00076   2.64070
   R13        2.71684  -0.00100   0.00000  -0.00176  -0.00176   2.71508
   R14        2.04633   0.00034   0.00000   0.00055   0.00055   2.04688
   R15        2.62083  -0.00029   0.00000   0.00049   0.00049   2.62132
   R16        2.04795   0.00008   0.00000   0.00031   0.00031   2.04826
   R17        2.17351   0.00075   0.00000   0.00066   0.00066   2.17418
    A1        1.96335   0.00031   0.00000   0.00061   0.00061   1.96396
    A2        2.14120  -0.00105   0.00000  -0.00490  -0.00489   2.13631
    A3        2.07874   0.00043   0.00000   0.00227   0.00227   2.08100
    A4        2.06324   0.00062   0.00000   0.00263   0.00263   2.06587
    A5        2.05290   0.00018   0.00000  -0.00072  -0.00072   2.05218
    A6        2.06295   0.00007   0.00000   0.00087   0.00087   2.06382
    A7        2.16733  -0.00024   0.00000  -0.00015  -0.00015   2.16718
    A8        2.01205  -0.00033   0.00000  -0.00343  -0.00343   2.00862
    A9        2.10737   0.00068   0.00000   0.00427   0.00427   2.11165
   A10        2.12000  -0.00060   0.00000  -0.00231  -0.00231   2.11769
   A11        2.05581  -0.00008   0.00000  -0.00196  -0.00196   2.05385
   A12        2.11336  -0.00027   0.00000  -0.00235  -0.00235   2.11101
   A13        2.08071  -0.00059   0.00000  -0.00258  -0.00258   2.07814
   A14        2.08911   0.00086   0.00000   0.00493   0.00493   2.09404
   A15        2.10226   0.00163   0.00000   0.00672   0.00673   2.10898
   A16        2.08885  -0.00061   0.00000  -0.00238  -0.00238   2.08648
   A17        2.09207  -0.00102   0.00000  -0.00435  -0.00435   2.08772
   A18        2.08725   0.00101   0.00000   0.00566   0.00566   2.09291
   A19        2.08397  -0.00120   0.00000  -0.00560  -0.00560   2.07837
   A20        2.11197   0.00019   0.00000  -0.00006  -0.00006   2.11190
   A21        2.11619   0.00015   0.00000   0.00113   0.00113   2.11732
   A22        2.07551   0.00113   0.00000   0.00804   0.00804   2.08354
   A23        2.09149  -0.00128   0.00000  -0.00917  -0.00917   2.08232
   A24        3.14060   0.00000   0.00000   0.00070   0.00070   3.14129
   A25        3.14151   0.00001   0.00000  -0.00018  -0.00018   3.14133
    D1        3.13663   0.00003   0.00000   0.00330   0.00330   3.13994
    D2       -0.00349  -0.00002   0.00000   0.00247   0.00247  -0.00102
    D3        3.09562   0.00003   0.00000   0.01961   0.01961   3.11523
    D4       -0.04754   0.00008   0.00000   0.02049   0.02049  -0.02705
    D5       -0.04497   0.00003   0.00000   0.01882   0.01882  -0.02614
    D6        3.09506   0.00009   0.00000   0.01971   0.01971   3.11477
    D7       -0.00554   0.00005   0.00000   0.00197   0.00197  -0.00356
    D8        3.13957   0.00004   0.00000   0.00022   0.00022   3.13979
    D9        3.13506   0.00005   0.00000   0.00275   0.00275   3.13781
   D10       -0.00302   0.00003   0.00000   0.00100   0.00099  -0.00202
   D11       -3.13893  -0.00003   0.00000  -0.00069  -0.00069  -3.13962
   D12        0.00223  -0.00002   0.00000  -0.00066  -0.00066   0.00158
   D13        0.00362  -0.00003   0.00000  -0.00143  -0.00144   0.00218
   D14       -3.13840  -0.00002   0.00000  -0.00140  -0.00140  -3.13980
   D15        3.12184   0.00009   0.00000   0.01042   0.01042   3.13226
   D16       -0.01817   0.00003   0.00000   0.00952   0.00952  -0.00865
   D17        3.14121  -0.00001   0.00000   0.00028   0.00028   3.14149
   D18        0.00067  -0.00001   0.00000  -0.00003  -0.00003   0.00064
   D19        0.00303  -0.00003   0.00000  -0.00143  -0.00143   0.00160
   D20       -3.13750  -0.00003   0.00000  -0.00175  -0.00174  -3.13925
   D21        0.00117  -0.00002   0.00000  -0.00052  -0.00052   0.00065
   D22       -3.14122  -0.00001   0.00000   0.00011   0.00011  -3.14111
   D23       -3.13938  -0.00001   0.00000  -0.00083  -0.00083  -3.14021
   D24        0.00142  -0.00001   0.00000  -0.00019  -0.00019   0.00122
   D25        3.14037   0.00001   0.00000   0.00051   0.00051   3.14089
   D26       -0.00058   0.00002   0.00000   0.00009   0.00009  -0.00049
   D27       -0.00043   0.00001   0.00000  -0.00012  -0.00012  -0.00055
   D28       -3.14138   0.00001   0.00000  -0.00055  -0.00055   3.14126
   D29       -0.00187   0.00001   0.00000   0.00091   0.00091  -0.00096
   D30        3.14016   0.00000   0.00000   0.00088   0.00088   3.14103
   D31        3.14037   0.00001   0.00000   0.00048   0.00048   3.14086
   D32       -0.00079   0.00000   0.00000   0.00044   0.00044  -0.00034
         Item               Value     Threshold  Converged?
 Maximum Force            0.003768     0.000015     NO 
 RMS     Force            0.000797     0.000010     NO 
 Maximum Displacement     0.060725     0.000060     NO 
 RMS     Displacement     0.012495     0.000040     NO 
 Predicted change in Energy=-7.073862D-05
 GradGradGradGradGradGradGradGradGradGradGradGradGradGradGradGradGradGrad

                          Input orientation:                          
 ---------------------------------------------------------------------
 Center     Atomic      Atomic             Coordinates (Angstroms)
 Number     Number       Type             X           Y           Z
 ---------------------------------------------------------------------
      1          8           0        8.736452    7.368140    5.559586
      2          1           0        9.545954    7.011056    5.943377
      3          6           0        6.272582    7.029380    5.186412
      4          5           0        7.660646    6.557926    5.763534
      5          8           0        7.849373    5.394712    6.451761
      6          1           0        7.058395    4.861674    6.576433
      7          6           0        5.108734    6.261447    5.310576
      8          1           0        5.124821    5.299404    5.813476
      9          6           0        3.896730    6.699352    4.795396
     10          1           0        3.000055    6.100095    4.894907
     11          6           0        3.843443    7.931696    4.140135
     12          6           0        4.989671    8.718638    4.000115
     13          1           0        4.931462    9.671641    3.488609
     14          6           0        6.190065    8.260473    4.522903
     15          1           0        7.081529    8.867660    4.415922
     16          6           0        2.593939    8.395287    3.603387
     17          7           0        1.593160    8.766345    3.173895
 ---------------------------------------------------------------------
                    Distance matrix (angstroms):
                    1          2          3          4          5
     1  O    0.000000
     2  H    0.964415   0.000000
     3  C    2.514890   3.359805   0.000000
     4  B    1.362130   1.947320   1.575455   0.000000
     5  O    2.340364   2.397792   2.599907   1.364677   0.000000
     6  H    3.183115   3.347917   2.692323   1.975040   0.961935
     7  C    3.800936   4.544367   1.399886   2.608703   3.092675
     8  H    4.169893   4.742683   2.168728   2.831392   2.799942
     9  C    4.945116   5.773106   2.430327   3.889005   4.479846
    10  H    5.912359   6.691631   3.414378   4.762901   5.141716
    11  C    5.125814   6.051271   2.794564   4.369634   5.275166
    12  C    4.277168   5.239448   2.430382   3.861662   5.023639
    13  H    4.906426   5.864992   3.415067   4.724294   5.965450
    14  C    2.890512   3.852373   1.400944   2.569132   3.832282
    15  H    2.509044   3.442889   2.151121   2.736111   4.098243
    16  C    6.527803   7.464728   4.231322   5.806346   6.688518
    17  N    7.659838   8.602209   5.381846   6.956848   7.826399
                    6          7          8          9         10
     6  H    0.000000
     7  C    2.713473   0.000000
     8  H    2.124245   1.085676   0.000000
     9  C    4.067588   1.387849   2.122392   0.000000
    10  H    4.564136   2.155305   2.449389   1.083068   0.000000
    11  C    5.069170   2.400130   3.372085   1.396738   2.153078
    12  C    5.078701   2.787342   3.872687   2.429920   3.408224
    13  H    6.098711   3.870454   4.955689   3.407766   4.296969
    14  C    4.064826   2.405372   3.401213   2.787604   3.870631
    15  H    4.551512   3.388904   4.302826   3.871499   4.954520
    16  C    6.423144   3.713753   4.568845   2.448335   2.664744
    17  N    7.529442   4.816552   5.608894   3.494018   3.471329
                   11         12         13         14         15
    11  C    0.000000
    12  C    1.397399   0.000000
    13  H    2.153063   1.083162   0.000000
    14  C    2.400258   1.387144   2.155282   0.000000
    15  H    3.381905   2.137983   2.475698   1.083895   0.000000
    16  C    1.436759   2.449792   2.665759   3.714271   4.584955
    17  N    2.587283   3.495884   3.473164   4.817392   5.628062
                   16         17
    16  C    0.000000
    17  N    1.150524   0.000000
 Symmetry turned off by external request.
 Stoichiometry    C7H6BNO2
 Framework group  C1[X(C7H6BNO2)]
 Deg. of freedom    45
 Full point group                 C1      NOp   1
 Rotational constants (GHZ):           3.6726842           0.5469827           0.4761000
 Standard basis: 6-311+G(d,p) (5D, 7F)
   278 basis functions,   444 primitive gaussians,   289 cartesian basis functions
    38 alpha electrons       38 beta electrons
       nuclear repulsion energy       510.1536325139 Hartrees.
 NAtoms=   17 NActive=   17 NUniq=   17 SFac= 1.00D+00 NAtFMM=   60 NAOKFM=F Big=F
 Integral buffers will be    131072 words long.
 Raffenetti 2 integral format.
 Two-electron integral symmetry is turned off.
 ------------------------------------------------------------------------------
 Polarizable Continuum Model (PCM)
 =================================
 Model                : PCM.
 Atomic radii         : SMD-Coulomb.
 Polarization charges : Total charges.
 Charge compensation  : None.
 Solution method      : Matrix inversion.
 Cavity type          : VdW (van der Waals Surface) (Alpha=1.000).
 Cavity algorithm     : GePol (No added spheres)
                        Default sphere list used, NSphG=   17.
                        Lebedev-Laikov grids with approx.  5.0 points / Ang**2.
                        Smoothing algorithm: York/Karplus (Gamma=1.0000).
                        Polarization charges: spherical gaussians, with
                                              point-specific exponents (IZeta= 3).
                        Self-potential: point-specific (ISelfS= 7).
                        Self-field    : sphere-specific E.n sum rule (ISelfD= 2).
 1st derivatives      : Analytical E(r).r(x)/FMM algorithm (CHGder, D1EAlg=3).
                        Cavity 1st derivative terms included.
 Solvent              : TetraHydroFuran, Eps=   7.425700 Eps(inf)=   1.974025
 ------------------------------------------------------------------------------
 Spheres list:
 ISph  on   Nord     Re0    Alpha      Xe            Ye            Ze
    1   O      1    2.2940  1.000      8.736452      7.368140      5.559586
    2   H      2    1.2000  1.000      9.545954      7.011056      5.943377
    3   C      3    1.8500  1.000      6.272582      7.029380      5.186412
    4   B      4    1.8000  1.000      7.660646      6.557926      5.763534
    5   O      5    2.2940  1.000      7.849373      5.394712      6.451761
    6   H      6    1.2000  1.000      7.058395      4.861674      6.576433
    7   C      7    1.8500  1.000      5.108734      6.261447      5.310576
    8   H      8    1.2000  1.000      5.124821      5.299404      5.813476
    9   C      9    1.8500  1.000      3.896730      6.699352      4.795396
   10   H     10    1.2000  1.000      3.000055      6.100095      4.894907
   11   C     11    1.8500  1.000      3.843443      7.931696      4.140135
   12   C     12    1.8500  1.000      4.989671      8.718638      4.000115
   13   H     13    1.2000  1.000      4.931462      9.671641      3.488609
   14   C     14    1.8500  1.000      6.190065      8.260473      4.522903
   15   H     15    1.2000  1.000      7.081529      8.867660      4.415922
   16   C     16    1.8500  1.000      2.593939      8.395287      3.603387
   17   N     17    1.8900  1.000      1.593160      8.766345      3.173895
 ------------------------------------------------------------------------------
 ------------------------------------------------------------------------------
 Atomic radii for non-electrostatic terms: SMD-CDS.
 ------------------------------------------------------------------------------
 Nuclear repulsion after PCM non-electrostatic terms =      510.1516980750 Hartrees.
 One-electron integrals computed using PRISM.
 NBasis=   278 RedAO= T EigKep=  2.31D-06  NBF=   278
 NBsUse=   278 1.00D-06 EigRej= -1.00D+00 NBFU=   278
 Initial guess from the checkpoint file:  "4-CN-phboh2-opt-freq-2-thf.chk"
 B after Tr=     0.018500    0.004409   -0.024628
         Rot=    1.000000   -0.000633    0.000433   -0.000351 Ang=  -0.10 deg.
 ExpMin= 3.15D-02 ExpMax= 8.59D+03 ExpMxC= 1.30D+03 IAcc=3 IRadAn=         5 AccDes= 0.00D+00
 Harris functional with IExCor= 1009 and IRadAn=       5 diagonalized for initial guess.
 HarFok:  IExCor= 1009 AccDes= 0.00D+00 IRadAn=         5 IDoV= 1 UseB2=F ITyADJ=14
 ICtDFT=  3500011 ScaDFX=  1.000000  1.000000  1.000000  1.000000
 FoFCou: FMM=F IPFlag=           0 FMFlag=      100000 FMFlg1=           0
         NFxFlg=           0 DoJE=T BraDBF=F KetDBF=T FulRan=T
         wScrn=  0.000000 ICntrl=       500 IOpCl=  0 I1Cent=   200000004 NGrid=           0
         NMat0=    1 NMatS0=      1 NMatT0=    0 NMatD0=    1 NMtDS0=    0 NMtDT0=    0
 Symmetry not used in FoFCou.
 Requested convergence on RMS density matrix=1.00D-08 within 128 cycles.
 Requested convergence on MAX density matrix=1.00D-06.
 Requested convergence on             energy=1.00D-06.
 Level shift goal  0.100 maximum shift  0.100.
 No special actions if energy rises.
 Dynamic level shift is on during FON iterations.
 Inv3:  Mode=1 IEnd=     8356683.
 Iteration    1 A*A^-1 deviation from unit magnitude is 9.10D-15 for   1664.
 Iteration    1 A*A^-1 deviation from orthogonality  is 2.36D-15 for   1664   1527.
 Iteration    1 A^-1*A deviation from unit magnitude is 8.66D-15 for   1664.
 Iteration    1 A^-1*A deviation from orthogonality  is 2.15D-15 for   1665   1473.
 Error on total polarization charges =  0.02430
 SCF Done:  E(RM062X) =  -500.479679081     A.U. after   11 cycles
            NFock= 11  Conv=0.54D-08     -V/T= 2.0037
 SMD-CDS (non-electrostatic) energy       (kcal/mol) =      -1.21
 (included in total energy above)
 D1PCM: PCM CHGder 1st derivatives, ID1Alg=3 FixD1E=F DoIter=F DoCFld=F I1PDM=0.
 Calling FoFJK, ICntrl=      2127 FMM=F ISym2X=0 I1Cent= 0 IOpClX= 0 NMat=1 NMatS=1 NMatT=0.
 -------------------------------------------------------------------
 Center     Atomic                   Forces (Hartrees/Bohr)
 Number     Number              X              Y              Z
 -------------------------------------------------------------------
      1        8          -0.000014286    0.000018843   -0.000003395
      2        1           0.000019718   -0.000008132    0.000023741
      3        6          -0.000008210   -0.000000262   -0.000005439
      4        5          -0.000003499   -0.000010642    0.000007236
      5        8           0.000035175    0.000025156   -0.000007935
      6        1          -0.000046438   -0.000033006    0.000002935
      7        6           0.000000515   -0.000008523    0.000003888
      8        1          -0.000000735    0.000003436    0.000003709
      9        6          -0.000005194   -0.000002916   -0.000010689
     10        1           0.000001839   -0.000004368   -0.000011402
     11        6           0.000004663   -0.000000012   -0.000003250
     12        6          -0.000003012    0.000003281   -0.000000052
     13        1           0.000004269    0.000004286    0.000004275
     14        6           0.000008567    0.000009321    0.000003757
     15        1           0.000001527    0.000002941    0.000010845
     16        6           0.000001794   -0.000000539   -0.000007713
     17        7           0.000003309    0.000001133   -0.000010510
 -------------------------------------------------------------------
 Cartesian Forces:  Max     0.000046438 RMS     0.000012574

 GradGradGradGradGradGradGradGradGradGradGradGradGradGradGradGradGradGrad
 Berny optimization.
 Using GEDIIS/GDIIS optimizer.
 FormGI is forming the generalized inverse of G from B-inverse, IUseBI=4.
 Internal  Forces:  Max     0.000052785 RMS     0.000008013
 Search for a local minimum.
 Step number   2 out of a maximum of   84
 All quantities printed in internal units (Hartrees-Bohrs-Radians)
 Mixed Optimization -- En-DIIS/RFO-DIIS
 Swapping is turned off.
 Update second derivatives using D2CorX and points    1    2
 DE= -7.10D-05 DEPred=-7.07D-05 R= 1.00D+00
 TightC=F SS=  1.41D+00  RLast= 4.82D-02 DXNew= 5.0454D-01 1.4469D-01
 Trust test= 1.00D+00 RLast= 4.82D-02 DXMaxT set to 3.00D-01
 ITU=  1  0
     Eigenvalues ---    0.00243   0.01001   0.01400   0.01582   0.01699
     Eigenvalues ---    0.01796   0.02187   0.02408   0.02591   0.02720
     Eigenvalues ---    0.02829   0.02883   0.03854   0.06627   0.08337
     Eigenvalues ---    0.10496   0.11190   0.11248   0.11657   0.12050
     Eigenvalues ---    0.12740   0.15627   0.16199   0.18404   0.18667
     Eigenvalues ---    0.19127   0.19301   0.20058   0.27229   0.29371
     Eigenvalues ---    0.35920   0.36039   0.36588   0.36720   0.36919
     Eigenvalues ---    0.39446   0.42612   0.43155   0.47544   0.48103
     Eigenvalues ---    0.49619   0.52146   0.54430   0.55520   1.30075
 En-DIIS/RFO-DIIS/Sim-DIIS IScMMF=       -3 using points:     2    1
 RFO step:  Lambda=-6.07180291D-08.
 DidBck=F Rises=F RFO-DIIS coefs:    1.06995   -0.06995
 Iteration  1 RMS(Cart)=  0.00106059 RMS(Int)=  0.00000050
 Iteration  2 RMS(Cart)=  0.00000072 RMS(Int)=  0.00000007
 Variable       Old X    -DE/DX   Delta X   Delta X   Delta X     New X
                                 (Linear)    (Quad)   (Total)
    R1        1.82248   0.00003   0.00036  -0.00031   0.00005   1.82253
    R2        2.57405   0.00001   0.00030  -0.00026   0.00003   2.57409
    R3        2.97718   0.00000   0.00039  -0.00036   0.00003   2.97721
    R4        2.64540   0.00000   0.00015  -0.00014   0.00001   2.64541
    R5        2.64740   0.00000   0.00010  -0.00009   0.00001   2.64741
    R6        2.57886   0.00000  -0.00011   0.00010  -0.00001   2.57886
    R7        1.81779   0.00005   0.00048  -0.00039   0.00009   1.81789
    R8        2.05163   0.00000  -0.00005   0.00005   0.00000   2.05163
    R9        2.62265   0.00000   0.00006  -0.00005   0.00001   2.62266
   R10        2.04670   0.00000   0.00005  -0.00004   0.00000   2.04670
   R11        2.63945   0.00000   0.00008  -0.00007   0.00001   2.63946
   R12        2.64070   0.00001   0.00005  -0.00005   0.00001   2.64071
   R13        2.71508   0.00000  -0.00012   0.00013   0.00001   2.71509
   R14        2.04688   0.00000   0.00004  -0.00004   0.00000   2.04688
   R15        2.62132   0.00001   0.00003  -0.00002   0.00001   2.62133
   R16        2.04826   0.00000   0.00002  -0.00002   0.00000   2.04827
   R17        2.17418   0.00000   0.00005  -0.00005   0.00000   2.17418
    A1        1.96396   0.00000   0.00004  -0.00005  -0.00001   1.96395
    A2        2.13631  -0.00001  -0.00034   0.00034   0.00000   2.13631
    A3        2.08100   0.00000   0.00016  -0.00018  -0.00002   2.08098
    A4        2.06587   0.00001   0.00018  -0.00016   0.00002   2.06589
    A5        2.05218   0.00000  -0.00005   0.00004  -0.00001   2.05217
    A6        2.06382   0.00001   0.00006  -0.00005   0.00001   2.06383
    A7        2.16718  -0.00001  -0.00001   0.00001   0.00000   2.16718
    A8        2.00862   0.00000  -0.00024   0.00022  -0.00002   2.00860
    A9        2.11165   0.00000   0.00030  -0.00028   0.00002   2.11167
   A10        2.11769   0.00000  -0.00016   0.00015  -0.00001   2.11768
   A11        2.05385   0.00000  -0.00014   0.00013  -0.00001   2.05384
   A12        2.11101   0.00000  -0.00016   0.00016  -0.00001   2.11100
   A13        2.07814   0.00000  -0.00018   0.00017  -0.00001   2.07813
   A14        2.09404   0.00000   0.00034  -0.00033   0.00002   2.09406
   A15        2.10898   0.00000   0.00047  -0.00045   0.00002   2.10900
   A16        2.08648   0.00000  -0.00017   0.00016  -0.00001   2.08647
   A17        2.08772   0.00000  -0.00030   0.00030  -0.00001   2.08772
   A18        2.09291   0.00000   0.00040  -0.00038   0.00002   2.09293
   A19        2.07837   0.00000  -0.00039   0.00039   0.00000   2.07837
   A20        2.11190   0.00000   0.00000  -0.00001  -0.00001   2.11189
   A21        2.11732  -0.00001   0.00008  -0.00010  -0.00002   2.11730
   A22        2.08354   0.00000   0.00056  -0.00057  -0.00001   2.08354
   A23        2.08232   0.00000  -0.00064   0.00067   0.00003   2.08235
   A24        3.14129   0.00000   0.00005  -0.00004   0.00001   3.14130
   A25        3.14133   0.00000  -0.00001   0.00002   0.00001   3.14134
    D1        3.13994   0.00000   0.00023  -0.00007   0.00016   3.14010
    D2       -0.00102   0.00000   0.00017  -0.00003   0.00014  -0.00088
    D3        3.11523   0.00000   0.00137   0.00045   0.00182   3.11705
    D4       -0.02705   0.00001   0.00143   0.00041   0.00185  -0.02520
    D5       -0.02614   0.00000   0.00132   0.00046   0.00177  -0.02437
    D6        3.11477   0.00001   0.00138   0.00042   0.00180   3.11657
    D7       -0.00356   0.00001   0.00014   0.00017   0.00031  -0.00325
    D8        3.13979   0.00001   0.00002   0.00017   0.00018   3.13997
    D9        3.13781   0.00001   0.00019   0.00017   0.00036   3.13817
   D10       -0.00202   0.00001   0.00007   0.00016   0.00023  -0.00179
   D11       -3.13962   0.00000  -0.00005  -0.00011  -0.00015  -3.13978
   D12        0.00158   0.00000  -0.00005  -0.00008  -0.00013   0.00145
   D13        0.00218   0.00000  -0.00010  -0.00010  -0.00020   0.00198
   D14       -3.13980   0.00000  -0.00010  -0.00008  -0.00018  -3.13998
   D15        3.13226   0.00000   0.00073   0.00001   0.00074   3.13300
   D16       -0.00865   0.00000   0.00067   0.00005   0.00071  -0.00793
   D17        3.14149   0.00000   0.00002  -0.00007  -0.00005   3.14144
   D18        0.00064   0.00000   0.00000  -0.00010  -0.00010   0.00054
   D19        0.00160   0.00000  -0.00010  -0.00008  -0.00018   0.00142
   D20       -3.13925   0.00000  -0.00012  -0.00010  -0.00022  -3.13947
   D21        0.00065   0.00000  -0.00004  -0.00003  -0.00007   0.00058
   D22       -3.14111   0.00000   0.00001  -0.00004  -0.00003  -3.14114
   D23       -3.14021   0.00000  -0.00006  -0.00006  -0.00011  -3.14032
   D24        0.00122   0.00000  -0.00001  -0.00006  -0.00008   0.00115
   D25        3.14089   0.00000   0.00004   0.00007   0.00011   3.14099
   D26       -0.00049   0.00000   0.00001   0.00009   0.00009  -0.00040
   D27       -0.00055   0.00000  -0.00001   0.00008   0.00007  -0.00048
   D28        3.14126   0.00000  -0.00004   0.00009   0.00006   3.14132
   D29       -0.00096   0.00000   0.00006  -0.00002   0.00004  -0.00091
   D30        3.14103   0.00000   0.00006  -0.00004   0.00002   3.14105
   D31        3.14086   0.00000   0.00003   0.00000   0.00003   3.14089
   D32       -0.00034   0.00000   0.00003  -0.00002   0.00001  -0.00033
         Item               Value     Threshold  Converged?
 Maximum Force            0.000053     0.000015     NO 
 RMS     Force            0.000008     0.000010     YES
 Maximum Displacement     0.005156     0.000060     NO 
 RMS     Displacement     0.001061     0.000040     NO 
 Predicted change in Energy=-3.035913D-08
 GradGradGradGradGradGradGradGradGradGradGradGradGradGradGradGradGradGrad

                          Input orientation:                          
 ---------------------------------------------------------------------
 Center     Atomic      Atomic             Coordinates (Angstroms)
 Number     Number       Type             X           Y           Z
 ---------------------------------------------------------------------
      1          8           0        8.736130    7.368975    5.561023
      2          1           0        9.545719    7.011740    5.944556
      3          6           0        6.272531    7.029467    5.186577
      4          5           0        7.660634    6.557983    5.763629
      5          8           0        7.849679    5.394027    6.450502
      6          1           0        7.058982    4.860141    6.573704
      7          6           0        5.108558    6.261800    5.311279
      8          1           0        5.124483    5.300088    5.814814
      9          6           0        3.896583    6.699641    4.795963
     10          1           0        2.999823    6.100573    4.895850
     11          6           0        3.843447    7.931690    4.140127
     12          6           0        4.989762    8.718447    3.999734
     13          1           0        4.931648    9.671264    3.487870
     14          6           0        6.190135    8.260344    4.522638
     15          1           0        7.081676    8.867374    4.415400
     16          6           0        2.593981    8.395192    3.603201
     17          7           0        1.593240    8.766180    3.173559
 ---------------------------------------------------------------------
                    Distance matrix (angstroms):
                    1          2          3          4          5
     1  O    0.000000
     2  H    0.964443   0.000000
     3  C    2.514914   3.359852   0.000000
     4  B    1.362149   1.947351   1.575473   0.000000
     5  O    2.340382   2.397817   2.599917   1.364671   0.000000
     6  H    3.183174   3.347994   2.692323   1.975063   0.961985
     7  C    3.800984   4.544429   1.399891   2.608723   3.092670
     8  H    4.169975   4.742774   2.168743   2.831427   2.799932
     9  C    4.945153   5.773162   2.430328   3.889026   4.479855
    10  H    5.912403   6.691693   3.414379   4.762921   5.141717
    11  C    5.125810   6.051295   2.794550   4.369639   5.275174
    12  C    4.277144   5.239458   2.430379   3.861668   5.023660
    13  H    4.906381   5.864983   3.415064   4.724294   5.965472
    14  C    2.890479   3.852376   1.400950   2.569135   3.832300
    15  H    2.508957   3.442848   2.151123   2.736092   4.098245
    16  C    6.527800   7.464753   4.231313   5.806354   6.688533
    17  N    7.659832   8.602232   5.381838   6.956857   7.826417
                    6          7          8          9         10
     6  H    0.000000
     7  C    2.713396   0.000000
     8  H    2.124089   1.085675   0.000000
     9  C    4.067541   1.387854   2.122390   0.000000
    10  H    4.564059   2.155305   2.449377   1.083069   0.000000
    11  C    5.069159   2.400132   3.372085   1.396742   2.153093
    12  C    5.078732   2.787360   3.872704   2.429938   3.408246
    13  H    6.098756   3.870473   4.955707   3.407787   4.296998
    14  C    4.064867   2.405398   3.401242   2.787630   3.870657
    15  H    4.551561   3.388924   4.302846   3.871525   4.954547
    16  C    6.423138   3.713756   4.568844   2.448335   2.664756
    17  N    7.529439   4.816557   5.608894   3.494019   3.471343
                   11         12         13         14         15
    11  C    0.000000
    12  C    1.397402   0.000000
    13  H    2.153077   1.083164   0.000000
    14  C    2.400265   1.387149   2.155280   0.000000
    15  H    3.381923   2.138004   2.475716   1.083896   0.000000
    16  C    1.436763   2.449795   2.665774   3.714279   4.584978
    17  N    2.587288   3.495884   3.473174   4.817399   5.628084
                   16         17
    16  C    0.000000
    17  N    1.150525   0.000000
 Symmetry turned off by external request.
 Stoichiometry    C7H6BNO2
 Framework group  C1[X(C7H6BNO2)]
 Deg. of freedom    45
 Full point group                 C1      NOp   1
 Rotational constants (GHZ):           3.6726224           0.5469837           0.4760969
 Standard basis: 6-311+G(d,p) (5D, 7F)
   278 basis functions,   444 primitive gaussians,   289 cartesian basis functions
    38 alpha electrons       38 beta electrons
       nuclear repulsion energy       510.1518409522 Hartrees.
 NAtoms=   17 NActive=   17 NUniq=   17 SFac= 1.00D+00 NAtFMM=   60 NAOKFM=F Big=F
 Integral buffers will be    131072 words long.
 Raffenetti 2 integral format.
 Two-electron integral symmetry is turned off.
 ------------------------------------------------------------------------------
 Polarizable Continuum Model (PCM)
 =================================
 Model                : PCM.
 Atomic radii         : SMD-Coulomb.
 Polarization charges : Total charges.
 Charge compensation  : None.
 Solution method      : Matrix inversion.
 Cavity type          : VdW (van der Waals Surface) (Alpha=1.000).
 Cavity algorithm     : GePol (No added spheres)
                        Default sphere list used, NSphG=   17.
                        Lebedev-Laikov grids with approx.  5.0 points / Ang**2.
                        Smoothing algorithm: York/Karplus (Gamma=1.0000).
                        Polarization charges: spherical gaussians, with
                                              point-specific exponents (IZeta= 3).
                        Self-potential: point-specific (ISelfS= 7).
                        Self-field    : sphere-specific E.n sum rule (ISelfD= 2).
 1st derivatives      : Analytical E(r).r(x)/FMM algorithm (CHGder, D1EAlg=3).
                        Cavity 1st derivative terms included.
 Solvent              : TetraHydroFuran, Eps=   7.425700 Eps(inf)=   1.974025
 ------------------------------------------------------------------------------
 Spheres list:
 ISph  on   Nord     Re0    Alpha      Xe            Ye            Ze
    1   O      1    2.2940  1.000      8.736130      7.368975      5.561023
    2   H      2    1.2000  1.000      9.545719      7.011740      5.944556
    3   C      3    1.8500  1.000      6.272531      7.029467      5.186577
    4   B      4    1.8000  1.000      7.660634      6.557983      5.763629
    5   O      5    2.2940  1.000      7.849679      5.394027      6.450502
    6   H      6    1.2000  1.000      7.058982      4.860141      6.573704
    7   C      7    1.8500  1.000      5.108558      6.261800      5.311279
    8   H      8    1.2000  1.000      5.124483      5.300088      5.814814
    9   C      9    1.8500  1.000      3.896583      6.699641      4.795963
   10   H     10    1.2000  1.000      2.999823      6.100573      4.895850
   11   C     11    1.8500  1.000      3.843447      7.931690      4.140127
   12   C     12    1.8500  1.000      4.989762      8.718447      3.999734
   13   H     13    1.2000  1.000      4.931648      9.671264      3.487870
   14   C     14    1.8500  1.000      6.190135      8.260344      4.522638
   15   H     15    1.2000  1.000      7.081676      8.867374      4.415400
   16   C     16    1.8500  1.000      2.593981      8.395192      3.603201
   17   N     17    1.8900  1.000      1.593240      8.766180      3.173559
 ------------------------------------------------------------------------------
 ------------------------------------------------------------------------------
 Atomic radii for non-electrostatic terms: SMD-CDS.
 ------------------------------------------------------------------------------
 Nuclear repulsion after PCM non-electrostatic terms =      510.1499065927 Hartrees.
 One-electron integrals computed using PRISM.
 NBasis=   278 RedAO= T EigKep=  2.30D-06  NBF=   278
 NBsUse=   278 1.00D-06 EigRej= -1.00D+00 NBFU=   278
 Initial guess from the checkpoint file:  "4-CN-phboh2-opt-freq-2-thf.chk"
 B after Tr=     0.001715    0.000376   -0.002394
         Rot=    1.000000   -0.000059    0.000040   -0.000036 Ang=  -0.01 deg.
 Requested convergence on RMS density matrix=1.00D-08 within 128 cycles.
 Requested convergence on MAX density matrix=1.00D-06.
 Requested convergence on             energy=1.00D-06.
 Level shift goal  0.100 maximum shift  0.100.
 No special actions if energy rises.
 Dynamic level shift is on during FON iterations.
 Inv3:  Mode=1 IEnd=     8366700.
 Iteration    1 A*A^-1 deviation from unit magnitude is 9.55D-15 for   1651.
 Iteration    1 A*A^-1 deviation from orthogonality  is 2.18D-15 for   1667   1467.
 Iteration    1 A^-1*A deviation from unit magnitude is 9.10D-15 for   1651.
 Iteration    1 A^-1*A deviation from orthogonality  is 1.44D-15 for   1663   1544.
 Error on total polarization charges =  0.02430
 SCF Done:  E(RM062X) =  -500.479679115     A.U. after    8 cycles
            NFock=  8  Conv=0.75D-08     -V/T= 2.0037
 SMD-CDS (non-electrostatic) energy       (kcal/mol) =      -1.21
 (included in total energy above)
 D1PCM: PCM CHGder 1st derivatives, ID1Alg=3 FixD1E=F DoIter=F DoCFld=F I1PDM=0.
 Calling FoFJK, ICntrl=      2127 FMM=F ISym2X=0 I1Cent= 0 IOpClX= 0 NMat=1 NMatS=1 NMatT=0.
 -------------------------------------------------------------------
 Center     Atomic                   Forces (Hartrees/Bohr)
 Number     Number              X              Y              Z
 -------------------------------------------------------------------
      1        8          -0.000002083    0.000000835    0.000009927
      2        1          -0.000003413    0.000001250    0.000012475
      3        6          -0.000000247   -0.000000348    0.000001499
      4        5          -0.000002047    0.000000406    0.000004372
      5        8          -0.000003499   -0.000001478    0.000002004
      6        1          -0.000004379   -0.000003048   -0.000000954
      7        6          -0.000000183   -0.000001888   -0.000003285
      8        1          -0.000000653   -0.000001264   -0.000004064
      9        6           0.000001135   -0.000001074   -0.000007401
     10        1           0.000001154   -0.000002192   -0.000011411
     11        6           0.000001694    0.000000262   -0.000004296
     12        6           0.000001815    0.000001145    0.000001526
     13        1           0.000002485    0.000002650    0.000003398
     14        6           0.000000454    0.000001528    0.000004574
     15        1           0.000000161    0.000002381    0.000008845
     16        6           0.000003028    0.000000472   -0.000007467
     17        7           0.000004576    0.000000363   -0.000009744
 -------------------------------------------------------------------
 Cartesian Forces:  Max     0.000012475 RMS     0.000004234

 GradGradGradGradGradGradGradGradGradGradGradGradGradGradGradGradGradGrad
 Berny optimization.
 Using GEDIIS/GDIIS optimizer.
 FormGI is forming the generalized inverse of G from B-inverse, IUseBI=4.
 Internal  Forces:  Max     0.000002695 RMS     0.000000756
 Search for a local minimum.
 Step number   3 out of a maximum of   84
 All quantities printed in internal units (Hartrees-Bohrs-Radians)
 Mixed Optimization -- En-DIIS/RFO-DIIS
 Swapping is turned off.
 Update second derivatives using D2CorX and points    1    2    3
 DE= -3.39D-08 DEPred=-3.04D-08 R= 1.12D+00
 Trust test= 1.12D+00 RLast= 3.84D-03 DXMaxT set to 3.00D-01
 ITU=  0  1  0
     Eigenvalues ---    0.00230   0.01000   0.01385   0.01536   0.01693
     Eigenvalues ---    0.01773   0.02167   0.02407   0.02587   0.02698
     Eigenvalues ---    0.02829   0.02881   0.03852   0.06626   0.08337
     Eigenvalues ---    0.10496   0.11190   0.11248   0.11658   0.12051
     Eigenvalues ---    0.12740   0.15624   0.16195   0.18405   0.18658
     Eigenvalues ---    0.19141   0.19317   0.19959   0.27223   0.29341
     Eigenvalues ---    0.35919   0.36038   0.36588   0.36720   0.36921
     Eigenvalues ---    0.39448   0.42607   0.43156   0.47543   0.48124
     Eigenvalues ---    0.49640   0.52188   0.54679   0.55888   1.30077
 En-DIIS/RFO-DIIS/Sim-DIIS IScMMF=       -3 using points:     3    2    1
 RFO step:  Lambda=-3.08225428D-10.
 DidBck=F Rises=F RFO-DIIS coefs:    1.13421   -0.13498    0.00077
 Iteration  1 RMS(Cart)=  0.00013708 RMS(Int)=  0.00000001
 Iteration  2 RMS(Cart)=  0.00000001 RMS(Int)=  0.00000000
 Variable       Old X    -DE/DX   Delta X   Delta X   Delta X     New X
                                 (Linear)    (Quad)   (Total)
    R1        1.82253   0.00000   0.00000   0.00000   0.00000   1.82253
    R2        2.57409   0.00000   0.00000   0.00000   0.00000   2.57409
    R3        2.97721   0.00000   0.00000   0.00000   0.00000   2.97721
    R4        2.64541   0.00000   0.00000   0.00000   0.00000   2.64541
    R5        2.64741   0.00000   0.00000   0.00000   0.00000   2.64741
    R6        2.57886   0.00000   0.00000   0.00000   0.00000   2.57885
    R7        1.81789   0.00000   0.00001  -0.00001   0.00000   1.81789
    R8        2.05163   0.00000   0.00000   0.00000   0.00000   2.05163
    R9        2.62266   0.00000   0.00000   0.00000   0.00000   2.62266
   R10        2.04670   0.00000   0.00000   0.00000   0.00000   2.04670
   R11        2.63946   0.00000   0.00000   0.00000   0.00000   2.63946
   R12        2.64071   0.00000   0.00000   0.00000   0.00000   2.64071
   R13        2.71509   0.00000   0.00000   0.00000   0.00000   2.71509
   R14        2.04688   0.00000   0.00000   0.00000   0.00000   2.04688
   R15        2.62133   0.00000   0.00000   0.00000   0.00000   2.62133
   R16        2.04827   0.00000   0.00000   0.00000   0.00000   2.04827
   R17        2.17418   0.00000   0.00000   0.00000   0.00000   2.17418
    A1        1.96395   0.00000   0.00000   0.00000   0.00000   1.96395
    A2        2.13631   0.00000   0.00000  -0.00001   0.00000   2.13631
    A3        2.08098   0.00000   0.00000   0.00001   0.00000   2.08098
    A4        2.06589   0.00000   0.00000   0.00000   0.00000   2.06590
    A5        2.05217   0.00000   0.00000   0.00001   0.00000   2.05218
    A6        2.06383   0.00000   0.00000   0.00000   0.00000   2.06383
    A7        2.16718   0.00000   0.00000  -0.00001  -0.00001   2.16717
    A8        2.00860   0.00000   0.00000   0.00000   0.00000   2.00860
    A9        2.11167   0.00000   0.00000   0.00000   0.00000   2.11166
   A10        2.11768   0.00000   0.00000   0.00000   0.00000   2.11768
   A11        2.05384   0.00000   0.00000   0.00000   0.00000   2.05384
   A12        2.11100   0.00000   0.00000   0.00000   0.00000   2.11100
   A13        2.07813   0.00000   0.00000   0.00000   0.00000   2.07813
   A14        2.09406   0.00000   0.00000   0.00000   0.00000   2.09406
   A15        2.10900   0.00000   0.00000   0.00000   0.00000   2.10900
   A16        2.08647   0.00000   0.00000   0.00000   0.00000   2.08647
   A17        2.08772   0.00000   0.00000   0.00000   0.00000   2.08772
   A18        2.09293   0.00000   0.00000   0.00000   0.00000   2.09293
   A19        2.07837   0.00000   0.00000   0.00000   0.00000   2.07837
   A20        2.11189   0.00000   0.00000   0.00000   0.00000   2.11189
   A21        2.11730   0.00000   0.00000   0.00000   0.00000   2.11730
   A22        2.08354   0.00000  -0.00001   0.00001   0.00000   2.08354
   A23        2.08235   0.00000   0.00001  -0.00001   0.00000   2.08235
   A24        3.14130   0.00000   0.00000   0.00000   0.00000   3.14130
   A25        3.14134   0.00000   0.00000   0.00000   0.00001   3.14135
[...]
   zy         0.101090D+02      0.149799D+01      0.166674D+01
   zz         0.188175D+03      0.278847D+02      0.310259D+02

 ----------------------------------------------------------------------
 Unable to Open any file for archive entry.
 1\1\GINC-CN013\Freq\RM062X\6-311+G(d,p)\C7H6B1N1O2\TAHMINAAFROZ\06-May
 -2025\0\\#N Geom=AllCheck Guess=TCheck SCRF=Check GenChk RM062X/6-311+
 G(d,p) Freq\\4-CN-phboh2-opt-freq-2-thf\\0,1\O,8.7360989926,7.36905828
 1,5.5611771505\H,9.5456956901,7.0117936365,5.9446674428\C,6.2725238648
 ,7.0294949014,5.1866203728\B,7.6606332551,6.5579893764,5.7636323248\O,
 7.8497092561,5.3939269934,6.4503173521\H,7.059041239,4.8599549779,6.57
 33450132\C,5.1085379915,6.2618600407,5.3113917455\H,5.1244448161,5.300
 1999255,5.81502498\C,3.8965690664,6.6996802811,4.7960427897\H,2.999801
 3857,6.1006306643,4.8959676746\C,3.8434486673,7.9316874763,4.140126726
 1\C,4.9897684818,8.7184310271,3.9997039351\H,4.9316620206,9.6712256394
 ,3.4877963776\C,6.1901375553,8.260344228,4.5226307645\H,7.0816834282,8
 .8673611397,4.4153666798\C,2.5939933627,8.3951614839,3.6031508833\N,1.
 5932629268,8.7661249274,3.1734627877\\Version=AS64L-G16RevC.01\HF=-500
 .4796791\RMSD=5.419e-09\RMSF=4.232e-06\ZeroPoint=0.1243478\Thermal=0.1
 339474\ETot=-500.3457317\HTot=-500.3447875\GTot=-500.3908738\Dipole=1.
 5440989,-1.23282,1.0332969\DipoleDeriv=-1.6831372,-0.3089467,-0.067742
 1,-0.4109067,-0.8332378,0.0169875,-0.0083758,0.0387729,-0.6576447,0.46
 18284,0.0380159,-0.005616,0.0436676,0.3350444,0.0421236,-0.011067,0.04
 19813,0.3677214,-0.6425424,0.2346004,-0.231517,0.225027,-0.1690262,0.0
 491551,-0.2267762,0.0545439,-0.2606377,2.3827598,-0.0809576,0.4298639,
 0.0531759,1.7340369,-0.5685165,0.3604955,-0.5982534,1.0987346,-0.83455
 31,0.1618638,-0.1385653,0.1921376,-1.4138977,0.4805381,-0.1582787,0.46
 99458,-0.9204586,0.3001425,-0.0282813,-0.0023327,-0.0789767,0.4764061,
 -0.0712999,0.0294674,-0.0588449,0.4204896,-0.1803429,-0.1739312,0.0876
 618,0.0198429,0.0422372,-0.1060078,-0.0197255,-0.1548297,-0.0950108,0.
 0959654,0.0392948,-0.0367203,0.0270267,-0.0363117,0.1116276,-0.0309711
 ,0.1169186,0.0968055,0.0192403,0.1497177,-0.0497337,-0.0936447,-0.1070
 241,-0.021837,0.0805063,0.0386824,-0.1072702,0.028376,-0.0576849,-0.00
 67883,-0.0541033,0.1007688,0.0323037,-0.009133,0.0304209,0.1683677,-0.
 1037073,0.1635609,-0.1201176,0.1410143,0.1784313,-0.0353635,-0.1096352
 ,-0.0300203,0.037553,-0.0618402,-0.1948466,0.1123091,0.0962796,-0.0261
 831,-0.0209391,-0.0374686,-0.0899683,-0.0702518,0.1160164,0.0113804,-0
 .0222542,0.0077276,0.0386285,0.0776846,-0.0206802,0.0797379,0.1386834,
 0.0768673,0.2325297,-0.0680814,0.0042043,-0.1574926,0.001685,0.0523998
 ,0.0551765,-0.172424,0.0341917,-0.0736049,0.0078361,-0.0548002,0.08464
 67,0.0291148,-0.0042273,0.0234576,0.1502754,0.7930412,-0.2645323,0.284
 8556,-0.2687216,0.2097303,-0.0792565,0.2847046,-0.0794003,0.2846697,-0
 .8023058,0.151822,-0.1730579,0.1510497,-0.4567569,0.0620003,-0.1712351
 ,0.0616789,-0.4796023\Polar=176.7737236,-10.9760238,126.598415,30.5486
 447,-31.6744893,95.2686167\Quadrupole=17.3786163,-32.0091918,14.630575
 5,16.3180017,18.1932562,1.9171833\PG=C01 [X(C7H6B1N1O2)]\NImag=0\\0.64
 871822,0.00711017,0.29093157,0.13687947,-0.14065517,0.14337133,-0.3676
 4612,0.13562805,-0.15641479,0.39649684,0.16668756,-0.09821899,0.085333
 57,-0.14542428,0.09096852,-0.17365254,0.07826521,-0.09598685,0.1690664
 9,-0.07792888,0.09206094,-0.03020989,0.00048822,-0.00905471,-0.0003258
 0,-0.00217736,0.00008857,0.61666462,-0.01653715,0.00795600,-0.00355279
 ,-0.00316914,-0.00062350,0.00209096,0.06128123,0.54196811,0.00027310,0
 .00030975,0.00823758,0.00062662,0.00234107,0.00335073,0.08244144,-0.19
 929967,0.25818747,-0.24494922,-0.11055111,0.01584945,-0.03386481,-0.02
 090353,0.00329678,-0.16535955,0.03255073,-0.04111326,0.53498762,-0.133
 70794,-0.15512032,0.02934312,0.00677805,0.00897929,-0.00230074,0.03172
 867,-0.08129397,0.01636648,0.07065902,0.49965056,0.02869740,0.03462040
 ,-0.05953852,-0.01196163,-0.00857145,0.00412001,-0.04081186,0.01646553
 ,-0.08288010,0.05064821,-0.18077764,0.25425420,0.00033008,-0.03747501,
 0.01811056,0.00514033,0.00171557,0.00090185,0.00254411,0.02106980,-0.0
 1475084,-0.08717433,0.02009815,-0.02128668,0.45540770,-0.02760104,-0.0
 4542394,0.02517328,0.00579840,-0.00088443,0.00031304,0.00382688,-0.009
 11457,0.01491859,0.05209112,-0.25071328,0.12734674,0.20255396,0.482738
 33,0.01276789,0.02293218,0.00158767,-0.00143823,-0.00063982,-0.0026095
 5,-0.00520695,0.01888478,0.00499574,-0.03902214,0.12029620,-0.11714272
 ,-0.01836435,-0.20736723,0.13890950,0.00324382,0.00268313,-0.00215947,
 -0.00003692,0.00033679,-0.00000261,-0.00111963,0.00123960,-0.00033822,
 0.00304246,0.00049165,0.00111883,-0.37023033,-0.24195605,0.05523246,0.
 36745240,0.00104102,-0.00028239,0.00388579,0.00029202,-0.00053206,-0.0
 0011216,0.00051408,0.00138925,-0.00209596,-0.02556391,-0.02071528,0.00
 403949,-0.21190438,-0.17423188,0.04528525,0.23593147,0.19295826,-0.001
 29373,0.00422317,0.00374275,0.00003081,-0.00009013,-0.00080444,0.00001
 086,-0.00193146,-0.00147479,0.01560786,0.00965431,-0.00516464,0.038582
 68,0.03880488,-0.02187004,-0.05209741,-0.05093062,0.02459003,-0.001984
 85,0.00081633,-0.00107474,-0.00047672,-0.00036745,0.00008441,-0.261683
 23,-0.06842314,-0.01207178,-0.01609988,-0.00835897,-0.00020027,0.00046
 769,-0.00180709,0.00170589,0.00090774,0.00005283,0.00007360,0.64313784
 ,0.00518248,-0.00033687,0.00166246,0.00045958,0.00038136,-0.00000307,-
 0.12138663,-0.17433513,0.02975274,0.00094642,0.01151463,-0.00424947,0.
 00052247,-0.00394587,0.00118328,0.00288729,-0.00016571,0.00121933,0.04
 126997,0.61532809,-0.00334150,0.00066700,-0.00051979,-0.00038518,-0.00
 018283,0.00024670,0.01576762,0.04219127,-0.08066568,-0.00498336,-0.006
 35256,0.00518141,0.00032799,0.00056645,-0.00183819,-0.00146333,0.00041
 766,-0.00000648,0.09834813,-0.23850226,0.28637684,0.00044432,0.0003346
 6,-0.00012829,-0.00007064,-0.00004335,-0.00003924,0.00597811,-0.021592
 67,0.01224067,-0.00015573,-0.00085835,0.00115988,-0.00075076,0.0017774
 8,-0.00133063,-0.00263351,0.00089337,-0.00155032,-0.05836729,0.0000467
 4,-0.00454098,0.06125450,-0.00018635,0.00035627,-0.00014491,-0.0001021
 0,0.00001547,0.00006719,0.00143436,-0.00993184,0.00650445,0.00122994,-
 0.00219767,-0.00013974,0.00206065,0.00049324,-0.00032789,-0.00055497,0
 .00088895,-0.00013337,0.00417904,-0.27422770,0.12353235,-0.00434640,0.
 28728666,0.00022006,0.00000732,0.00022110,-0.00001035,0.00008549,0.000
 13942,0.00032402,0.00107539,0.00141673,0.00002093,-0.00069239,-0.00275
 231,-0.00148051,-0.00042608,-0.00114540,-0.00074514,0.00028471,0.00060
 917,-0.00681250,0.12243578,-0.10383766,0.01119741,-0.13704559,0.099654
 45,-0.00220091,0.00045864,-0.00064338,-0.00006780,-0.00008872,0.000137
 05,-0.05472626,-0.03564771,0.00351580,-0.00123863,-0.00581951,0.001221
 87,0.00084622,0.00043841,-0.00005144,-0.00028731,0.00036541,-0.0001155
 5,-0.29370392,0.08637746,-0.09966249,0.00236280,-0.00187082,0.00041031
 ,0.72058189,-0.00030933,0.00035185,-0.00048262,-0.00030104,-0.00014475
 ,-0.00019500,0.01145380,0.05585202,-0.02163594,-0.00217014,0.00038754,
 0.00268176,-0.00035034,0.00064116,-0.00044498,-0.00068341,-0.00004287,
 -0.00051018,0.01943408,-0.13791605,0.04321649,0.02597474,-0.00544993,0
 .01148275,0.09059842,0.58059291,-0.00032232,-0.00028188,-0.00031281,0.
 00023532,-0.00018883,-0.00030115,-0.02119700,-0.03257907,0.02160515,-0
 .00069477,0.00178097,0.00535501,0.00038488,-0.00025976,0.00018928,0.00
 046928,-0.00022669,-0.00034288,-0.06469583,0.05898939,-0.11071945,-0.0
 1409341,0.00484791,-0.00119036,0.09156895,-0.21011163,0.26747336,-0.00
 069989,0.00002111,-0.00014683,-0.00001888,-0.00004258,0.00002623,-0.00
 294317,0.00194524,-0.00352191,0.00038584,-0.00095888,0.00060938,-0.000
 12957,0.00031731,-0.00021930,-0.00002551,-0.00010688,0.00005489,-0.015
 17369,-0.01579134,0.00353857,0.00078672,0.00044776,0.00098639,-0.25766
 296,-0.13648309,0.01921129,0.26746233,0.00023215,-0.00004720,0.0000286
 4,0.00003516,0.00001085,-0.00001193,0.00189081,0.00138686,0.00364774,0
 .00020014,0.00038146,-0.00018278,-0.00002086,-0.00006244,0.00006522,0.
 00002609,0.00002313,-0.00001054,0.01041138,0.01027316,-0.00049385,0.00
 004508,-0.00034635,-0.00206433,-0.13509319,-0.14421196,0.02284501,0.14
 420131,0.14662751,-0.00026372,-0.00001870,-0.00014335,-0.00001916,-0.0
 0002752,-0.00001229,-0.00343692,0.00368108,0.00477210,0.00000797,-0.00
 045704,0.00017554,-0.00004121,0.00015328,-0.00002044,-0.00001839,-0.00
 004542,0.00000961,-0.01014790,-0.00668958,0.00571631,0.00118272,-0.001
 95987,-0.00301766,0.01852996,0.02253771,-0.04576551,-0.01783880,-0.028
 58413,0.03642692,-0.00246661,-0.00011984,-0.00047009,0.00030268,-0.000
 02441,0.00006038,-0.01718976,-0.02666643,0.01161967,0.00376595,-0.0026
 9943,0.00244851,-0.00048817,0.00108645,-0.00064791,0.00010376,-0.00034
 436,0.00016979,0.02943354,0.02820836,-0.00940204,-0.00391869,0.0011547
 9,-0.00336060,-0.11889059,0.02026404,-0.02396290,0.00553088,-0.0224415
 4,0.01218383,0.65468898,-0.00038789,0.00026555,-0.00021810,0.00003055,
 -0.00005664,0.00002172,-0.02755199,-0.05430944,0.01819949,-0.00228901,
 -0.00223603,0.00033440,0.00085349,-0.00060455,0.00037857,0.00003323,0.
 00045001,-0.00008431,0.08032228,-0.00624875,0.02574683,0.00094753,0.00
 274723,0.00277601,-0.03836871,-0.27099341,0.09938015,0.00431104,-0.010
 13506,0.00821242,0.04667801,0.56441730,-0.00037898,-0.00017235,-0.0000
 0662,0.00005457,0.00002444,0.00000410,0.01200533,0.01829409,-0.0139978
 3,0.00219252,0.00025715,-0.00013257,-0.00048126,0.00041921,-0.00059580
 ,-0.00006980,-0.00016183,0.00034094,-0.03658516,0.01349317,-0.00885592
 ,-0.00321949,0.00279511,0.00537711,0.00672371,0.11344871,-0.12057239,-
 0.00178701,0.00182382,0.00216449,0.09671585,-0.20989052,0.27299776,0.0
 0135658,-0.00005840,0.00033626,-0.00005342,0.00019220,-0.00007289,0.03
 326948,0.07537300,-0.03405295,0.00158817,0.00141875,-0.00186861,-0.000
 24386,0.00033531,0.00007502,-0.00003883,-0.00020743,0.00006492,-0.0793
 5968,-0.00747244,-0.01335497,-0.00103927,-0.00021904,0.00012431,0.0448
 8917,-0.06847176,0.04444280,0.00144809,0.00128228,-0.00196594,-0.24491
 787,-0.07265826,-0.00505656,0.64720452,-0.00019910,0.00069242,-0.00048
 103,0.00013246,0.00012248,-0.00006098,0.02928244,-0.00395377,0.0142754
 9,-0.00247183,-0.00289062,0.00432603,0.00177884,-0.00094534,0.00033576
 ,-0.00004992,0.00038318,-0.00019696,-0.01027221,-0.00274319,-0.0042520
 9,-0.00003457,0.00009859,-0.00064656,-0.01912809,-0.03087019,0.0161008
 5,0.00051584,-0.00231388,0.00486034,-0.13125066,-0.18390124,0.03194257
 ,0.03449655,0.63069863,0.00040564,-0.00045340,0.00019860,-0.00006826,-
 0.00005496,-0.00004042,-0.00983835,0.02530113,-0.00535443,0.00015513,0
 .00520485,0.00375742,-0.00068074,-0.00010737,-0.00133576,0.00001331,-0
 .00019052,0.00019675,-0.01189609,-0.00359665,-0.00717282,0.00003935,-0
 .00070232,-0.00077997,0.01853397,0.00440811,0.01069359,-0.00154601,0.0
 0503653,0.00377139,0.02562418,0.04588636,-0.08106954,0.10233194,-0.248
 85522,0.29308717,-0.00029477,-0.00014247,-0.00000195,0.00001984,0.0000
 0195,-0.00000413,-0.00428910,0.00087427,-0.00325827,0.00094883,0.00078
 087,-0.00014627,-0.00051635,0.00041451,-0.00033306,-0.00003523,-0.0001
 2031,0.00005992,-0.00094459,-0.00010798,0.00005270,0.00011829,0.000158
 35,0.00022235,-0.00403649,-0.00277606,-0.00110682,0.00028396,-0.001137
 74,0.00056044,0.00408859,-0.02343798,0.01237542,-0.05802792,0.01214040
 ,-0.01077574,0.05721383,0.00021518,0.00005756,0.00003849,-0.00002145,0
 .00000833,0.00000782,0.00086142,0.00237361,0.00295051,-0.00056821,-0.0
 0012182,-0.00014961,0.00018513,-0.00020113,0.00010028,0.00000817,0.000
 05666,-0.00002648,0.00013624,0.00033094,-0.00063282,0.00014095,-0.0002
 9679,-0.00042789,-0.00353238,0.00147923,0.00194963,0.00018749,-0.00036
 987,0.00045616,0.00326913,-0.00918203,0.00741811,0.01075621,-0.2805957
 9,0.12866136,-0.01061730,0.29016862,-0.00018512,-0.00004359,0.00002102
 ,0.00000842,0.00001271,0.00002754,-0.00327107,0.00291274,0.00531365,0.
 00055395,0.00017068,-0.00010886,-0.00019333,0.00014690,-0.00023232,-0.
 00001077,-0.00005231,0.00003589,-0.00006345,-0.00067390,-0.00059519,0.
 00023303,-0.00041999,-0.00090385,-0.00071100,0.00211957,0.00551012,-0.
 00013007,0.00014296,0.00031010,-0.00158012,0.00110417,0.00261792,-0.01
 001703,0.12904293,-0.10918015,0.01288978,-0.14045454,0.10284516,-0.003
 26099,-0.00022005,-0.00041541,0.00069219,0.00009922,0.00011035,-0.1265
 2012,-0.02301133,-0.00241144,0.00550278,0.01924671,-0.00962818,-0.0055
 3906,0.00339827,-0.00346633,-0.00039489,-0.00095395,0.00043517,0.04669
 131,-0.02247233,0.02155564,-0.00404125,-0.00357176,-0.00095622,-0.0248
 3095,0.03242479,-0.02138406,0.00008670,0.00065105,-0.00006219,-0.05860
 925,-0.03652219,0.00367461,-0.29252150,0.08924465,-0.10022972,0.003911
 42,-0.00184660,0.00068530,0.71307959,-0.00142966,-0.00209947,0.0004443
 3,-0.00048908,-0.00035808,0.00002950,0.03127678,-0.26452297,0.11200288
 ,0.00789598,-0.00296814,0.00519419,-0.00122917,0.00141375,-0.00059104,
 -0.00020939,-0.00022514,0.00012202,-0.06716956,-0.03198813,0.00338073,
 -0.00336039,0.00141451,0.00255910,0.03025076,-0.04038280,0.02494461,0.
 00085706,-0.00042033,-0.00011856,0.01468476,0.05514055,-0.02177165,0.0
 2254226,-0.14303471,0.04548209,0.02436952,-0.00268579,0.00972699,0.083
 18981,0.57387130,0.00019052,0.00067926,-0.00101958,0.00043577,0.000139
 63,-0.00009255,-0.03094068,0.09912271,-0.12366676,-0.00372189,0.007936
 74,-0.00155984,-0.00086831,0.00054010,0.00037389,-0.00004201,-0.000062
 06,0.00014745,0.04502990,0.01390616,0.00820611,-0.00106527,0.00250818,
 0.00630245,-0.02024661,0.02545056,-0.02446635,-0.00018683,-0.00014475,
 -0.00094408,-0.02317345,-0.03390806,0.01904186,-0.06531734,0.06128472,
 -0.11410930,-0.01296479,0.00352440,-0.00005422,0.09124062,-0.20520427,
 0.27301571,-0.00081252,0.00090904,-0.00068818,-0.00006402,0.00000572,0
 .00002365,0.00590447,0.00182609,-0.00015505,-0.00018009,0.00084923,0.0
 0022565,0.00011601,-0.00037673,0.00012555,0.00001674,0.00001965,0.0000
 0718,0.00146764,0.00066772,-0.00180704,0.00026410,0.00021069,-0.000056
 91,0.00009351,0.00066445,-0.00004478,-0.00006293,0.00002829,0.00023662
 ,-0.00225669,0.00171669,-0.00327537,-0.01667405,-0.01560736,0.00313350
 ,0.00085689,0.00050287,0.00098224,-0.25216400,-0.13461143,0.02039283,0
 .26444308,0.00008207,0.00085741,-0.00032964,0.00032096,0.00032422,-0.0
 0019186,-0.02187685,-0.01083321,0.00178542,-0.00153504,-0.00212638,-0.
 00078217,0.00021703,0.00058703,-0.00002346,-0.00008200,0.00004075,-0.0
 0007713,0.00061464,-0.00250198,0.00544551,-0.00112897,-0.00056047,0.00
 005614,0.00076243,-0.00063790,-0.00010615,0.00001057,-0.00015841,-0.00
 050198,0.00197914,0.00177109,0.00362629,0.01086743,0.00977871,-0.00013
 207,-0.00001431,-0.00045676,-0.00206210,-0.13460794,-0.14495318,0.0225
 6260,0.14375588,0.14853695,-0.00019977,-0.00010498,0.00006420,-0.00013
 399,-0.00026553,-0.00010611,0.01219288,0.00737073,0.00148034,0.0014871
 9,-0.00024364,-0.00254291,-0.00020980,-0.00011182,0.00050112,0.0000548
 0,-0.00005348,-0.00001554,-0.00178244,0.00545420,0.00436553,0.00064272
 ,0.00037489,0.00001896,-0.00011128,-0.00012677,-0.00114298,0.00024789,
 -0.00049552,-0.00080500,-0.00340424,0.00355542,0.00514862,-0.01070476,
 -0.00638346,0.00545352,0.00124374,-0.00194290,-0.00307916,0.02040710,0
 .02252712,-0.04783863,-0.01912674,-0.02933555,0.03835905,0.00172554,0.
 00029674,0.00021038,-0.00015956,0.00005545,-0.00006420,0.00096846,-0.0
 0185993,0.00166688,-0.00384602,0.00118085,-0.00124798,0.00080914,-0.00
 115978,0.00078049,0.00001234,0.00038936,-0.00021853,0.00763601,-0.0003
 7671,-0.00001109,0.00035746,-0.00027367,0.00016091,-0.00898680,0.01853
 265,-0.01207980,0.00068059,-0.00056676,0.00134808,-0.24114477,0.054433
 27,-0.07036067,-0.04372906,0.00740076,-0.01441850,0.00080630,0.0006382
 8,0.00080215,-0.00096457,-0.00758426,0.00165715,-0.00066870,0.00052074
 ,-0.00050844,1.26551907,-0.00069842,0.00000091,-0.00012515,0.00008852,
 0.00000716,0.00002368,-0.00169988,-0.00238407,-0.00015715,0.00147207,-
 0.00091061,0.00017668,-0.00029523,0.00057592,-0.00029458,-0.00010715,-
 0.00008429,0.00002651,-0.00137185,-0.00375016,0.00609899,0.00127364,-0
 .00020553,0.00058665,0.03298863,-0.01094948,0.01410950,0.00077025,-0.0
 0071108,-0.00171951,0.05433105,-0.10507585,0.03519036,-0.00702965,0.01
 341171,-0.00832718,-0.00052749,-0.00073367,-0.00192223,-0.00669916,0.0
 0195716,0.00201216,-0.00086021,0.00057757,-0.00034425,-0.41948387,0.27
 778642,0.00077147,0.00009746,0.00016627,-0.00008801,0.00002260,-0.0000
 0678,0.00156799,-0.00017965,-0.00141261,-0.00137251,0.00010111,-0.0016
 3110,0.00030123,-0.00048011,0.00048740,0.00005045,0.00014636,-0.000044
 32,0.00045964,0.00634861,0.00536000,-0.00065967,0.00021589,0.00006490,
 -0.01970651,0.01055687,-0.00864392,0.00072530,-0.00192981,-0.00304542,
 -0.07027326,0.03523366,-0.09664953,-0.00688592,-0.00493787,0.00209529,
 0.00142201,-0.00161110,-0.00297503,0.00120276,0.00176759,0.00814465,0.
 00021446,-0.00001386,0.00037003,0.49512263,-0.19455794,0.31163515,-0.0
 0129277,-0.00017921,-0.00018826,0.00013279,-0.00002278,0.00003983,-0.0
 0096274,0.00074752,-0.00071044,0.00264661,-0.00082885,0.00102175,-0.00
 058884,0.00086258,-0.00060697,0.00002291,-0.00029798,0.00017785,-0.001
 94790,0.00103894,-0.00063868,-0.00058916,0.00024952,-0.00024445,-0.002
 14097,-0.00780180,0.00326916,0.00005150,0.00025633,-0.00025539,-0.0080
 3198,0.01188993,-0.01252770,0.00684946,0.00402181,-0.00078360,-0.00010
 351,-0.00031513,0.00000707,-0.00111743,0.00101600,-0.00041961,-0.00027
 943,0.00011422,-0.00009486,-0.97901541,0.34784875,-0.40285208,0.986366
 88,0.00050623,0.00005965,0.00007975,-0.00005666,0.00000077,-0.00001448
 ,0.00065402,0.00037661,0.00013410,-0.00099264,0.00038064,-0.00033236,0
 .00021990,-0.00032199,0.00022747,0.00000547,0.00008944,-0.00005904,0.0
 0053347,0.00033136,-0.00084686,-0.00006947,-0.00008466,-0.00004651,-0.
 00269102,0.00229463,-0.00119401,-0.00020220,0.00007363,0.00022132,0.01
 189093,0.01795127,0.00326332,-0.00114702,-0.00393697,0.00243927,0.0001
 4179,0.00016870,0.00024900,0.00165079,-0.00015853,-0.00034809,0.000299
 39,-0.00024544,0.00012554,0.34785689,-0.16951212,0.14922020,-0.3585998
 6,0.15253300,-0.00056789,-0.00007168,-0.00008301,0.00006159,-0.0000095
 4,0.00001070,-0.00064120,0.00015223,0.00009271,0.00108796,-0.00028761,
 0.00060998,-0.00025216,0.00036992,-0.00025440,0.00000801,-0.00012821,0
 .00005054,-0.00037140,-0.00073017,-0.00124172,-0.00006850,0.00002770,-
 0.00017709,0.00060663,-0.00239541,0.00263130,-0.00002317,0.00032771,0.
 00040727,-0.01254759,0.00327180,0.01418740,0.00192172,0.00364547,-0.00
 021134,-0.00023531,0.00013857,0.00044738,-0.00075802,-0.00049561,-0.00
 148080,-0.00018761,0.00007999,-0.00023104,-0.40283946,0.14922346,-0.21
 391497,0.41480638,-0.15311862,0.19915706\\0.00000211,-0.00000109,-0.00
 001054,0.00000330,-0.00000113,-0.00001217,0.00000064,0.00000007,-0.000
 00170,0.00000212,0.00000003,-0.00000509,0.00000369,0.00000175,-0.00000
 317,0.00000299,0.00000225,0.00000068,0.00000041,0.00000127,0.00000389,
 0.00000129,0.00000242,0.00000598,-0.00000088,0.00000115,0.00000682,-0.
 00000106,0.00000216,0.00001107,-0.00000194,-0.00000024,0.00000424,-0.0
 0000171,-0.00000148,-0.00000126,-0.00000258,-0.00000260,-0.00000319,-0
 .00000041,-0.00000136,-0.00000412,-0.00000027,-0.00000236,-0.00000838,
 -0.00000331,-0.00000036,0.00000726,-0.00000441,-0.00000047,0.00000968\
 \\@
 The archive entry for this job was punched.


 THE WHOLE OF SCIENCE IS NOTHING MORE THAN A REFINEMENT OF EVERYDAY THINKING.
                                                              -- A. EINSTEIN
 Job cpu time:       0 days  0 hours 49 minutes 49.2 seconds.
 Elapsed time:       0 days  0 hours  1 minutes 38.1 seconds.
 File lengths (MBytes):  RWF=    181 Int=      0 D2E=      0 Chk=     16 Scr=      1
 Normal termination of Gaussian 16 at Tue May  6 17:30:50 2025.
