/home/tahminaafroz
cn013.cluster.local
tahminaafroz
Tue May  6 17:19:34 CDT 2025
 Entering Gaussian System, Link 0=g16
 Initial command:
 /home/apps/g16/l1.exe "/tmp/2-cf3-phboh2-opt-freq-2-thf/Gau-719120.inp" -scrdir="/tmp/2-cf3-phboh2-opt-freq-2-thf/"
 Entering Link 1 = /home/apps/g16/l1.exe PID=    719121.
  
 Copyright (c) 1988-2019, Gaussian, Inc.  All Rights Reserved.
  
 This is part of the Gaussian(R) 16 program.  It is based on
 the Gaussian(R) 09 system (copyright 2009, Gaussian, Inc.),
 the Gaussian(R) 03 system (copyright 2003, Gaussian, Inc.),
 the Gaussian(R) 98 system (copyright 1998, Gaussian, Inc.),
 the Gaussian(R) 94 system (copyright 1995, Gaussian, Inc.),
 the Gaussian 92(TM) system (copyright 1992, Gaussian, Inc.),
 the Gaussian 90(TM) system (copyright 1990, Gaussian, Inc.),
 the Gaussian 88(TM) system (copyright 1988, Gaussian, Inc.),
 the Gaussian 86(TM) system (copyright 1986, Carnegie Mellon
 University), and the Gaussian 82(TM) system (copyright 1983,
 Carnegie Mellon University). Gaussian is a federally registered
 trademark of Gaussian, Inc.
  
 This software contains proprietary and confidential information,
 including trade secrets, belonging to Gaussian, Inc.
  
 This software is provided under written license and may be
 used, copied, transmitted, or stored only in accord with that
 written license.
  
 The following legend is applicable only to US Government
 contracts under FAR:
  
                    RESTRICTED RIGHTS LEGEND
  
 Use, reproduction and disclosure by the US Government is
 subject to restrictions as set forth in subparagraphs (a)
 and (c) of the Commercial Computer Software - Restricted
 Rights clause in FAR 52.227-19.
  
 Gaussian, Inc.
 340 Quinnipiac St., Bldg. 40, Wallingford CT 06492
  
  
 ---------------------------------------------------------------
 Warning -- This program may not be used in any manner that
 competes with the business of Gaussian, Inc. or will provide
 assistance to any competitor of Gaussian, Inc.  The licensee
 of this program is prohibited from giving any competitor of
 Gaussian, Inc. access to this program.  By using this program,
 the user acknowledges that Gaussian, Inc. is engaged in the
 business of creating and licensing software in the field of
 computational chemistry and represents and warrants to the
 licensee that it is not a competitor of Gaussian, Inc. and that
 it will not use this program in any manner prohibited above.
 ---------------------------------------------------------------
  

 Cite this work as:
 Gaussian 16, Revision C.01,
 M. J. Frisch, G. W. Trucks, H. B. Schlegel, G. E. Scuseria, 
 M. A. Robb, J. R. Cheeseman, G. Scalmani, V. Barone, 
 G. A. Petersson, H. Nakatsuji, X. Li, M. Caricato, A. V. Marenich, 
 J. Bloino, B. G. Janesko, R. Gomperts, B. Mennucci, H. P. Hratchian, 
 J. V. Ortiz, A. F. Izmaylov, J. L. Sonnenberg, D. Williams-Young, 
 F. Ding, F. Lipparini, F. Egidi, J. Goings, B. Peng, A. Petrone, 
 T. Henderson, D. Ranasinghe, V. G. Zakrzewski, J. Gao, N. Rega, 
 G. Zheng, W. Liang, M. Hada, M. Ehara, K. Toyota, R. Fukuda, 
 J. Hasegawa, M. Ishida, T. Nakajima, Y. Honda, O. Kitao, H. Nakai, 
 T. Vreven, K. Throssell, J. A. Montgomery, Jr., J. E. Peralta, 
 F. Ogliaro, M. J. Bearpark, J. J. Heyd, E. N. Brothers, K. N. Kudin, 
 V. N. Staroverov, T. A. Keith, R. Kobayashi, J. Normand, 
 K. Raghavachari, A. P. Rendell, J. C. Burant, S. S. Iyengar, 
 J. Tomasi, M. Cossi, J. M. Millam, M. Klene, C. Adamo, R. Cammi, 
 J. W. Ochterski, R. L. Martin, K. Morokuma, O. Farkas, 
 J. B. Foresman, and D. J. Fox, Gaussian, Inc., Wallingford CT, 2019.
 
 ******************************************
 Gaussian 16:  AS64L-G16RevC.01  3-Jul-2019
                 6-May-2025 
 ******************************************
 %mem=20GB
 %nprocshared=32
 Will use up to   32 processors via shared memory.
 %chk=2-cf3-phboh2-opt-freq-2-thf.chk
 ----------------------------------------------------------------------
 # opt=(calcfc,tight) freq 6-311+g(d,p) scrf=(smd,solvent=thf) nosymm s
 cf=(qc,fermi,xqc) geom=connectivity int=ultrafine m062x
 ----------------------------------------------------------------------
 1/7=10,10=4,18=20,19=15,26=6,38=1,57=2/1,3;
 2/9=110,12=2,15=1,17=6,18=5,40=1/2;
 3/5=4,6=6,7=111,11=2,25=1,30=1,70=32201,71=2,72=20,74=-55,75=-5,140=1/1,2,3;
 4//1;
 5/5=2,22=13,38=5,53=20/2;
 8/6=4,10=90,11=11/1;
 11/6=1,8=1,9=11,15=111,16=1,31=1/1,2,10;
 10/6=1,13=1,31=1/2;
 6/7=2,8=2,9=2,10=2,28=1/1;
 7/10=1,25=1,30=1/1,2,3,16;
 1/7=10,10=4,18=20,19=15,26=6/3(2);
 2/9=110,15=1/2;
 99//99;
 2/9=110,15=1/2;
 3/5=4,6=6,7=111,11=2,25=1,30=1,70=32205,71=1,72=20,74=-55,75=-5/1,2,3;
 4/5=5,16=3,69=1/1;
 5/5=2,22=13,38=5,53=20/2;
 7/30=1/1,2,3,16;
 1/7=10,18=20,19=15,26=6/3(-5);
 2/9=110,15=1/2;
 6/7=2,8=2,9=2,10=2,19=2,28=1/1;
 99/9=1/99;
 ---------------------------
 2-cf3-phboh2-opt-freq-2-thf
 ---------------------------
 Symbolic Z-matrix:
 Charge =  0 Multiplicity = 1
 O                     8.70127   6.35733   4.85638 
 H                     9.50948   6.07373   5.29562 
 C                     6.2736    6.99914   5.12205 
 B                     7.66738   6.51841   5.7112 
 O                     7.81201   6.19299   7.02597 
 H                     7.04782   6.389     7.57216 
 C                     5.19256   6.10715   5.15575 
 H                     5.32836   5.12083   5.58746 
 C                     3.96058   6.46377   4.63135 
 H                     3.13358   5.76165   4.65361 
 C                     3.75399   7.73936   4.06483 
 C                     4.83996   8.63796   4.04671 
 H                     4.6755    9.62277   3.62495 
 C                     6.07106   8.26945   4.56147 
 C                     2.50079   8.19746   3.5099 
 H                     1.78909   7.35507   3.60443 
 C                     7.21456   9.24912   4.50835 
 F                     6.78511   10.51498   4.45615 
 F                     7.99729   9.14125   5.59963 
 F                     7.99863   9.05441   3.4435 
 

 GradGradGradGradGradGradGradGradGradGradGradGradGradGradGradGradGradGrad
 Berny optimization.
 Initialization pass.
                           ----------------------------
                           !    Initial Parameters    !
                           ! (Angstroms and Degrees)  !
 --------------------------                            --------------------------
 ! Name  Definition              Value          Derivative Info.                !
 --------------------------------------------------------------------------------
 ! R1    R(1,2)                  0.9626         calculate D2E/DX2 analytically  !
 ! R2    R(1,4)                  1.3511         calculate D2E/DX2 analytically  !
 ! R3    R(3,4)                  1.5877         calculate D2E/DX2 analytically  !
 ! R4    R(3,7)                  1.4019         calculate D2E/DX2 analytically  !
 ! R5    R(3,14)                 1.4032         calculate D2E/DX2 analytically  !
 ! R6    R(4,5)                  1.3621         calculate D2E/DX2 analytically  !
 ! R7    R(5,6)                  0.9595         calculate D2E/DX2 analytically  !
 ! R8    R(7,8)                  1.0852         calculate D2E/DX2 analytically  !
 ! R9    R(7,9)                  1.3856         calculate D2E/DX2 analytically  !
 ! R10   R(9,10)                 1.0851         calculate D2E/DX2 analytically  !
 ! R11   R(9,11)                 1.4109         calculate D2E/DX2 analytically  !
 ! R12   R(11,12)                1.4097         calculate D2E/DX2 analytically  !
 ! R13   R(11,15)                1.4451         calculate D2E/DX2 analytically  !
 ! R14   R(12,13)                1.0839         calculate D2E/DX2 analytically  !
 ! R15   R(12,14)                1.3843         calculate D2E/DX2 analytically  !
 ! R16   R(14,17)                1.5067         calculate D2E/DX2 analytically  !
 ! R17   R(15,16)                1.1068         calculate D2E/DX2 analytically  !
 ! R18   R(17,18)                1.3377         calculate D2E/DX2 analytically  !
 ! R19   R(17,19)                1.3473         calculate D2E/DX2 analytically  !
 ! R20   R(17,20)                1.3366         calculate D2E/DX2 analytically  !
 ! A1    A(2,1,4)              112.887          calculate D2E/DX2 analytically  !
 ! A2    A(4,3,7)              118.382          calculate D2E/DX2 analytically  !
 ! A3    A(4,3,14)             123.3027         calculate D2E/DX2 analytically  !
 ! A4    A(7,3,14)             118.314          calculate D2E/DX2 analytically  !
 ! A5    A(1,4,3)              118.2341         calculate D2E/DX2 analytically  !
 ! A6    A(1,4,5)              120.0616         calculate D2E/DX2 analytically  !
 ! A7    A(3,4,5)              121.5808         calculate D2E/DX2 analytically  !
 ! A8    A(4,5,6)              114.5865         calculate D2E/DX2 analytically  !
 ! A9    A(3,7,8)              119.4301         calculate D2E/DX2 analytically  !
 ! A10   A(3,7,9)              120.8469         calculate D2E/DX2 analytically  !
 ! A11   A(8,7,9)              119.7186         calculate D2E/DX2 analytically  !
 ! A12   A(7,9,10)             120.2219         calculate D2E/DX2 analytically  !
 ! A13   A(7,9,11)             120.9857         calculate D2E/DX2 analytically  !
 ! A14   A(10,9,11)            118.7921         calculate D2E/DX2 analytically  !
 ! A15   A(9,11,12)            117.9482         calculate D2E/DX2 analytically  !
 ! A16   A(9,11,15)            124.5941         calculate D2E/DX2 analytically  !
 ! A17   A(12,11,15)           117.4554         calculate D2E/DX2 analytically  !
 ! A18   A(11,12,13)           117.86           calculate D2E/DX2 analytically  !
 ! A19   A(11,12,14)           120.7059         calculate D2E/DX2 analytically  !
 ! A20   A(13,12,14)           121.4326         calculate D2E/DX2 analytically  !
 ! A21   A(3,14,12)            121.192          calculate D2E/DX2 analytically  !
 ! A22   A(3,14,17)            119.549          calculate D2E/DX2 analytically  !
 ! A23   A(12,14,17)           119.2575         calculate D2E/DX2 analytically  !
 ! A24   A(11,15,16)           106.4723         calculate D2E/DX2 analytically  !
 ! A25   A(14,17,18)           111.901          calculate D2E/DX2 analytically  !
 ! A26   A(14,17,19)           111.1187         calculate D2E/DX2 analytically  !
 ! A27   A(14,17,20)           112.2451         calculate D2E/DX2 analytically  !
 ! A28   A(18,17,19)           107.0902         calculate D2E/DX2 analytically  !
 ! A29   A(18,17,20)           107.162          calculate D2E/DX2 analytically  !
 ! A30   A(19,17,20)           107.0268         calculate D2E/DX2 analytically  !
 ! D1    D(2,1,4,3)            179.3885         calculate D2E/DX2 analytically  !
 ! D2    D(2,1,4,5)             -4.5874         calculate D2E/DX2 analytically  !
 ! D3    D(7,3,4,1)            113.1329         calculate D2E/DX2 analytically  !
 ! D4    D(7,3,4,5)            -62.8276         calculate D2E/DX2 analytically  !
 ! D5    D(14,3,4,1)           -66.4578         calculate D2E/DX2 analytically  !
 ! D6    D(14,3,4,5)           117.5816         calculate D2E/DX2 analytically  !
 ! D7    D(4,3,7,8)              0.5395         calculate D2E/DX2 analytically  !
 ! D8    D(4,3,7,9)           -178.6931         calculate D2E/DX2 analytically  !
 ! D9    D(14,3,7,8)          -179.849          calculate D2E/DX2 analytically  !
 ! D10   D(14,3,7,9)             0.9184         calculate D2E/DX2 analytically  !
 ! D11   D(4,3,14,12)          179.279          calculate D2E/DX2 analytically  !
 ! D12   D(4,3,14,17)           -0.2824         calculate D2E/DX2 analytically  !
 ! D13   D(7,3,14,12)           -0.312          calculate D2E/DX2 analytically  !
 ! D14   D(7,3,14,17)         -179.8734         calculate D2E/DX2 analytically  !
 ! D15   D(1,4,5,6)            176.3995         calculate D2E/DX2 analytically  !
 ! D16   D(3,4,5,6)             -7.7126         calculate D2E/DX2 analytically  !
 ! D17   D(3,7,9,10)           179.3683         calculate D2E/DX2 analytically  !
 ! D18   D(3,7,9,11)            -0.8311         calculate D2E/DX2 analytically  !
 ! D19   D(8,7,9,10)             0.1379         calculate D2E/DX2 analytically  !
 ! D20   D(8,7,9,11)           179.9385         calculate D2E/DX2 analytically  !
 ! D21   D(7,9,11,12)            0.1192         calculate D2E/DX2 analytically  !
 ! D22   D(7,9,11,15)         -179.3105         calculate D2E/DX2 analytically  !
 ! D23   D(10,9,11,12)         179.9225         calculate D2E/DX2 analytically  !
 ! D24   D(10,9,11,15)           0.4928         calculate D2E/DX2 analytically  !
 ! D25   D(9,11,12,13)        -179.0832         calculate D2E/DX2 analytically  !
 ! D26   D(9,11,12,14)           0.4856         calculate D2E/DX2 analytically  !
 ! D27   D(15,11,12,13)          0.3878         calculate D2E/DX2 analytically  !
 ! D28   D(15,11,12,14)        179.9565         calculate D2E/DX2 analytically  !
 ! D29   D(9,11,15,16)          -1.2938         calculate D2E/DX2 analytically  !
 ! D30   D(12,11,15,16)        179.274          calculate D2E/DX2 analytically  !
 ! D31   D(11,12,14,3)          -0.3895         calculate D2E/DX2 analytically  !
 ! D32   D(11,12,14,17)        179.1732         calculate D2E/DX2 analytically  !
 ! D33   D(13,12,14,3)         179.1636         calculate D2E/DX2 analytically  !
 ! D34   D(13,12,14,17)         -1.2737         calculate D2E/DX2 analytically  !
 ! D35   D(3,14,17,18)        -155.5255         calculate D2E/DX2 analytically  !
 ! D36   D(3,14,17,19)         -35.8679         calculate D2E/DX2 analytically  !
 ! D37   D(3,14,17,20)          83.9418         calculate D2E/DX2 analytically  !
 ! D38   D(12,14,17,18)         24.9045         calculate D2E/DX2 analytically  !
 ! D39   D(12,14,17,19)        144.5621         calculate D2E/DX2 analytically  !
 ! D40   D(12,14,17,20)        -95.6282         calculate D2E/DX2 analytically  !
 --------------------------------------------------------------------------------
 Trust Radius=3.00D-01 FncErr=5.00D-06 GrdErr=5.00D-06 EigMax=2.50D+02 EigMin=1.00D-04
 Number of steps in this run=    100 maximum allowed number of steps=    120.
 GradGradGradGradGradGradGradGradGradGradGradGradGradGradGradGradGradGrad

                          Input orientation:                          
 ---------------------------------------------------------------------
 Center     Atomic      Atomic             Coordinates (Angstroms)
 Number     Number       Type             X           Y           Z
 ---------------------------------------------------------------------
      1          8           0        8.701270    6.357326    4.856381
      2          1           0        9.509476    6.073728    5.295619
      3          6           0        6.273597    6.999144    5.122051
      4          5           0        7.667380    6.518414    5.711195
      5          8           0        7.812005    6.192995    7.025971
      6          1           0        7.047820    6.389001    7.572164
      7          6           0        5.192561    6.107145    5.155750
      8          1           0        5.328355    5.120833    5.587463
      9          6           0        3.960580    6.463767    4.631354
     10          1           0        3.133580    5.761652    4.653607
     11          6           0        3.753992    7.739359    4.064834
     12          6           0        4.839956    8.637956    4.046712
     13          1           0        4.675502    9.622772    3.624948
     14          6           0        6.071055    8.269449    4.561472
     15          6           0        2.500794    8.197464    3.509895
     16          1           0        1.789087    7.355067    3.604431
     17          6           0        7.214557    9.249124    4.508348
     18          9           0        6.785106   10.514977    4.456148
     19          9           0        7.997291    9.141252    5.599627
     20          9           0        7.998634    9.054414    3.443500
 ---------------------------------------------------------------------
                    Distance matrix (angstroms):
                    1          2          3          4          5
     1  O    0.000000
     2  H    0.962577   0.000000
     3  C    2.525095   3.370079   0.000000
     4  B    1.351142   1.940043   1.587710   0.000000
     5  O    2.350514   2.426881   2.577108   1.362149   0.000000
     6  H    3.179682   3.367760   2.640975   1.965657   0.959544
     7  C    3.530333   4.319310   1.401940   2.569512   3.219718
     8  H    3.666054   4.298250   2.153635   2.727559   3.063879
     9  C    4.747221   5.602109   2.424347   3.861270   4.543235
    10  H    5.603135   6.415732   3.407423   4.716622   5.263253
    11  C    5.197319   6.116760   2.830907   4.417671   5.256143
    12  C    4.557037   5.471695   2.428453   3.906058   4.866918
    13  H    5.327886   6.225284   3.417404   4.789655   5.759165
    14  C    3.265152   4.145226   1.403192   2.633674   3.662830
    15  C    6.606439   7.537950   4.274232   5.861616   6.677548
    16  H    7.095149   8.006644   4.747703   6.300220   7.023738
    17  C    3.270159   3.996197   2.514845   3.018057   4.004409
    18  F    4.595425   5.277461   3.614713   4.280895   5.132060
    19  F    2.966184   3.433486   2.790668   2.645859   3.280397
    20  F    3.124774   3.820665   3.165031   3.418109   4.588752
                    6          7          8          9         10
     6  H    0.000000
     7  C    3.059491   0.000000
     8  H    2.916136   1.085185   0.000000
     9  C    4.264388   1.385622   2.142061   0.000000
    10  H    4.922684   2.147304   2.469772   1.085076   0.000000
    11  C    4.997413   2.433865   3.413751   1.410942   2.154737
    12  C    4.728771   2.785552   3.870737   2.417066   3.398995
    13  H    5.627227   3.869152   4.954305   3.391648   4.282979
    14  C    3.681633   2.408418   3.393824   2.778394   3.863456
    15  C    6.359875   3.784690   4.666589   2.528705   2.764358
    16  H    6.658112   3.943036   4.631483   2.562102   2.333967
    17  C    4.194648   3.792048   4.665301   4.285057   5.370096
    18  F    5.177089   4.738631   5.700771   4.941755   5.997227
    19  F    3.516715   4.155640   4.825675   4.939789   5.997694
    20  F    5.005431   4.415002   5.215364   4.942502   5.997949
                   11         12         13         14         15
    11  C    0.000000
    12  C    1.409653   0.000000
    13  H    2.142411   1.083878   0.000000
    14  C    2.428256   1.384334   2.157806   0.000000
    15  C    1.445103   2.440058   2.602709   3.722601   0.000000
    16  H    2.054386   3.339045   3.670735   4.481883   1.106841
    17  C    3.801527   2.495068   2.714187   1.506712   4.931780
    18  F    4.128539   2.733945   2.436668   2.358677   4.962015
    19  F    4.725090   3.554380   3.894291   2.355460   5.955602
    20  F    4.486916   3.242614   3.376264   2.362539   5.564622
                   16         17         18         19         20
    16  H    0.000000
    17  C    5.817237   0.000000
    18  F    5.972492   1.337736   0.000000
    19  F    6.761143   1.347293   2.159643   0.000000
    20  F    6.439888   1.336634   2.152057   2.157875   0.000000
 Symmetry turned off by external request.
 Stoichiometry    C8H6BF3O2
 Framework group  C1[X(C8H6BF3O2)]
 Deg. of freedom    54
 Full point group                 C1      NOp   1
 Rotational constants (GHZ):           0.9023420           0.6304923           0.4232170
 Standard basis: 6-311+G(d,p) (5D, 7F)
   344 basis functions,   552 primitive gaussians,   358 cartesian basis functions
    51 alpha electrons       51 beta electrons
       nuclear repulsion energy       894.2520203103 Hartrees.
 NAtoms=   20 NActive=   20 NUniq=   20 SFac= 1.00D+00 NAtFMM=   60 NAOKFM=F Big=F
 Integral buffers will be    131072 words long.
 Raffenetti 2 integral format.
 Two-electron integral symmetry is turned off.
 Force inversion solution in PCM.
 ------------------------------------------------------------------------------
 Polarizable Continuum Model (PCM)
 =================================
 Model                : PCM.
 Atomic radii         : SMD-Coulomb.
 Polarization charges : Total charges.
 Charge compensation  : None.
 Solution method      : Matrix inversion.
 Cavity type          : VdW (van der Waals Surface) (Alpha=1.000).
 Cavity algorithm     : GePol (No added spheres)
                        Default sphere list used, NSphG=   20.
                        Lebedev-Laikov grids with approx.  5.0 points / Ang**2.
                        Smoothing algorithm: York/Karplus (Gamma=1.0000).
                        Polarization charges: spherical gaussians, with
                                              point-specific exponents (IZeta= 3).
                        Self-potential: point-specific (ISelfS= 7).
                        Self-field    : sphere-specific E.n sum rule (ISelfD= 2).
 1st derivatives      : Analytical E(r).r(x)/FMM algorithm (CHGder, D1EAlg=3).
                        Cavity 1st derivative terms included.
 2nd derivatives      : Analytical E(r).r(xy)/FMM algorithm (CHGder, D2EAlg=3).
                        Cavity 2nd derivative terms included.
 Solvent              : TetraHydroFuran, Eps=   7.425700 Eps(inf)=   1.974025
 ------------------------------------------------------------------------------
 Spheres list:
 ISph  on   Nord     Re0    Alpha      Xe            Ye            Ze
    1   O      1    2.2940  1.000      8.701270      6.357326      4.856381
    2   H      2    1.2000  1.000      9.509476      6.073728      5.295619
    3   C      3    1.8500  1.000      6.273597      6.999144      5.122051
    4   B      4    1.8000  1.000      7.667380      6.518414      5.711195
    5   O      5    2.2940  1.000      7.812005      6.192995      7.025971
    6   H      6    1.2000  1.000      7.047820      6.389001      7.572164
    7   C      7    1.8500  1.000      5.192561      6.107145      5.155750
    8   H      8    1.2000  1.000      5.328355      5.120833      5.587463
    9   C      9    1.8500  1.000      3.960580      6.463767      4.631354
   10   H     10    1.2000  1.000      3.133580      5.761652      4.653607
   11   C     11    1.8500  1.000      3.753992      7.739359      4.064834
   12   C     12    1.8500  1.000      4.839956      8.637956      4.046712
   13   H     13    1.2000  1.000      4.675502      9.622772      3.624948
   14   C     14    1.8500  1.000      6.071055      8.269449      4.561472
   15   C     15    1.8500  1.000      2.500794      8.197464      3.509895
   16   H     16    1.2000  1.000      1.789087      7.355067      3.604431
   17   C     17    1.8500  1.000      7.214557      9.249124      4.508348
   18   F     18    1.7300  1.000      6.785106     10.514977      4.456148
   19   F     19    1.7300  1.000      7.997291      9.141252      5.599627
   20   F     20    1.7300  1.000      7.998634      9.054414      3.443500
 ------------------------------------------------------------------------------
 ------------------------------------------------------------------------------
 Atomic radii for non-electrostatic terms: SMD-CDS.
 ------------------------------------------------------------------------------
 Nuclear repulsion after PCM non-electrostatic terms =      894.2513447932 Hartrees.
 One-electron integrals computed using PRISM.
 NBasis=   344 RedAO= T EigKep=  1.83D-06  NBF=   344
 NBsUse=   343 1.00D-06 EigRej=  7.61D-07 NBFU=   343
 ExpMin= 3.15D-02 ExpMax= 1.14D+04 ExpMxC= 1.72D+03 IAcc=3 IRadAn=         5 AccDes= 0.00D+00
 Harris functional with IExCor= 1009 and IRadAn=       5 diagonalized for initial guess.
 HarFok:  IExCor= 1009 AccDes= 0.00D+00 IRadAn=         5 IDoV= 1 UseB2=F ITyADJ=14
 ICtDFT=  3500011 ScaDFX=  1.000000  1.000000  1.000000  1.000000
 FoFCou: FMM=F IPFlag=           0 FMFlag=      100000 FMFlg1=           0
         NFxFlg=           0 DoJE=T BraDBF=F KetDBF=T FulRan=T
         wScrn=  0.000000 ICntrl=       500 IOpCl=  0 I1Cent=   200000004 NGrid=           0
         NMat0=    1 NMatS0=      1 NMatT0=    0 NMatD0=    1 NMtDS0=    0 NMtDT0=    0
 Symmetry not used in FoFCou.
 Requested convergence on RMS density matrix=1.00D-08 within 128 cycles.
 Requested convergence on MAX density matrix=1.00D-06.
 Requested convergence on             energy=1.00D-06.
 Level shift goal  0.100 maximum shift  0.100.
 No special actions if energy rises.
 Dynamic level shift is on during FON iterations.
 Inv3:  Mode=1 IEnd=     9082800.
 Iteration    1 A*A^-1 deviation from unit magnitude is 8.44D-15 for   1729.
 Iteration    1 A*A^-1 deviation from orthogonality  is 1.97D-15 for   1065    592.
 Iteration    1 A^-1*A deviation from unit magnitude is 8.44D-15 for   1729.
 Iteration    1 A^-1*A deviation from orthogonality  is 2.96D-15 for   1115    993.
 Error on total polarization charges =  0.02898
 SCF Done:  E(RM062X) =  -783.251462215     A.U. after   16 cycles
            NFock= 16  Conv=0.99D-08     -V/T= 2.0031
 SMD-CDS (non-electrostatic) energy       (kcal/mol) =      -0.42
 (included in total energy above)
 DoSCS=F DFT=T ScalE2(SS,OS)=  1.000000  1.000000
 Range of M.O.s used for correlation:     1   343
 NBasis=   344 NAE=    51 NBE=    51 NFC=     0 NFV=     0
 NROrb=    343 NOA=    51 NOB=    51 NVA=   292 NVB=   292

 **** Warning!!: The largest alpha MO coefficient is  0.15222472D+03

 Symmetrizing basis deriv contribution to polar:
 IMax=3 JMax=2 DiffMx= 0.00D+00
 G2DrvN: will do    21 centers at a time, making    1 passes.
 Calling FoFCou, ICntrl=  3107 FMM=F I1Cent=   0 AccDes= 0.00D+00.
 NEqPCM:  Using equilibrium solvation (IEInf=0, Eps=   7.4257, EpsInf=   1.9740)
 G2PCM: DoFxE=T DoFxN=T DoGrad=T DoDP/DQ/DG/TGxP=FFFF NFrqRd=   0 IEInf=0 SqF1=F DoCFld=F IF1Alg=4.
 End of G2Drv F.D. properties file   721 does not exist.
 End of G2Drv F.D. properties file   722 does not exist.
 End of G2Drv F.D. properties file   788 does not exist.
          IDoAtm=11111111111111111111
 NEqPCM:  Using equilibrium solvation (IEInf=0, Eps=   7.4257, EpsInf=   1.9740)
          Differentiating once with respect to nuclear coordinates.
 Keep R1 ints in memory in canonical form, NReq=1797606706.
          There are    63 degrees of freedom in the 1st order CPHF.  IDoFFX=6 NUNeed=     0.
     57 vectors produced by pass  0 Test12= 2.36D-14 1.59D-09 XBig12= 4.34D-01 1.62D-01.
 AX will form    57 AO Fock derivatives at one time.
     57 vectors produced by pass  1 Test12= 2.36D-14 1.59D-09 XBig12= 2.33D-02 4.08D-02.
     57 vectors produced by pass  2 Test12= 2.36D-14 1.59D-09 XBig12= 1.13D-03 4.61D-03.
     57 vectors produced by pass  3 Test12= 2.36D-14 1.59D-09 XBig12= 1.01D-05 4.80D-04.
     57 vectors produced by pass  4 Test12= 2.36D-14 1.59D-09 XBig12= 7.39D-08 3.10D-05.
     57 vectors produced by pass  5 Test12= 2.36D-14 1.59D-09 XBig12= 3.86D-10 2.01D-06.
     57 vectors produced by pass  6 Test12= 2.36D-14 1.59D-09 XBig12= 1.73D-12 1.49D-07.
     18 vectors produced by pass  7 Test12= 2.36D-14 1.59D-09 XBig12= 7.04D-15 9.56D-09.
 InvSVY:  IOpt=1 It=  1 EMax= 9.44D-16
 Solved reduced A of dimension   417 with    63 vectors.
 End of Minotr F.D. properties file   721 does not exist.
 End of Minotr F.D. properties file   722 does not exist.
 End of Minotr F.D. properties file   788 does not exist.

 **********************************************************************

            Population analysis using the SCF Density.

 **********************************************************************

 Alpha  occ. eigenvalues --  -25.28882 -25.28765 -25.28455 -19.64865 -19.64403
 Alpha  occ. eigenvalues --  -10.81203 -10.58840 -10.58141 -10.57918 -10.57767
 Alpha  occ. eigenvalues --  -10.57241 -10.56939 -10.56610  -7.10516  -1.48155
 Alpha  occ. eigenvalues --   -1.38811  -1.38564  -1.18059  -1.14549  -1.00068
 Alpha  occ. eigenvalues --   -0.91218  -0.88626  -0.82248  -0.77076  -0.74006
 Alpha  occ. eigenvalues --   -0.70964  -0.70547  -0.68612  -0.67185  -0.64475
 Alpha  occ. eigenvalues --   -0.62917  -0.59083  -0.58712  -0.57902  -0.56304
 Alpha  occ. eigenvalues --   -0.54505  -0.54214  -0.52742  -0.52438  -0.50918
 Alpha  occ. eigenvalues --   -0.49471  -0.48333  -0.47114  -0.46680  -0.45332
 Alpha  occ. eigenvalues --   -0.42641  -0.41717  -0.40488  -0.35205  -0.34092
 Alpha  occ. eigenvalues --   -0.29134
 Alpha virt. eigenvalues --   -0.09110  -0.01192  -0.00127   0.01925   0.02117
 Alpha virt. eigenvalues --    0.02357   0.02711   0.04015   0.04670   0.04922
 Alpha virt. eigenvalues --    0.06323   0.06725   0.07130   0.07615   0.08752
 Alpha virt. eigenvalues --    0.09604   0.09990   0.10432   0.10500   0.11664
 Alpha virt. eigenvalues --    0.11929   0.12804   0.13453   0.14439   0.14905
 Alpha virt. eigenvalues --    0.15189   0.16287   0.16970   0.17325   0.17498
 Alpha virt. eigenvalues --    0.18071   0.18393   0.18983   0.19355   0.20236
 Alpha virt. eigenvalues --    0.20474   0.21209   0.21931   0.22188   0.23134
 Alpha virt. eigenvalues --    0.23589   0.24006   0.24511   0.25045   0.25502
 Alpha virt. eigenvalues --    0.25811   0.26592   0.27242   0.27868   0.28078
 Alpha virt. eigenvalues --    0.28602   0.28919   0.29390   0.30052   0.30972
 Alpha virt. eigenvalues --    0.32595   0.33754   0.33877   0.35017   0.35745
 Alpha virt. eigenvalues --    0.35998   0.36702   0.37004   0.38086   0.39119
 Alpha virt. eigenvalues --    0.39920   0.40690   0.41828   0.42002   0.42754
 Alpha virt. eigenvalues --    0.42909   0.44160   0.45638   0.47227   0.48058
 Alpha virt. eigenvalues --    0.48504   0.49487   0.50590   0.51812   0.53095
 Alpha virt. eigenvalues --    0.54554   0.55292   0.56028   0.57214   0.58306
 Alpha virt. eigenvalues --    0.58637   0.60305   0.61366   0.62298   0.62764
 Alpha virt. eigenvalues --    0.63742   0.65537   0.65854   0.66283   0.66972
 Alpha virt. eigenvalues --    0.68883   0.69986   0.70360   0.71240   0.72417
 Alpha virt. eigenvalues --    0.72697   0.73786   0.75578   0.76890   0.78487
 Alpha virt. eigenvalues --    0.78916   0.80785   0.81602   0.85339   0.88079
 Alpha virt. eigenvalues --    0.90286   0.91426   0.94945   0.95328   0.96017
 Alpha virt. eigenvalues --    0.97824   0.99130   1.02072   1.02838   1.02909
 Alpha virt. eigenvalues --    1.05244   1.06303   1.08170   1.09613   1.11897
 Alpha virt. eigenvalues --    1.12844   1.14107   1.14518   1.15750   1.17145
 Alpha virt. eigenvalues --    1.18551   1.20524   1.21889   1.23619   1.25979
 Alpha virt. eigenvalues --    1.31078   1.32974   1.34998   1.39090   1.41254
 Alpha virt. eigenvalues --    1.42201   1.45074   1.46005   1.47521   1.48970
 Alpha virt. eigenvalues --    1.49404   1.50305   1.50903   1.52142   1.52982
 Alpha virt. eigenvalues --    1.53265   1.54003   1.55848   1.56875   1.57509
 Alpha virt. eigenvalues --    1.58213   1.59460   1.59965   1.60363   1.61197
 Alpha virt. eigenvalues --    1.63586   1.64699   1.66743   1.72555   1.73774
 Alpha virt. eigenvalues --    1.75423   1.76864   1.78257   1.79650   1.82034
 Alpha virt. eigenvalues --    1.83097   1.83972   1.85635   1.87478   1.88826
 Alpha virt. eigenvalues --    1.92769   1.93125   1.97280   1.98646   2.00338
 Alpha virt. eigenvalues --    2.00991   2.01995   2.03681   2.06026   2.07913
 Alpha virt. eigenvalues --    2.08482   2.10606   2.12261   2.16488   2.17904
 Alpha virt. eigenvalues --    2.20016   2.23133   2.24305   2.26190   2.32048
 Alpha virt. eigenvalues --    2.36424   2.39067   2.42701   2.50085   2.52558
 Alpha virt. eigenvalues --    2.54855   2.57798   2.60347   2.61008   2.64466
 Alpha virt. eigenvalues --    2.66204   2.68526   2.71516   2.73216   2.74653
 Alpha virt. eigenvalues --    2.78498   2.79498   2.80255   2.83720   2.84568
 Alpha virt. eigenvalues --    2.88395   2.94068   2.94500   2.97578   3.03178
 Alpha virt. eigenvalues --    3.05481   3.06692   3.10331   3.11858   3.14760
 Alpha virt. eigenvalues --    3.18675   3.22469   3.23953   3.27167   3.28522
 Alpha virt. eigenvalues --    3.34968   3.38417   3.43188   3.49507   3.52031
 Alpha virt. eigenvalues --    3.56463   3.58887   3.61376   3.65021   3.66994
 Alpha virt. eigenvalues --    3.80237   3.83492   3.84499   3.85199   3.85712
 Alpha virt. eigenvalues --    3.87183   3.89385   3.91360   3.93890   4.00407
 Alpha virt. eigenvalues --    4.01536   4.01990   4.03983   4.13600   4.18398
 Alpha virt. eigenvalues --    4.22462   4.25176   4.27939   4.31070   4.76279
 Alpha virt. eigenvalues --    4.84225   4.99168   5.02239   5.11858   5.18376
 Alpha virt. eigenvalues --    5.33549   5.47686   5.66559   5.74080   6.47252
 Alpha virt. eigenvalues --    6.50477   6.52063   6.53196   6.54046   6.58946
 Alpha virt. eigenvalues --    6.62454   6.88699   6.91215  14.81981  23.56303
 Alpha virt. eigenvalues --   23.67978  23.87075  23.98610  24.03032  24.09634
 Alpha virt. eigenvalues --   24.15053  24.22238  50.01265  50.03006  66.89989
 Alpha virt. eigenvalues --   66.90278  66.95807
          Condensed to atoms (all electrons):
               1          2          3          4          5          6
     1  O    7.764876   0.283297  -0.112651   0.443525  -0.093362   0.010874
     2  H    0.283297   0.405346  -0.025094  -0.001062  -0.004119   0.001985
     3  C   -0.112651  -0.025094  38.099058   0.621925   0.192350   0.024184
     4  B    0.443525  -0.001062   0.621925   3.479165   0.368764  -0.003865
     5  O   -0.093362  -0.004119   0.192350   0.368764   7.804723   0.298269
     6  H    0.010874   0.001985   0.024184  -0.003865   0.298269   0.385325
     7  C   -0.168353  -0.004910  -6.293785  -0.253518  -0.372235   0.036836
     8  H    0.001905   0.000044   0.038949  -0.006699   0.001905  -0.000137
     9  C    0.000347   0.000179   0.606539   0.033811  -0.001088  -0.001650
    10  H    0.000019  -0.000001  -0.012933  -0.000963   0.000079  -0.000007
    11  C    0.007398  -0.001934  -3.221246  -0.005349   0.023272   0.004460
    12  C   -0.015286   0.004249  -6.691166  -0.048663  -0.015035   0.001797
    13  H    0.000039   0.000002  -0.070309   0.000200   0.000026   0.000004
    14  C    0.212657   0.011859 -13.990774   0.024834   0.199703  -0.054795
    15  C   -0.004091  -0.000119   0.878101  -0.022194  -0.002724   0.000164
    16  H    0.000002   0.000000   0.014902   0.000293   0.000003  -0.000001
    17  C   -0.050677   0.028688  -2.671678  -0.057965  -0.073110  -0.006789
    18  F    0.001085  -0.000035   0.010201   0.000496  -0.000125  -0.000021
    19  F    0.005467  -0.002053  -0.042422   0.002035  -0.006653  -0.000303
    20  F    0.001134  -0.000138  -0.197285   0.002958   0.001044  -0.000038
               7          8          9         10         11         12
     1  O   -0.168353   0.001905   0.000347   0.000019   0.007398  -0.015286
     2  H   -0.004910   0.000044   0.000179  -0.000001  -0.001934   0.004249
     3  C   -6.293785   0.038949   0.606539  -0.012933  -3.221246  -6.691166
     4  B   -0.253518  -0.006699   0.033811  -0.000963  -0.005349  -0.048663
     5  O   -0.372235   0.001905  -0.001088   0.000079   0.023272  -0.015035
     6  H    0.036836  -0.000137  -0.001650  -0.000007   0.004460   0.001797
     7  C   18.206203   0.247431  -3.343512  -0.003264  -0.308340   1.801260
     8  H    0.247431   0.447670   0.090373  -0.004859  -0.039297  -0.025316
     9  C   -3.343512   0.090373  11.915395   0.308267  -0.161584  -2.142848
    10  H   -0.003264  -0.004859   0.308267   0.440142   0.037796   0.010979
    11  C   -0.308340  -0.039297  -0.161584   0.037796  15.085026  -0.729142
    12  C    1.801260  -0.025316  -2.142848   0.010979  -0.729142  11.157494
    13  H   -0.017964   0.000027   0.030199  -0.000109   0.026001   0.394244
    14  C   -5.006713   0.035124  -0.235977   0.000033  -1.003595   1.394450
    15  C    0.696076  -0.002261  -1.956728   0.009883  -1.198449   0.321928
    16  H    0.063322   0.000004   0.070814  -0.000283  -0.197423   0.025481
    17  C    0.539850   0.009110   0.995334   0.000681  -2.552784   0.425950
    18  F    0.004146   0.000010   0.005521  -0.000004   0.126702   0.050961
    19  F    0.052899   0.000097  -0.010245  -0.000003   0.053899   0.065379
    20  F   -0.022151   0.000010  -0.009061  -0.000002   0.004580  -0.078805
              13         14         15         16         17         18
     1  O    0.000039   0.212657  -0.004091   0.000002  -0.050677   0.001085
     2  H    0.000002   0.011859  -0.000119   0.000000   0.028688  -0.000035
     3  C   -0.070309 -13.990774   0.878101   0.014902  -2.671678   0.010201
     4  B    0.000200   0.024834  -0.022194   0.000293  -0.057965   0.000496
     5  O    0.000026   0.199703  -0.002724   0.000003  -0.073110  -0.000125
     6  H    0.000004  -0.054795   0.000164  -0.000001  -0.006789  -0.000021
     7  C   -0.017964  -5.006713   0.696076   0.063322   0.539850   0.004146
     8  H    0.000027   0.035124  -0.002261   0.000004   0.009110   0.000010
     9  C    0.030199  -0.235977  -1.956728   0.070814   0.995334   0.005521
    10  H   -0.000109   0.000033   0.009883  -0.000283   0.000681  -0.000004
    11  C    0.026001  -1.003595  -1.198449  -0.197423  -2.552784   0.126702
    12  C    0.394244   1.394450   0.321928   0.025481   0.425950   0.050961
    13  H    0.419777  -0.072585  -0.012182   0.000208   0.070614   0.005872
    14  C   -0.072585  30.898095  -1.157234   0.011612  -5.022050  -0.206914
    15  C   -0.012182  -1.157234   9.055303   0.286410  -0.690840   0.008792
    16  H    0.000208   0.011612   0.286410   0.563745   0.001076   0.000015
    17  C    0.070614  -5.022050  -0.690840   0.001076  14.059343   0.149316
    18  F    0.005872  -0.206914   0.008792   0.000015   0.149316   9.031604
    19  F    0.000641  -0.022499   0.003725   0.000000   0.067570  -0.023338
    20  F   -0.000434   0.344878   0.003969  -0.000003   0.126516  -0.047442
              19         20
     1  O    0.005467   0.001134
     2  H   -0.002053  -0.000138
     3  C   -0.042422  -0.197285
     4  B    0.002035   0.002958
     5  O   -0.006653   0.001044
     6  H   -0.000303  -0.000038
     7  C    0.052899  -0.022151
     8  H    0.000097   0.000010
     9  C   -0.010245  -0.009061
    10  H   -0.000003  -0.000002
    11  C    0.053899   0.004580
    12  C    0.065379  -0.078805
    13  H    0.000641  -0.000434
    14  C   -0.022499   0.344878
    15  C    0.003725   0.003969
    16  H    0.000000  -0.000003
    17  C    0.067570   0.126516
    18  F   -0.023338  -0.047442
    19  F    8.968231  -0.035461
    20  F   -0.035461   8.949921
 Mulliken charges:
               1
     1  O   -0.288205
     2  H    0.303816
     3  C   -1.156866
     4  B    0.422273
     5  O   -0.321686
     6  H    0.303709
     7  C    0.146722
     8  H    0.205913
     9  C   -0.194082
    10  H    0.214548
    11  C    0.050008
    12  C    0.092090
    13  H    0.225730
    14  C   -0.360110
    15  C   -0.217527
    16  H    0.159824
    17  C    0.651844
    18  F   -0.116843
    19  F   -0.076967
    20  F   -0.044192
 Sum of Mulliken charges =   0.00000
 Mulliken charges with hydrogens summed into heavy atoms:
               1
     1  O    0.015611
     3  C   -1.156866
     4  B    0.422273
     5  O   -0.017976
     7  C    0.352635
     9  C    0.020466
    11  C    0.050008
    12  C    0.317820
    14  C   -0.360110
    15  C   -0.057703
    17  C    0.651844
    18  F   -0.116843
    19  F   -0.076967
    20  F   -0.044192
 APT charges:
               1
     1  O   -1.529635
     2  H    2.012628
     3  C   -5.252107
     4  B   -0.329218
     5  O    0.687306
     6  H    0.378232
     7  C   -1.402523
     8  H   -0.191357
     9  C    1.273747
    10  H   -0.888038
    11  C   -3.433739
    12  C    1.048619
    13  H    1.253708
    14  C    9.480146
    15  C   -0.157426
    16  H   -0.607663
    17  C   -3.001457
    18  F    0.454941
    19  F    0.590922
    20  F   -0.387085
 Sum of APT charges =   0.00000
 APT charges with hydrogens summed into heavy atoms:
               1
     1  O    0.482993
     3  C   -5.252107
     4  B   -0.329218
     5  O    1.065538
     7  C   -1.593881
     9  C    0.385709
    11  C   -3.433739
    12  C    2.302326
    14  C    9.480146
    15  C   -0.765089
    17  C   -3.001457
    18  F    0.454941
    19  F    0.590922
    20  F   -0.387085
 Electronic spatial extent (au):  <R**2>=          48068.5181
 Charge=              0.0000 electrons
 Dipole moment (field-independent basis, Debye):
    X=              0.3191    Y=             -5.1576    Z=              3.8430  Tot=              6.4398
 Quadrupole moment (field-independent basis, Debye-Ang):
   XX=            -82.7377   YY=           -158.2577   ZZ=            -44.3266
   XY=            -20.2601   XZ=             19.5806   YZ=              5.3364
 Traceless Quadrupole moment (field-independent basis, Debye-Ang):
   XX=             12.3696   YY=            -63.1503   ZZ=             50.7808
   XY=            -20.2601   XZ=             19.5806   YZ=              5.3364
 Octapole moment (field-independent basis, Debye-Ang**2):
  XXX=          -1487.3292  YYY=          -2777.2189  ZZZ=           -874.3403  XYY=           -811.7095
  XXY=           -786.7078  XXZ=           -285.3870  XZZ=           -309.7751  YZZ=           -467.5196
  YYZ=           -514.0966  XYZ=             32.1016
 Hexadecapole moment (field-independent basis, Debye-Ang**3):
 XXXX=         -19353.7527 YYYY=         -39619.8767 ZZZZ=          -9429.5123 XXXY=         -12727.3890
 XXXZ=          -6544.8072 YYYX=         -15232.3268 YYYZ=         -11100.4665 ZZZX=          -5857.9692
 ZZZY=          -7280.5343 XXYY=         -10609.0986 XXZZ=          -4268.1127 YYZZ=          -6549.6561
 XXYZ=          -2938.1722 YYXZ=          -3007.5466 ZZXY=          -3043.6854
 N-N= 8.942513447932D+02 E-N=-3.631147507452D+03  KE= 7.808202053202D+02
  Exact polarizability:       0.000       0.000       0.000       0.000       0.000       0.000
 Approx polarizability:     171.471      -4.161     137.311      23.074     -20.382     112.008
 D2PCM: PCM CHGder 2nd derivatives, FixD1E=F FixD2E=F DoIter=F DoCFld=F I1PDM=0
 Calling FoFJK, ICntrl=    100127 FMM=F ISym2X=0 I1Cent= 0 IOpClX= 0 NMat=1 NMatS=1 NMatT=0.
 -------------------------------------------------------------------
 Center     Atomic                   Forces (Hartrees/Bohr)
 Number     Number              X              Y              Z
 -------------------------------------------------------------------
      1        8          -0.000398217    0.001295357   -0.003097903
      2        1           0.002623806   -0.001247926    0.001280045
      3        6          -0.000433413    0.000106104   -0.000194910
      4        5          -0.002297324   -0.001839841    0.003206381
      5        8           0.003596154    0.000586742   -0.002851595
      6        1          -0.003228863    0.000297985    0.001873126
      7        6          -0.000208655   -0.000171999   -0.000223098
      8        1          -0.000477323    0.000131070   -0.000070118
      9        6          -0.001265607   -0.001935840    0.000310936
     10        1          -0.000009804   -0.000206351    0.000131460
     11        6          -0.004070158    0.004271727   -0.002752438
     12        6           0.001663821    0.001585976    0.000113107
     13        1           0.000807284    0.000447885   -0.000158333
     14        6          -0.000714542    0.001147450   -0.000740938
     15        6           0.004490169   -0.005998718    0.003477200
     16        1           0.000511577    0.001485543   -0.000342440
     17        6          -0.006029518   -0.003381190    0.002879429
     18        9           0.001385772    0.001617377   -0.000210333
     19        9           0.001326704    0.001010611   -0.000603533
     20        9           0.002728137    0.000798037   -0.002026044
 -------------------------------------------------------------------
 Cartesian Forces:  Max     0.006029518 RMS     0.002159307
 FormGI is forming the generalized inverse of G from B-inverse, IUseBI=4.

 GradGradGradGradGradGradGradGradGradGradGradGradGradGradGradGradGradGrad
 Berny optimization.
 Internal  Forces:  Max     0.006977994 RMS     0.001339929
 Search for a local minimum.
 Step number   1 out of a maximum of  100
 All quantities printed in internal units (Hartrees-Bohrs-Radians)
 Mixed Optimization -- RFO/linear search
 Second derivative matrix not updated -- analytic derivatives used.
 ITU=  0
     Eigenvalues ---    0.00213   0.00422   0.00920   0.01239   0.01243
     Eigenvalues ---    0.01525   0.01661   0.01775   0.02072   0.02300
     Eigenvalues ---    0.02393   0.02619   0.02800   0.03040   0.03724
     Eigenvalues ---    0.10551   0.11167   0.11291   0.11606   0.11901
     Eigenvalues ---    0.12562   0.12620   0.13843   0.14424   0.17812
     Eigenvalues ---    0.17901   0.18433   0.18946   0.19482   0.20004
     Eigenvalues ---    0.23234   0.24258   0.25621   0.26153   0.26935
     Eigenvalues ---    0.31299   0.31839   0.34445   0.36087   0.36367
     Eigenvalues ---    0.36739   0.37608   0.38425   0.40001   0.40256
     Eigenvalues ---    0.43008   0.44353   0.46675   0.48282   0.50734
     Eigenvalues ---    0.51822   0.54247   0.55196   0.55836
 RFO step:  Lambda=-6.15122739D-04 EMin= 2.12755187D-03
 Linear search not attempted -- first point.
 Iteration  1 RMS(Cart)=  0.01704344 RMS(Int)=  0.00018921
 Iteration  2 RMS(Cart)=  0.00025014 RMS(Int)=  0.00001549
 Iteration  3 RMS(Cart)=  0.00000009 RMS(Int)=  0.00001549
 Variable       Old X    -DE/DX   Delta X   Delta X   Delta X     New X
                                 (Linear)    (Quad)   (Total)
    R1        1.81901   0.00316   0.00000   0.00582   0.00582   1.82483
    R2        2.55329   0.00284   0.00000   0.00689   0.00689   2.56018
    R3        3.00034   0.00069   0.00000   0.00324   0.00324   3.00358
    R4        2.64928   0.00040   0.00000  -0.00044  -0.00044   2.64884
    R5        2.65165   0.00152   0.00000   0.00377   0.00377   2.65542
    R6        2.57409  -0.00111   0.00000  -0.00458  -0.00458   2.56951
    R7        1.81327   0.00370   0.00000   0.00693   0.00693   1.82021
    R8        2.05070  -0.00020   0.00000  -0.00037  -0.00037   2.05033
    R9        2.61845  -0.00104   0.00000  -0.00119  -0.00119   2.61725
   R10        2.05050   0.00015   0.00000   0.00007   0.00007   2.05057
   R11        2.66629   0.00101   0.00000   0.00443   0.00443   2.67073
   R12        2.66386   0.00197   0.00000   0.00457   0.00457   2.66843
   R13        2.73085  -0.00698   0.00000  -0.02236  -0.02236   2.70849
   R14        2.04823   0.00034   0.00000   0.00098   0.00098   2.04922
   R15        2.61601  -0.00124   0.00000  -0.00298  -0.00298   2.61303
   R16        2.84727  -0.00043   0.00000  -0.00508  -0.00508   2.84220
   R17        2.09163  -0.00148   0.00000  -0.00617  -0.00617   2.08546
   R18        2.52795   0.00110   0.00000   0.00304   0.00304   2.53100
   R19        2.54601   0.00020   0.00000  -0.00083  -0.00083   2.54519
   R20        2.52587   0.00310   0.00000   0.01050   0.01050   2.53637
    A1        1.97025   0.00023   0.00000  -0.00022  -0.00022   1.97003
    A2        2.06616  -0.00056   0.00000  -0.00002  -0.00003   2.06613
    A3        2.15204  -0.00005   0.00000  -0.00179  -0.00180   2.15024
    A4        2.06497   0.00060   0.00000   0.00178   0.00178   2.06675
    A5        2.06357  -0.00044   0.00000  -0.00774  -0.00779   2.05579
    A6        2.09547   0.00001   0.00000   0.00198   0.00193   2.09740
    A7        2.12199   0.00046   0.00000   0.00682   0.00678   2.12877
    A8        1.99991  -0.00029   0.00000  -0.00231  -0.00231   1.99760
    A9        2.08445   0.00048   0.00000   0.00364   0.00364   2.08809
   A10        2.10918  -0.00006   0.00000  -0.00166  -0.00166   2.10751
   A11        2.08948  -0.00041   0.00000  -0.00196  -0.00196   2.08752
   A12        2.09827   0.00014   0.00000   0.00069   0.00069   2.09896
   A13        2.11160  -0.00070   0.00000  -0.00091  -0.00092   2.11068
   A14        2.07331   0.00056   0.00000   0.00023   0.00023   2.07354
   A15        2.05858   0.00130   0.00000   0.00355   0.00355   2.06213
   A16        2.17458  -0.00356   0.00000  -0.01714  -0.01714   2.15744
   A17        2.04998   0.00226   0.00000   0.01362   0.01362   2.06360
   A18        2.05705   0.00152   0.00000   0.00877   0.00876   2.06581
   A19        2.10672  -0.00132   0.00000  -0.00543  -0.00543   2.10128
   A20        2.11940  -0.00020   0.00000  -0.00330  -0.00331   2.11609
   A21        2.11520   0.00018   0.00000   0.00268   0.00268   2.11788
   A22        2.08652   0.00032   0.00000   0.00148   0.00147   2.08800
   A23        2.08144  -0.00050   0.00000  -0.00420  -0.00421   2.07723
   A24        1.85829   0.00125   0.00000   0.01083   0.01083   1.86912
   A25        1.95304   0.00230   0.00000   0.00692   0.00690   1.95994
   A26        1.93939   0.00211   0.00000   0.00882   0.00879   1.94818
   A27        1.95905   0.00163   0.00000   0.00263   0.00263   1.96167
   A28        1.86908  -0.00203   0.00000  -0.00412  -0.00417   1.86491
   A29        1.87033  -0.00226   0.00000  -0.00855  -0.00856   1.86177
   A30        1.86797  -0.00223   0.00000  -0.00712  -0.00712   1.86085
    D1        3.13092  -0.00001   0.00000   0.01217   0.01220  -3.14007
    D2       -0.08007   0.00055   0.00000   0.02945   0.02942  -0.05065
    D3        1.97454   0.00030   0.00000  -0.01550  -0.01550   1.95904
    D4       -1.09655  -0.00024   0.00000  -0.03284  -0.03283  -1.12938
    D5       -1.15991   0.00031   0.00000  -0.01000  -0.01001  -1.16992
    D6        2.05219  -0.00024   0.00000  -0.02734  -0.02734   2.02485
    D7        0.00942   0.00007   0.00000   0.00755   0.00755   0.01697
    D8       -3.11878   0.00003   0.00000   0.00614   0.00614  -3.11264
    D9       -3.13896   0.00006   0.00000   0.00231   0.00231  -3.13665
   D10        0.01603   0.00003   0.00000   0.00091   0.00090   0.01693
   D11        3.12901  -0.00003   0.00000  -0.00930  -0.00931   3.11970
   D12       -0.00493   0.00005   0.00000  -0.00340  -0.00339  -0.00832
   D13       -0.00544  -0.00002   0.00000  -0.00379  -0.00380  -0.00925
   D14       -3.13938   0.00005   0.00000   0.00211   0.00211  -3.13727
   D15        3.07875   0.00019   0.00000   0.03240   0.03236   3.11111
   D16       -0.13461   0.00073   0.00000   0.04968   0.04972  -0.08489
   D17        3.13057   0.00000   0.00000   0.00114   0.00115   3.13172
   D18       -0.01451   0.00002   0.00000   0.00279   0.00279  -0.01171
   D19        0.00241  -0.00004   0.00000  -0.00031  -0.00031   0.00210
   D20        3.14052  -0.00003   0.00000   0.00134   0.00134  -3.14133
   D21        0.00208  -0.00004   0.00000  -0.00354  -0.00355  -0.00147
   D22       -3.12956  -0.00012   0.00000  -0.00806  -0.00804  -3.13759
   D23        3.14024  -0.00003   0.00000  -0.00191  -0.00192   3.13832
   D24        0.00860  -0.00010   0.00000  -0.00644  -0.00641   0.00219
   D25       -3.12559  -0.00010   0.00000  -0.00453  -0.00456  -3.13015
   D26        0.00848   0.00004   0.00000   0.00065   0.00065   0.00913
   D27        0.00677  -0.00006   0.00000  -0.00051  -0.00049   0.00628
   D28        3.14083   0.00007   0.00000   0.00467   0.00472  -3.13763
   D29       -0.02258   0.00007   0.00000   0.00660   0.00659  -0.01599
   D30        3.12892   0.00000   0.00000   0.00215   0.00215   3.13108
   D31       -0.00680   0.00000   0.00000   0.00303   0.00304  -0.00376
   D32        3.12716  -0.00007   0.00000  -0.00283  -0.00282   3.12434
   D33        3.12700   0.00015   0.00000   0.00845   0.00845   3.13544
   D34       -0.02223   0.00007   0.00000   0.00260   0.00259  -0.01964
   D35       -2.71443  -0.00012   0.00000   0.01932   0.01931  -2.69513
   D36       -0.62601   0.00029   0.00000   0.02476   0.02478  -0.60124
   D37        1.46506   0.00001   0.00000   0.02358   0.02358   1.48864
   D38        0.43467  -0.00004   0.00000   0.02507   0.02505   0.45972
   D39        2.52309   0.00036   0.00000   0.03051   0.03052   2.55361
   D40       -1.66903   0.00008   0.00000   0.02933   0.02933  -1.63970
         Item               Value     Threshold  Converged?
 Maximum Force            0.006978     0.000015     NO 
 RMS     Force            0.001340     0.000010     NO 
 Maximum Displacement     0.060677     0.000060     NO 
 RMS     Displacement     0.017051     0.000040     NO 
 Predicted change in Energy=-3.116451D-04
 GradGradGradGradGradGradGradGradGradGradGradGradGradGradGradGradGradGrad

                          Input orientation:                          
 ---------------------------------------------------------------------
 Center     Atomic      Atomic             Coordinates (Angstroms)
 Number     Number       Type             X           Y           Z
 ---------------------------------------------------------------------
      1          8           0        8.687919    6.344996    4.846504
      2          1           0        9.500025    6.049660    5.277496
      3          6           0        6.267110    7.000273    5.128969
      4          5           0        7.662955    6.516822    5.715625
      5          8           0        7.826467    6.219955    7.032435
      6          1           0        7.054325    6.397742    7.580126
      7          6           0        5.186643    6.107830    5.159195
      8          1           0        5.317410    5.121424    5.591748
      9          6           0        3.957596    6.465628    4.630403
     10          1           0        3.129098    5.765136    4.649802
     11          6           0        3.756228    7.742863    4.059873
     12          6           0        4.842528    8.644912    4.045534
     13          1           0        4.688758    9.629694    3.618358
     14          6           0        6.067504    8.273207    4.568307
     15          6           0        2.508890    8.174629    3.501305
     16          1           0        1.801609    7.333019    3.597875
     17          6           0        7.209584    9.250489    4.516689
     18          9           0        6.789499   10.521932    4.488257
     19          9           0        8.015270    9.129382    5.589174
     20          9           0        7.983180    9.076246    3.433794
 ---------------------------------------------------------------------
                    Distance matrix (angstroms):
                    1          2          3          4          5
     1  O    0.000000
     2  H    0.965658   0.000000
     3  C    2.523785   3.373050   0.000000
     4  B    1.354787   1.945514   1.589425   0.000000
     5  O    2.352877   2.430969   2.581410   1.359726   0.000000
     6  H    3.184980   3.377087   2.644035   1.964936   0.963211
     7  C    3.523202   4.315396   1.401705   2.570799   3.238869
     8  H    3.662355   4.295887   2.155497   2.732043   3.094789
     9  C    4.736793   5.595559   2.422451   3.861348   4.560513
    10  H    5.592443   6.408094   3.406213   4.717719   5.286689
    11  C    5.185981   6.110708   2.828239   4.416696   5.265190
    12  C    4.551724   5.472234   2.430659   3.908040   4.868869
    13  H    5.318917   6.222353   3.418625   4.788982   5.755646
    14  C    3.265267   4.150821   1.405185   2.635658   3.658104
    15  C    6.583123   7.519728   4.260589   5.849437   6.675796
    16  H    7.067992   7.983342   4.732406   6.285412   7.023819
    17  C    3.276605   4.008772   2.515276   3.019259   3.986685
    18  F    4.602079   5.288768   3.617386   4.279049   5.104424
    19  F    2.959193   3.433122   2.793019   2.639239   3.253216
    20  F    3.154700   3.854903   3.182480   3.443827   4.597083
                    6          7          8          9         10
     6  H    0.000000
     7  C    3.071350   0.000000
     8  H    2.932492   1.084987   0.000000
     9  C    4.277290   1.384990   2.140132   0.000000
    10  H    4.939069   2.147187   2.467861   1.085115   0.000000
    11  C    5.007891   2.434734   3.414070   1.413288   2.157015
    12  C    4.736576   2.792032   3.877016   2.423727   3.405010
    13  H    5.633563   3.876287   4.961247   3.401492   4.293160
    14  C    3.682695   2.411208   3.397618   2.779012   3.864103
    15  C    6.360431   3.767044   4.645406   2.508843   2.740321
    16  H    6.657634   3.923935   4.607335   2.542982   2.308036
    17  C    4.188904   3.792283   4.667467   4.282967   5.368032
    18  F    5.161272   4.743796   5.705280   4.949088   6.004310
    19  F    3.514137   4.161225   4.831375   4.947681   6.006268
    20  F    5.022870   4.428219   5.234855   4.944950   6.000353
                   11         12         13         14         15
    11  C    0.000000
    12  C    1.412071   0.000000
    13  H    2.150507   1.084399   0.000000
    14  C    2.425235   1.382758   2.154855   0.000000
    15  C    1.433273   2.441970   2.623498   3.716442   0.000000
    16  H    2.049866   3.341953   3.689277   4.474768   1.103576
    17  C    3.795693   2.488305   2.702843   1.504025   4.927981
    18  F    4.136117   2.740420   2.442524   2.363143   4.980714
    19  F    4.732931   3.561436   3.898732   2.359873   5.965817
    20  F    4.476272   3.228618   3.345682   2.366814   5.548452
                   16         17         18         19         20
    16  H    0.000000
    17  C    5.810947   0.000000
    18  F    5.986734   1.339346   0.000000
    19  F    6.767701   1.346856   2.157251   0.000000
    20  F    6.424763   1.342190   2.150994   2.156274   0.000000
 Symmetry turned off by external request.
 Stoichiometry    C8H6BF3O2
 Framework group  C1[X(C8H6BF3O2)]
 Deg. of freedom    54
 Full point group                 C1      NOp   1
 Rotational constants (GHZ):           0.9017054           0.6301350           0.4235324
 Standard basis: 6-311+G(d,p) (5D, 7F)
   344 basis functions,   552 primitive gaussians,   358 cartesian basis functions
    51 alpha electrons       51 beta electrons
       nuclear repulsion energy       894.0563539168 Hartrees.
 NAtoms=   20 NActive=   20 NUniq=   20 SFac= 1.00D+00 NAtFMM=   60 NAOKFM=F Big=F
 Integral buffers will be    131072 words long.
 Raffenetti 2 integral format.
 Two-electron integral symmetry is turned off.
 ------------------------------------------------------------------------------
 Polarizable Continuum Model (PCM)
 =================================
 Model                : PCM.
 Atomic radii         : SMD-Coulomb.
 Polarization charges : Total charges.
 Charge compensation  : None.
 Solution method      : Matrix inversion.
 Cavity type          : VdW (van der Waals Surface) (Alpha=1.000).
 Cavity algorithm     : GePol (No added spheres)
                        Default sphere list used, NSphG=   20.
                        Lebedev-Laikov grids with approx.  5.0 points / Ang**2.
                        Smoothing algorithm: York/Karplus (Gamma=1.0000).
                        Polarization charges: spherical gaussians, with
                                              point-specific exponents (IZeta= 3).
                        Self-potential: point-specific (ISelfS= 7).
                        Self-field    : sphere-specific E.n sum rule (ISelfD= 2).
 1st derivatives      : Analytical E(r).r(x)/FMM algorithm (CHGder, D1EAlg=3).
                        Cavity 1st derivative terms included.
 Solvent              : TetraHydroFuran, Eps=   7.425700 Eps(inf)=   1.974025
 ------------------------------------------------------------------------------
 Spheres list:
 ISph  on   Nord     Re0    Alpha      Xe            Ye            Ze
    1   O      1    2.2940  1.000      8.687919      6.344996      4.846504
    2   H      2    1.2000  1.000      9.500025      6.049660      5.277496
    3   C      3    1.8500  1.000      6.267110      7.000273      5.128969
    4   B      4    1.8000  1.000      7.662955      6.516822      5.715625
    5   O      5    2.2940  1.000      7.826467      6.219955      7.032435
    6   H      6    1.2000  1.000      7.054325      6.397742      7.580126
    7   C      7    1.8500  1.000      5.186643      6.107830      5.159195
    8   H      8    1.2000  1.000      5.317410      5.121424      5.591748
    9   C      9    1.8500  1.000      3.957596      6.465628      4.630403
   10   H     10    1.2000  1.000      3.129098      5.765136      4.649802
   11   C     11    1.8500  1.000      3.756228      7.742863      4.059873
   12   C     12    1.8500  1.000      4.842528      8.644912      4.045534
   13   H     13    1.2000  1.000      4.688758      9.629694      3.618358
   14   C     14    1.8500  1.000      6.067504      8.273207      4.568307
   15   C     15    1.8500  1.000      2.508890      8.174629      3.501305
   16   H     16    1.2000  1.000      1.801609      7.333019      3.597875
   17   C     17    1.8500  1.000      7.209584      9.250489      4.516689
   18   F     18    1.7300  1.000      6.789499     10.521932      4.488257
   19   F     19    1.7300  1.000      8.015270      9.129382      5.589174
   20   F     20    1.7300  1.000      7.983180      9.076246      3.433794
 ------------------------------------------------------------------------------
 ------------------------------------------------------------------------------
 Atomic radii for non-electrostatic terms: SMD-CDS.
 ------------------------------------------------------------------------------
 Nuclear repulsion after PCM non-electrostatic terms =      894.0556500225 Hartrees.
 One-electron integrals computed using PRISM.
 NBasis=   344 RedAO= T EigKep=  1.82D-06  NBF=   344
 NBsUse=   343 1.00D-06 EigRej=  7.69D-07 NBFU=   343
 Initial guess from the checkpoint file:  "2-cf3-phboh2-opt-freq-2-thf.chk"
 B after Tr=     0.002811    0.006986   -0.006340
         Rot=    1.000000   -0.000606   -0.000380   -0.000332 Ang=  -0.09 deg.
 ExpMin= 3.15D-02 ExpMax= 1.14D+04 ExpMxC= 1.72D+03 IAcc=3 IRadAn=         5 AccDes= 0.00D+00
 Harris functional with IExCor= 1009 and IRadAn=       5 diagonalized for initial guess.
 HarFok:  IExCor= 1009 AccDes= 0.00D+00 IRadAn=         5 IDoV= 1 UseB2=F ITyADJ=14
 ICtDFT=  3500011 ScaDFX=  1.000000  1.000000  1.000000  1.000000
 FoFCou: FMM=F IPFlag=           0 FMFlag=      100000 FMFlg1=           0
         NFxFlg=           0 DoJE=T BraDBF=F KetDBF=T FulRan=T
         wScrn=  0.000000 ICntrl=       500 IOpCl=  0 I1Cent=   200000004 NGrid=           0
         NMat0=    1 NMatS0=      1 NMatT0=    0 NMatD0=    1 NMtDS0=    0 NMtDT0=    0
 Symmetry not used in FoFCou.
 Requested convergence on RMS density matrix=1.00D-08 within 128 cycles.
 Requested convergence on MAX density matrix=1.00D-06.
 Requested convergence on             energy=1.00D-06.
 Level shift goal  0.100 maximum shift  0.100.
 No special actions if energy rises.
 Dynamic level shift is on during FON iterations.
 Inv3:  Mode=1 IEnd=     9041088.
 Iteration    1 A*A^-1 deviation from unit magnitude is 5.33D-15 for   1725.
 Iteration    1 A*A^-1 deviation from orthogonality  is 1.82D-15 for   1058   1024.
 Iteration    1 A^-1*A deviation from unit magnitude is 4.88D-15 for   1725.
 Iteration    1 A^-1*A deviation from orthogonality  is 1.91D-15 for   1722   1720.
 Error on total polarization charges =  0.02916
 SCF Done:  E(RM062X) =  -783.251770450     A.U. after   14 cycles
            NFock= 14  Conv=0.60D-08     -V/T= 2.0031
 SMD-CDS (non-electrostatic) energy       (kcal/mol) =      -0.44
 (included in total energy above)
 D1PCM: PCM CHGder 1st derivatives, ID1Alg=3 FixD1E=F DoIter=F DoCFld=F I1PDM=0.
 Calling FoFJK, ICntrl=      2127 FMM=F ISym2X=0 I1Cent= 0 IOpClX= 0 NMat=1 NMatS=1 NMatT=0.
 -------------------------------------------------------------------
 Center     Atomic                   Forces (Hartrees/Bohr)
 Number     Number              X              Y              Z
 -------------------------------------------------------------------
      1        8           0.000003475    0.000022787   -0.000040340
      2        1           0.000021303   -0.000040876    0.000006216
      3        6          -0.000014476   -0.000001080    0.000021295
      4        5          -0.000037685   -0.000053256   -0.000012695
      5        8           0.000054150    0.000034234    0.000002001
      6        1          -0.000055098   -0.000026452    0.000027683
      7        6           0.000013638   -0.000023132   -0.000021942
      8        1           0.000009548    0.000011952    0.000007176
      9        6           0.000032018   -0.000029551    0.000023135
     10        1           0.000002273    0.000001402    0.000012765
     11        6           0.000142082   -0.000052530    0.000093157
     12        6           0.000025973    0.000018000   -0.000016855
     13        1           0.000017297    0.000008712    0.000002698
     14        6          -0.000011201    0.000013504   -0.000006350
     15        6          -0.000204396    0.000080913   -0.000111165
     16        1          -0.000024935    0.000030080    0.000001752
     17        6          -0.000081898   -0.000015529    0.000075180
     18        9           0.000012798    0.000028018    0.000002653
     19        9           0.000035577   -0.000007633   -0.000001392
     20        9           0.000059555    0.000000438   -0.000064971
 -------------------------------------------------------------------
 Cartesian Forces:  Max     0.000204396 RMS     0.000048409

 GradGradGradGradGradGradGradGradGradGradGradGradGradGradGradGradGradGrad
 Berny optimization.
 Using GEDIIS/GDIIS optimizer.
 FormGI is forming the generalized inverse of G from B-inverse, IUseBI=4.
 Internal  Forces:  Max     0.000271174 RMS     0.000036209
 Search for a local minimum.
 Step number   2 out of a maximum of  100
 All quantities printed in internal units (Hartrees-Bohrs-Radians)
 Mixed Optimization -- En-DIIS/RFO-DIIS
 Update second derivatives using D2CorX and points    1    2
 DE= -3.08D-04 DEPred=-3.12D-04 R= 9.89D-01
 TightC=F SS=  1.41D+00  RLast= 1.15D-01 DXNew= 5.0454D-01 3.4572D-01
 Trust test= 9.89D-01 RLast= 1.15D-01 DXMaxT set to 3.46D-01
 ITU=  1  0
 Use linear search instead of GDIIS.
     Eigenvalues ---    0.00214   0.00422   0.00919   0.01236   0.01243
     Eigenvalues ---    0.01524   0.01661   0.01775   0.02073   0.02300
     Eigenvalues ---    0.02393   0.02619   0.02800   0.03040   0.03724
     Eigenvalues ---    0.10551   0.11165   0.11291   0.11601   0.11901
     Eigenvalues ---    0.12558   0.12623   0.13841   0.14420   0.17809
     Eigenvalues ---    0.17935   0.18437   0.18943   0.19478   0.20061
     Eigenvalues ---    0.23230   0.24257   0.25562   0.26146   0.26933
     Eigenvalues ---    0.31313   0.31863   0.34728   0.36087   0.36374
     Eigenvalues ---    0.36741   0.37581   0.38421   0.39989   0.40196
     Eigenvalues ---    0.43120   0.44385   0.46677   0.48214   0.50715
     Eigenvalues ---    0.51812   0.54175   0.55126   0.55829
 RFO step:  Lambda=-7.00496894D-07 EMin= 2.14279884D-03
 Quartic linear search produced a step of  0.00129.
 Iteration  1 RMS(Cart)=  0.00115097 RMS(Int)=  0.00000091
 Iteration  2 RMS(Cart)=  0.00000111 RMS(Int)=  0.00000003
 Iteration  3 RMS(Cart)=  0.00000000 RMS(Int)=  0.00000003
 Variable       Old X    -DE/DX   Delta X   Delta X   Delta X     New X
                                 (Linear)    (Quad)   (Total)
    R1        1.82483   0.00004   0.00001   0.00006   0.00007   1.82490
    R2        2.56018   0.00004   0.00001   0.00009   0.00010   2.56028
    R3        3.00358   0.00000   0.00000   0.00000   0.00000   3.00358
    R4        2.64884  -0.00002   0.00000  -0.00001  -0.00001   2.64883
    R5        2.65542   0.00003   0.00000  -0.00002  -0.00001   2.65540
    R6        2.56951   0.00003  -0.00001   0.00005   0.00004   2.56955
    R7        1.82021   0.00006   0.00001   0.00009   0.00010   1.82031
    R8        2.05033   0.00000   0.00000  -0.00001  -0.00001   2.05032
    R9        2.61725   0.00001   0.00000   0.00000   0.00000   2.61725
   R10        2.05057   0.00000   0.00000   0.00000   0.00000   2.05057
   R11        2.67073   0.00007   0.00001   0.00011   0.00012   2.67084
   R12        2.66843   0.00005   0.00001   0.00004   0.00004   2.66847
   R13        2.70849   0.00027  -0.00003   0.00078   0.00075   2.70924
   R14        2.04922   0.00000   0.00000   0.00002   0.00002   2.04924
   R15        2.61303   0.00001   0.00000   0.00004   0.00004   2.61308
   R16        2.84220   0.00002  -0.00001  -0.00001  -0.00002   2.84218
   R17        2.08546   0.00000  -0.00001   0.00001   0.00000   2.08546
   R18        2.53100   0.00003   0.00000   0.00006   0.00006   2.53106
   R19        2.54519   0.00002   0.00000  -0.00005  -0.00005   2.54514
   R20        2.53637   0.00008   0.00001   0.00028   0.00029   2.53666
    A1        1.97003   0.00000   0.00000   0.00001   0.00001   1.97004
    A2        2.06613  -0.00004   0.00000  -0.00012  -0.00012   2.06601
    A3        2.15024   0.00003   0.00000   0.00014   0.00014   2.15038
    A4        2.06675   0.00001   0.00000  -0.00003  -0.00003   2.06672
    A5        2.05579   0.00001  -0.00001  -0.00008  -0.00009   2.05570
    A6        2.09740   0.00001   0.00000   0.00004   0.00004   2.09745
    A7        2.12877  -0.00001   0.00001   0.00005   0.00006   2.12883
    A8        1.99760   0.00001   0.00000   0.00000   0.00000   1.99760
    A9        2.08809  -0.00002   0.00000  -0.00012  -0.00012   2.08797
   A10        2.10751   0.00001   0.00000   0.00004   0.00004   2.10756
   A11        2.08752   0.00002   0.00000   0.00008   0.00008   2.08760
   A12        2.09896  -0.00002   0.00000  -0.00012  -0.00012   2.09884
   A13        2.11068   0.00001   0.00000   0.00002   0.00002   2.11070
   A14        2.07354   0.00001   0.00000   0.00010   0.00010   2.07364
   A15        2.06213  -0.00003   0.00000  -0.00008  -0.00008   2.06205
   A16        2.15744   0.00006  -0.00002   0.00033   0.00031   2.15775
   A17        2.06360  -0.00003   0.00002  -0.00025  -0.00023   2.06337
   A18        2.06581   0.00001   0.00001   0.00011   0.00012   2.06593
   A19        2.10128   0.00001  -0.00001   0.00004   0.00003   2.10132
   A20        2.11609  -0.00002   0.00000  -0.00015  -0.00016   2.11594
   A21        2.11788   0.00000   0.00000   0.00002   0.00002   2.11790
   A22        2.08800   0.00001   0.00000   0.00012   0.00012   2.08812
   A23        2.07723  -0.00001  -0.00001  -0.00014  -0.00015   2.07708
   A24        1.86912   0.00006   0.00001   0.00012   0.00014   1.86926
   A25        1.95994   0.00002   0.00001   0.00005   0.00006   1.96000
   A26        1.94818   0.00002   0.00001   0.00016   0.00017   1.94835
   A27        1.96167   0.00002   0.00000  -0.00003  -0.00003   1.96165
   A28        1.86491  -0.00001  -0.00001   0.00002   0.00001   1.86492
   A29        1.86177  -0.00002  -0.00001  -0.00012  -0.00013   1.86164
   A30        1.86085  -0.00003  -0.00001  -0.00010  -0.00011   1.86074
    D1       -3.14007   0.00001   0.00002   0.00127   0.00129  -3.13878
    D2       -0.05065   0.00002   0.00004   0.00162   0.00166  -0.04899
    D3        1.95904   0.00001  -0.00002  -0.00110  -0.00112   1.95791
    D4       -1.12938   0.00000  -0.00004  -0.00145  -0.00149  -1.13088
    D5       -1.16992   0.00000  -0.00001  -0.00076  -0.00077  -1.17069
    D6        2.02485  -0.00001  -0.00004  -0.00111  -0.00115   2.02370
    D7        0.01697   0.00000   0.00001   0.00047   0.00048   0.01745
    D8       -3.11264  -0.00001   0.00001  -0.00004  -0.00003  -3.11268
    D9       -3.13665   0.00001   0.00000   0.00014   0.00015  -3.13650
   D10        0.01693  -0.00001   0.00000  -0.00037  -0.00037   0.01656
   D11        3.11970   0.00000  -0.00001  -0.00074  -0.00075   3.11895
   D12       -0.00832   0.00000   0.00000  -0.00040  -0.00041  -0.00873
   D13       -0.00925   0.00000   0.00000  -0.00039  -0.00040  -0.00965
   D14       -3.13727   0.00000   0.00000  -0.00006  -0.00006  -3.13733
   D15        3.11111   0.00002   0.00004   0.00208   0.00212   3.11324
   D16       -0.08489   0.00003   0.00006   0.00243   0.00250  -0.08240
   D17        3.13172   0.00001   0.00000   0.00061   0.00062   3.13233
   D18       -0.01171   0.00001   0.00000   0.00075   0.00076  -0.01096
   D19        0.00210   0.00000   0.00000   0.00011   0.00011   0.00220
   D20       -3.14133   0.00000   0.00000   0.00024   0.00025  -3.14108
   D21       -0.00147   0.00000   0.00000  -0.00037  -0.00038  -0.00185
   D22       -3.13759  -0.00001  -0.00001  -0.00080  -0.00082  -3.13841
   D23        3.13832   0.00000   0.00000  -0.00024  -0.00024   3.13807
   D24        0.00219  -0.00001  -0.00001  -0.00067  -0.00068   0.00151
   D25       -3.13015   0.00000  -0.00001  -0.00020  -0.00021  -3.13036
   D26        0.00913  -0.00001   0.00000  -0.00038  -0.00038   0.00875
   D27        0.00628   0.00000   0.00000   0.00021   0.00021   0.00648
   D28       -3.13763   0.00000   0.00001   0.00003   0.00003  -3.13760
   D29       -0.01599   0.00001   0.00001   0.00160   0.00161  -0.01438
   D30        3.13108   0.00001   0.00000   0.00117   0.00117   3.13225
   D31       -0.00376   0.00001   0.00000   0.00077   0.00077  -0.00299
   D32        3.12434   0.00001   0.00000   0.00044   0.00044   3.12478
   D33        3.13544   0.00000   0.00001   0.00059   0.00060   3.13604
   D34       -0.01964   0.00000   0.00000   0.00026   0.00026  -0.01938
   D35       -2.69513   0.00000   0.00002   0.00201   0.00204  -2.69309
   D36       -0.60124   0.00002   0.00003   0.00219   0.00222  -0.59902
   D37        1.48864   0.00001   0.00003   0.00215   0.00218   1.49083
   D38        0.45972   0.00000   0.00003   0.00234   0.00237   0.46209
   D39        2.55361   0.00002   0.00004   0.00251   0.00255   2.55616
   D40       -1.63970   0.00001   0.00004   0.00248   0.00252  -1.63718
         Item               Value     Threshold  Converged?
 Maximum Force            0.000271     0.000015     NO 
 RMS     Force            0.000036     0.000010     NO 
 Maximum Displacement     0.005138     0.000060     NO 
 RMS     Displacement     0.001151     0.000040     NO 
 Predicted change in Energy=-3.508797D-07
 GradGradGradGradGradGradGradGradGradGradGradGradGradGradGradGradGradGrad

                          Input orientation:                          
 ---------------------------------------------------------------------
 Center     Atomic      Atomic             Coordinates (Angstroms)
 Number     Number       Type             X           Y           Z
 ---------------------------------------------------------------------
      1          8           0        8.687638    6.344025    4.846418
      2          1           0        9.499518    6.047590    5.277163
      3          6           0        6.267199    7.000412    5.129245
      4          5           0        7.663031    6.516855    5.715843
      5          8           0        7.827013    6.221275    7.032906
      6          1           0        7.054448    6.398004    7.580439
      7          6           0        5.186860    6.107818    5.159267
      8          1           0        5.317759    5.121525    5.592027
      9          6           0        3.957733    6.465528    4.630599
     10          1           0        3.129271    5.765006    4.650431
     11          6           0        3.756350    7.742588    4.059533
     12          6           0        4.842687    8.644626    4.045015
     13          1           0        4.689174    9.629228    3.617307
     14          6           0        6.067495    8.273283    4.568493
     15          6           0        2.509032    8.174400    3.499942
     16          1           0        1.801060    7.333509    3.597731
     17          6           0        7.209283    9.250901    4.517058
     18          9           0        6.788937   10.522341    4.490975
     19          9           0        8.016430    9.128414    5.588256
     20          9           0        7.981682    9.078512    3.432821
 ---------------------------------------------------------------------
                    Distance matrix (angstroms):
                    1          2          3          4          5
     1  O    0.000000
     2  H    0.965694   0.000000
     3  C    2.523759   3.373075   0.000000
     4  B    1.354839   1.945594   1.589425   0.000000
     5  O    2.352971   2.431064   2.581473   1.359748   0.000000
     6  H    3.185136   3.377312   2.644052   1.964998   0.963266
     7  C    3.522658   4.314690   1.401698   2.570703   3.239415
     8  H    3.661492   4.294629   2.155416   2.731772   3.095471
     9  C    4.736385   5.595006   2.422474   3.861298   4.560928
    10  H    5.591879   6.407237   3.406182   4.717558   5.287074
    11  C    5.185823   6.110615   2.828333   4.416779   5.265514
    12  C    4.551776   5.472555   2.430685   3.908122   4.868914
    13  H    5.318928   6.222754   3.418596   4.789002   5.755562
    14  C    3.265644   4.151470   1.405178   2.635751   3.657864
    15  C    6.583194   7.519889   4.261067   5.849904   6.676635
    16  H    7.068469   7.983754   4.733168   6.286177   7.024927
    17  C    3.277795   4.010503   2.515352   3.019598   3.986190
    18  F    4.603230   5.290439   3.617124   4.278815   5.102762
    19  F    2.958659   3.433337   2.792650   2.638448   3.251822
    20  F    3.158172   3.859004   3.183679   3.446130   4.598733
                    6          7          8          9         10
     6  H    0.000000
     7  C    3.071509   0.000000
     8  H    2.932451   1.084983   0.000000
     9  C    4.277354   1.384990   2.140176   0.000000
    10  H    4.938891   2.147115   2.467823   1.085114   0.000000
    11  C    5.008207   2.434799   3.414162   1.413349   2.157132
    12  C    4.736921   2.792026   3.877006   2.423741   3.405074
    13  H    5.633981   3.876295   4.961252   3.401584   4.293350
    14  C    3.682738   2.411176   3.397543   2.779016   3.864107
    15  C    6.361355   3.767609   4.646053   2.509455   2.741076
    16  H    6.658469   3.924837   4.608390   2.543904   2.309225
    17  C    4.188949   3.792307   4.667457   4.282962   5.368029
    18  F    5.159984   4.743551   5.704865   4.949034   6.004233
    19  F    3.514163   4.161069   4.830941   4.947836   6.006358
    20  F    5.024701   4.429072   5.236068   4.945152   6.000649
                   11         12         13         14         15
    11  C    0.000000
    12  C    1.412095   0.000000
    13  H    2.150613   1.084409   0.000000
    14  C    2.425298   1.382780   2.154788   0.000000
    15  C    1.433669   2.442163   2.623608   3.716751   0.000000
    16  H    2.050309   3.342242   3.689433   4.475268   1.103578
    17  C    3.795666   2.488206   2.702523   1.504015   4.928056
    18  F    4.136393   2.740909   2.443348   2.363207   4.981221
    19  F    4.733475   3.562062   3.899498   2.359981   5.966793
    20  F    4.475588   3.227434   3.343342   2.366909   5.547236
                   16         17         18         19         20
    16  H    0.000000
    17  C    5.811232   0.000000
    18  F    5.987106   1.339377   0.000000
    19  F    6.768655   1.346831   2.157266   0.000000
    20  F    6.424354   1.342345   2.151041   2.156292   0.000000
 Symmetry turned off by external request.
 Stoichiometry    C8H6BF3O2
 Framework group  C1[X(C8H6BF3O2)]
 Deg. of freedom    54
 Full point group                 C1      NOp   1
 Rotational constants (GHZ):           0.9015517           0.6300872           0.4235119
 Standard basis: 6-311+G(d,p) (5D, 7F)
   344 basis functions,   552 primitive gaussians,   358 cartesian basis functions
    51 alpha electrons       51 beta electrons
       nuclear repulsion energy       894.0183161801 Hartrees.
 NAtoms=   20 NActive=   20 NUniq=   20 SFac= 1.00D+00 NAtFMM=   60 NAOKFM=F Big=F
 Integral buffers will be    131072 words long.
 Raffenetti 2 integral format.
[...]
 ,-0.00054551,-0.00134115,0.00152732,-0.00033734,0.00063309,-0.00006714
 ,0.00001774,-0.00026384,-0.00033927,-0.06128575,0.03018112,-0.01853023
 ,0.06392376,0.00004407,0.00003100,-0.00012946,-0.00006712,-0.00004254,
 0.00001115,0.00280075,-0.01188426,0.00644072,0.00020246,-0.00128201,-0
 .00012127,0.00036576,0.00077651,-0.00041683,-0.00034144,-0.00034954,-0
 .00029808,0.03073971,-0.29182993,0.11008628,-0.02985253,0.30486645,0.0
 0080463,-0.00025245,0.00007258,0.00006391,0.00002305,-0.00001716,0.000
 12946,-0.00159867,0.00261606,0.00042662,-0.00082716,-0.00217053,-0.000
 60737,0.00049134,-0.00005946,-0.00011723,-0.00022668,-0.00013771,-0.01
 903085,0.10919813,-0.08902404,0.02308557,-0.11993381,0.08145049,0.0017
 8799,-0.00004714,-0.00000099,-0.00006298,0.00051726,-0.00005266,-0.052
 59436,-0.04985633,0.00252617,-0.00489252,-0.00426907,-0.00133370,0.001
 43601,-0.00000343,0.00094094,-0.00008531,0.00001093,-0.00111562,-0.295
 67889,0.08194600,-0.10437965,0.00042949,-0.00119442,-0.00073902,0.6895
 2024,-0.00361050,0.00138290,0.00003035,0.00005903,-0.00004142,0.000225
 68,-0.00419109,0.05355580,-0.02103493,0.00298289,-0.00311851,0.0042932
 8,-0.00110463,0.00104766,-0.00203425,-0.00017913,-0.00022985,0.0008574
 4,0.01482180,-0.14334482,0.03506669,0.02762926,-0.00240026,0.01164162,
 0.09393018,0.61372236,0.00056136,-0.00012027,-0.00078449,-0.00024343,0
 .00017973,0.00001958,-0.01590989,-0.03314075,0.01570508,-0.00533123,0.
 00257732,0.00423958,0.00169796,-0.00191618,0.00197736,0.00028292,0.000
 23578,-0.00077659,-0.07735536,0.05552184,-0.11363685,-0.01219950,0.002
 27741,-0.00015484,0.13143917,-0.15520250,0.25363223,-0.00058015,0.0002
 5688,0.00002196,0.00000991,0.00003607,0.00004023,-0.00352201,0.0009861
 6,-0.00395706,0.00040903,-0.00101875,0.00068569,-0.00010582,0.00020946
 ,-0.00034621,-0.00002559,-0.00002172,0.00008721,-0.01334607,-0.0184472
 8,0.00072769,0.00058836,0.00052279,0.00131007,-0.22434559,-0.14383470,
 0.00079944,0.23322186,0.00018052,-0.00010300,0.00000241,0.00001100,-0.
 00001651,-0.00001649,0.00180445,0.00107043,0.00317809,0.00015917,0.000
 28460,-0.00033991,-0.00004796,-0.00003190,0.00002962,-0.00001807,0.000
 01194,0.00000023,0.00869571,0.01028605,0.00177387,0.00002089,-0.000064
 20,-0.00168650,-0.14367426,-0.17650764,0.00810087,0.15324693,0.1811000
 6,-0.00012613,0.00008760,0.00008847,0.00002842,0.00005660,-0.00000182,
 -0.00453216,0.00266420,0.00498392,0.00043392,-0.00081384,-0.00030863,-
 0.00016023,0.00024299,-0.00030845,-0.00008952,-0.00002200,0.00006775,-
 0.00994183,-0.00679280,0.00751843,0.00151390,-0.00151261,-0.00320563,0
 .00047807,0.00814567,-0.04637615,0.00324661,-0.01341618,0.03355826,-0.
 00546966,0.00178843,0.00013767,0.00031583,-0.00038027,0.00011685,-0.01
 297576,-0.01938552,0.00517163,0.01047927,-0.00453112,0.00436576,-0.002
 67548,0.00227738,-0.00396154,-0.00035544,-0.00029802,0.00170236,0.0063
 2669,0.02383136,-0.01216968,-0.00358840,0.00043473,-0.00418801,-0.1083
 4013,0.01582599,-0.01828384,0.00484312,-0.02118862,0.00935409,0.603688
 50,0.00254146,-0.00055131,-0.00021036,-0.00012371,0.00031049,-0.000108
 70,-0.01574623,-0.04758957,0.01147483,-0.00563417,0.00010923,-0.001681
 45,0.00155856,-0.00090606,0.00182141,0.00012206,0.00010351,-0.00106040
 ,0.06544470,0.00787424,0.02295639,-0.00115826,0.00263226,0.00198383,-0
 .01576393,-0.26690766,0.07401850,0.00448984,-0.01333051,0.00765604,0.0
 6191572,0.58713162,-0.00244853,0.00073703,0.00022164,0.00015364,-0.000
 24614,0.00003956,0.00489425,0.00835657,-0.01176798,0.00599340,-0.00197
 466,0.00077337,-0.00154920,0.00136365,-0.00217316,-0.00019095,-0.00013
 695,0.00095646,-0.02842437,0.01084021,0.00214081,-0.00338607,0.0025076
 3,0.00631584,-0.00628805,0.08388594,-0.10553845,-0.00104653,-0.0003547
 4,0.00230351,0.12736357,-0.16534792,0.22436457,0.00202293,-0.00087211,
 0.00028700,-0.00013167,-0.00001392,0.00002673,0.02500284,0.08315752,-0
 .02847471,-0.00120242,0.00205601,-0.00292265,0.00031984,-0.00036112,0.
 00119432,0.00011477,0.00013190,-0.00011071,-0.07103718,-0.01259170,-0.
 01579726,-0.00114700,-0.00032903,0.00017848,0.04524919,-0.05015199,0.0
 3210874,0.00123680,0.00154211,-0.00218867,-0.19981040,-0.08558584,-0.0
 0641201,0.63554078,0.00090677,0.00023422,-0.00053523,-0.00004864,0.000
 01773,-0.00001511,0.03456900,-0.00327360,0.01470227,-0.00426714,-0.002
 66366,0.00233724,0.00181789,-0.00003926,0.00187049,0.00006258,-0.00019
 804,-0.00044321,-0.01230231,-0.00304807,-0.00455030,-0.00006331,0.0002
 9196,-0.00063697,-0.01745349,-0.03902420,0.01225804,0.00127610,-0.0032
 3172,0.00423463,-0.11796691,-0.20466039,0.01612124,0.02582947,0.669988
 25,-0.00102866,-0.00005293,-0.00024054,-0.00023313,-0.00020993,0.00007
 451,-0.00794815,0.03200284,-0.00644264,-0.00025305,0.00405149,0.004571
 83,0.00065183,-0.00110660,0.00034259,0.00011567,0.00011790,-0.00024008
 ,-0.01596738,-0.00480211,-0.00784473,-0.00003258,-0.00065390,-0.000726
 95,0.01931930,0.00205197,0.01100652,-0.00207229,0.00426907,0.00389760,
 0.00588716,0.02616390,-0.07799115,0.13939588,-0.19290425,0.26975332,-0
 .00043410,0.00004427,0.00007644,-0.00000454,-0.00004061,0.00001053,-0.
 00470713,0.00068192,-0.00366132,0.00106090,0.00065684,0.00012582,-0.00
 038580,-0.00000646,-0.00047646,-0.00003283,0.00002672,0.00010262,-0.00
 042075,-0.00032284,0.00026517,0.00005678,0.00013374,0.00027916,-0.0036
 7824,-0.00339344,-0.00172263,0.00046225,-0.00117029,0.00047179,0.00635
 680,-0.02115502,0.00915679,-0.06191269,0.03640721,-0.02009343,0.061202
 17,0.00009192,-0.00005358,0.00000004,0.00000814,0.00000086,-0.00000249
 ,-0.00016974,0.00171339,0.00190847,-0.00021787,0.00004698,-0.00013947,
 0.00004311,-0.00001780,0.00004142,0.00001296,-0.00000074,-0.00001196,0
 .00002719,0.00025687,-0.00046032,0.00016792,-0.00015794,-0.00027776,-0
 .00354882,0.00015896,0.00116790,0.00014006,-0.00051249,0.00043372,0.00
 421087,-0.01326887,0.00781570,0.03565734,-0.29523207,0.10930493,-0.036
 10791,0.30779173,-0.00006260,-0.00006475,0.00005185,0.00001150,-0.0000
 0975,0.00000586,-0.00348864,0.00251478,0.00495760,0.00048989,0.0001568
 8,-0.00027124,-0.00013369,0.00009091,-0.00019218,-0.00000969,0.0000107
 3,0.00005291,-0.00027513,-0.00062413,-0.00080556,0.00026135,-0.0003084
 5,-0.00084518,-0.00137273,0.00102083,0.00529316,-0.00005881,0.00003427
 ,0.00047638,-0.00094794,0.00037486,0.00308598,-0.01972905,0.10887106,-
 0.09007689,0.02453563,-0.11936528,0.08059133,-0.00244907,-0.00050220,0
 .00062580,-0.00009649,-0.00074727,-0.00004713,-0.12756679,-0.00611063,
 -0.01583159,0.00671812,0.01670715,-0.00721557,-0.00426237,-0.00014732,
 -0.00439703,-0.00028146,0.00022690,0.00081170,0.05266020,-0.01637563,0
 .02163900,-0.00303048,-0.00372099,-0.00180341,-0.02999241,0.02999631,-
 0.01955691,0.00002828,0.00038686,-0.00005017,-0.04701757,-0.02979378,-
 0.00663758,-0.29850016,0.07756425,-0.10046666,0.00223610,-0.00124962,-
 0.00114429,0.65877859,-0.00101947,-0.00029591,0.00031998,-0.00011299,0
 .00008886,0.00009430,0.05043346,-0.25671714,0.09416826,0.00263985,-0.0
 0069128,0.00358898,-0.00049312,-0.00056206,-0.00083667,0.00009132,0.00
 005371,0.00010333,-0.05988109,-0.04167189,-0.00041786,-0.00359703,0.00
 016920,0.00167840,0.02888896,-0.03112772,0.01948256,0.00076487,-0.0000
 5000,0.00001829,0.01259245,0.04214793,-0.00716222,0.01031789,-0.139171
 27,0.03085562,0.02337380,-0.00056045,0.00963665,0.02924977,0.59446383,
 -0.00075542,0.00059565,-0.00049490,-0.00004359,-0.00010442,0.00007615,
 -0.03960414,0.07525968,-0.10135590,-0.00199600,0.00681194,0.00143867,-
 0.00067435,-0.00064025,-0.00047203,-0.00002612,0.00022305,0.00004339,0
 .03888442,0.01395724,0.01143512,-0.00168637,0.00189690,0.00636158,-0.0
 2001857,0.01946433,-0.01995728,-0.00012795,-0.00005434,-0.00063940,-0.
 02294890,-0.02256326,0.01354076,-0.07320397,0.05327919,-0.10910917,-0.
 01078385,0.00253538,0.00330085,0.13384495,-0.16195270,0.27354284,0.003
 58298,-0.00104325,-0.00018311,-0.00018888,0.00025393,-0.00007887,0.003
 01299,-0.00330549,0.00322667,-0.00717401,0.00258677,-0.00241490,0.0019
 1135,-0.00156358,0.00263019,0.00017893,0.00020426,-0.00117775,0.010709
 53,0.00677315,0.00175264,-0.00041133,-0.00009001,0.00017696,-0.0184238
 3,0.02107472,-0.01812995,0.00119640,-0.00128393,0.00107262,-0.22559027
 ,0.06496873,-0.09051115,-0.04450553,-0.00069076,-0.01274195,0.00111828
 ,0.00232022,0.00081006,-0.00222896,-0.00944843,0.00059098,0.41411253,-
 0.00082532,0.00030926,0.00002828,0.00005445,-0.00005937,0.00000542,-0.
 00394622,-0.00672973,0.00128717,0.00163291,-0.00090399,0.00052812,-0.0
 0048903,0.00042294,-0.00068569,-0.00006320,-0.00008541,0.00023330,0.00
 576540,-0.00625564,0.00309429,0.00162655,-0.00033279,0.00036883,0.0257
 6945,-0.00585481,0.01504962,0.00136609,0.00116502,-0.00037956,0.027773
 32,-0.09650044,0.03858557,-0.00776956,0.01117401,-0.00806479,-0.000115
 09,0.00067241,-0.00192382,-0.00996618,0.00488543,-0.00191545,0.0724400
 2,0.29633125,0.00145176,-0.00042447,0.00002369,-0.00005935,0.00012567,
 -0.00003525,0.00243590,0.00156948,0.00020946,-0.00273887,0.00092853,-0
 .00150937,0.00058763,-0.00058576,0.00112101,0.00010539,0.00007460,-0.0
 0040931,0.00222879,0.00287803,-0.00428784,-0.00051138,-0.00017663,-0.0
 0072660,-0.01968589,0.01369867,0.00058722,-0.00000528,-0.00107503,-0.0
 0007145,-0.07583185,0.05078037,-0.06113345,-0.01011090,-0.00636001,-0.
 00442937,0.00158889,-0.00096452,-0.00300376,0.00078827,-0.00180035,0.0
 0876240,0.09731047,-0.08309841,0.08158424,-0.00011091,0.00005312,0.000
 00562,0.00000621,-0.00000991,0.00000108,0.00008894,-0.00001925,-0.0000
 2369,0.00018959,-0.00005940,0.00008824,-0.00006583,0.00003897,-0.00008
 033,-0.00000496,-0.00000822,0.00003848,0.00068353,-0.00057480,-0.00106
 858,0.00008535,-0.00003664,0.00003221,0.00092102,-0.00163094,0.0027467
 9,0.00013534,0.00124705,-0.00003544,-0.02552279,-0.02816176,0.00324299
 ,-0.00460101,0.00222069,-0.00470206,0.00012163,-0.00000224,-0.00030346
 ,-0.00139424,-0.00112947,0.00129665,-0.13600825,-0.11241331,0.00242296
 ,0.16590606,-0.00024268,0.00008113,0.00001349,0.00002018,-0.00002629,0
 .00000637,-0.00010180,0.00020188,-0.00010018,0.00054426,-0.00017388,0.
 00016858,-0.00013193,0.00011956,-0.00024455,-0.00002038,-0.00001423,0.
 00008728,-0.00070271,0.00099653,0.00122798,-0.00015171,0.00005654,-0.0
 0006222,0.00346830,-0.00070407,-0.00084184,0.00005958,-0.00000310,-0.0
 0028570,0.01074901,0.00214996,0.00195604,-0.00076953,0.00176036,0.0020
 2303,0.00024922,0.00064483,0.00022453,0.00024020,-0.00020885,-0.001321
 31,-0.15345192,-0.19905758,0.02435087,0.14019346,0.19417210,0.00015279
 ,-0.00006235,-0.00001434,-0.00000600,-0.00000637,-0.00000088,0.0001406
 3,-0.00000691,0.00020584,-0.00015012,0.00006701,-0.00009622,0.00009069
 ,-0.00001338,0.00002958,-0.00001365,0.00000478,-0.00004970,-0.00107028
 ,0.00148381,0.00386518,0.00004657,-0.00001042,0.00005014,0.00068499,-0
 .00250010,-0.00430169,0.00037394,0.00003733,-0.00098969,-0.01173968,-0
 .01048796,-0.00146463,-0.00351298,0.00317165,0.00522812,-0.00036867,0.
 00012015,0.00091264,0.00074701,-0.00193076,-0.00284098,0.01835303,0.03
 731326,-0.01711672,-0.00357108,-0.02698117,0.01719372,-0.00363111,-0.0
 0444958,0.00107896,-0.00092727,0.00047282,0.00005641,0.00670425,-0.009
 08099,0.00377670,0.01115971,0.00684091,-0.00111654,-0.00281997,-0.0005
 9487,0.00000014,0.00048257,0.00008295,0.00047853,0.00737774,0.00515112
 ,-0.00223728,0.00100198,0.00100834,-0.00003252,-0.00107908,0.00435894,
 -0.00191196,-0.00016448,0.00019727,0.00027377,0.00207386,0.00049372,-0
 .00264358,-0.02441581,-0.01647793,-0.00001369,-0.00095756,0.00050318,0
 .00068300,-0.16407755,-0.06057903,-0.00223129,-0.00258818,0.00055541,-
 0.00101660,0.00004812,0.00055297,-0.00007459,0.56363355,-0.00285849,0.
 00343246,-0.00071902,0.00115113,0.00001346,0.00002818,-0.02080901,-0.0
 1910128,0.00253583,0.00250804,-0.00906862,0.00609871,-0.00114942,0.001
 14485,-0.00414671,-0.00035276,0.00002620,0.00101317,0.00373348,-0.0021
 8418,0.00430699,-0.00051433,0.00003138,-0.00010065,0.00181125,0.001083
 53,-0.00008463,0.00019228,-0.00015500,-0.00018140,0.00790944,-0.000550
 24,0.00565500,-0.00402677,0.01380698,-0.00832174,0.00240062,-0.0014020
 4,0.00010184,-0.06508539,-0.14341565,0.01255933,-0.00201666,0.00243161
 ,-0.00125263,0.00067594,0.00025891,-0.00023545,0.04439906,0.56413147,0
 .00177671,-0.00259194,-0.00311720,-0.00039113,0.00077287,-0.00011395,0
 .00890736,0.00212636,-0.00138444,0.00113042,0.01012908,-0.00023778,-0.
 00105283,-0.00158627,0.00004311,0.00036621,0.00045357,-0.00031900,-0.0
 0221472,0.00521290,0.00418187,0.00039768,0.00038003,0.00043921,-0.0008
 1294,0.00031496,-0.00088433,0.00017260,-0.00033460,-0.00091956,-0.0052
 8744,0.00310981,0.00502538,-0.00766306,-0.00976345,0.00432053,0.000362
 12,-0.00102134,-0.00300618,-0.00510176,0.00942560,-0.07218898,0.000244
 89,-0.00080755,0.00036907,-0.00013448,-0.00013798,-0.00032616,0.006238
 55,-0.01398284,0.48615870,0.00053286,0.00079637,-0.00012222,0.00015263
 ,-0.00013141,-0.00000734,-0.00201815,-0.00013575,-0.00156656,-0.001696
 26,-0.00120325,-0.00001049,0.00047755,0.00023205,-0.00007664,-0.000107
 73,-0.00002783,-0.00002796,-0.00092243,-0.00107277,0.00081887,-0.00025
 059,-0.00012747,0.00009338,0.00032079,-0.00092796,0.00038122,0.0000167
 2,-0.00008152,0.00004583,0.00065390,-0.00002107,0.00025136,-0.00275558
 ,-0.00136690,-0.00168937,-0.00062120,-0.00232156,0.00033013,0.00997991
 ,-0.02093077,0.00191740,0.00039533,-0.00002395,0.00004376,-0.00004152,
 -0.00008223,0.00004904,-0.08348418,0.04041940,-0.00173275,0.11855708,0
 .00124112,-0.00153635,0.00006476,-0.00035716,0.00012513,-0.00004040,-0
 .00724883,-0.00238035,-0.00336771,-0.00135358,0.00320096,-0.00212562,0
 .00037335,-0.00072256,0.00170948,0.00017634,-0.00000733,-0.00047102,-0
 .00087090,-0.00190111,0.00174471,-0.00074528,-0.00044138,0.00014435,0.
 00031532,-0.00120331,0.00036091,-0.00008611,0.00001066,-0.00020339,-0.
 00251254,0.00110529,-0.00047492,0.00357698,-0.00125844,0.00246921,-0.0
 0119477,-0.00033948,-0.00083570,0.01292965,-0.04563824,0.00312643,0.00
 138169,-0.00066100,0.00066433,-0.00012901,-0.00013214,0.00002553,0.027
 75558,-0.26487451,0.00321585,-0.10338411,0.37140886,-0.00023182,0.0003
 6787,0.00042641,0.00004990,-0.00009435,-0.00000593,-0.00051000,-0.0001
 3614,0.00119734,-0.00013224,-0.00115740,-0.00014368,0.00008693,0.00028
 439,-0.00003423,-0.00004844,-0.00005815,0.00005011,0.00083067,-0.00031
 819,-0.00028234,0.00000790,-0.00004093,-0.00012663,-0.00020580,0.00024
 877,-0.00009866,-0.00000364,-0.00001815,0.00006099,0.00033062,-0.00038
 819,0.00000365,-0.00063633,0.00016356,-0.00090986,-0.00033295,-0.00084
 248,0.00007555,0.00006959,0.00373738,0.00873862,-0.00010674,0.00006912
 ,0.00006172,0.00001112,-0.00001897,-0.00003341,-0.00248154,0.00540700,
 -0.06897825,0.00264413,-0.00594250,0.08151951,0.00148547,0.00288323,0.
 00068569,0.00040535,-0.00041542,-0.00000657,0.00022588,0.00233883,-0.0
 0059388,-0.00478400,-0.00364758,-0.00043789,0.00106776,0.00074750,0.00
 000419,-0.00027763,-0.00012768,-0.00007365,-0.00108007,-0.00003719,0.0
 0041156,-0.00006320,-0.00018914,-0.00002274,-0.00038678,-0.00053503,-0
 .00004264,0.00004309,-0.00011900,-0.00006302,-0.00278943,0.00197264,0.
 00084738,-0.00071501,-0.00767421,0.00027128,0.00066276,-0.00005730,-0.
 00039681,-0.02681193,0.00078360,-0.03745655,0.00021773,-0.00079680,0.0
 0067719,-0.00022965,-0.00028994,-0.00028820,-0.15626405,-0.00874975,-0
 .09029737,-0.02019986,0.03419224,-0.02754392,0.18848651,0.00159588,-0.
 00523342,-0.00114608,-0.00080615,0.00011454,-0.00026275,-0.00095389,-0
 .00222752,-0.00064637,-0.00024053,0.00201023,-0.00155739,-0.00028191,-
 0.00071681,0.00165506,0.00019547,-0.00016336,-0.00032353,-0.00039350,0
 .00087179,-0.00098829,0.00004587,-0.00003406,0.00001457,-0.00023790,-0
 .00040862,0.00019843,-0.00010062,0.00003913,-0.00000893,-0.00216722,0.
 00120440,-0.00062397,-0.00050417,-0.00388764,0.00068904,-0.00014375,0.
 00008855,-0.00023009,-0.01691570,0.00865089,-0.01537677,0.00045668,-0.
 00048032,0.00050446,-0.00011971,-0.00010221,-0.00012610,-0.00381958,-0
 .07371847,0.00178713,0.04481885,-0.02503761,0.04350991,-0.02002860,0.0
 8759550,0.00034795,0.00017729,0.00145557,0.00017846,-0.00043370,-0.000
 14007,0.00128356,0.00388212,0.00006245,-0.00149428,-0.00459887,-0.0022
 1387,0.00085764,0.00169121,-0.00003809,-0.00032667,-0.00026879,0.00015
 194,-0.00100590,-0.00079405,0.00041616,-0.00009342,-0.00013841,-0.0000
 3999,0.00033080,-0.00051900,0.00022955,0.00006542,-0.00009993,-0.00000
 705,-0.00047659,0.00137125,-0.00040857,-0.00207532,-0.00432430,0.00067
 079,0.00037121,-0.00004889,0.00000663,-0.01450514,0.00310431,-0.010375
 62,-0.00024257,-0.00033000,0.00016638,-0.00018192,-0.00011472,-0.00007
 816,-0.09539368,-0.00525021,-0.16819801,-0.02598099,0.03259475,-0.0113
 9494,0.14796911,-0.02435455,0.28050414,0.00164448,0.00093438,-0.001347
 65,0.00013200,-0.00007566,-0.00002416,-0.00193202,0.00223407,0.0000193
 2,-0.00398081,0.00083951,0.00151076,0.00098010,-0.00050467,0.00025673,
 -0.00002923,0.00007732,-0.00033376,-0.00152966,-0.00176384,-0.00189544
 ,-0.00021841,-0.00030357,-0.00003931,-0.00010462,-0.00111970,0.0006697
 6,-0.00010144,0.00009171,0.00026815,-0.00060265,-0.00036367,-0.0023653
 5,0.00124734,-0.00234236,0.00160127,-0.00012284,0.00049215,0.00080128,
 -0.02269172,-0.00194459,0.03502267,0.00068318,-0.00057493,0.00031911,-
 0.00020663,-0.00013235,0.00015657,-0.15207252,0.00036195,0.09509193,-0
 .01898926,0.03594001,0.02820255,0.02100707,-0.00039952,-0.00962770,0.1
 7688763,0.00047392,-0.00145093,0.00114074,-0.00031899,-0.00009564,0.00
 008120,0.00061074,0.00070068,-0.00046166,0.00011833,0.00045276,-0.0013
 4377,0.00013268,-0.00016825,0.00092602,0.00004758,-0.00000255,-0.00016
 765,-0.00004528,0.00012642,-0.00076050,0.00000603,-0.00003638,0.000058
 78,-0.00060884,-0.00007832,-0.00012272,-0.00003791,0.00003817,0.000076
 65,-0.00087849,-0.00050388,-0.00150305,0.00070651,-0.00158516,0.002117
 24,-0.00032417,0.00017086,0.00032464,-0.01668638,0.00965061,0.01421937
 ,0.00043388,-0.00047087,0.00016280,-0.00013458,-0.00001944,0.00013745,
 0.00262971,-0.07189085,-0.00670220,0.04557190,-0.02971708,-0.04477254,
 -0.00025038,0.01143501,-0.00154550,-0.03144624,0.08344487,-0.00113111,
 0.00090105,0.00100047,0.00012669,-0.00015014,-0.00000312,0.00061840,-0
 .00019594,0.00075765,0.00140376,-0.00258934,-0.00091320,-0.00027875,0.
 00076814,-0.00035102,-0.00011566,-0.00015845,0.00027375,0.00059419,0.0
 0059124,0.00073716,0.00012318,0.00014067,-0.00007118,0.00028619,0.0003
 4458,-0.00018095,0.00008691,-0.00002987,-0.00012747,0.00140578,0.00013
 705,0.00170584,-0.00035351,0.00252347,-0.00185442,0.00009311,-0.000193
 20,-0.00060977,0.01823094,-0.00211314,-0.00980612,-0.00058150,0.000642
 28,-0.00016208,0.00021489,0.00005047,-0.00017262,0.09656719,-0.0034307
 7,-0.18086404,0.02463919,-0.03265904,-0.01012597,0.00635685,-0.0027137
 9,-0.09076925,-0.14828675,0.03813472,0.29153632\\0.00000280,0.00000676
 ,0.00000365,0.00000310,0.00000919,0.00000462,0.00000096,0.00000123,0.0
 0000083,0.00000166,0.00000526,0.00000245,0.00000131,0.00000722,0.00000
 316,0.00000037,0.00000591,0.00000222,0.00000310,-0.00000137,0.00000101
 ,0.00000509,-0.00000063,0.00000223,0.00000264,-0.00000499,-0.00000044,
 0.00000433,-0.00000698,-0.00000033,-0.00000013,-0.00000608,-0.00000219
 ,-0.00000219,-0.00000354,-0.00000225,-0.00000418,-0.00000440,-0.000003
 49,-0.00000164,-0.00000004,-0.00000075,-0.00000035,-0.00000983,-0.0000
 0344,0.00000145,-0.00001151,-0.00000330,-0.00000401,0.00000280,-0.0000
 0092,-0.00000709,0.00000171,-0.00000279,-0.00000458,0.00000595,-0.0000
 0012,-0.00000265,0.00000333,-0.00000015\\\@
 The archive entry for this job was punched.


 MEN HAVE BECOME THE TOOLS OF THEIR TOOLS... THOREAU   
 Job cpu time:       0 days  1 hours 29 minutes 20.0 seconds.
 Elapsed time:       0 days  0 hours  2 minutes 54.5 seconds.
 File lengths (MBytes):  RWF=    291 Int=      0 D2E=      0 Chk=     19 Scr=      1
 Normal termination of Gaussian 16 at Tue May  6 17:26:53 2025.
