/home/tahminaafroz
cn009.cluster.local
tahminaafroz
Wed May 14 11:49:20 CDT 2025
 Entering Gaussian System, Link 0=g16
 Initial command:
 /home/apps/g16/l1.exe "/tmp/2-cf3-ph-opt-freq-2-thf-512/Gau-356287.inp" -scrdir="/tmp/2-cf3-ph-opt-freq-2-thf-512/"
 Entering Link 1 = /home/apps/g16/l1.exe PID=    356288.
  
 Copyright (c) 1988-2019, Gaussian, Inc.  All Rights Reserved.
  
 This is part of the Gaussian(R) 16 program.  It is based on
 the Gaussian(R) 09 system (copyright 2009, Gaussian, Inc.),
 the Gaussian(R) 03 system (copyright 2003, Gaussian, Inc.),
 the Gaussian(R) 98 system (copyright 1998, Gaussian, Inc.),
 the Gaussian(R) 94 system (copyright 1995, Gaussian, Inc.),
 the Gaussian 92(TM) system (copyright 1992, Gaussian, Inc.),
 the Gaussian 90(TM) system (copyright 1990, Gaussian, Inc.),
 the Gaussian 88(TM) system (copyright 1988, Gaussian, Inc.),
 the Gaussian 86(TM) system (copyright 1986, Carnegie Mellon
 University), and the Gaussian 82(TM) system (copyright 1983,
 Carnegie Mellon University). Gaussian is a federally registered
 trademark of Gaussian, Inc.
  
 This software contains proprietary and confidential information,
 including trade secrets, belonging to Gaussian, Inc.
  
 This software is provided under written license and may be
 used, copied, transmitted, or stored only in accord with that
 written license.
  
 The following legend is applicable only to US Government
 contracts under FAR:
  
                    RESTRICTED RIGHTS LEGEND
  
 Use, reproduction and disclosure by the US Government is
 subject to restrictions as set forth in subparagraphs (a)
 and (c) of the Commercial Computer Software - Restricted
 Rights clause in FAR 52.227-19.
  
 Gaussian, Inc.
 340 Quinnipiac St., Bldg. 40, Wallingford CT 06492
  
  
 ---------------------------------------------------------------
 Warning -- This program may not be used in any manner that
 competes with the business of Gaussian, Inc. or will provide
 assistance to any competitor of Gaussian, Inc.  The licensee
 of this program is prohibited from giving any competitor of
 Gaussian, Inc. access to this program.  By using this program,
 the user acknowledges that Gaussian, Inc. is engaged in the
 business of creating and licensing software in the field of
 computational chemistry and represents and warrants to the
 licensee that it is not a competitor of Gaussian, Inc. and that
 it will not use this program in any manner prohibited above.
 ---------------------------------------------------------------
  

 Cite this work as:
 Gaussian 16, Revision C.01,
 M. J. Frisch, G. W. Trucks, H. B. Schlegel, G. E. Scuseria, 
 M. A. Robb, J. R. Cheeseman, G. Scalmani, V. Barone, 
 G. A. Petersson, H. Nakatsuji, X. Li, M. Caricato, A. V. Marenich, 
 J. Bloino, B. G. Janesko, R. Gomperts, B. Mennucci, H. P. Hratchian, 
 J. V. Ortiz, A. F. Izmaylov, J. L. Sonnenberg, D. Williams-Young, 
 F. Ding, F. Lipparini, F. Egidi, J. Goings, B. Peng, A. Petrone, 
 T. Henderson, D. Ranasinghe, V. G. Zakrzewski, J. Gao, N. Rega, 
 G. Zheng, W. Liang, M. Hada, M. Ehara, K. Toyota, R. Fukuda, 
 J. Hasegawa, M. Ishida, T. Nakajima, Y. Honda, O. Kitao, H. Nakai, 
 T. Vreven, K. Throssell, J. A. Montgomery, Jr., J. E. Peralta, 
 F. Ogliaro, M. J. Bearpark, J. J. Heyd, E. N. Brothers, K. N. Kudin, 
 V. N. Staroverov, T. A. Keith, R. Kobayashi, J. Normand, 
 K. Raghavachari, A. P. Rendell, J. C. Burant, S. S. Iyengar, 
 J. Tomasi, M. Cossi, J. M. Millam, M. Klene, C. Adamo, R. Cammi, 
 J. W. Ochterski, R. L. Martin, K. Morokuma, O. Farkas, 
 J. B. Foresman, and D. J. Fox, Gaussian, Inc., Wallingford CT, 2019.
 
 ******************************************
 Gaussian 16:  AS64L-G16RevC.01  3-Jul-2019
                14-May-2025 
 ******************************************
 %mem=20GB
 %nprocshared=32
 Will use up to   32 processors via shared memory.
 %chk=2-cf3-ph-opt-freq-2-thf-512.chk
 ----------------------------------------------------------------------
 # opt=calcfc freq 6-311+g(d,p) scrf=(smd,solvent=thf) nosymm scf=(qc,f
 ermi,xqc,maxcycle=512) geom=connectivity int=ultrafine m062x
 ----------------------------------------------------------------------
 1/10=4,18=20,19=15,26=6,38=1,57=2/1,3;
 2/9=110,12=2,15=1,17=6,18=5,40=1/2;
 3/5=4,6=6,7=111,11=2,25=1,30=1,70=32201,71=2,72=20,74=-55,75=-5,140=1/1,2,3;
 4//1;
 5/5=2,7=512,22=13,38=5,53=20/2;
 8/6=4,10=90,11=11/1;
 11/6=1,8=1,9=11,15=111,16=1,31=1/1,2,10;
 10/6=1,13=1,31=1/2;
 6/7=2,8=2,9=2,10=2,28=1/1;
 7/10=1,25=1,30=1/1,2,3,16;
 1/10=4,18=20,19=15,26=6/3(2);
 2/9=110,15=1/2;
 99//99;
 2/9=110,15=1/2;
 3/5=4,6=6,7=111,11=2,25=1,30=1,70=32205,71=1,72=20,74=-55,75=-5/1,2,3;
 4/5=5,16=3,69=1/1;
 5/5=2,7=512,22=13,38=5,53=20/2;
 7/30=1/1,2,3,16;
 1/18=20,19=15,26=6/3(-5);
 2/9=110,15=1/2;
 6/7=2,8=2,9=2,10=2,19=2,28=1/1;
 99/9=1/99;
 ---------------------------
 2-cf3-ph-opt-freq-2-thf-512
 ---------------------------
 Symbolic Z-matrix:
 Charge =  0 Multiplicity = 2
 C                     6.26724   7.00041   5.12915 
 C                     5.18691   6.1078    5.15918 
 H                     5.31784   5.12151   5.59191 
 C                     3.95776   6.46553   4.63058 
 H                     3.12929   5.76501   4.65044 
 C                     3.75634   7.74261   4.05957 
 C                     4.84268   8.64465   4.04502 
 H                     4.68914   9.62927   3.61737 
 C                     6.06751   8.27329   4.56843 
 C                     2.50902   8.17439   3.50004 
 H                     1.80107   7.33347   3.59785 
 C                     7.20928   9.25094   4.51703 
 F                     6.7889    10.52237   4.49092 
 F                     8.01639   9.12847   5.58825 
 F                     7.98173   9.07858   3.43282 
 

 GradGradGradGradGradGradGradGradGradGradGradGradGradGradGradGradGradGrad
 Berny optimization.
 Initialization pass.
                           ----------------------------
                           !    Initial Parameters    !
                           ! (Angstroms and Degrees)  !
 --------------------------                            --------------------------
 ! Name  Definition              Value          Derivative Info.                !
 --------------------------------------------------------------------------------
 ! R1    R(1,2)                  1.4017         calculate D2E/DX2 analytically  !
 ! R2    R(1,9)                  1.4052         calculate D2E/DX2 analytically  !
 ! R3    R(2,3)                  1.085          calculate D2E/DX2 analytically  !
 ! R4    R(2,4)                  1.385          calculate D2E/DX2 analytically  !
 ! R5    R(4,5)                  1.0851         calculate D2E/DX2 analytically  !
 ! R6    R(4,6)                  1.4133         calculate D2E/DX2 analytically  !
 ! R7    R(6,7)                  1.4121         calculate D2E/DX2 analytically  !
 ! R8    R(6,10)                 1.4336         calculate D2E/DX2 analytically  !
 ! R9    R(7,8)                  1.0844         calculate D2E/DX2 analytically  !
 ! R10   R(7,9)                  1.3828         calculate D2E/DX2 analytically  !
 ! R11   R(9,12)                 1.504          calculate D2E/DX2 analytically  !
 ! R12   R(10,11)                1.1036         calculate D2E/DX2 analytically  !
 ! R13   R(12,13)                1.3394         calculate D2E/DX2 analytically  !
 ! R14   R(12,14)                1.3468         calculate D2E/DX2 analytically  !
 ! R15   R(12,15)                1.3423         calculate D2E/DX2 analytically  !
 ! A1    A(2,1,9)              118.4144         calculate D2E/DX2 analytically  !
 ! A2    A(1,2,3)              119.6314         calculate D2E/DX2 analytically  !
 ! A3    A(1,2,4)              120.7543         calculate D2E/DX2 analytically  !
 ! A4    A(3,2,4)              119.6111         calculate D2E/DX2 analytically  !
 ! A5    A(2,4,5)              120.2554         calculate D2E/DX2 analytically  !
 ! A6    A(2,4,6)              120.9341         calculate D2E/DX2 analytically  !
 ! A7    A(5,4,6)              118.8105         calculate D2E/DX2 analytically  !
 ! A8    A(4,6,7)              118.147          calculate D2E/DX2 analytically  !
 ! A9    A(4,6,10)             123.6286         calculate D2E/DX2 analytically  !
 ! A10   A(7,6,10)             118.2238         calculate D2E/DX2 analytically  !
 ! A11   A(6,7,8)              118.3692         calculate D2E/DX2 analytically  !
 ! A12   A(6,7,9)              120.3966         calculate D2E/DX2 analytically  !
 ! A13   A(8,7,9)              121.2341         calculate D2E/DX2 analytically  !
 ! A14   A(1,9,7)              121.3468         calculate D2E/DX2 analytically  !
 ! A15   A(1,9,12)             119.6409         calculate D2E/DX2 analytically  !
 ! A16   A(7,9,12)             119.0076         calculate D2E/DX2 analytically  !
 ! A17   A(6,10,11)            107.1001         calculate D2E/DX2 analytically  !
 ! A18   A(9,12,13)            112.2995         calculate D2E/DX2 analytically  !
 ! A19   A(9,12,14)            111.6315         calculate D2E/DX2 analytically  !
 ! A20   A(9,12,15)            112.3946         calculate D2E/DX2 analytically  !
 ! A21   A(13,12,14)           106.8527         calculate D2E/DX2 analytically  !
 ! A22   A(13,12,15)           106.6643         calculate D2E/DX2 analytically  !
 ! A23   A(14,12,15)           106.6119         calculate D2E/DX2 analytically  !
 ! D1    D(9,1,2,3)           -179.7085         calculate D2E/DX2 analytically  !
 ! D2    D(9,1,2,4)              0.9463         calculate D2E/DX2 analytically  !
 ! D3    D(2,1,9,7)             -0.5507         calculate D2E/DX2 analytically  !
 ! D4    D(2,1,9,12)          -179.7574         calculate D2E/DX2 analytically  !
 ! D5    D(1,2,4,5)            179.4714         calculate D2E/DX2 analytically  !
 ! D6    D(1,2,4,6)             -0.6264         calculate D2E/DX2 analytically  !
 ! D7    D(3,2,4,5)              0.1261         calculate D2E/DX2 analytically  !
 ! D8    D(3,2,4,6)           -179.9717         calculate D2E/DX2 analytically  !
 ! D9    D(2,4,6,7)             -0.1057         calculate D2E/DX2 analytically  !
 ! D10   D(2,4,6,10)          -179.8195         calculate D2E/DX2 analytically  !
 ! D11   D(5,4,6,7)            179.7979         calculate D2E/DX2 analytically  !
 ! D12   D(5,4,6,10)             0.0841         calculate D2E/DX2 analytically  !
 ! D13   D(4,6,7,8)           -179.3554         calculate D2E/DX2 analytically  !
 ! D14   D(4,6,7,9)              0.5005         calculate D2E/DX2 analytically  !
 ! D15   D(10,6,7,8)             0.3742         calculate D2E/DX2 analytically  !
 ! D16   D(10,6,7,9)          -179.7699         calculate D2E/DX2 analytically  !
 ! D17   D(4,6,10,11)           -0.8225         calculate D2E/DX2 analytically  !
 ! D18   D(7,6,10,11)          179.4639         calculate D2E/DX2 analytically  !
 ! D19   D(6,7,9,1)             -0.1718         calculate D2E/DX2 analytically  !
 ! D20   D(6,7,9,12)           179.0399         calculate D2E/DX2 analytically  !
 ! D21   D(8,7,9,1)            179.68           calculate D2E/DX2 analytically  !
 ! D22   D(8,7,9,12)            -1.1084         calculate D2E/DX2 analytically  !
 ! D23   D(1,9,12,13)         -154.3047         calculate D2E/DX2 analytically  !
 ! D24   D(1,9,12,14)          -34.3228         calculate D2E/DX2 analytically  !
 ! D25   D(1,9,12,15)           85.4157         calculate D2E/DX2 analytically  !
 ! D26   D(7,9,12,13)           26.47           calculate D2E/DX2 analytically  !
 ! D27   D(7,9,12,14)          146.4518         calculate D2E/DX2 analytically  !
 ! D28   D(7,9,12,15)          -93.8096         calculate D2E/DX2 analytically  !
 --------------------------------------------------------------------------------
 Trust Radius=3.00D-01 FncErr=5.00D-06 GrdErr=5.00D-06 EigMax=2.50D+02 EigMin=1.00D-04
 Number of steps in this run=     76 maximum allowed number of steps=    100.
 GradGradGradGradGradGradGradGradGradGradGradGradGradGradGradGradGradGrad

                          Input orientation:                          
 ---------------------------------------------------------------------
 Center     Atomic      Atomic             Coordinates (Angstroms)
 Number     Number       Type             X           Y           Z
 ---------------------------------------------------------------------
      1          6           0        6.267242    7.000412    5.129152
      2          6           0        5.186912    6.107805    5.159175
      3          1           0        5.317841    5.121507    5.591912
      4          6           0        3.957758    6.465527    4.630585
      5          1           0        3.129290    5.765014    4.650443
      6          6           0        3.756344    7.742605    4.059570
      7          6           0        4.842677    8.644646    4.045021
      8          1           0        4.689135    9.629265    3.617365
      9          6           0        6.067513    8.273293    4.568430
     10          6           0        2.509015    8.174385    3.500042
     11          1           0        1.801074    7.333469    3.597854
     12          6           0        7.209276    9.250943    4.517025
     13          9           0        6.788896   10.522369    4.490923
     14          9           0        8.016393    9.128466    5.588248
     15          9           0        7.981726    9.078575    3.432815
 ---------------------------------------------------------------------
                    Distance matrix (angstroms):
                    1          2          3          4          5
     1  C    0.000000
     2  C    1.401700   0.000000
     3  H    2.155410   1.084983   0.000000
     4  C    2.422475   1.384988   2.140179   0.000000
     5  H    3.406187   2.147120   2.467837   1.085114   0.000000
     6  C    2.828333   2.434795   3.414162   1.413348   2.157126
     7  C    2.430685   2.792024   3.877004   2.423742   3.405071
     8  H    3.418595   3.876292   4.961249   3.401583   4.293344
     9  C    1.405179   2.411177   3.397540   2.779019   3.864110
    10  C    4.261042   3.767573   4.646018   2.509418   2.741028
    11  H    4.733123   3.924777   4.608329   2.543844   2.309145
    12  C    2.515356   3.792312   4.667456   4.282967   5.368034
    13  F    3.617131   4.743552   5.704865   4.949022   6.004214
    14  F    2.792653   4.161065   4.830933   4.947816   6.006335
    15  F    3.183673   4.429083   5.236064   4.945199   6.000703
                    6          7          8          9         10
     6  C    0.000000
     7  C    1.412094   0.000000
     8  H    2.150612   1.084407   0.000000
     9  C    2.425298   1.382781   2.154788   0.000000
    10  C    1.433644   2.442156   2.623617   3.716738   0.000000
    11  H    2.050282   3.342229   3.689438   4.475242   1.103579
    12  C    3.795667   2.488207   2.702522   1.504016   4.928051
    13  F    4.136366   2.740883   2.443304   2.363206   4.981190
    14  F    4.733443   3.562037   3.899465   2.359975   5.966748
    15  F    4.475655   3.227494   3.343422   2.366920   5.547310
                   11         12         13         14         15
    11  H    0.000000
    12  C    5.811216   0.000000
    13  F    5.987071   1.339375   0.000000
    14  F    6.768595   1.346832   2.157275   0.000000
    15  F    6.424414   1.342349   2.151041   2.156289   0.000000
 Symmetry turned off by external request.
 Stoichiometry    C8H4F3(2)
 Framework group  C1[X(C8H4F3)]
 Deg. of freedom    39
 Full point group                 C1      NOp   1
 Rotational constants (GHZ):           2.2410922           0.7735484           0.6390988
 Standard basis: 6-311+G(d,p) (5D, 7F)
   266 basis functions,   428 primitive gaussians,   277 cartesian basis functions
    40 alpha electrons       39 beta electrons
       nuclear repulsion energy       578.0889329291 Hartrees.
 NAtoms=   15 NActive=   15 NUniq=   15 SFac= 1.00D+00 NAtFMM=   60 NAOKFM=F Big=F
 Integral buffers will be    131072 words long.
 Raffenetti 2 integral format.
 Two-electron integral symmetry is turned off.
 Force inversion solution in PCM.
 ------------------------------------------------------------------------------
 Polarizable Continuum Model (PCM)
 =================================
 Model                : PCM.
 Atomic radii         : SMD-Coulomb.
 Polarization charges : Total charges.
 Charge compensation  : None.
 Solution method      : Matrix inversion.
 Cavity type          : VdW (van der Waals Surface) (Alpha=1.000).
 Cavity algorithm     : GePol (No added spheres)
                        Default sphere list used, NSphG=   15.
                        Lebedev-Laikov grids with approx.  5.0 points / Ang**2.
                        Smoothing algorithm: York/Karplus (Gamma=1.0000).
                        Polarization charges: spherical gaussians, with
                                              point-specific exponents (IZeta= 3).
                        Self-potential: point-specific (ISelfS= 7).
                        Self-field    : sphere-specific E.n sum rule (ISelfD= 2).
 1st derivatives      : Analytical E(r).r(x)/FMM algorithm (CHGder, D1EAlg=3).
                        Cavity 1st derivative terms included.
 2nd derivatives      : Analytical E(r).r(xy)/FMM algorithm (CHGder, D2EAlg=3).
                        Cavity 2nd derivative terms included.
 Solvent              : TetraHydroFuran, Eps=   7.425700 Eps(inf)=   1.974025
 ------------------------------------------------------------------------------
 Spheres list:
 ISph  on   Nord     Re0    Alpha      Xe            Ye            Ze
    1   C      1    1.8500  1.000      6.267242      7.000412      5.129152
    2   C      2    1.8500  1.000      5.186912      6.107805      5.159175
    3   H      3    1.2000  1.000      5.317841      5.121507      5.591912
    4   C      4    1.8500  1.000      3.957758      6.465527      4.630585
    5   H      5    1.2000  1.000      3.129290      5.765014      4.650443
    6   C      6    1.8500  1.000      3.756344      7.742605      4.059570
    7   C      7    1.8500  1.000      4.842677      8.644646      4.045021
    8   H      8    1.2000  1.000      4.689135      9.629265      3.617365
    9   C      9    1.8500  1.000      6.067513      8.273293      4.568430
   10   C     10    1.8500  1.000      2.509015      8.174385      3.500042
   11   H     11    1.2000  1.000      1.801074      7.333469      3.597854
   12   C     12    1.8500  1.000      7.209276      9.250943      4.517025
   13   F     13    1.7300  1.000      6.788896     10.522369      4.490923
   14   F     14    1.7300  1.000      8.016393      9.128466      5.588248
   15   F     15    1.7300  1.000      7.981726      9.078575      3.432815
 ------------------------------------------------------------------------------
 ------------------------------------------------------------------------------
 Atomic radii for non-electrostatic terms: SMD-CDS.
 ------------------------------------------------------------------------------
 Nuclear repulsion after PCM non-electrostatic terms =      578.0899314745 Hartrees.
 One-electron integrals computed using PRISM.
 NBasis=   266 RedAO= T EigKep=  1.72D-06  NBF=   266
 NBsUse=   266 1.00D-06 EigRej= -1.00D+00 NBFU=   266
 ExpMin= 4.38D-02 ExpMax= 1.14D+04 ExpMxC= 1.72D+03 IAcc=3 IRadAn=         5 AccDes= 0.00D+00
 Harris functional with IExCor= 1009 and IRadAn=       5 diagonalized for initial guess.
 HarFok:  IExCor= 1009 AccDes= 0.00D+00 IRadAn=         5 IDoV= 1 UseB2=F ITyADJ=14
 ICtDFT=  3500011 ScaDFX=  1.000000  1.000000  1.000000  1.000000
 FoFCou: FMM=F IPFlag=           0 FMFlag=      100000 FMFlg1=           0
         NFxFlg=           0 DoJE=T BraDBF=F KetDBF=T FulRan=T
         wScrn=  0.000000 ICntrl=       500 IOpCl=  0 I1Cent=   200000004 NGrid=           0
         NMat0=    1 NMatS0=      1 NMatT0=    0 NMatD0=    1 NMtDS0=    0 NMtDT0=    0
 Symmetry not used in FoFCou.
 Initial guess <Sx>= 0.0000 <Sy>= 0.0000 <Sz>= 0.5000 <S**2>= 0.7500 S= 0.5000
 Requested convergence on RMS density matrix=1.00D-08 within 512 cycles.
 Requested convergence on MAX density matrix=1.00D-06.
 Requested convergence on             energy=1.00D-06.
 Level shift goal  0.100 maximum shift  0.100.
 No special actions if energy rises.
 Dynamic level shift is on during FON iterations.
 Inv3:  Mode=1 IEnd=     5475603.
 Iteration    1 A*A^-1 deviation from unit magnitude is 3.66D-15 for   1341.
 Iteration    1 A*A^-1 deviation from orthogonality  is 2.05D-15 for   1222    951.
 Iteration    1 A^-1*A deviation from unit magnitude is 3.44D-15 for   1341.
 Iteration    1 A^-1*A deviation from orthogonality  is 1.82D-15 for   1326    644.
 Restarting incremental Fock formation.
 Error on total polarization charges =  0.03432
 SCF Done:  E(UM062X) =  -606.531748681     A.U. after   24 cycles
            NFock= 24  Conv=0.99D-08     -V/T= 2.0032
 <Sx>= 0.0000 <Sy>= 0.0000 <Sz>= 0.5000 <S**2>= 0.7729 S= 0.5114
 <L.S>=  0.00000000000    
 SMD-CDS (non-electrostatic) energy       (kcal/mol) =       0.63
 (included in total energy above)
 Annihilation of the first spin contaminant:
 S**2 before annihilation     0.7729,   after     0.7502
 DoSCS=F DFT=T ScalE2(SS,OS)=  1.000000  1.000000
 Range of M.O.s used for correlation:     1   266
 NBasis=   266 NAE=    40 NBE=    39 NFC=     0 NFV=     0
 NROrb=    266 NOA=    40 NOB=    39 NVA=   226 NVB=   227

 **** Warning!!: The largest alpha MO coefficient is  0.25347014D+03


 **** Warning!!: The largest beta MO coefficient is  0.25159920D+03

 Symmetrizing basis deriv contribution to polar:
 IMax=3 JMax=2 DiffMx= 0.00D+00
 G2DrvN: will do    16 centers at a time, making    1 passes.
 Calling FoFCou, ICntrl=  3107 FMM=F I1Cent=   0 AccDes= 0.00D+00.
 NEqPCM:  Using equilibrium solvation (IEInf=0, Eps=   7.4257, EpsInf=   1.9740)
 G2PCM: DoFxE=T DoFxN=T DoGrad=T DoDP/DQ/DG/TGxP=FFFF NFrqRd=   0 IEInf=0 SqF1=F DoCFld=F IF1Alg=4.
 End of G2Drv F.D. properties file   721 does not exist.
 End of G2Drv F.D. properties file   722 does not exist.
 End of G2Drv F.D. properties file   788 does not exist.
          IDoAtm=111111111111111
 NEqPCM:  Using equilibrium solvation (IEInf=0, Eps=   7.4257, EpsInf=   1.9740)
          Differentiating once with respect to nuclear coordinates.
 Keep R1 and R2 ints in memory in canonical form, NReq=1296484251.
          There are    48 degrees of freedom in the 1st order CPHF.  IDoFFX=6 NUNeed=     0.
     42 vectors produced by pass  0 Test12= 3.73D-14 2.08D-09 XBig12= 5.83D-01 1.92D-01.
 AX will form    42 AO Fock derivatives at one time.
     42 vectors produced by pass  1 Test12= 3.73D-14 2.08D-09 XBig12= 4.56D-02 4.71D-02.
     42 vectors produced by pass  2 Test12= 3.73D-14 2.08D-09 XBig12= 2.61D-03 1.12D-02.
     42 vectors produced by pass  3 Test12= 3.73D-14 2.08D-09 XBig12= 3.98D-05 1.89D-03.
     42 vectors produced by pass  4 Test12= 3.73D-14 2.08D-09 XBig12= 6.73D-07 1.69D-04.
     42 vectors produced by pass  5 Test12= 3.73D-14 2.08D-09 XBig12= 1.16D-08 1.80D-05.
     42 vectors produced by pass  6 Test12= 3.73D-14 2.08D-09 XBig12= 1.08D-10 1.22D-06.
     37 vectors produced by pass  7 Test12= 3.73D-14 2.08D-09 XBig12= 8.38D-13 1.00D-07.
     10 vectors produced by pass  8 Test12= 3.73D-14 2.08D-09 XBig12= 6.15D-15 8.32D-09.
 InvSVY:  IOpt=1 It=  1 EMax= 1.89D-15
 Solved reduced A of dimension   341 with    42 vectors.
 End of Minotr F.D. properties file   721 does not exist.
 End of Minotr F.D. properties file   722 does not exist.
 End of Minotr F.D. properties file   788 does not exist.

 **********************************************************************

            Population analysis using the SCF Density.

 **********************************************************************

 Alpha  occ. eigenvalues --  -25.28899 -25.28641 -25.28640 -10.81541 -10.63202
 Alpha  occ. eigenvalues --  -10.59973 -10.59080 -10.58820 -10.57908 -10.57155
 Alpha  occ. eigenvalues --  -10.56940  -1.48123  -1.38742  -1.38462  -1.01144
 Alpha  occ. eigenvalues --   -0.91878  -0.89342  -0.82618  -0.77000  -0.74350
 Alpha  occ. eigenvalues --   -0.71052  -0.70512  -0.69092  -0.63530  -0.59025
 Alpha  occ. eigenvalues --   -0.58743  -0.57321  -0.56189  -0.54473  -0.54264
 Alpha  occ. eigenvalues --   -0.53171  -0.52365  -0.50176  -0.48069  -0.45938
 Alpha  occ. eigenvalues --   -0.43449  -0.36721  -0.36424  -0.34743  -0.29036
 Alpha virt. eigenvalues --   -0.09505  -0.01638   0.01816   0.02342   0.03020
 Alpha virt. eigenvalues --    0.03722   0.05056   0.05271   0.05524   0.06482
 Alpha virt. eigenvalues --    0.07511   0.07790   0.08295   0.08817   0.10372
 Alpha virt. eigenvalues --    0.11219   0.12026   0.12584   0.13154   0.13578
 Alpha virt. eigenvalues --    0.14037   0.15729   0.15885   0.16913   0.17130
 Alpha virt. eigenvalues --    0.18278   0.18377   0.18916   0.19189   0.20006
 Alpha virt. eigenvalues --    0.21357   0.22653   0.23001   0.23891   0.23929
 Alpha virt. eigenvalues --    0.24579   0.24804   0.25477   0.26713   0.27115
 Alpha virt. eigenvalues --    0.27925   0.28096   0.28528   0.29656   0.29717
 Alpha virt. eigenvalues --    0.31339   0.33666   0.34410   0.35430   0.36254
 Alpha virt. eigenvalues --    0.36613   0.37002   0.38369   0.41177   0.41867
 Alpha virt. eigenvalues --    0.42794   0.43671   0.45245   0.45364   0.46896
 Alpha virt. eigenvalues --    0.48080   0.49440   0.52243   0.53286   0.54647
 Alpha virt. eigenvalues --    0.55647   0.58746   0.59478   0.59871   0.61089
 Alpha virt. eigenvalues --    0.61597   0.62972   0.64726   0.64917   0.66257
 Alpha virt. eigenvalues --    0.67025   0.68301   0.69549   0.70358   0.71792
 Alpha virt. eigenvalues --    0.72281   0.75520   0.76133   0.77725   0.78458
 Alpha virt. eigenvalues --    0.79200   0.82441   0.86173   0.88673   0.89561
 Alpha virt. eigenvalues --    0.92299   0.94161   0.95702   0.97061   1.00024
 Alpha virt. eigenvalues --    1.03664   1.04359   1.05089   1.06229   1.09348
 Alpha virt. eigenvalues --    1.11467   1.13023   1.14950   1.20311   1.22168
 Alpha virt. eigenvalues --    1.23334   1.36412   1.38915   1.40526   1.43208
 Alpha virt. eigenvalues --    1.45199   1.46338   1.48141   1.49024   1.51323
 Alpha virt. eigenvalues --    1.51540   1.52837   1.54146   1.54712   1.56487
 Alpha virt. eigenvalues --    1.57388   1.58053   1.58802   1.59124   1.61894
 Alpha virt. eigenvalues --    1.63548   1.71573   1.73282   1.73990   1.76709
 Alpha virt. eigenvalues --    1.77974   1.78600   1.82239   1.84184   1.84918
 Alpha virt. eigenvalues --    1.86922   1.89427   1.93760   1.95687   1.96152
 Alpha virt. eigenvalues --    1.97808   1.99549   2.00596   2.02765   2.05726
 Alpha virt. eigenvalues --    2.06428   2.09987   2.12665   2.16936   2.21206
 Alpha virt. eigenvalues --    2.23907   2.27365   2.33648   2.34896   2.39340
 Alpha virt. eigenvalues --    2.45458   2.53266   2.56676   2.60698   2.63451
 Alpha virt. eigenvalues --    2.66304   2.68333   2.71863   2.75380   2.76922
 Alpha virt. eigenvalues --    2.77834   2.80925   2.82839   2.85855   2.87357
 Alpha virt. eigenvalues --    2.92257   2.96353   2.99058   3.01428   3.04512
 Alpha virt. eigenvalues --    3.07935   3.10751   3.19357   3.20134   3.35360
 Alpha virt. eigenvalues --    3.40508   3.46957   3.52443   3.54820   3.65229
 Alpha virt. eigenvalues --    3.75152   3.80055   3.83416   3.83982   3.85193
 Alpha virt. eigenvalues --    3.86278   3.86736   3.87162   4.00371   4.00919
 Alpha virt. eigenvalues --    4.01974   4.11216   4.16052   4.21440   4.24471
 Alpha virt. eigenvalues --    4.27000   4.29799   4.75190   4.79721   4.97720
 Alpha virt. eigenvalues --    5.00516   6.44768   6.47643   6.50371   6.51800
 Alpha virt. eigenvalues --    6.52267   6.54547   6.60196   6.86623   6.88884
 Alpha virt. eigenvalues --   23.51545  23.64730  23.86388  23.95296  23.99340
 Alpha virt. eigenvalues --   24.06275  24.13855  24.19010  66.88094  66.89613
 Alpha virt. eigenvalues --   66.94853
  Beta  occ. eigenvalues --  -25.28902 -25.28645 -25.28629 -10.81515 -10.62074
  Beta  occ. eigenvalues --  -10.59978 -10.59014 -10.58744 -10.57917 -10.57161
  Beta  occ. eigenvalues --  -10.56965  -1.48117  -1.38745  -1.38457  -1.00351
  Beta  occ. eigenvalues --   -0.91569  -0.88368  -0.82364  -0.75705  -0.73917
  Beta  occ. eigenvalues --   -0.70945  -0.70508  -0.68748  -0.63258  -0.58826
  Beta  occ. eigenvalues --   -0.58674  -0.56312  -0.54806  -0.54406  -0.53718
  Beta  occ. eigenvalues --   -0.52950  -0.52344  -0.50006  -0.47352  -0.45156
  Beta  occ. eigenvalues --   -0.43008  -0.35311  -0.34692  -0.29141
  Beta virt. eigenvalues --   -0.09513  -0.08803  -0.01524   0.01742   0.02985
  Beta virt. eigenvalues --    0.03042   0.03871   0.04848   0.05147   0.05728
  Beta virt. eigenvalues --    0.06556   0.07536   0.07615   0.08351   0.09059
  Beta virt. eigenvalues --    0.10324   0.11317   0.12107   0.12150   0.13086
  Beta virt. eigenvalues --    0.13658   0.14022   0.15528   0.15701   0.16157
  Beta virt. eigenvalues --    0.17232   0.18188   0.18477   0.19002   0.19233
  Beta virt. eigenvalues --    0.20079   0.21462   0.22798   0.23150   0.23407
  Beta virt. eigenvalues --    0.23766   0.24173   0.24899   0.25812   0.26419
  Beta virt. eigenvalues --    0.27017   0.27683   0.27877   0.28796   0.29607
  Beta virt. eigenvalues --    0.30026   0.31593   0.33852   0.34579   0.35741
  Beta virt. eigenvalues --    0.36266   0.36654   0.37103   0.38397   0.41038
  Beta virt. eigenvalues --    0.41777   0.42932   0.43513   0.44901   0.45224
  Beta virt. eigenvalues --    0.46218   0.47975   0.48188   0.52530   0.53247
  Beta virt. eigenvalues --    0.54750   0.54941   0.58134   0.58823   0.60090
  Beta virt. eigenvalues --    0.60783   0.61697   0.62717   0.64818   0.65258
  Beta virt. eigenvalues --    0.66361   0.66949   0.67763   0.70053   0.70586
  Beta virt. eigenvalues --    0.71872   0.72053   0.75452   0.76196   0.77452
  Beta virt. eigenvalues --    0.78905   0.79389   0.82411   0.86058   0.88814
  Beta virt. eigenvalues --    0.89306   0.90916   0.93813   0.95767   0.97339
  Beta virt. eigenvalues --    0.99633   1.03995   1.04422   1.05214   1.06189
  Beta virt. eigenvalues --    1.09499   1.11422   1.13386   1.15351   1.21396
  Beta virt. eigenvalues --    1.22516   1.23366   1.36321   1.38988   1.40757
  Beta virt. eigenvalues --    1.43577   1.45499   1.46220   1.48441   1.49178
  Beta virt. eigenvalues --    1.51254   1.51683   1.52956   1.54361   1.54940
  Beta virt. eigenvalues --    1.56499   1.57486   1.58617   1.59056   1.59329
  Beta virt. eigenvalues --    1.62428   1.63864   1.71768   1.73556   1.74509
  Beta virt. eigenvalues --    1.76878   1.78025   1.78808   1.82385   1.84439
  Beta virt. eigenvalues --    1.85415   1.87152   1.89291   1.94066   1.95913
  Beta virt. eigenvalues --    1.96548   1.98319   1.99778   2.00952   2.02836
  Beta virt. eigenvalues --    2.05657   2.06616   2.10026   2.13001   2.17164
  Beta virt. eigenvalues --    2.21235   2.23839   2.27519   2.34115   2.35180
  Beta virt. eigenvalues --    2.39740   2.45873   2.53394   2.56871   2.60798
  Beta virt. eigenvalues --    2.63840   2.66651   2.68666   2.71978   2.75469
  Beta virt. eigenvalues --    2.77011   2.77892   2.81053   2.82796   2.86239
  Beta virt. eigenvalues --    2.87892   2.92244   2.96205   3.00443   3.01585
  Beta virt. eigenvalues --    3.05129   3.07898   3.10821   3.19618   3.20391
  Beta virt. eigenvalues --    3.35762   3.40811   3.47395   3.52758   3.55243
  Beta virt. eigenvalues --    3.65314   3.75615   3.80055   3.83422   3.83995
  Beta virt. eigenvalues --    3.85269   3.86312   3.86777   3.87324   4.00374
  Beta virt. eigenvalues --    4.00914   4.02012   4.11194   4.16450   4.21487
  Beta virt. eigenvalues --    4.24297   4.27005   4.29795   4.75185   4.80097
  Beta virt. eigenvalues --    4.97720   5.00512   6.44742   6.47629   6.50359
  Beta virt. eigenvalues --    6.51781   6.52251   6.54529   6.60185   6.86623
  Beta virt. eigenvalues --    6.88873  23.51713  23.64794  23.86519  23.95431
  Beta virt. eigenvalues --   23.99872  24.06366  24.13861  24.19086  66.88095
  Beta virt. eigenvalues --   66.89613  66.94854
          Condensed to atoms (all electrons):
               1          2          3          4          5          6
     1  C   21.202475  -0.660336   0.018886   0.470812  -0.025577  -1.088640
     2  C   -0.660336   9.234362   0.320801  -0.988161   0.023752   1.346727
     3  H    0.018886   0.320801   0.436526   0.051308  -0.005010  -0.017296
     4  C    0.470812  -0.988161   0.051308   9.729023   0.304644  -0.156667
     5  H   -0.025577   0.023752  -0.005010   0.304644   0.429342   0.034233
     6  C   -1.088640   1.346727  -0.017296  -0.156667   0.034233  14.563862
     7  C  -13.158801  -2.342458  -0.022682  -2.028828  -0.014030  -8.920559
     8  H   -0.002152  -0.007444   0.000028   0.007950  -0.000096   0.041126
     9  C   -1.496029   0.130702  -0.015741  -0.771201   0.008314   3.152111
    10  C   -0.033500   0.140653   0.003464  -1.315844   0.021053  -0.967319
    11  H    0.009158   0.051269   0.000001   0.047206  -0.000365  -0.170075
    12  C    0.293509  -0.870685   0.006541   0.837368  -0.000690  -2.099605
    13  F    0.013242   0.022062   0.000007  -0.005142  -0.000002   0.145938
    14  F   -0.067850   0.065623   0.000012  -0.004929  -0.000001   0.052516
    15  F   -0.186960  -0.004229   0.000012  -0.016110  -0.000002   0.032972
               7          8          9         10         11         12
     1  C  -13.158801  -0.002152  -1.496029  -0.033500   0.009158   0.293509
     2  C   -2.342458  -0.007444   0.130702   0.140653   0.051269  -0.870685
     3  H   -0.022682   0.000028  -0.015741   0.003464   0.000001   0.006541
     4  C   -2.028828   0.007950  -0.771201  -1.315844   0.047206   0.837368
     5  H   -0.014030  -0.000096   0.008314   0.021053  -0.000365  -0.000690
     6  C   -8.920559   0.041126   3.152111  -0.967319  -0.170075  -2.099605
     7  C   41.457109   0.225236 -12.217348   1.528037   0.039318   1.958357
     8  H    0.225236   0.406178   0.042308   0.008386   0.000185   0.035385
     9  C  -12.217348   0.042308  22.802293  -1.382807   0.008625  -3.643630
    10  C    1.528037   0.008386  -1.382807   8.347084   0.289986  -0.367329
    11  H    0.039318   0.000185   0.008625   0.289986   0.561817   0.001592
    12  C    1.958357   0.035385  -3.643630  -0.367329   0.001592   8.693335
    13  F   -0.133460   0.005011  -0.071157   0.006976   0.000011   0.186017
    14  F   -0.048119   0.000671  -0.022140  -0.000605   0.000000   0.181940
    15  F   -0.213361  -0.000009   0.437860  -0.001582  -0.000002   0.129151
              13         14         15
     1  C    0.013242  -0.067850  -0.186960
     2  C    0.022062   0.065623  -0.004229
     3  H    0.000007   0.000012   0.000012
     4  C   -0.005142  -0.004929  -0.016110
     5  H   -0.000002  -0.000001  -0.000002
     6  C    0.145938   0.052516   0.032972
     7  C   -0.133460  -0.048119  -0.213361
     8  H    0.005011   0.000671  -0.000009
     9  C   -0.071157  -0.022140   0.437860
    10  C    0.006976  -0.000605  -0.001582
    11  H    0.000011   0.000000  -0.000002
    12  C    0.186017   0.181940   0.129151
    13  F    9.015365  -0.021951  -0.042049
    14  F   -0.021951   9.025215  -0.046845
    15  F   -0.042049  -0.046845   8.972739
          Atomic-Atomic Spin Densities.
               1          2          3          4          5          6
     1  C    1.474848  -0.230721   0.022760  -0.114608   0.005195   0.077457
     2  C   -0.230721   0.051392   0.006139  -0.019455  -0.002128   0.041435
     3  H    0.022760   0.006139   0.022311  -0.016730   0.000888   0.009249
     4  C   -0.114608  -0.019455  -0.016730   0.142219  -0.004800  -0.113786
     5  H    0.005195  -0.002128   0.000888  -0.004800   0.002877   0.001278
     6  C    0.077457   0.041435   0.009249  -0.113786   0.001278   0.162930
     7  C    0.296143  -0.124425   0.001702   0.107312   0.001857  -0.071920
     8  H    0.002769  -0.000251   0.000006  -0.000684   0.000015   0.002368
     9  C   -0.506867   0.238637  -0.026079  -0.028441  -0.008287   0.032442
    10  C    0.200397  -0.067869   0.003493   0.041980   0.007158  -0.047149
    11  H    0.000342  -0.001314   0.000004  -0.003560  -0.000003   0.000831
    12  C   -0.380538   0.134477  -0.007655   0.028975  -0.001148  -0.134770
    13  F   -0.004745   0.000921  -0.000006   0.000893   0.000000  -0.001934
    14  F   -0.005541  -0.000934  -0.000024  -0.000129  -0.000001  -0.002136
    15  F   -0.000770   0.001907  -0.000010  -0.000053  -0.000001  -0.000952
               7          8          9         10         11         12
     1  C    0.296143   0.002769  -0.506867   0.200397   0.000342  -0.380538
     2  C   -0.124425  -0.000251   0.238637  -0.067869  -0.001314   0.134477
     3  H    0.001702   0.000006  -0.026079   0.003493   0.000004  -0.007655
     4  C    0.107312  -0.000684  -0.028441   0.041980  -0.003560   0.028975
     5  H    0.001857   0.000015  -0.008287   0.007158  -0.000003  -0.001148
     6  C   -0.071920   0.002368   0.032442  -0.047149   0.000831  -0.134770
     7  C   -0.284601  -0.004762   0.142731  -0.060337   0.003561   0.033149
     8  H   -0.004762   0.004240   0.003980   0.003223   0.000004  -0.005787
     9  C    0.142731   0.003980   0.442794  -0.109998  -0.000131  -0.170047
    10  C   -0.060337   0.003223  -0.109998   0.092569   0.001107  -0.086749
    11  H    0.003561   0.000004  -0.000131   0.001107   0.001068  -0.000071
    12  C    0.033149  -0.005787  -0.170047  -0.086749  -0.000071   0.672171
    13  F   -0.014518  -0.000347  -0.001197  -0.002258   0.000000   0.023899
    14  F    0.002417  -0.000014  -0.001787  -0.000293   0.000000   0.012198
    15  F   -0.000093  -0.000089   0.002006  -0.000175   0.000000   0.000285
              13         14         15
     1  C   -0.004745  -0.005541  -0.000770
     2  C    0.000921  -0.000934   0.001907
     3  H   -0.000006  -0.000024  -0.000010
     4  C    0.000893  -0.000129  -0.000053
     5  H    0.000000  -0.000001  -0.000001
     6  C   -0.001934  -0.002136  -0.000952
     7  C   -0.014518   0.002417  -0.000093
     8  H   -0.000347  -0.000014  -0.000089
     9  C   -0.001197  -0.001787   0.002006
    10  C   -0.002258  -0.000293  -0.000175
    11  H    0.000000   0.000000   0.000000
    12  C    0.023899   0.012198   0.000285
    13  F   -0.000194  -0.000466  -0.000358
    14  F   -0.000466  -0.000592   0.001118
    15  F   -0.000358   0.001118  -0.001639
 Mulliken charges and spin densities:
               1          2
     1  C    0.711763   0.836122
     2  C   -0.462638   0.027809
     3  H    0.223144   0.016047
     4  C   -0.161428   0.019133
     5  H    0.224436   0.002900
     6  C    0.050676  -0.044659
     7  C   -0.108410   0.028217
     8  H    0.237238   0.004670
     9  C   -0.962161   0.009756
    10  C   -0.276652  -0.024901
    11  H    0.161274   0.001839
    12  C    0.658744   0.118388
    13  F   -0.120866  -0.000313
    14  F   -0.113537   0.003815
    15  F   -0.061583   0.001177
 Sum of Mulliken charges =   0.00000   1.00000
 Mulliken charges and spin densities with hydrogens summed into heavy atoms:
               1          2
     1  C    0.711763   0.836122
     2  C   -0.239495   0.043857
     4  C    0.063008   0.022033
     6  C    0.050676  -0.044659
     7  C    0.128828   0.032886
     9  C   -0.962161   0.009756
    10  C   -0.115378  -0.023063
    12  C    0.658744   0.118388
    13  F   -0.120866  -0.000313
    14  F   -0.113537   0.003815
    15  F   -0.061583   0.001177
 APT charges:
               1
     1  C    1.618246
     2  C   -1.126944
     3  H   -0.145690
     4  C    1.049717
     5  H   -0.898055
     6  C   -4.055667
     7  C    1.727458
     8  H    1.275438
     9  C    2.054660
    10  C    0.091950
    11  H   -0.608931
    12  C   -1.501647
    13  F    0.456608
    14  F    0.441158
    15  F   -0.378302
 Sum of APT charges =   0.00000
 APT charges with hydrogens summed into heavy atoms:
               1
     1  C    1.618246
     2  C   -1.272633
     4  C    0.151662
     6  C   -4.055667
     7  C    3.002896
     9  C    2.054660
    10  C   -0.516980
    12  C   -1.501647
    13  F    0.456608
    14  F    0.441158
    15  F   -0.378302
 Electronic spatial extent (au):  <R**2>=          36353.2494
 Charge=              0.0000 electrons
 Dipole moment (field-independent basis, Debye):
    X=             -0.3271    Y=             -5.0929    Z=              1.9124  Tot=              5.4500
 Quadrupole moment (field-independent basis, Debye-Ang):
   XX=            -76.7463   YY=           -139.4071   ZZ=            -48.8040
   XY=            -23.8624   XZ=              3.8283   YZ=             -8.1268
 Traceless Quadrupole moment (field-independent basis, Debye-Ang):
   XX=             11.5728   YY=            -51.0880   ZZ=             39.5152
   XY=            -23.8624   XZ=              3.8283   YZ=             -8.1268
 Octapole moment (field-independent basis, Debye-Ang**2):
  XXX=          -1235.0236  YYY=          -2424.1663  ZZZ=           -760.9039  XYY=           -690.3891
  XXY=           -740.9611  XXZ=           -322.7064  XZZ=           -318.7455  YZZ=           -513.2161
  YYZ=           -502.2025  XYZ=            -76.3977
 Hexadecapole moment (field-independent basis, Debye-Ang**3):
 XXXX=         -14804.4915 YYYY=         -35119.6670 ZZZZ=          -7305.2853 XXXY=         -11010.5728
 XXXZ=          -5499.0745 YYYX=         -12653.6997 YYYZ=          -9740.4922 ZZZX=          -4588.8082
 ZZZY=          -6731.8613 XXYY=          -9140.0784 XXZZ=          -3596.6825 YYZZ=          -6313.1183
 XXYZ=          -3216.7849 YYXZ=          -2927.6387 ZZXY=          -3226.1391
 N-N= 5.780899314745D+02 E-N=-2.581999555425D+03  KE= 6.045763396149D+02
  Exact polarizability:       0.000       0.000       0.000       0.000       0.000       0.000
 Approx polarizability:     145.265      -1.166     118.845      22.939     -18.708      87.239
                          Isotropic Fermi Contact Couplings
        Atom                 a.u.       MegaHertz       Gauss      10(-4) cm-1
     1  C(13)              0.56527     635.47045     226.75166     211.97013
     2  C(13)              0.01506      16.92804       6.04034       5.64659
     3  H(1)               0.01021      45.65615      16.29125      15.22925
     4  C(13)              0.03838      43.14378      15.39477      14.39121
     5  H(1)               0.00173       7.73139       2.75875       2.57891
     6  C(13)             -0.00671      -7.54659      -2.69281      -2.51727
     7  C(13)              0.03181      35.75635      12.75876      11.92703
     8  H(1)               0.00301      13.43849       4.79519       4.48260
     9  C(13)              0.01108      12.45697       4.44496       4.15520
    10  C(13)             -0.00446      -5.01163      -1.78827      -1.67170
    11  H(1)               0.00062       2.76135       0.98532       0.92109
    12  C(13)              0.01784      20.05843       7.15735       6.69077
    13  F(19)             -0.00096      -4.04109      -1.44196      -1.34796
    14  F(19)              0.00250      10.51876       3.75335       3.50868
    15  F(19)             -0.00207      -8.69987      -3.10433      -2.90196
 --------------------------------------------------------
       Center         ----  Spin Dipole Couplings  ----
                      3XX-RR        3YY-RR        3ZZ-RR
 --------------------------------------------------------
     1   Atom        0.621338     -0.441429     -0.179909
     2   Atom        0.086130     -0.000198     -0.085932
     3   Atom       -0.000210      0.012227     -0.012017
     4   Atom        0.036283     -0.035390     -0.000893
     5   Atom        0.006032     -0.000992     -0.005040
     6   Atom        0.019971      0.010030     -0.030000
     7   Atom        0.014981     -0.023601      0.008620
     8   Atom       -0.004086      0.006157     -0.002072
     9   Atom       -0.014192      0.082325     -0.068133
    10   Atom        0.020064      0.033120     -0.053184
    11   Atom        0.001604     -0.000672     -0.000932
    12   Atom       -0.003317      0.018009     -0.014692
    13   Atom        0.003057      0.000643     -0.003700
    14   Atom       -0.015670      0.028766     -0.013096
    15   Atom       -0.004520      0.003794      0.000726
 --------------------------------------------------------
                        XY            XZ            YZ
 --------------------------------------------------------
     1   Atom       -0.366315      0.450393     -0.077231
     2   Atom        0.053713      0.036750     -0.026879
     3   Atom        0.017284     -0.002945     -0.004926
     4   Atom       -0.016498      0.021429      0.003357
     5   Atom        0.006718      0.000673      0.000344
     6   Atom        0.004029      0.018231     -0.020661
     7   Atom       -0.030349      0.014845      0.000250
     8   Atom       -0.003979      0.001660     -0.005633
     9   Atom       -0.028941      0.039788     -0.082721
    10   Atom       -0.006111      0.015293      0.003097
    11   Atom       -0.003520      0.001596     -0.000670
    12   Atom        0.017550     -0.003399     -0.009288
    13   Atom        0.000830      0.001563      0.001126
    14   Atom       -0.002483      0.004063     -0.011589
    15   Atom       -0.001894      0.001350     -0.002946
 --------------------------------------------------------


 ---------------------------------------------------------------------------------
              Anisotropic Spin Dipole Couplings in Principal Axis System
 ---------------------------------------------------------------------------------

       Atom             a.u.   MegaHertz   Gauss  10(-4) cm-1        Axes

              Baa    -0.5709   -76.611   -27.337   -25.555  0.3689  0.8958 -0.2480
     1 C(13)  Bbb    -0.3511   -47.114   -16.811   -15.715 -0.2767  0.3606  0.8907
              Bcc     0.9220   123.724    44.148    41.270  0.8873 -0.2600  0.3809
 
              Baa    -0.1077   -14.456    -5.158    -4.822 -0.2687  0.3578  0.8943
     2 C(13)  Bbb    -0.0066    -0.886    -0.316    -0.296 -0.3172  0.8438 -0.4328
              Bcc     0.1143    15.342     5.474     5.117  0.9095  0.4000  0.1132
 
              Baa    -0.0131    -7.003    -2.499    -2.336 -0.3167  0.3844  0.8672
     3 H(1)   Bbb    -0.0121    -6.473    -2.310    -2.159  0.7604 -0.4436  0.4743
              Bcc     0.0253    13.476     4.808     4.495  0.5670  0.8096 -0.1518
 
              Baa    -0.0408    -5.472    -1.953    -1.825  0.2623  0.9396 -0.2200
     4 C(13)  Bbb    -0.0075    -1.012    -0.361    -0.338 -0.3252  0.3007  0.8966
              Bcc     0.0483     6.484     2.314     2.163  0.9085 -0.1636  0.3844
 
              Baa    -0.0051    -2.734    -0.976    -0.912 -0.3688  0.5365  0.7591
     5 H(1)   Bbb    -0.0050    -2.676    -0.955    -0.892 -0.3660  0.6669 -0.6491
              Bcc     0.0101     5.409     1.930     1.804  0.8544  0.5172  0.0496
 
              Baa    -0.0440    -5.909    -2.108    -1.971 -0.2764  0.3610  0.8907
     6 C(13)  Bbb     0.0174     2.339     0.834     0.780  0.3671  0.8961 -0.2493
              Bcc     0.0266     3.570     1.274     1.191  0.8881 -0.2581  0.3803
 
              Baa    -0.0414    -5.556    -1.983    -1.853  0.4992  0.8530 -0.1524
     7 C(13)  Bbb     0.0039     0.519     0.185     0.173 -0.2927  0.3315  0.8969
              Bcc     0.0375     5.037     1.797     1.680  0.8156 -0.4031  0.4152
 
              Baa    -0.0055    -2.950    -1.053    -0.984  0.8520  0.4324  0.2952
     8 H(1)   Bbb    -0.0048    -2.547    -0.909    -0.850 -0.4382  0.2805  0.8540
              Bcc     0.0103     5.498     1.962     1.834 -0.2864  0.8569 -0.4285
 
              Baa    -0.1115   -14.966    -5.340    -4.992 -0.2656  0.3446  0.9004
     9 C(13)  Bbb    -0.0200    -2.689    -0.959    -0.897  0.9210  0.3666  0.1314
              Bcc     0.1316    17.654     6.299     5.889 -0.2848  0.8642 -0.4147
 
              Baa    -0.0564    -7.575    -2.703    -2.527 -0.1994 -0.0474  0.9788
    10 C(13)  Bbb     0.0208     2.793     0.997     0.932  0.8965  0.3945  0.2018
              Bcc     0.0356     4.782     1.706     1.595 -0.3957  0.9177 -0.0361
 
              Baa    -0.0033    -1.767    -0.631    -0.589  0.6120  0.7666 -0.1945
    11 H(1)   Bbb    -0.0014    -0.726    -0.259    -0.242 -0.1142  0.3290  0.9374
              Bcc     0.0047     2.494     0.890     0.832  0.7826 -0.5515  0.2889
 
              Baa    -0.0174    -2.335    -0.833    -0.779 -0.2052  0.3422  0.9169
    12 C(13)  Bbb    -0.0126    -1.693    -0.604    -0.565  0.8573 -0.3891  0.3371
              Bcc     0.0300     4.028     1.437     1.344  0.4721  0.8553 -0.2136
 
              Baa    -0.0042    -2.121    -0.757    -0.708 -0.1851 -0.1914  0.9639
    13 F(19)  Bbb     0.0005     0.228     0.082     0.076 -0.3634  0.9246  0.1139
              Bcc     0.0038     1.893     0.675     0.631  0.9130  0.3293  0.2407
 
              Baa    -0.0193    -9.698    -3.460    -3.235 -0.6961  0.1341  0.7054
    14 F(19)  Bbb    -0.0127    -6.377    -2.276    -2.127  0.7144  0.2277  0.6617
              Bcc     0.0320    16.075     5.736     5.362 -0.0719  0.9645 -0.2543
 
              Baa    -0.0050    -2.528    -0.902    -0.843  0.9761  0.1605 -0.1467
    15 F(19)  Bbb    -0.0011    -0.529    -0.189    -0.177  0.0401  0.5303  0.8469
              Bcc     0.0061     3.058     1.091     1.020 -0.2137  0.8325 -0.5112
 

 ---------------------------------------------------------------------------------

 D2PCM: PCM CHGder 2nd derivatives, FixD1E=F FixD2E=F DoIter=F DoCFld=F I1PDM=0
 Calling FoFJK, ICntrl=    100127 FMM=F ISym2X=0 I1Cent= 0 IOpClX= 1 NMat=1 NMatS=1 NMatT=0.
 -------------------------------------------------------------------
 Center     Atomic                   Forces (Hartrees/Bohr)
 Number     Number              X              Y              Z
 -------------------------------------------------------------------
      1        6          -0.047015513    0.011793958   -0.018334016
      2        6           0.024428686   -0.008953103    0.009797253
      3        1          -0.000053202   -0.000120122    0.000270762
      4        6           0.001348421    0.005253776   -0.001641165
      5        1           0.001107186   -0.000860160    0.000789820
      6        6           0.000221653    0.000737563   -0.000205375
      7        6          -0.003991320   -0.005554479    0.000339924
      8        1           0.001450312    0.000372170    0.000285669
      9        6           0.021454034   -0.001509685    0.007671044
     10        6          -0.000293370   -0.000012661    0.000064159
     11        1           0.000069228    0.000143139   -0.000109337
     12        6           0.003269002    0.001244252    0.005052797
     13        9          -0.000343829   -0.000667253   -0.000536910
     14        9          -0.001718479   -0.000911109   -0.002868983
     15        9           0.000067193   -0.000956285   -0.000575643
 -------------------------------------------------------------------
 Cartesian Forces:  Max     0.047015513 RMS     0.009564584
 FormGI is forming the generalized inverse of G from B-inverse, IUseBI=4.

 GradGradGradGradGradGradGradGradGradGradGradGradGradGradGradGradGradGrad
 Berny optimization.
 Internal  Forces:  Max     0.029594866 RMS     0.005951240
 Search for a local minimum.
 Step number   1 out of a maximum of   76
 All quantities printed in internal units (Hartrees-Bohrs-Radians)
 Mixed Optimization -- RFO/linear search
 Second derivative matrix not updated -- analytic derivatives used.
 ITU=  0
     Eigenvalues ---    0.00102   0.00548   0.01276   0.01692   0.01961
     Eigenvalues ---    0.02118   0.02315   0.02739   0.02855   0.03246
     Eigenvalues ---    0.10919   0.11322   0.12017   0.12333   0.12959
     Eigenvalues ---    0.16094   0.18395   0.18691   0.19047   0.19567
     Eigenvalues ---    0.20548   0.23975   0.25258   0.26081   0.26479
     Eigenvalues ---    0.32480   0.34568   0.36131   0.36404   0.36619
     Eigenvalues ---    0.36726   0.37588   0.39142   0.41220   0.43431
     Eigenvalues ---    0.43831   0.46686   0.51422   0.55461
 RFO step:  Lambda=-9.60735220D-03 EMin= 1.02143800D-03
 Linear search not attempted -- first point.
 Iteration  1 RMS(Cart)=  0.03501607 RMS(Int)=  0.00125790
 Iteration  2 RMS(Cart)=  0.00235529 RMS(Int)=  0.00039729
 Iteration  3 RMS(Cart)=  0.00000110 RMS(Int)=  0.00039729
 Iteration  4 RMS(Cart)=  0.00000000 RMS(Int)=  0.00039729
 Variable       Old X    -DE/DX   Delta X   Delta X   Delta X     New X
                                 (Linear)    (Quad)   (Total)
    R1        2.64883  -0.02074   0.00000  -0.05684  -0.05619   2.59263
    R2        2.65540  -0.01710   0.00000  -0.05082  -0.05017   2.60524
    R3        2.05032   0.00021   0.00000  -0.00288  -0.00288   2.04744
    R4        2.61725   0.00018   0.00000   0.00883   0.00881   2.62606
    R5        2.05057  -0.00028   0.00000   0.00028   0.00028   2.05085
    R6        2.67084   0.00416   0.00000   0.00849   0.00787   2.67871
    R7        2.66847   0.00268   0.00000   0.00542   0.00480   2.67327
    R8        2.70919   0.00025   0.00000  -0.00270  -0.00270   2.70649
    R9        2.04923   0.00002   0.00000   0.00112   0.00112   2.05036
   R10        2.61308   0.00000   0.00000   0.00536   0.00537   2.61845
   R11        2.84218   0.00009   0.00000  -0.00691  -0.00691   2.83527
   R12        2.08546  -0.00016   0.00000  -0.00070  -0.00070   2.08476
   R13        2.53105  -0.00051   0.00000  -0.00269  -0.00269   2.52836
   R14        2.54514  -0.00324   0.00000  -0.01314  -0.01314   2.53200
   R15        2.53667   0.00063   0.00000   0.00317   0.00317   2.53985
    A1        2.06672   0.02959   0.00000   0.13117   0.13286   2.19958
    A2        2.08796   0.00766   0.00000   0.04168   0.04139   2.12935
    A3        2.10756  -0.01529   0.00000  -0.08125  -0.08072   2.02684
    A4        2.08761   0.00763   0.00000   0.03967   0.03938   2.12699
    A5        2.09885  -0.00160   0.00000  -0.00623  -0.00587   2.09298
    A6        2.11070  -0.00006   0.00000   0.00751   0.00679   2.11748
    A7        2.07363   0.00166   0.00000  -0.00128  -0.00092   2.07272
    A8        2.06205   0.00148   0.00000   0.01550   0.01413   2.07618
    A9        2.15773  -0.00063   0.00000  -0.00769  -0.00701   2.15072
   A10        2.06339  -0.00084   0.00000  -0.00780  -0.00712   2.05628
   A11        2.06593   0.00231   0.00000   0.00640   0.00676   2.07269
   A12        2.10132  -0.00150   0.00000  -0.00293  -0.00363   2.09768
   A13        2.11593  -0.00081   0.00000  -0.00348  -0.00313   2.11281
   A14        2.11790  -0.01422   0.00000  -0.06989  -0.06933   2.04857
   A15        2.08813   0.00366   0.00000   0.02114   0.02084   2.10897
   A16        2.07708   0.01055   0.00000   0.04862   0.04832   2.12540
   A17        1.86925   0.00015   0.00000   0.00175   0.00175   1.87100
   A18        1.96000  -0.00011   0.00000  -0.00647  -0.00650   1.95350
   A19        1.94834  -0.00068   0.00000   0.00160   0.00160   1.94994
   A20        1.96166  -0.00155   0.00000  -0.00898  -0.00901   1.95265
   A21        1.86493   0.00142   0.00000   0.01137   0.01138   1.87631
   A22        1.86164   0.00079   0.00000   0.00244   0.00239   1.86403
   A23        1.86073   0.00035   0.00000   0.00136   0.00135   1.86208
    D1       -3.13650   0.00017   0.00000   0.00185   0.00162  -3.13488
    D2        0.01652  -0.00024   0.00000  -0.00838  -0.00849   0.00803
    D3       -0.00961   0.00007   0.00000   0.00353   0.00380  -0.00581
    D4       -3.13736   0.00031   0.00000   0.01365   0.01356  -3.12380
    D5        3.13237   0.00033   0.00000   0.00743   0.00720   3.13957
    D6       -0.01093   0.00034   0.00000   0.00676   0.00649  -0.00445
    D7        0.00220  -0.00008   0.00000  -0.00282  -0.00291  -0.00071
    D8       -3.14110  -0.00007   0.00000  -0.00348  -0.00362   3.13846
    D9       -0.00184   0.00008   0.00000   0.00128   0.00112  -0.00073
   D10       -3.13844  -0.00001   0.00000  -0.00012  -0.00017  -3.13861
   D11        3.13807   0.00009   0.00000   0.00062   0.00040   3.13847
   D12        0.00147   0.00000   0.00000  -0.00078  -0.00088   0.00059
   D13       -3.13034  -0.00020   0.00000  -0.00440  -0.00428  -3.13462
   D14        0.00874  -0.00019   0.00000  -0.00566  -0.00564   0.00310
   D15        0.00653  -0.00011   0.00000  -0.00307  -0.00307   0.00346
   D16       -3.13758  -0.00011   0.00000  -0.00434  -0.00443   3.14118
   D17       -0.01435  -0.00001   0.00000   0.00400   0.00394  -0.01042
   D18        3.13224  -0.00011   0.00000   0.00254   0.00261   3.13484
   D19       -0.00300   0.00000   0.00000   0.00283   0.00289  -0.00011
   D20        3.12484  -0.00029   0.00000  -0.00744  -0.00720   3.11764
   D21        3.13601   0.00001   0.00000   0.00155   0.00151   3.13752
   D22       -0.01935  -0.00028   0.00000  -0.00872  -0.00857  -0.02792
   D23       -2.69313  -0.00063   0.00000  -0.01642  -0.01655  -2.70967
   D24       -0.59905   0.00065   0.00000  -0.00517  -0.00533  -0.60438
   D25        1.49078  -0.00046   0.00000  -0.00852  -0.00869   1.48209
   D26        0.46199  -0.00021   0.00000  -0.00559  -0.00541   0.45658
   D27        2.55607   0.00107   0.00000   0.00566   0.00581   2.56187
   D28       -1.63729  -0.00003   0.00000   0.00231   0.00244  -1.63484
         Item               Value     Threshold  Converged?
 Maximum Force            0.029595     0.000450     NO 
 RMS     Force            0.005951     0.000300     NO 
 Maximum Displacement     0.159459     0.001800     NO 
 RMS     Displacement     0.035404     0.001200     NO 
 Predicted change in Energy=-5.009794D-03
 GradGradGradGradGradGradGradGradGradGradGradGradGradGradGradGradGradGrad

                          Input orientation:                          
 ---------------------------------------------------------------------
 Center     Atomic      Atomic             Coordinates (Angstroms)
 Number     Number       Type             X           Y           Z
 ---------------------------------------------------------------------
      1          6           0        6.182860    7.045534    5.093706
      2          6           0        5.193506    6.097370    5.160394
      3          1           0        5.362045    5.121601    5.600111
      4          6           0        3.961523    6.459978    4.629485
      5          1           0        3.135705    5.756079    4.648195
      6          6           0        3.752727    7.741278    4.060267
      7          6           0        4.825211    8.663466    4.037135
      8          1           0        4.659941    9.645584    3.606602
      9          6           0        6.058534    8.311102    4.561256
     10          6           0        2.500179    8.158840    3.505286
     11          1           0        1.799780    7.312629    3.607442
     12          6           0        7.228487    9.249821    4.528089
     13          9           0        6.841074   10.529953    4.492209
     14          9           0        8.017199    9.097353    5.600450
     15          9           0        8.002321    9.047695    3.447932
 ---------------------------------------------------------------------
                    Distance matrix (angstroms):
                    1          2          3          4          5
     1  C    0.000000
     2  C    1.371963   0.000000
     3  H    2.152139   1.083459   0.000000
     4  C    2.343654   1.389652   2.166755   0.000000
     5  H    3.338612   2.147877   2.503057   1.085265   0.000000
     6  C    2.730861   2.447153   3.438566   1.417511   2.160415
     7  C    2.361622   2.825279   3.908439   2.439712   3.417707
     8  H    3.360211   3.910087   4.993341   3.417919   4.305400
     9  C    1.378631   2.451091   3.425965   2.797995   3.883122
    10  C    4.162291   3.773997   4.669410   2.507086   2.735579
    11  H    4.635914   3.925034   4.632608   2.538645   2.300154
    12  C    2.504424   3.805115   4.655646   4.297274   5.382521
    13  F    3.596695   4.775849   5.715351   4.987520   6.045160
    14  F    2.798491   4.143282   4.780842   4.934271   5.991652
    15  F    3.166648   4.418866   5.197802   4.941700   5.996609
                    6          7          8          9         10
     6  C    0.000000
     7  C    1.414632   0.000000
     8  H    2.157598   1.085002   0.000000
     9  C    2.427434   1.385622   2.155984   0.000000
    10  C    1.432214   2.437885   2.623975   3.714855   0.000000
    11  H    2.050071   3.341051   3.690962   4.477018   1.103208
    12  C    3.817783   2.522020   2.757389   1.500361   4.959159
    13  F    4.183439   2.784703   2.514706   2.353812   5.043764
    14  F    4.732528   3.580643   3.942990   2.352548   5.975619
    15  F    4.487842   3.254047   3.399140   2.358043   5.573770
                   11         12         13         14         15
    11  H    0.000000
    12  C    5.837050   0.000000
    13  F    6.045546   1.337951   0.000000
    14  F    6.768575   1.339877   2.159586   0.000000
    15  F    6.442624   1.344029   2.153160   2.153142   0.000000
 Symmetry turned off by external request.
 Stoichiometry    C8H4F3(2)
 Framework group  C1[X(C8H4F3)]
 Deg. of freedom    39
 Full point group                 C1      NOp   1
 Rotational constants (GHZ):           2.2666463           0.7677977           0.6370926
 Standard basis: 6-311+G(d,p) (5D, 7F)
   266 basis functions,   428 primitive gaussians,   277 cartesian basis functions
    40 alpha electrons       39 beta electrons
       nuclear repulsion energy       578.5704517163 Hartrees.
 NAtoms=   15 NActive=   15 NUniq=   15 SFac= 1.00D+00 NAtFMM=   60 NAOKFM=F Big=F
 Integral buffers will be    131072 words long.
 Raffenetti 2 integral format.
 Two-electron integral symmetry is turned off.
 ------------------------------------------------------------------------------
 Polarizable Continuum Model (PCM)
 =================================
 Model                : PCM.
 Atomic radii         : SMD-Coulomb.
 Polarization charges : Total charges.
 Charge compensation  : None.
 Solution method      : Matrix inversion.
 Cavity type          : VdW (van der Waals Surface) (Alpha=1.000).
 Cavity algorithm     : GePol (No added spheres)
                        Default sphere list used, NSphG=   15.
                        Lebedev-Laikov grids with approx.  5.0 points / Ang**2.
                        Smoothing algorithm: York/Karplus (Gamma=1.0000).
                        Polarization charges: spherical gaussians, with
                                              point-specific exponents (IZeta= 3).
                        Self-potential: point-specific (ISelfS= 7).
                        Self-field    : sphere-specific E.n sum rule (ISelfD= 2).
 1st derivatives      : Analytical E(r).r(x)/FMM algorithm (CHGder, D1EAlg=3).
                        Cavity 1st derivative terms included.
 Solvent              : TetraHydroFuran, Eps=   7.425700 Eps(inf)=   1.974025
 ------------------------------------------------------------------------------
 Spheres list:
 ISph  on   Nord     Re0    Alpha      Xe            Ye            Ze
    1   C      1    1.8500  1.000      6.182860      7.045534      5.093706
    2   C      2    1.8500  1.000      5.193506      6.097370      5.160394
    3   H      3    1.2000  1.000      5.362045      5.121601      5.600111
    4   C      4    1.8500  1.000      3.961523      6.459978      4.629485
    5   H      5    1.2000  1.000      3.135705      5.756079      4.648195
    6   C      6    1.8500  1.000      3.752727      7.741278      4.060267
    7   C      7    1.8500  1.000      4.825211      8.663466      4.037135
    8   H      8    1.2000  1.000      4.659941      9.645584      3.606602
    9   C      9    1.8500  1.000      6.058534      8.311102      4.561256
   10   C     10    1.8500  1.000      2.500179      8.158840      3.505286
   11   H     11    1.2000  1.000      1.799780      7.312629      3.607442
   12   C     12    1.8500  1.000      7.228487      9.249821      4.528089
   13   F     13    1.7300  1.000      6.841074     10.529953      4.492209
   14   F     14    1.7300  1.000      8.017199      9.097353      5.600450
   15   F     15    1.7300  1.000      8.002321      9.047695      3.447932
 ------------------------------------------------------------------------------
 ------------------------------------------------------------------------------
 Atomic radii for non-electrostatic terms: SMD-CDS.
 ------------------------------------------------------------------------------
 Nuclear repulsion after PCM non-electrostatic terms =      578.5713963728 Hartrees.
 One-electron integrals computed using PRISM.
 NBasis=   266 RedAO= T EigKep=  1.74D-06  NBF=   266
 NBsUse=   266 1.00D-06 EigRej= -1.00D+00 NBFU=   266
 Initial guess from the checkpoint file:  "2-cf3-ph-opt-freq-2-thf-512.chk"
 B after Tr=    -0.062634    0.053378   -0.016477
         Rot=    0.999995    0.000287    0.001224    0.002750 Ang=   0.35 deg.
 Initial guess <Sx>= 0.0000 <Sy>= 0.0000 <Sz>= 0.5000 <S**2>= 0.7724 S= 0.5111
 ExpMin= 4.38D-02 ExpMax= 1.14D+04 ExpMxC= 1.72D+03 IAcc=3 IRadAn=         5 AccDes= 0.00D+00
 Harris functional with IExCor= 1009 and IRadAn=       5 diagonalized for initial guess.
 HarFok:  IExCor= 1009 AccDes= 0.00D+00 IRadAn=         5 IDoV= 1 UseB2=F ITyADJ=14
 ICtDFT=  3500011 ScaDFX=  1.000000  1.000000  1.000000  1.000000
 FoFCou: FMM=F IPFlag=           0 FMFlag=      100000 FMFlg1=           0
         NFxFlg=           0 DoJE=T BraDBF=F KetDBF=T FulRan=T
         wScrn=  0.000000 ICntrl=       500 IOpCl=  0 I1Cent=   200000004 NGrid=           0
         NMat0=    1 NMatS0=      1 NMatT0=    0 NMatD0=    1 NMtDS0=    0 NMtDT0=    0
 Symmetry not used in FoFCou.
 Requested convergence on RMS density matrix=1.00D-08 within 512 cycles.
 Requested convergence on MAX density matrix=1.00D-06.
 Requested convergence on             energy=1.00D-06.
 Level shift goal  0.100 maximum shift  0.100.
 No special actions if energy rises.
 Dynamic level shift is on during FON iterations.
 Inv3:  Mode=1 IEnd=     5565132.
 Iteration    1 A*A^-1 deviation from unit magnitude is 3.89D-15 for   1349.
 Iteration    1 A*A^-1 deviation from orthogonality  is 3.03D-15 for   1358   1224.
 Iteration    1 A^-1*A deviation from unit magnitude is 3.89D-15 for   1349.
 Iteration    1 A^-1*A deviation from orthogonality  is 1.79D-15 for   1361   1314.
 Restarting incremental Fock formation.
 Error on total polarization charges =  0.03426
 SCF Done:  E(UM062X) =  -606.536769225     A.U. after   22 cycles
            NFock= 22  Conv=0.52D-08     -V/T= 2.0031
 <Sx>= 0.0000 <Sy>= 0.0000 <Sz>= 0.5000 <S**2>= 0.7687 S= 0.5093
 <L.S>=  0.00000000000    
 SMD-CDS (non-electrostatic) energy       (kcal/mol) =       0.59
 (included in total energy above)
 Annihilation of the first spin contaminant:
 S**2 before annihilation     0.7687,   after     0.7501
 D1PCM: PCM CHGder 1st derivatives, ID1Alg=3 FixD1E=F DoIter=F DoCFld=F I1PDM=0.
 Calling FoFJK, ICntrl=      2127 FMM=F ISym2X=0 I1Cent= 0 IOpClX= 1 NMat=1 NMatS=1 NMatT=0.
 -------------------------------------------------------------------
 Center     Atomic                   Forces (Hartrees/Bohr)
 Number     Number              X              Y              Z
 -------------------------------------------------------------------
      1        6          -0.001158727    0.000765180   -0.000611890
      2        6           0.000658415   -0.002427590    0.000902809
      3        1          -0.000114971   -0.000141682    0.000039907
      4        6          -0.000612953   -0.000046137   -0.000197350
      5        1          -0.000045295   -0.000051303    0.000020794
      6        6          -0.000326766    0.000134559   -0.000156591
      7        6          -0.000494852    0.000143857   -0.000371878
      8        1           0.000027974   -0.000007922    0.000015725
      9        6           0.001622432    0.001605094    0.000320870
     10        6           0.000023499   -0.000043660    0.000070131
     11        1           0.000000802    0.000006347   -0.000019940
     12        6           0.000285454    0.000134004    0.000137524
     13        9           0.000052013    0.000126730   -0.000084598
     14        9          -0.000009273   -0.000059771   -0.000030718
     15        9           0.000092247   -0.000137705   -0.000034796
 -------------------------------------------------------------------
 Cartesian Forces:  Max     0.002427590 RMS     0.000595398

 GradGradGradGradGradGradGradGradGradGradGradGradGradGradGradGradGradGrad
 Berny optimization.
 Using GEDIIS/GDIIS optimizer.
 FormGI is forming the generalized inverse of G from B-inverse, IUseBI=4.
 Internal  Forces:  Max     0.001793239 RMS     0.000456063
 Search for a local minimum.
 Step number   2 out of a maximum of   76
 All quantities printed in internal units (Hartrees-Bohrs-Radians)
 Mixed Optimization -- En-DIIS/RFO-DIIS
 Update second derivatives using D2CorX and points    1    2
 DE= -5.02D-03 DEPred=-5.01D-03 R= 1.00D+00
 TightC=F SS=  1.41D+00  RLast= 2.07D-01 DXNew= 5.0454D-01 6.2151D-01
 Trust test= 1.00D+00 RLast= 2.07D-01 DXMaxT set to 5.05D-01
 ITU=  1  0
 Use linear search instead of GDIIS.
     Eigenvalues ---    0.00102   0.00548   0.01276   0.01690   0.01961
     Eigenvalues ---    0.02114   0.02315   0.02737   0.02854   0.03244
     Eigenvalues ---    0.10918   0.11321   0.12013   0.12333   0.12963
     Eigenvalues ---    0.16067   0.18426   0.18570   0.18947   0.19561
     Eigenvalues ---    0.20217   0.23965   0.25233   0.26089   0.26451
     Eigenvalues ---    0.32478   0.34576   0.36136   0.36408   0.36628
     Eigenvalues ---    0.36728   0.37597   0.39286   0.41769   0.43425
     Eigenvalues ---    0.43823   0.46738   0.51742   0.55465
 RFO step:  Lambda=-6.07443372D-05 EMin= 1.02130232D-03
 Quartic linear search produced a step of  0.05019.
 Iteration  1 RMS(Cart)=  0.02992509 RMS(Int)=  0.00070443
 Iteration  2 RMS(Cart)=  0.00074382 RMS(Int)=  0.00002280
 Iteration  3 RMS(Cart)=  0.00000037 RMS(Int)=  0.00002280
 Variable       Old X    -DE/DX   Delta X   Delta X   Delta X     New X
                                 (Linear)    (Quad)   (Total)
    R1        2.59263   0.00119  -0.00282   0.00442   0.00163   2.59426
    R2        2.60524   0.00082  -0.00252   0.00461   0.00213   2.60737
    R3        2.04744   0.00013  -0.00014   0.00007  -0.00007   2.04737
    R4        2.62606   0.00076   0.00044   0.00180   0.00224   2.62831
    R5        2.05085   0.00007   0.00001   0.00024   0.00026   2.05111
    R6        2.67871   0.00086   0.00039   0.00098   0.00134   2.68005
    R7        2.67327   0.00090   0.00024   0.00198   0.00218   2.67545
    R8        2.70649  -0.00005  -0.00014  -0.00060  -0.00073   2.70576
    R9        2.05036  -0.00002   0.00006  -0.00024  -0.00019   2.05017
   R10        2.61845   0.00079   0.00027   0.00091   0.00118   2.61963
   R11        2.83527   0.00037  -0.00035   0.00083   0.00049   2.83576
   R12        2.08476   0.00000  -0.00004  -0.00004  -0.00007   2.08469
   R13        2.52836   0.00011  -0.00014  -0.00103  -0.00117   2.52719
   R14        2.53200  -0.00003  -0.00066   0.00100   0.00034   2.53234
   R15        2.53985   0.00011   0.00016   0.00017   0.00033   2.54017
    A1        2.19958   0.00179   0.00667   0.00290   0.00966   2.20924
    A2        2.12935   0.00073   0.00208   0.00180   0.00386   2.13321
    A3        2.02684  -0.00119  -0.00405  -0.00267  -0.00669   2.02015
    A4        2.12699   0.00046   0.00198   0.00088   0.00284   2.12983
    A5        2.09298  -0.00001  -0.00029   0.00044   0.00017   2.09315
    A6        2.11748  -0.00002   0.00034   0.00021   0.00051   2.11800
    A7        2.07272   0.00003  -0.00005  -0.00065  -0.00068   2.07204
    A8        2.07618   0.00058   0.00071   0.00193   0.00257   2.07875
    A9        2.15072  -0.00034  -0.00035  -0.00125  -0.00156   2.14915
   A10        2.05628  -0.00024  -0.00036  -0.00068  -0.00100   2.05528
   A11        2.07269   0.00001   0.00034  -0.00120  -0.00085   2.07184
   A12        2.09768   0.00004  -0.00018   0.00025   0.00003   2.09771
   A13        2.11281  -0.00005  -0.00016   0.00095   0.00082   2.11362
   A14        2.04857  -0.00121  -0.00348  -0.00261  -0.00606   2.04251
   A15        2.10897   0.00017   0.00105  -0.00371  -0.00268   2.10629
   A16        2.12540   0.00104   0.00243   0.00621   0.00862   2.13401
   A17        1.87100   0.00002   0.00009   0.00011   0.00020   1.87120
   A18        1.95350   0.00023  -0.00033   0.00176   0.00143   1.95493
   A19        1.94994  -0.00008   0.00008  -0.00079  -0.00071   1.94923
   A20        1.95265  -0.00016  -0.00045  -0.00088  -0.00133   1.95131
   A21        1.87631   0.00002   0.00057  -0.00034   0.00023   1.87654
   A22        1.86403   0.00000   0.00012   0.00149   0.00161   1.86564
   A23        1.86208  -0.00002   0.00007  -0.00126  -0.00120   1.86089
    D1       -3.13488  -0.00001   0.00008  -0.00073  -0.00067  -3.13555
    D2        0.00803  -0.00008  -0.00043  -0.00259  -0.00303   0.00499
    D3       -0.00581   0.00004   0.00019   0.00089   0.00111  -0.00470
    D4       -3.12380   0.00015   0.00068   0.00564   0.00629  -3.11751
    D5        3.13957   0.00006   0.00036   0.00180   0.00215  -3.14146
    D6       -0.00445   0.00005   0.00033   0.00167   0.00198  -0.00247
    D7       -0.00071  -0.00001  -0.00015  -0.00006  -0.00021  -0.00092
    D8        3.13846  -0.00002  -0.00018  -0.00019  -0.00039   3.13808
    D9       -0.00073   0.00002   0.00006   0.00077   0.00081   0.00008
   D10       -3.13861   0.00001  -0.00001   0.00048   0.00047  -3.13814
   D11        3.13847   0.00001   0.00002   0.00064   0.00064   3.13911
   D12        0.00059   0.00000  -0.00004   0.00035   0.00030   0.00089
   D13       -3.13462  -0.00005  -0.00021  -0.00233  -0.00254  -3.13716
   D14        0.00310  -0.00007  -0.00028  -0.00253  -0.00282   0.00028
   D15        0.00346  -0.00004  -0.00015  -0.00206  -0.00222   0.00125
   D16        3.14118  -0.00006  -0.00022  -0.00227  -0.00250   3.13868
   D17       -0.01042   0.00000   0.00020   0.00065   0.00084  -0.00958
   D18        3.13484  -0.00001   0.00013   0.00036   0.00050   3.13534
   D19       -0.00011   0.00004   0.00014   0.00175   0.00190   0.00179
   D20        3.11764  -0.00009  -0.00036  -0.00318  -0.00354   3.11410
   D21        3.13752   0.00002   0.00008   0.00153   0.00161   3.13913
   D22       -0.02792  -0.00011  -0.00043  -0.00340  -0.00383  -0.03175
   D23       -2.70967  -0.00016  -0.00083  -0.06428  -0.06512  -2.77479
   D24       -0.60438  -0.00002  -0.00027  -0.06405  -0.06433  -0.66871
   D25        1.48209  -0.00021  -0.00044  -0.06680  -0.06725   1.41484
   D26        0.45658  -0.00001  -0.00027  -0.05919  -0.05945   0.39713
   D27        2.56187   0.00013   0.00029  -0.05896  -0.05866   2.50322
   D28       -1.63484  -0.00006   0.00012  -0.06172  -0.06158  -1.69642
         Item               Value     Threshold  Converged?
 Maximum Force            0.001793     0.000450     NO 
 RMS     Force            0.000456     0.000300     NO 
 Maximum Displacement     0.123582     0.001800     NO 
 RMS     Displacement     0.029939     0.001200     NO 
 Predicted change in Energy=-4.230705D-05
 GradGradGradGradGradGradGradGradGradGradGradGradGradGradGradGradGradGrad

                          Input orientation:                          
 ---------------------------------------------------------------------
 Center     Atomic      Atomic             Coordinates (Angstroms)
 Number     Number       Type             X           Y           Z
 ---------------------------------------------------------------------
      1          6           0        6.180877    7.046806    5.080295
      2          6           0        5.198626    6.089927    5.145233
      3          1           0        5.373128    5.111186    5.575828
      4          6           0        3.962491    6.456670    4.623788
      5          1           0        3.137132    5.751969    4.640347
      6          6           0        3.748801    7.743501    4.067238
      7          6           0        4.818929    8.670190    4.044226
      8          1           0        4.647189    9.654171    3.620784
      9          6           0        6.056728    8.318628    4.559916
     10          6           0        2.491998    8.162511    3.524097
     11          1           0        1.794032    7.314085    3.624080
     12          6           0        7.232029    9.251110    4.528294
     13          9           0        6.854496   10.530027    4.426812
     14          9           0        7.983104    9.138651    5.632374
     15          9           0        8.041532    8.998849    3.485245
 ---------------------------------------------------------------------
                    Distance matrix (angstroms):
                    1          2          3          4          5
     1  C    0.000000
     2  C    1.372826   0.000000
     3  H    2.155142   1.083419   0.000000
     4  C    2.340490   1.390839   2.169470   0.000000
     5  H    3.336845   2.149158   2.507071   1.085401   0.000000
     6  C    2.725190   2.449158   3.441419   1.418219   2.160738
     7  C    2.358753   2.830927   3.914007   2.443164   3.420499
     8  H    3.358678   3.915592   4.998789   3.420357   4.306618
     9  C    1.379760   2.458870   3.433230   2.802997   3.888218
    10  C    4.156246   3.774854   4.671305   2.506305   2.733665
    11  H    4.629947   3.924758   4.633790   2.537083   2.297155
    12  C    2.503714   3.808992   4.657447   4.302080   5.387460
    13  F    3.607441   4.792966   5.733980   4.999473   6.057576
    14  F    2.815782   4.157564   4.799546   4.937164   5.994762
    15  F    3.133160   4.393120   5.157988   4.939385   5.994132
                    6          7          8          9         10
     6  C    0.000000
     7  C    1.415789   0.000000
     8  H    2.158028   1.084903   0.000000
     9  C    2.428998   1.386246   2.156952   0.000000
    10  C    1.431826   2.437802   2.622832   3.715453   0.000000
    11  H    2.049855   3.341488   3.690057   4.478333   1.103168
    12  C    3.823394   2.528803   2.769013   1.500619   4.966020
    13  F    4.188003   2.783684   2.507790   2.354663   5.044940
    14  F    4.724978   3.571229   3.929451   2.352345   5.962376
    15  F    4.510228   3.287194   3.459679   2.357343   5.612334
                   11         12         13         14         15
    11  H    0.000000
    12  C    5.843071   0.000000
    13  F    6.049377   1.337332   0.000000
    14  F    6.757729   1.340057   2.159413   0.000000
    15  F    6.472168   1.344203   2.154091   2.152468   0.000000
 Symmetry turned off by external request.
 Stoichiometry    C8H4F3(2)
 Framework group  C1[X(C8H4F3)]
 Deg. of freedom    39
 Full point group                 C1      NOp   1
 Rotational constants (GHZ):           2.2685061           0.7659181           0.6359521
 Standard basis: 6-311+G(d,p) (5D, 7F)
   266 basis functions,   428 primitive gaussians,   277 cartesian basis functions
    40 alpha electrons       39 beta electrons
       nuclear repulsion energy       578.2833585357 Hartrees.
 NAtoms=   15 NActive=   15 NUniq=   15 SFac= 1.00D+00 NAtFMM=   60 NAOKFM=F Big=F
 Integral buffers will be    131072 words long.
 Raffenetti 2 integral format.
 Two-electron integral symmetry is turned off.
 ------------------------------------------------------------------------------
[...]
 ! D24   D(1,9,12,14)          -46.564          -DE/DX =    0.0                 !
 ! D25   D(1,9,12,15)           72.5894         -DE/DX =    0.0                 !
 ! D26   D(7,9,12,13)           14.1168         -DE/DX =    0.0                 !
 ! D27   D(7,9,12,14)          134.7749         -DE/DX =    0.0                 !
 ! D28   D(7,9,12,15)         -106.0718         -DE/DX =    0.0                 !
 --------------------------------------------------------------------------------
 GradGradGradGradGradGradGradGradGradGradGradGradGradGradGradGradGradGrad


 ----------------------------------------------------------------------

 Electric dipole moment (input orientation):
 (Debye = 10**-18 statcoulomb cm , SI units = C m)
                  (au)            (Debye)         (10**-30 SI)
   Tot        0.209713D+01      0.533037D+01      0.177802D+02
   x         -0.802354D-01     -0.203938D+00     -0.680264D+00
   y         -0.197777D+01     -0.502700D+01     -0.167683D+02
   z          0.692764D+00      0.176083D+01      0.587350D+01

 Dipole polarizability, Alpha (input orientation).
 (esu units = cm**3 , SI units = C**2 m**2 J**-1)
 Alpha(0;0):
               (au)            (10**-24 esu)      (10**-40 SI)
   iso        0.125984D+03      0.186689D+02      0.207720D+02
   aniso      0.859237D+02      0.127326D+02      0.141669D+02
   xx         0.162494D+03      0.240791D+02      0.267916D+02
   yx        -0.121756D+01     -0.180424D+00     -0.200748D+00
   yy         0.127934D+03      0.189579D+02      0.210935D+02
   zx         0.257178D+02      0.381098D+01      0.424029D+01
   zy        -0.197521D+02     -0.292696D+01     -0.325669D+01
   zz         0.875250D+02      0.129699D+02      0.144309D+02

 ----------------------------------------------------------------------

 Dipole orientation:
     6         11.69007692         13.06595742         -9.84091078
     6          9.89577252         12.62301682         -8.02252036
     1         10.32254707         12.70976604         -6.02201030
     6          7.48739663         12.05388361         -8.91093423
     1          5.96967474         11.67922578         -7.58308109
     6          6.95776702         11.95200968        -11.53552735
     6          8.92698268         12.44024697        -13.28152813
     1          8.50667309         12.36414596        -15.28643245
     6         11.33536952         13.00738477        -12.42420983
     6          4.50736495         11.37677563        -12.52754040
     1          3.24668309         11.04272967        -10.90124785
     6         13.51013129         13.48961318        -14.17879111
     9         12.74904889         13.87109769        -16.55661923
     9         14.84630100         15.52404720        -13.47191775
     9         15.13409942         11.53767547        -14.22113681

 Electric dipole moment (dipole orientation):
 (Debye = 10**-18 statcoulomb cm , SI units = C m)
                  (au)            (Debye)         (10**-30 SI)
   Tot        0.209713D+01      0.533037D+01      0.177802D+02
   x          0.000000D+00      0.000000D+00      0.000000D+00
   y          0.000000D+00      0.000000D+00      0.000000D+00
   z          0.209713D+01      0.533037D+01      0.177802D+02

 Dipole polarizability, Alpha (dipole orientation).
 (esu units = cm**3 , SI units = C**2 m**2 J**-1)
 Alpha(0;0):
               (au)            (10**-24 esu)      (10**-40 SI)
   iso        0.125984D+03      0.186689D+02      0.207720D+02
   aniso      0.859237D+02      0.127326D+02      0.141669D+02
   xx         0.164431D+03      0.243662D+02      0.271110D+02
   yx         0.216571D+02      0.320926D+01      0.357078D+01
   yy         0.783773D+02      0.116143D+02      0.129227D+02
   zx         0.865251D+01      0.128217D+01      0.142661D+01
   zy         0.167795D+01      0.248646D+00      0.276656D+00
   zz         0.135144D+03      0.200263D+02      0.222823D+02

 ----------------------------------------------------------------------
 Unable to Open any file for archive entry.
 1\1\GINC-CN009\Freq\UM062X\6-311+G(d,p)\C8H4F3(2)\TAHMINAAFROZ\14-May-
 2025\0\\#N Geom=AllCheck Guess=TCheck SCRF=Check GenChk UM062X/6-311+G
 (d,p) Freq\\2-cf3-ph-opt-freq-2-thf-512\\0,2\C,6.1910252401,7.03506265
 47,5.0371038503\C,5.2121069984,6.0756424204,5.0975914838\H,5.395950211
 1,5.0863577344,5.4992302797\C,3.9652071593,6.4537602024,4.6094977771\H
 ,3.1414404772,5.7471539,4.6239124762\C,3.7398476259,7.7533232161,4.089
 1337076\C,4.8091073406,8.6820508512,4.0674473973\H,4.6286176134,9.6753
 033405,3.6704854383\C,6.0566711714,8.3191014877,4.5491097432\C,2.47291
 80077,8.1826763515,3.579034476\H,1.7783962601,7.330564641,3.6710905983
 \C,7.2348414875,9.2481072839,4.5270862152\F,6.8752036807,10.5126181165
 ,4.2863974311\F,7.897623147,9.2329775797,5.6930100239\F,8.1221355798,8
 .9035812201,3.5784291021\\Version=AS64L-G16RevC.01\HF=-606.5368461\S2=
 0.768826\S2-1=0.\S2A=0.750128\RMSD=1.556e-09\RMSF=1.169e-05\ZeroPoint=
 0.0950998\Thermal=0.1041375\ETot=-606.4327086\HTot=-606.4317644\GTot=-
 606.4777837\Dipole=-0.0802354,-1.9777746,0.6927643\DipoleDeriv=0.15522
 59,0.1619315,-0.0161567,0.3097233,0.5466513,-0.0900724,-0.0522184,-0.1
 307072,0.0629257,-0.9397565,-0.2763604,-0.1101712,-0.1802997,-0.091231
 ,-0.0917956,-0.1485315,-0.1133604,-0.2024325,0.1361947,0.0069533,-0.01
 97731,0.0178504,0.0785569,0.047537,-0.024353,0.0449983,0.1762433,0.595
 13,0.1171998,0.1236866,-0.6337446,0.145046,-0.2227484,0.3766129,-0.012
 6958,0.1275963,0.0573421,-0.0592103,-0.0159307,-0.023693,0.0916349,0.0
 266166,-0.0283216,0.0157445,0.1740428,-1.6126569,0.3798455,-0.6431105,
 0.6497053,-0.3232602,0.3574214,-0.7233699,0.2779702,-0.120627,0.656344
 7,-0.3704153,0.3212548,0.2316736,-0.0379653,0.0763925,0.1211767,-0.092
 4256,0.0614913,0.1372552,0.0126048,-0.0129521,-0.011478,0.1038262,0.01
 94717,-0.0046498,0.0249372,0.1553991,-0.4655422,0.2563324,-0.1865802,0
 .0174427,-0.5936547,0.1521868,-0.1520276,0.192838,-0.2770735,1.0536833
 ,-0.2779774,0.6231549,-0.2183657,0.0993358,-0.363688,0.5795664,-0.3741
 257,-0.5042457,0.0670136,-0.0758549,-0.0499347,-0.3569647,-0.1341176,0
 .0572841,0.0667994,0.1340856,0.3106677,2.5556583,0.2849892,0.0320808,0
 .391918,2.1693356,0.0809032,-0.0558254,0.0177544,2.0601207,-0.524468,0
 .0393065,-0.0268837,-0.0128808,-1.1561733,0.106937,0.0010178,0.1409961
 ,-0.3830529,-0.8345376,-0.1489651,-0.3871065,-0.1544841,-0.4322456,-0.
 0521804,-0.3940566,-0.0474638,-0.921366,-1.0368866,-0.0503797,0.368422
 3,-0.0264027,-0.4657392,-0.1042656,0.4381804,-0.078546,-0.7196895\Pola
 r=162.4936403,-1.2175589,127.9341198,25.7177955,-19.7521241,87.5249803
 \Quadrupole=8.4908311,-36.7880709,28.2972398,-16.4093824,2.7326626,-6.
 721432\PG=C01 [X(C8H4F3)]\NImag=0\\0.37211705,0.14050284,0.58837191,0.
 03484914,-0.14155662,0.13326807,-0.22143610,-0.11333743,-0.00816623,0.
 57919698,-0.15258203,-0.23088912,0.02087429,0.03739031,0.69223667,0.00
 499875,0.03202853,-0.05860130,0.11773200,-0.19154492,0.22017058,0.0058
 4100,-0.02009955,0.00941284,-0.05919990,0.04204996,-0.02149942,0.05960
 096,0.00061204,-0.01580610,0.00497664,0.04686203,-0.29535321,0.1050027
 8,-0.04455743,0.31058308,0.00199799,-0.00081839,-0.00134686,-0.0231712
 8,0.10360807,-0.07850807,0.02576523,-0.11386802,0.07119965,-0.06007907
 ,-0.06456024,0.00160958,-0.28398919,0.09246844,-0.09489011,0.00011055,
 -0.00123660,-0.00126537,0.67741200,-0.00667064,0.05255347,-0.01524469,
 0.01378933,-0.13846858,0.02970216,0.02745107,-0.00126935,0.01045501,0.
 09080374,0.61063137,-0.01846748,-0.03221579,0.01895951,-0.06708455,0.0
 5187790,-0.10320187,-0.01139954,0.00229899,0.00218243,0.11911189,-0.13
 740688,0.22811651,-0.00448407,-0.00021164,-0.00305963,-0.01393272,-0.0
 1742322,-0.00028805,0.00086915,0.00035969,0.00141166,-0.22196927,-0.14
 478457,0.00014799,0.23090778,0.00182378,0.00130549,0.00235201,0.009900
 93,0.00951061,0.00254910,-0.00031482,-0.00002840,-0.00168150,-0.143828
 43,-0.17828403,0.00664896,0.15293121,0.18374400,-0.00381934,0.00177684
 ,0.00487146,-0.00992976,-0.00526521,0.00771618,0.00165063,-0.00149409,
 -0.00353013,-0.00043887,0.00653796,-0.04510399,0.00431617,-0.01180354,
 0.03204897,-0.01484948,-0.01920534,0.00514146,-0.00078204,0.02216217,-
 0.01197651,-0.00324770,0.00027127,-0.00328151,-0.10525798,0.01514332,-
 0.01563469,0.00514655,-0.02084710,0.00822704,0.60502450,-0.01464298,-0
 .05055739,0.01002425,0.06283711,0.00979353,0.01917083,-0.00112762,0.00
 255628,0.00158029,-0.01314757,-0.26571268,0.06543666,0.00502573,-0.013
 16825,0.00679886,0.05063900,0.58947050,0.00370450,0.00878587,-0.011359
 51,-0.02630435,0.00818972,0.00410675,-0.00278770,0.00195178,0.00634650
 ,-0.00585182,0.07328571,-0.09654184,-0.00093608,-0.00053453,0.00213743
 ,0.11975170,-0.14966565,0.20639221,0.02256207,0.09518790,-0.03096862,-
 0.06594286,-0.01549809,-0.01260912,-0.00127961,-0.00057180,-0.00005069
 ,0.04400050,-0.04739434,0.02804407,0.00103810,0.00170931,-0.00189416,-
 0.18593255,-0.08318941,-0.00359390,0.62188371,0.03305022,-0.00859293,0
 .01775754,-0.01540400,0.00056622,-0.00540577,0.00004623,0.00023468,-0.
 00024841,-0.01725742,-0.04226375,0.01100207,0.00127374,-0.00328885,0.0
 0356499,-0.11179793,-0.20572901,0.01608768,0.01021310,0.67019697,-0.00
 905687,0.03591155,-0.00001449,-0.01297400,-0.00566133,-0.00434393,-0.0
 0026570,-0.00039075,-0.00033668,0.01780857,0.00228545,0.00767380,-0.00
 180914,0.00370026,0.00405617,0.00665180,0.02445367,-0.07609549,0.12975
 256,-0.17970778,0.24703145,-0.00419675,0.00157002,-0.00344076,-0.00015
 128,-0.00072838,0.00053361,0.00005068,0.00011739,0.00017202,-0.0033943
 7,-0.00314751,-0.00139610,0.00056546,-0.00120180,0.00040239,0.00688785
 ,-0.02037855,0.00807830,-0.06301102,0.04418179,-0.02134839,0.06304736,
 0.00015933,0.00076219,0.00195152,0.00036811,0.00032621,-0.00041177,0.0
 0011701,-0.00012068,-0.00016700,-0.00345369,0.00001977,0.00088091,0.00
 017932,-0.00048263,0.00042663,0.00492698,-0.01296922,0.00721745,0.0427
 0206,-0.29904115,0.10191465,-0.04419477,0.31146747,-0.00303847,0.00250
 017,0.00456151,0.00015846,-0.00074530,-0.00086305,0.00016506,-0.000174
 01,-0.00059286,-0.00126162,0.00098063,0.00469632,-0.00007129,0.0000445
 0,0.00057513,-0.00089106,0.00013652,0.00335311,-0.02049988,0.10203461,
 -0.08290406,0.02538387,-0.11166919,0.07260984,-0.10147545,-0.01046136,
 -0.01129168,0.05059235,-0.01797504,0.01951364,-0.00276458,-0.00216065,
 -0.00175644,-0.02537491,0.03145099,-0.01732200,0.00043602,0.00005764,0
 .00028433,-0.04728748,-0.02701934,-0.00687286,-0.29839087,0.08106137,-
 0.09368782,-0.00012293,-0.00172202,-0.00201514,0.64413947,0.02912631,-
 0.30228759,0.09812158,-0.05020366,-0.03988104,0.00116280,-0.00413276,-
 0.00031093,0.00097872,0.02907400,-0.03006334,0.01796175,0.00103984,-0.
 00008388,0.00005605,0.01572095,0.04048278,-0.00599467,0.00420083,-0.13
 343741,0.02548045,0.02333815,0.00001000,0.00926162,0.04807794,0.622932
 88,-0.02422042,0.08640702,-0.08788202,0.02990997,0.01093862,0.00964840
 ,-0.00100622,0.00171479,0.00529864,-0.01668278,0.01823720,-0.01423222,
 0.00002882,-0.00025142,-0.00085627,-0.02203732,-0.01893723,0.01036737,
 -0.06640577,0.04795077,-0.09966500,-0.01058688,0.00227935,0.00441917,0
 .11498495,-0.15424177,0.24633465,0.00278350,-0.00325900,0.00198291,0.0
 1128528,0.00739653,0.00178820,-0.00056083,-0.00004096,0.00005920,-0.02
 114765,0.02329788,-0.01752502,0.00123687,-0.00139443,0.00090365,-0.233
 96743,0.06780004,-0.08494803,-0.04668707,-0.00205542,-0.01175361,0.001
 14676,0.00230178,0.00065631,-0.00163540,-0.01004978,0.00127472,0.42142
 137,-0.00425958,-0.00831856,0.00148282,0.00656701,-0.00568190,0.002571
 19,0.00149678,-0.00027032,0.00026125,0.02641258,-0.00653691,0.01397076
 ,0.00137408,0.00113818,-0.00017656,0.02946360,-0.09756447,0.03572311,-
 0.00775843,0.01142148,-0.00733959,-0.00028679,0.00065772,-0.00179307,-
 0.01029761,0.00535614,-0.00204530,0.06899948,0.30348011,0.00213448,0.0
 0186318,-0.00038339,0.00219008,0.00234844,-0.00481058,-0.00047047,-0.0
 0014290,-0.00071528,-0.01829013,0.01297105,0.00199143,-0.00010347,-0.0
 0081773,0.00015058,-0.07205597,0.04693511,-0.05356466,-0.00952358,-0.0
 0592518,-0.00415511,0.00153439,-0.00097866,-0.00325192,0.00086404,-0.0
 0193847,0.00890624,0.09164565,-0.07736253,0.07078964,0.00007728,-0.000
 11077,0.00006371,0.00077851,-0.00053392,-0.00104107,0.00007207,-0.0000
 2952,0.00003776,0.00126857,-0.00185041,0.00265081,0.00032545,0.0011590
 9,-0.00004785,-0.02544909,-0.02862589,0.00308162,-0.00469353,0.0023070
 5,-0.00436824,0.00010019,-0.00004829,-0.00030845,-0.00152228,-0.001144
 52,0.00114172,-0.13248617,-0.11092658,0.00217863,0.16193571,0.00002433
 ,0.00004408,-0.00001454,-0.00057736,0.00099354,0.00122372,-0.00012998,
 0.00001505,-0.00005138,0.00322914,-0.00049361,-0.00079215,0.00023669,-
 0.00025939,-0.00012797,0.01113578,0.00221332,0.00175890,-0.00062286,0.
 00155701,0.00197140,0.00020332,0.00064496,0.00024051,-0.00001016,0.000
 00163,-0.00136086,-0.15310178,-0.20448512,0.02303079,0.13951058,0.1997
 5863,0.00020895,-0.00000118,0.00000466,-0.00107039,0.00140691,0.004375
 44,0.00006451,-0.00003346,-0.00002363,0.00087835,-0.00229469,-0.004157
 72,0.00012675,0.00014488,-0.00121873,-0.01030053,-0.00965004,-0.001971
 54,-0.00344436,0.00286365,0.00561934,-0.00035752,0.00018388,0.00105269
 ,0.00076183,-0.00182814,-0.00301859,0.01654844,0.03505521,-0.01541015,
 -0.00337059,-0.02563074,0.01548804,0.00938848,-0.01170633,0.00751758,0
 .00669208,0.00621382,-0.00204547,0.00113980,0.00080943,0.00007487,-0.0
 0060807,0.00388855,-0.00145747,-0.00010058,0.00008710,0.00019231,0.003
 71369,0.00137360,-0.00190322,-0.02367971,-0.01502581,-0.00124093,-0.00
 043556,0.00038822,0.00074994,-0.17105633,-0.06116661,-0.00542389,-0.00
 313467,0.00093466,-0.00117537,0.00010946,0.00060741,-0.00009235,0.5656
 3655,-0.02082154,-0.02563936,0.00257892,0.00230465,-0.00156539,0.00312
 868,-0.00021346,0.00008006,-0.00003741,0.00212268,0.00071057,0.0004643
 1,0.00014130,-0.00018780,-0.00017084,0.00791633,-0.00013911,0.00485132
 ,-0.00473587,0.01432043,-0.00650243,0.00237670,-0.00137972,-0.00008999
 ,-0.06908702,-0.13594478,0.00907217,-0.00181057,0.00234342,-0.00110400
 ,0.00063364,0.00024833,-0.00020280,0.04609844,0.56656582,0.01136300,0.
 00404915,-0.00466104,-0.00137618,0.00402965,0.00438283,0.00028730,0.00
 027724,0.00031922,-0.00087655,0.00070695,-0.00050013,0.00015376,-0.000
 24542,-0.00077973,-0.00435577,0.00279274,0.00532502,-0.00656939,-0.008
 17177,0.00538583,0.00043335,-0.00094563,-0.00345935,-0.00565017,0.0087
 4445,-0.06801278,-0.00003312,-0.00062885,0.00016902,-0.00008414,-0.000
 11339,-0.00039330,0.01091066,-0.01457639,0.48706992,-0.00296074,-0.001
 03687,-0.00160023,-0.00068406,-0.00119251,0.00072273,-0.00026446,-0.00
 012034,0.00003987,0.00025206,-0.00079585,0.00026276,0.00000069,-0.0000
 6006,0.00002785,0.00028969,-0.00003582,0.00016113,-0.00194769,-0.00107
 446,-0.00071189,-0.00109002,-0.00205479,0.00047715,0.00966744,-0.02278
 157,0.00479600,0.00044542,-0.00007973,0.00008980,-0.00004856,-0.000085
 17,0.00004743,-0.08111198,0.03228246,-0.00692701,0.10896260,-0.0071355
 1,-0.00141219,-0.00257064,-0.00063239,-0.00232852,0.00121627,-0.000630
 73,-0.00030392,-0.00003745,0.00034135,-0.00087396,0.00025256,-0.000100
 68,0.00006386,-0.00012432,-0.00263284,0.00074851,-0.00050336,0.0045995
 3,-0.00053958,0.00175351,-0.00144211,-0.00003549,-0.00065788,0.0098835
 6,-0.04569946,0.01047159,0.00132561,-0.00063183,0.00058376,-0.00011683
 ,-0.00012278,0.00001756,0.01931654,-0.26779936,0.03291543,-0.09035325,
 0.37755528,-0.00008534,0.00016280,0.00211461,0.00056183,0.00002916,-0.
 00058637,0.00009313,-0.00002005,-0.00012711,-0.00012667,0.00015837,-0.
 00005016,0.00001361,-0.00002698,0.00004213,0.00055605,-0.00026821,0.00
 014256,-0.00108003,-0.00015418,-0.00089661,0.00015091,-0.00052468,0.00
 030653,-0.00090501,0.00700533,0.00691840,-0.00021318,0.00013441,0.0000
 0356,0.00002344,-0.00000776,-0.00004074,-0.00522596,0.03548596,-0.0750
 7108,0.01702612,-0.05667788,0.09131131,-0.00130174,0.00253231,-0.00163
 797,-0.00112226,-0.00015844,0.00062925,-0.00011859,-0.00015350,-0.0000
 7169,-0.00067402,-0.00040978,-0.00008009,0.00003413,-0.00008717,-0.000
 11707,-0.00289745,0.00125151,0.00124701,0.00065250,-0.00603108,0.00054
 097,0.00063291,-0.00011174,-0.00058488,-0.02220999,-0.00475983,-0.0387
 1714,0.00048002,-0.00079540,0.00066712,-0.00018316,-0.00028649,-0.0002
 5991,-0.13549486,-0.01442585,-0.08920083,-0.01046856,0.02623952,-0.029
 43193,0.15283754,0.00023180,0.00040829,-0.00055698,-0.00029034,0.00027
 321,-0.00020407,0.00001075,-0.00001549,-0.00000898,-0.00029580,-0.0001
 6902,-0.00010360,-0.00003579,0.00000080,-0.00001308,-0.00199889,0.0010
 4545,0.00000308,0.00032517,-0.00401621,0.00015854,-0.00014609,0.000026
 19,-0.00022191,-0.01697353,0.00800612,-0.01867719,0.00026807,-0.000491
 65,0.00046684,-0.00011627,-0.00012239,-0.00016339,-0.01130093,-0.07498
 460,-0.00803432,0.03516532,-0.01690440,0.04954283,-0.00507106,0.077523
 22,-0.00036002,0.00251697,-0.00063977,-0.00095705,-0.00057433,0.000303
 61,-0.00011986,-0.00014948,-0.00008848,0.00002230,-0.00053821,0.000171
 78,0.00003217,-0.00007928,-0.00003824,-0.00107727,0.00121756,0.0000064
 8,-0.00126035,-0.00440790,0.00053750,0.00049036,-0.00006066,-0.0000981
 8,-0.01511682,-0.00030539,-0.01326244,0.00002140,-0.00042912,0.0003113
 0,-0.00016328,-0.00015676,-0.00012861,-0.09380962,-0.01465292,-0.19811
 880,-0.02892190,0.03702323,-0.02874001,0.13730793,-0.00492999,0.328798
 68,-0.00198599,0.00419546,-0.00041210,-0.00130479,-0.00158959,-0.00156
 842,-0.00024854,-0.00016106,0.00003838,-0.00054917,-0.00077180,0.00014
 942,-0.00007355,0.00006474,0.00024267,-0.00139108,-0.00075982,-0.00282
 630,0.00142800,-0.00348739,0.00246269,-0.00002927,0.00044249,0.0010800
 0,-0.03299506,0.00366072,0.03294423,0.00081999,-0.00084407,0.00031480,
 -0.00028443,-0.00013345,0.00025939,-0.17105829,0.01721813,0.09192510,-
 0.02104182,0.04133822,0.01864304,0.01983351,0.00022759,0.00391201,0.20
 888048,0.00058164,0.00005781,-0.00017611,0.00042571,0.00046778,-0.0001
 8952,0.00003454,0.00000923,0.00003520,-0.00067218,0.00022006,-0.000276
 47,-0.00000570,0.00002029,0.00001429,-0.00089731,-0.00047023,-0.001156
 43,0.00083291,-0.00138790,0.00197241,-0.00026136,0.00011440,0.00015279
 ,-0.01482479,0.01091888,0.00844224,0.00032254,-0.00041629,0.00007031,-
 0.00010736,0.00000675,0.00013235,0.01948189,-0.07662851,-0.02079986,0.
 05222263,-0.04171616,-0.03483913,0.00226700,0.00942049,-0.01447372,-0.
 05940016,0.09938342,-0.00020887,-0.00141011,0.00110855,0.00048145,0.00
 048831,0.00021139,0.00011020,0.00005054,-0.00007735,0.00025324,0.00016
 399,-0.00000383,0.00003673,0.00000068,-0.00007096,0.00128259,-0.000025
 34,0.00135561,0.00010322,0.00275968,-0.00189270,-0.00004955,-0.0000968
 1,-0.00040488,0.01820915,-0.00446432,-0.00496353,-0.00040752,0.0005762
 7,-0.00003067,0.00020593,0.00003023,-0.00017717,0.09292890,-0.01824459
 ,-0.15165562,0.01451020,-0.02366240,0.00467298,0.01970925,-0.01725779,
 -0.08901482,-0.14716492,0.06109166,0.24094299\\0.00001941,-0.00000665,
 -0.00000026,-0.00000830,-0.00000218,-0.00001218,0.00001785,0.00000355,
 -0.00000786,0.00001904,0.00000937,-0.00000069,0.00001312,-0.00001152,0
 .00000172,0.00000850,-0.00001493,0.00000610,-0.00000598,-0.00001785,0.
 00001124,-0.00001467,-0.00000888,0.00000704,-0.00002547,0.00002770,-0.
 00001280,-0.00000471,-0.00001177,0.00000830,0.00000186,-0.00001603,0.0
 0000614,-0.00001193,0.00001693,0.00000459,0.00000175,0.00000821,0.0000
 0529,-0.00000792,0.00000741,-0.00000819,-0.00000256,0.00001665,-0.0000
 0843\\\@
 The archive entry for this job was punched.


 OLD AGE AND TREACHERY WILL ALWAYS PREVAIL OVER YOUTH AND SKILL.
 Job cpu time:       0 days  1 hours 10 minutes 35.3 seconds.
 Elapsed time:       0 days  0 hours  2 minutes 17.6 seconds.
 File lengths (MBytes):  RWF=    247 Int=      0 D2E=      0 Chk=     16 Scr=      1
 Normal termination of Gaussian 16 at Wed May 14 12:12:08 2025.
