/home/tahminaafroz
cn017.cluster.local
Mon Apr 21 18:00:52 CDT 2025
 Entering Gaussian System, Link 0=g16
 Initial command:
 /home/apps/g16/l1.exe "/tmp/4-Me-phboh2-opt-freq/Gau-3734957.inp" -scrdir="/tmp/4-Me-phboh2-opt-freq/"
 Entering Link 1 = /home/apps/g16/l1.exe PID=   3734958.
  
 Copyright (c) 1988-2019, Gaussian, Inc.  All Rights Reserved.
  
 This is part of the Gaussian(R) 16 program.  It is based on
 the Gaussian(R) 09 system (copyright 2009, Gaussian, Inc.),
 the Gaussian(R) 03 system (copyright 2003, Gaussian, Inc.),
 the Gaussian(R) 98 system (copyright 1998, Gaussian, Inc.),
 the Gaussian(R) 94 system (copyright 1995, Gaussian, Inc.),
 the Gaussian 92(TM) system (copyright 1992, Gaussian, Inc.),
 the Gaussian 90(TM) system (copyright 1990, Gaussian, Inc.),
 the Gaussian 88(TM) system (copyright 1988, Gaussian, Inc.),
 the Gaussian 86(TM) system (copyright 1986, Carnegie Mellon
 University), and the Gaussian 82(TM) system (copyright 1983,
 Carnegie Mellon University). Gaussian is a federally registered
 trademark of Gaussian, Inc.
  
 This software contains proprietary and confidential information,
 including trade secrets, belonging to Gaussian, Inc.
  
 This software is provided under written license and may be
 used, copied, transmitted, or stored only in accord with that
 written license.
  
 The following legend is applicable only to US Government
 contracts under FAR:
  
                    RESTRICTED RIGHTS LEGEND
  
 Use, reproduction and disclosure by the US Government is
 subject to restrictions as set forth in subparagraphs (a)
 and (c) of the Commercial Computer Software - Restricted
 Rights clause in FAR 52.227-19.
  
 Gaussian, Inc.
 340 Quinnipiac St., Bldg. 40, Wallingford CT 06492
  
  
 ---------------------------------------------------------------
 Warning -- This program may not be used in any manner that
 competes with the business of Gaussian, Inc. or will provide
 assistance to any competitor of Gaussian, Inc.  The licensee
 of this program is prohibited from giving any competitor of
 Gaussian, Inc. access to this program.  By using this program,
 the user acknowledges that Gaussian, Inc. is engaged in the
 business of creating and licensing software in the field of
 computational chemistry and represents and warrants to the
 licensee that it is not a competitor of Gaussian, Inc. and that
 it will not use this program in any manner prohibited above.
 ---------------------------------------------------------------
  

 Cite this work as:
 Gaussian 16, Revision C.01,
 M. J. Frisch, G. W. Trucks, H. B. Schlegel, G. E. Scuseria, 
 M. A. Robb, J. R. Cheeseman, G. Scalmani, V. Barone, 
 G. A. Petersson, H. Nakatsuji, X. Li, M. Caricato, A. V. Marenich, 
 J. Bloino, B. G. Janesko, R. Gomperts, B. Mennucci, H. P. Hratchian, 
 J. V. Ortiz, A. F. Izmaylov, J. L. Sonnenberg, D. Williams-Young, 
 F. Ding, F. Lipparini, F. Egidi, J. Goings, B. Peng, A. Petrone, 
 T. Henderson, D. Ranasinghe, V. G. Zakrzewski, J. Gao, N. Rega, 
 G. Zheng, W. Liang, M. Hada, M. Ehara, K. Toyota, R. Fukuda, 
 J. Hasegawa, M. Ishida, T. Nakajima, Y. Honda, O. Kitao, H. Nakai, 
 T. Vreven, K. Throssell, J. A. Montgomery, Jr., J. E. Peralta, 
 F. Ogliaro, M. J. Bearpark, J. J. Heyd, E. N. Brothers, K. N. Kudin, 
 V. N. Staroverov, T. A. Keith, R. Kobayashi, J. Normand, 
 K. Raghavachari, A. P. Rendell, J. C. Burant, S. S. Iyengar, 
 J. Tomasi, M. Cossi, J. M. Millam, M. Klene, C. Adamo, R. Cammi, 
 J. W. Ochterski, R. L. Martin, K. Morokuma, O. Farkas, 
 J. B. Foresman, and D. J. Fox, Gaussian, Inc., Wallingford CT, 2019.
 
 ******************************************
 Gaussian 16:  AS64L-G16RevC.01  3-Jul-2019
                21-Apr-2025 
 ******************************************
 %mem=20GB
 %nprocshared=32
 Will use up to   32 processors via shared memory.
 %chk=4-Me-phboh2-opt-freq.chk
 ----------------------------------------------------------------------
 # opt=(calcfc,tight) freq 6-311+g(d,p) nosymm scf=(qc,fermi,xqc) geom=
 connectivity int=ultrafine m062x
 ----------------------------------------------------------------------
 1/7=10,10=4,18=20,19=15,26=4,38=1,57=2/1,3;
 2/9=110,12=2,15=1,17=6,18=5,40=1/2;
 3/5=4,6=6,7=111,11=2,25=1,30=1,71=2,74=-55,75=-5,140=1/1,2,3;
 4//1;
 5/5=2,22=13,38=5/2;
 8/6=4,10=90,11=11/1;
 11/6=1,8=1,9=11,15=111,16=1,31=1/1,2,10;
 10/6=1,13=1,31=1/2;
 6/7=2,8=2,9=2,10=2,28=1/1;
 7/10=1,25=1,30=1/1,2,3,16;
 1/7=10,10=4,18=20,19=15,26=4/3(2);
 2/9=110,15=1/2;
 99//99;
 2/9=110,15=1/2;
 3/5=4,6=6,7=111,11=2,25=1,30=1,71=1,74=-55,75=-5/1,2,3;
 4/5=5,16=3,69=1/1;
 5/5=2,22=13,38=5/2;
 7/30=1/1,2,3,16;
 1/7=10,18=20,19=15,26=4/3(-5);
 2/9=110,15=1/2;
 6/7=2,8=2,9=2,10=2,19=2,28=1/1;
 99/9=1/99;
 --------------------
 4-Me-phboh2-opt-freq
 --------------------
 Symbolic Z-matrix:
 Charge =  0 Multiplicity = 1
 O                     8.6937    7.4516    5.54165 
 H                     9.50219   7.13774   5.95654 
 C                     6.24551   6.99743   5.17177 
 B                     7.64171   6.61653   5.77197 
 O                     7.87495   5.49385   6.5199 
 H                     7.09974   4.95193   6.67447 
 C                     5.12292   6.1708    5.28852 
 H                     5.19038   5.21599   5.80391 
 C                     3.89549   6.53793   4.7481 
 H                     3.03837   5.88269   4.84886 
 C                     3.77272   7.74979   4.07563 
 C                     4.87718   8.58681   3.94549 
 H                     4.78267   9.53028   3.42076 
 C                     6.10033   8.21073   4.48781 
 H                     6.96312   8.85954   4.38658 
 C                     2.41595   8.16256   3.47529 
 H                     2.32637   7.76177   2.48724 
 H                     1.62474   7.78273   4.08735 
 H                     2.35405   9.22997   3.43417 
 

 GradGradGradGradGradGradGradGradGradGradGradGradGradGradGradGradGradGrad
 Berny optimization.
 Initialization pass.
                           ----------------------------
                           !    Initial Parameters    !
                           ! (Angstroms and Degrees)  !
 --------------------------                            --------------------------
 ! Name  Definition              Value          Derivative Info.                !
 --------------------------------------------------------------------------------
 ! R1    R(1,2)                  0.9614         calculate D2E/DX2 analytically  !
 ! R2    R(1,4)                  1.3627         calculate D2E/DX2 analytically  !
 ! R3    R(3,4)                  1.5667         calculate D2E/DX2 analytically  !
 ! R4    R(3,7)                  1.399          calculate D2E/DX2 analytically  !
 ! R5    R(3,14)                 1.4003         calculate D2E/DX2 analytically  !
 ! R6    R(4,5)                  1.369          calculate D2E/DX2 analytically  !
 ! R7    R(5,6)                  0.9584         calculate D2E/DX2 analytically  !
 ! R8    R(7,8)                  1.0871         calculate D2E/DX2 analytically  !
 ! R9    R(7,9)                  1.3905         calculate D2E/DX2 analytically  !
 ! R10   R(9,10)                 1.0836         calculate D2E/DX2 analytically  !
 ! R11   R(9,11)                 1.3914         calculate D2E/DX2 analytically  !
 ! R12   R(11,12)                1.3919         calculate D2E/DX2 analytically  !
 ! R13   R(11,16)                1.54           calculate D2E/DX2 analytically  !
 ! R14   R(12,13)                1.0837         calculate D2E/DX2 analytically  !
 ! R15   R(12,14)                1.3898         calculate D2E/DX2 analytically  !
 ! R16   R(14,15)                1.0843         calculate D2E/DX2 analytically  !
 ! R17   R(16,17)                1.07           calculate D2E/DX2 analytically  !
 ! R18   R(16,18)                1.07           calculate D2E/DX2 analytically  !
 ! R19   R(16,19)                1.07           calculate D2E/DX2 analytically  !
 ! A1    A(2,1,4)              112.0983         calculate D2E/DX2 analytically  !
 ! A2    A(4,3,7)              122.6467         calculate D2E/DX2 analytically  !
 ! A3    A(4,3,14)             119.3501         calculate D2E/DX2 analytically  !
 ! A4    A(7,3,14)             118.0032         calculate D2E/DX2 analytically  !
 ! A5    A(1,4,3)              118.3077         calculate D2E/DX2 analytically  !
 ! A6    A(1,4,5)              117.6027         calculate D2E/DX2 analytically  !
 ! A7    A(3,4,5)              124.0894         calculate D2E/DX2 analytically  !
 ! A8    A(4,5,6)              114.4569         calculate D2E/DX2 analytically  !
 ! A9    A(3,7,8)              120.5799         calculate D2E/DX2 analytically  !
 ! A10   A(3,7,9)              121.3254         calculate D2E/DX2 analytically  !
 ! A11   A(8,7,9)              118.0941         calculate D2E/DX2 analytically  !
 ! A12   A(7,9,10)             120.1633         calculate D2E/DX2 analytically  !
 ! A13   A(7,9,11)             119.7161         calculate D2E/DX2 analytically  !
 ! A14   A(10,9,11)            120.1206         calculate D2E/DX2 analytically  !
 ! A15   A(9,11,12)            119.9297         calculate D2E/DX2 analytically  !
 ! A16   A(9,11,16)            119.9738         calculate D2E/DX2 analytically  !
 ! A17   A(12,11,16)           120.0964         calculate D2E/DX2 analytically  !
 ! A18   A(11,12,13)           119.9739         calculate D2E/DX2 analytically  !
 ! A19   A(11,12,14)           119.9423         calculate D2E/DX2 analytically  !
 ! A20   A(13,12,14)           120.0838         calculate D2E/DX2 analytically  !
 ! A21   A(3,14,12)            121.0828         calculate D2E/DX2 analytically  !
 ! A22   A(3,14,15)            118.7874         calculate D2E/DX2 analytically  !
 ! A23   A(12,14,15)           120.1298         calculate D2E/DX2 analytically  !
 ! A24   A(11,16,17)           109.4712         calculate D2E/DX2 analytically  !
 ! A25   A(11,16,18)           109.4712         calculate D2E/DX2 analytically  !
 ! A26   A(11,16,19)           109.4712         calculate D2E/DX2 analytically  !
 ! A27   A(17,16,18)           109.4713         calculate D2E/DX2 analytically  !
 ! A28   A(17,16,19)           109.4712         calculate D2E/DX2 analytically  !
 ! A29   A(18,16,19)           109.4712         calculate D2E/DX2 analytically  !
 ! D1    D(2,1,4,3)            179.4321         calculate D2E/DX2 analytically  !
 ! D2    D(2,1,4,5)             -0.4323         calculate D2E/DX2 analytically  !
 ! D3    D(7,3,4,1)            176.3571         calculate D2E/DX2 analytically  !
 ! D4    D(7,3,4,5)             -3.788          calculate D2E/DX2 analytically  !
 ! D5    D(14,3,4,1)            -3.617          calculate D2E/DX2 analytically  !
 ! D6    D(14,3,4,5)           176.2379         calculate D2E/DX2 analytically  !
 ! D7    D(4,3,7,8)             -0.4723         calculate D2E/DX2 analytically  !
 ! D8    D(4,3,7,9)            179.8225         calculate D2E/DX2 analytically  !
 ! D9    D(14,3,7,8)           179.5021         calculate D2E/DX2 analytically  !
 ! D10   D(14,3,7,9)            -0.2031         calculate D2E/DX2 analytically  !
 ! D11   D(4,3,14,12)         -179.7549         calculate D2E/DX2 analytically  !
 ! D12   D(4,3,14,15)            0.2004         calculate D2E/DX2 analytically  !
 ! D13   D(7,3,14,12)            0.2698         calculate D2E/DX2 analytically  !
 ! D14   D(7,3,14,15)         -179.7749         calculate D2E/DX2 analytically  !
 ! D15   D(1,4,5,6)            178.3759         calculate D2E/DX2 analytically  !
 ! D16   D(3,4,5,6)             -1.48           calculate D2E/DX2 analytically  !
 ! D17   D(3,7,9,10)           179.9449         calculate D2E/DX2 analytically  !
 ! D18   D(3,7,9,11)             0.0287         calculate D2E/DX2 analytically  !
 ! D19   D(8,7,9,10)             0.2326         calculate D2E/DX2 analytically  !
 ! D20   D(8,7,9,11)          -179.6836         calculate D2E/DX2 analytically  !
 ! D21   D(7,9,11,12)            0.0852         calculate D2E/DX2 analytically  !
 ! D22   D(7,9,11,16)         -179.9745         calculate D2E/DX2 analytically  !
 ! D23   D(10,9,11,12)        -179.831          calculate D2E/DX2 analytically  !
 ! D24   D(10,9,11,16)           0.1093         calculate D2E/DX2 analytically  !
 ! D25   D(9,11,12,13)         179.9215         calculate D2E/DX2 analytically  !
 ! D26   D(9,11,12,14)          -0.0192         calculate D2E/DX2 analytically  !
 ! D27   D(16,11,12,13)         -0.0187         calculate D2E/DX2 analytically  !
 ! D28   D(16,11,12,14)       -179.9595         calculate D2E/DX2 analytically  !
 ! D29   D(9,11,16,17)         -87.2565         calculate D2E/DX2 analytically  !
 ! D30   D(9,11,16,18)          32.7435         calculate D2E/DX2 analytically  !
 ! D31   D(9,11,16,19)         152.7435         calculate D2E/DX2 analytically  !
 ! D32   D(12,11,16,17)         92.6837         calculate D2E/DX2 analytically  !
 ! D33   D(12,11,16,18)       -147.3163         calculate D2E/DX2 analytically  !
 ! D34   D(12,11,16,19)        -27.3163         calculate D2E/DX2 analytically  !
 ! D35   D(11,12,14,3)          -0.1625         calculate D2E/DX2 analytically  !
 ! D36   D(11,12,14,15)        179.8828         calculate D2E/DX2 analytically  !
 ! D37   D(13,12,14,3)         179.8968         calculate D2E/DX2 analytically  !
 ! D38   D(13,12,14,15)         -0.0579         calculate D2E/DX2 analytically  !
 --------------------------------------------------------------------------------
 Trust Radius=3.00D-01 FncErr=1.00D-07 GrdErr=1.00D-06 EigMax=2.50D+02 EigMin=1.00D-04
 Number of steps in this run=     96 maximum allowed number of steps=    114.
 GradGradGradGradGradGradGradGradGradGradGradGradGradGradGradGradGradGrad

                          Input orientation:                          
 ---------------------------------------------------------------------
 Center     Atomic      Atomic             Coordinates (Angstroms)
 Number     Number       Type             X           Y           Z
 ---------------------------------------------------------------------
      1          8           0        8.693701    7.451595    5.541649
      2          1           0        9.502193    7.137737    5.956544
      3          6           0        6.245510    6.997434    5.171772
      4          5           0        7.641708    6.616527    5.771970
      5          8           0        7.874947    5.493847    6.519897
      6          1           0        7.099744    4.951929    6.674467
      7          6           0        5.122923    6.170805    5.288524
      8          1           0        5.190378    5.215994    5.803906
      9          6           0        3.895492    6.537926    4.748104
     10          1           0        3.038365    5.882688    4.848858
     11          6           0        3.772716    7.749791    4.075628
     12          6           0        4.877176    8.586807    3.945493
     13          1           0        4.782667    9.530279    3.420756
     14          6           0        6.100328    8.210725    4.487806
     15          1           0        6.963122    8.859535    4.386577
     16          6           0        2.415948    8.162558    3.475292
     17          1           0        2.326369    7.761767    2.487242
     18          1           0        1.624738    7.782725    4.087349
     19          1           0        2.354047    9.229974    3.434168
 ---------------------------------------------------------------------
                    Distance matrix (angstroms):
                    1          2          3          4          5
     1  O    0.000000
     2  H    0.961407   0.000000
     3  C    2.517282   3.352840   0.000000
     4  B    1.362746   1.940910   1.566747   0.000000
     5  O    2.336687   2.380687   2.594856   1.369016   0.000000
     6  H    3.173690   3.326399   2.678040   1.969546   0.958388
     7  C    3.801967   4.534227   1.398981   2.603203   3.090014
     8  H    4.164128   4.723150   2.164815   2.823390   2.792267
     9  C    4.948466   5.766732   2.431713   3.884407   4.479443
    10  H    5.909675   6.677064   3.410676   4.751991   5.131870
    11  C    5.143368   6.061300   2.807540   4.373896   5.281291
    12  C    4.289788   5.247372   2.429445   3.854952   5.018026
    13  H    4.910733   5.867572   3.408998   4.710868   5.954801
    14  C    2.900422   3.857613   1.400344   2.562498   3.828850
    15  H    2.512248   3.446196   2.144509   2.722293   4.087828
    16  C    6.647216   7.577713   4.347540   5.913841   6.796493
    17  H    7.068842   7.994868   4.811504   6.352467   7.224437
    18  H    7.224602   8.121835   4.810841   6.356249   7.086704
    19  H    6.913416   7.863576   4.811131   6.344665   7.345795
                    6          7          8          9         10
     6  H    0.000000
     7  C    2.704500   0.000000
     8  H    2.115014   1.087121   0.000000
     9  C    4.061218   1.390474   2.130482   0.000000
    10  H    4.549061   2.149814   2.446989   1.083584   0.000000
    11  C    5.064693   2.405696   3.378881   1.391372   2.150170
    12  C    5.059589   2.775102   3.861887   2.409523   3.392573
    13  H    6.075917   3.858808   4.945572   3.391623   4.288005
    14  C    4.049700   2.399530   3.395371   2.779805   3.863384
    15  H    4.530176   3.380697   4.292649   3.864055   4.947630
    16  C    6.517730   3.818718   4.669277   2.539396   2.733477
    17  H    6.943569   4.266035   5.067915   3.011882   3.100824
    18  H    6.684481   4.034651   4.716828   2.672536   2.487645
    19  H    7.163996   4.523696   5.456415   3.368917   3.697832
                   11         12         13         14         15
    11  C    0.000000
    12  C    1.391892   0.000000
    13  H    2.149185   1.083707   0.000000
    14  C    2.408346   1.389835   2.148499   0.000000
    15  H    3.392184   2.149443   2.477315   1.084258   0.000000
    16  C    1.540000   2.541401   2.734044   3.821278   4.689671
    17  H    2.148263   3.051852   3.167409   4.294949   5.129527
    18  H    2.148263   3.353360   3.670260   4.513807   5.454118
    19  H    2.148263   2.653544   2.447153   4.022890   4.721004
                   16         17         18         19
    16  C    0.000000
    17  H    1.070000   0.000000
    18  H    1.070000   1.747303   0.000000
    19  H    1.070000   1.747303   1.747303   0.000000
 Symmetry turned off by external request.
 Stoichiometry    C7H9BO2
 Framework group  C1[X(C7H9BO2)]
 Deg. of freedom    51
 Full point group                 C1      NOp   1
 Rotational constants (GHZ):           3.6192577           0.7388930           0.6161265
 Standard basis: 6-311+G(d,p) (5D, 7F)
   274 basis functions,   432 primitive gaussians,   284 cartesian basis functions
    36 alpha electrons       36 beta electrons
       nuclear repulsion energy       473.5658004822 Hartrees.
 NAtoms=   19 NActive=   19 NUniq=   19 SFac= 1.00D+00 NAtFMM=   60 NAOKFM=F Big=F
 Integral buffers will be    131072 words long.
 Raffenetti 2 integral format.
 Two-electron integral symmetry is turned off.
 One-electron integrals computed using PRISM.
 NBasis=   274 RedAO= T EigKep=  2.32D-06  NBF=   274
 NBsUse=   274 1.00D-06 EigRej= -1.00D+00 NBFU=   274
 ExpMin= 3.15D-02 ExpMax= 8.59D+03 ExpMxC= 1.30D+03 IAcc=3 IRadAn=         5 AccDes= 0.00D+00
 Harris functional with IExCor= 1009 and IRadAn=       5 diagonalized for initial guess.
 HarFok:  IExCor= 1009 AccDes= 0.00D+00 IRadAn=         5 IDoV= 1 UseB2=F ITyADJ=14
 ICtDFT=  3500011 ScaDFX=  1.000000  1.000000  1.000000  1.000000
 FoFCou: FMM=F IPFlag=           0 FMFlag=      100000 FMFlg1=           0
         NFxFlg=           0 DoJE=T BraDBF=F KetDBF=T FulRan=T
         wScrn=  0.000000 ICntrl=       500 IOpCl=  0 I1Cent=   200000004 NGrid=           0
         NMat0=    1 NMatS0=      1 NMatT0=    0 NMatD0=    1 NMtDS0=    0 NMtDT0=    0
 Symmetry not used in FoFCou.
 Requested convergence on RMS density matrix=1.00D-08 within 128 cycles.
 Requested convergence on MAX density matrix=1.00D-06.
 Requested convergence on             energy=1.00D-06.
 Level shift goal  0.100 maximum shift  0.100.
 No special actions if energy rises.
 Dynamic level shift is on during FON iterations.
 SCF Done:  E(RM062X) =  -447.530136077     A.U. after   14 cycles
            NFock= 14  Conv=0.72D-08     -V/T= 2.0036
 DoSCS=F DFT=T ScalE2(SS,OS)=  1.000000  1.000000
 Range of M.O.s used for correlation:     1   274
 NBasis=   274 NAE=    36 NBE=    36 NFC=     0 NFV=     0
 NROrb=    274 NOA=    36 NOB=    36 NVA=   238 NVB=   238

 **** Warning!!: The largest alpha MO coefficient is  0.13817904D+03

 Symmetrizing basis deriv contribution to polar:
 IMax=3 JMax=2 DiffMx= 0.00D+00
 G2DrvN: will do    20 centers at a time, making    1 passes.
 Calling FoFCou, ICntrl=  3107 FMM=F I1Cent=   0 AccDes= 0.00D+00.
 End of G2Drv F.D. properties file   721 does not exist.
 End of G2Drv F.D. properties file   722 does not exist.
 End of G2Drv F.D. properties file   788 does not exist.
          IDoAtm=1111111111111111111
          Differentiating once with respect to nuclear coordinates.
 Keep R1 ints in memory in canonical form, NReq=745413662.
          There are    60 degrees of freedom in the 1st order CPHF.  IDoFFX=6 NUNeed=     0.
     54 vectors produced by pass  0 Test12= 1.43D-14 1.67D-09 XBig12= 1.56D-01 1.16D-01.
 AX will form    54 AO Fock derivatives at one time.
     54 vectors produced by pass  1 Test12= 1.43D-14 1.67D-09 XBig12= 1.07D-02 3.07D-02.
     54 vectors produced by pass  2 Test12= 1.43D-14 1.67D-09 XBig12= 3.52D-04 3.50D-03.
     54 vectors produced by pass  3 Test12= 1.43D-14 1.67D-09 XBig12= 2.41D-06 2.36D-04.
     54 vectors produced by pass  4 Test12= 1.43D-14 1.67D-09 XBig12= 1.27D-08 1.28D-05.
     54 vectors produced by pass  5 Test12= 1.43D-14 1.67D-09 XBig12= 5.74D-11 6.39D-07.
     45 vectors produced by pass  6 Test12= 1.43D-14 1.67D-09 XBig12= 2.28D-13 4.60D-08.
      7 vectors produced by pass  7 Test12= 1.43D-14 1.67D-09 XBig12= 8.34D-16 2.92D-09.
 InvSVY:  IOpt=1 It=  1 EMax= 7.22D-16
 Solved reduced A of dimension   376 with    60 vectors.
 End of Minotr F.D. properties file   721 does not exist.
 End of Minotr F.D. properties file   722 does not exist.
 End of Minotr F.D. properties file   788 does not exist.

 **********************************************************************

            Population analysis using the SCF Density.

 **********************************************************************

 Alpha  occ. eigenvalues --  -19.63706 -19.62904 -10.55720 -10.55141 -10.54326
 Alpha  occ. eigenvalues --  -10.54303 -10.54052 -10.53181 -10.52657  -7.08165
 Alpha  occ. eigenvalues --   -1.16744  -1.13031  -0.96537  -0.87100  -0.84578
 Alpha  occ. eigenvalues --   -0.78252  -0.69538  -0.67455  -0.64983  -0.62833
 Alpha  occ. eigenvalues --   -0.57614  -0.53299  -0.52557  -0.49858  -0.49731
 Alpha  occ. eigenvalues --   -0.49142  -0.47765  -0.45832  -0.45320  -0.43262
 Alpha  occ. eigenvalues --   -0.42637  -0.40377  -0.39997  -0.37829  -0.31030
 Alpha  occ. eigenvalues --   -0.30145
 Alpha virt. eigenvalues --   -0.00220   0.00003   0.01482   0.01584   0.01767
 Alpha virt. eigenvalues --    0.03345   0.03415   0.03848   0.04798   0.05290
 Alpha virt. eigenvalues --    0.06620   0.06953   0.08753   0.09293   0.09742
 Alpha virt. eigenvalues --    0.10876   0.10952   0.12489   0.13350   0.13555
 Alpha virt. eigenvalues --    0.14705   0.15111   0.15395   0.15468   0.15831
 Alpha virt. eigenvalues --    0.16597   0.17460   0.18394   0.19066   0.19497
 Alpha virt. eigenvalues --    0.20246   0.20970   0.21760   0.22136   0.22575
 Alpha virt. eigenvalues --    0.22691   0.23782   0.24219   0.24360   0.24852
 Alpha virt. eigenvalues --    0.25478   0.25947   0.26283   0.26672   0.27699
 Alpha virt. eigenvalues --    0.28290   0.28920   0.29452   0.29932   0.31787
 Alpha virt. eigenvalues --    0.33058   0.34152   0.34919   0.36755   0.37855
 Alpha virt. eigenvalues --    0.38612   0.41602   0.43404   0.44752   0.45935
 Alpha virt. eigenvalues --    0.47283   0.49666   0.50260   0.51118   0.51271
 Alpha virt. eigenvalues --    0.52677   0.55206   0.57511   0.58126   0.58737
 Alpha virt. eigenvalues --    0.60156   0.60849   0.61288   0.62181   0.64491
 Alpha virt. eigenvalues --    0.65214   0.66530   0.67959   0.68331   0.69336
 Alpha virt. eigenvalues --    0.69696   0.71196   0.72072   0.73072   0.74096
 Alpha virt. eigenvalues --    0.74300   0.75496   0.77480   0.79250   0.82679
 Alpha virt. eigenvalues --    0.84578   0.86318   0.87492   0.91029   0.91140
 Alpha virt. eigenvalues --    0.91774   0.92988   0.93407   0.95717   0.96183
 Alpha virt. eigenvalues --    1.00778   1.02493   1.02803   1.04977   1.06455
 Alpha virt. eigenvalues --    1.08142   1.09379   1.11114   1.11840   1.12405
 Alpha virt. eigenvalues --    1.13149   1.13948   1.15686   1.20642   1.21073
 Alpha virt. eigenvalues --    1.27383   1.33352   1.34194   1.35312   1.39402
 Alpha virt. eigenvalues --    1.41722   1.42160   1.45773   1.48436   1.50749
 Alpha virt. eigenvalues --    1.51839   1.52379   1.54115   1.56040   1.58277
 Alpha virt. eigenvalues --    1.60124   1.61114   1.62529   1.63343   1.64204
 Alpha virt. eigenvalues --    1.65768   1.68302   1.70940   1.71121   1.72266
 Alpha virt. eigenvalues --    1.75996   1.80211   1.80889   1.81129   1.84181
 Alpha virt. eigenvalues --    1.86318   1.86792   1.88127   1.94963   1.95737
 Alpha virt. eigenvalues --    1.97356   1.97761   1.98863   2.02048   2.03170
 Alpha virt. eigenvalues --    2.04849   2.06926   2.10912   2.13256   2.14291
 Alpha virt. eigenvalues --    2.16828   2.18540   2.21635   2.24746   2.28458
 Alpha virt. eigenvalues --    2.36436   2.41026   2.41890   2.44269   2.45935
 Alpha virt. eigenvalues --    2.53027   2.56885   2.57808   2.58686   2.60030
 Alpha virt. eigenvalues --    2.61309   2.62581   2.63740   2.65549   2.67016
 Alpha virt. eigenvalues --    2.69916   2.72408   2.73676   2.74438   2.78927
 Alpha virt. eigenvalues --    2.79360   2.80793   2.81487   2.86010   2.90124
 Alpha virt. eigenvalues --    2.91869   2.92557   2.96990   2.99224   2.99562
 Alpha virt. eigenvalues --    3.07569   3.11510   3.15732   3.19877   3.24362
 Alpha virt. eigenvalues --    3.26817   3.28772   3.31994   3.41100   3.43830
 Alpha virt. eigenvalues --    3.48375   3.54569   3.56186   3.61072   3.64293
 Alpha virt. eigenvalues --    3.66830   3.71022   3.89959   3.90996   3.92390
 Alpha virt. eigenvalues --    3.95330   4.05060   4.10996   4.19949   4.21770
 Alpha virt. eigenvalues --    4.34776   4.87166   5.08466   5.09526   5.39926
 Alpha virt. eigenvalues --    5.50347   5.69154   5.76889  14.79976  23.68208
 Alpha virt. eigenvalues --   24.00976  24.03754  24.09121  24.16215  24.18616
 Alpha virt. eigenvalues --   24.26909  50.00974  50.05920
          Condensed to atoms (all electrons):
               1          2          3          4          5          6
     1  O    7.756473   0.271433   0.082329   0.442485  -0.126428   0.020484
     2  H    0.271433   0.456027   0.047269  -0.004909  -0.034659   0.003240
     3  C    0.082329   0.047269   9.366656   0.280171  -0.209596   0.036184
     4  B    0.442485  -0.004909   0.280171   3.350159   0.365359   0.015012
     5  O   -0.126428  -0.034659  -0.209596   0.365359   7.980694   0.250469
     6  H    0.020484   0.003240   0.036184   0.015012   0.250469   0.437012
     7  C    0.032251  -0.012016  -1.772759   0.108740   0.058521  -0.080705
     8  H    0.002456  -0.000039   0.046217   0.013678  -0.008677   0.012473
     9  C    0.062327   0.005504   0.462843   0.057456  -0.016744   0.052844
    10  H   -0.000050  -0.000001  -0.027874  -0.000061   0.000351  -0.000050
    11  C   -0.012442  -0.001530  -1.700310  -0.004930   0.018517  -0.005923
    12  C   -0.020914  -0.017925  -0.217831   0.013520   0.063484  -0.016631
    13  H    0.000503   0.000002  -0.011979   0.000272  -0.000037   0.000003
    14  C   -0.152671  -0.013259   0.086895  -0.079058   0.002159   0.024566
    15  H    0.002451  -0.000622   0.065962  -0.008461   0.002301  -0.000094
    16  C   -0.000915  -0.000097   0.072119  -0.015352   0.001185  -0.000151
    17  H   -0.000001   0.000000  -0.008455  -0.000116  -0.000001   0.000000
    18  H    0.000002   0.000000   0.005381   0.000111  -0.000004   0.000001
    19  H   -0.000002   0.000000   0.004740   0.000154   0.000002   0.000000
               7          8          9         10         11         12
     1  O    0.032251   0.002456   0.062327  -0.000050  -0.012442  -0.020914
     2  H   -0.012016  -0.000039   0.005504  -0.000001  -0.001530  -0.017925
     3  C   -1.772759   0.046217   0.462843  -0.027874  -1.700310  -0.217831
     4  B    0.108740   0.013678   0.057456  -0.000061  -0.004930   0.013520
     5  O    0.058521  -0.008677  -0.016744   0.000351   0.018517   0.063484
     6  H   -0.080705   0.012473   0.052844  -0.000050  -0.005923  -0.016631
     7  C   12.151026   0.267566  -3.046547   0.087927   0.853652  -0.211132
     8  H    0.267566   0.554952   0.045168  -0.007223  -0.023320  -0.022403
     9  C   -3.046547   0.045168  11.497698   0.168332  -1.217048  -1.194882
    10  H    0.087927  -0.007223   0.168332   0.508874   0.087021   0.014183
    11  C    0.853652  -0.023320  -1.217048   0.087021   8.814443  -0.923939
    12  C   -0.211132  -0.022403  -1.194882   0.014183  -0.923939  11.352855
    13  H   -0.016171   0.000091   0.019997  -0.000219   0.063821   0.162772
    14  C   -2.213068  -0.004796  -0.691730  -0.010620   0.621986  -3.093444
    15  H    0.012153  -0.000135  -0.019440   0.000064  -0.015714   0.009353
    16  C   -0.239987   0.004678   0.236021   0.025116  -1.242434   0.587819
    17  H    0.000792   0.000010  -0.059918   0.000228   0.115850  -0.041723
    18  H    0.053930  -0.000002   0.247197  -0.000538  -0.166035  -0.194656
    19  H    0.006523   0.000012  -0.180258   0.000402  -0.174715   0.240789
              13         14         15         16         17         18
     1  O    0.000503  -0.152671   0.002451  -0.000915  -0.000001   0.000002
     2  H    0.000002  -0.013259  -0.000622  -0.000097   0.000000   0.000000
     3  C   -0.011979   0.086895   0.065962   0.072119  -0.008455   0.005381
     4  B    0.000272  -0.079058  -0.008461  -0.015352  -0.000116   0.000111
     5  O   -0.000037   0.002159   0.002301   0.001185  -0.000001  -0.000004
     6  H    0.000003   0.024566  -0.000094  -0.000151   0.000000   0.000001
     7  C   -0.016171  -2.213068   0.012153  -0.239987   0.000792   0.053930
     8  H    0.000091  -0.004796  -0.000135   0.004678   0.000010  -0.000002
     9  C    0.019997  -0.691730  -0.019440   0.236021  -0.059918   0.247197
    10  H   -0.000219  -0.010620   0.000064   0.025116   0.000228  -0.000538
    11  C    0.063821   0.621986  -0.015714  -1.242434   0.115850  -0.166035
    12  C    0.162772  -3.093444   0.009353   0.587819  -0.041723  -0.194656
    13  H    0.507001   0.103222  -0.006216   0.020931   0.000302   0.000423
    14  C    0.103222  11.711574   0.292733  -0.490039   0.004968   0.008463
    15  H   -0.006216   0.292733   0.481280   0.004954   0.000006   0.000006
    16  C    0.020931  -0.490039   0.004954   6.491147   0.351478   0.412270
    17  H    0.000302   0.004968   0.000006   0.351478   0.483707  -0.024175
    18  H    0.000423   0.008463   0.000006   0.412270  -0.024175   0.521853
    19  H   -0.000340   0.047576   0.000000   0.424290  -0.022725  -0.029906
              19
     1  O   -0.000002
     2  H    0.000000
     3  C    0.004740
     4  B    0.000154
     5  O    0.000002
     6  H    0.000000
     7  C    0.006523
     8  H    0.000012
     9  C   -0.180258
    10  H    0.000402
    11  C   -0.174715
    12  C    0.240789
    13  H   -0.000340
    14  C    0.047576
    15  H    0.000000
    16  C    0.424290
    17  H   -0.022725
    18  H   -0.029906
    19  H    0.517128
 Mulliken charges:
               1
     1  O   -0.359772
     2  H    0.301582
     3  C   -0.607960
     4  B    0.465771
     5  O   -0.346896
     6  H    0.251265
     7  C   -0.040696
     8  H    0.119293
     9  C   -0.428818
    10  H    0.154138
    11  C    0.913052
    12  C   -0.489294
    13  H    0.155622
    14  C   -0.155456
    15  H    0.179419
    16  C   -0.643032
    17  H    0.199773
    18  H    0.165678
    19  H    0.166330
 Sum of Mulliken charges =   0.00000
 Mulliken charges with hydrogens summed into heavy atoms:
               1
     1  O   -0.058190
     3  C   -0.607960
     4  B    0.465771
     5  O   -0.095631
     7  C    0.078597
     9  C   -0.274679
    11  C    0.913052
    12  C   -0.333672
    14  C    0.023963
    16  C   -0.111252
 APT charges:
               1
     1  O   -0.408004
     2  H    2.027282
     3  C   -1.659912
     4  B   -0.390388
     5  O    1.270047
     6  H   -1.176117
     7  C   -0.352120
     8  H   -0.178290
     9  C    0.416904
    10  H   -0.769496
    11  C   -0.979646
    12  C   -0.521133
    13  H    1.162735
    14  C   -0.530637
    15  H    1.855177
    16  C   -0.550994
    17  H   -0.616617
    18  H   -0.028041
    19  H    1.429249
 Sum of APT charges =   0.00000
 APT charges with hydrogens summed into heavy atoms:
               1
     1  O    1.619279
     3  C   -1.659912
     4  B   -0.390388
     5  O    0.093930
     7  C   -0.530410
     9  C   -0.352592
    11  C   -0.979646
    12  C    0.641602
    14  C    1.324540
    16  C    0.233597
 Electronic spatial extent (au):  <R**2>=          29540.4894
 Charge=              0.0000 electrons
 Dipole moment (field-independent basis, Debye):
    X=             -1.4181    Y=             -0.7378    Z=              0.1087  Tot=              1.6022
 Quadrupole moment (field-independent basis, Debye-Ang):
   XX=            -70.2075   YY=            -66.0798   ZZ=            -58.7642
   XY=            -13.7802   XZ=             -3.9730   YZ=             -6.7360
 Traceless Quadrupole moment (field-independent basis, Debye-Ang):
   XX=             -5.1903   YY=             -1.0627   ZZ=              6.2530
   XY=            -13.7802   XZ=             -3.9730   YZ=             -6.7360
 Octapole moment (field-independent basis, Debye-Ang**2):
  XXX=          -1029.9207  YYY=          -1318.8599  ZZZ=           -866.5148  XYY=           -442.0985
  XXY=           -520.7135  XXZ=           -311.3235  XZZ=           -340.9244  YZZ=           -479.5033
  YYZ=           -371.9809  XYZ=            -61.7768
 Hexadecapole moment (field-independent basis, Debye-Ang**3):
 XXXX=         -12160.6306 YYYY=         -18945.4498 ZZZZ=          -8854.0230 XXXY=          -7316.1798
 XXXZ=          -4982.1177 YYYX=          -7829.6518 YYYZ=          -6865.4415 ZZZX=          -5137.9664
 ZZZY=          -6470.9855 XXYY=          -6018.9207 XXZZ=          -3565.0323 YYZZ=          -5295.1565
 XXYZ=          -2308.8440 YYXZ=          -2323.0699 ZZXY=          -2644.0575
 N-N= 4.735658004822D+02 E-N=-1.991780439980D+03  KE= 4.459095827906D+02
  Exact polarizability:       0.000       0.000       0.000       0.000       0.000       0.000
 Approx polarizability:     140.293       5.026     124.135      15.260     -23.592      95.360
 Calling FoFJK, ICntrl=    100127 FMM=F ISym2X=0 I1Cent= 0 IOpClX= 0 NMat=1 NMatS=1 NMatT=0.
 -------------------------------------------------------------------
 Center     Atomic                   Forces (Hartrees/Bohr)
 Number     Number              X              Y              Z
 -------------------------------------------------------------------
      1        8           0.000750149    0.000234805    0.000044609
      2        1          -0.000058857   -0.000016531   -0.000005235
      3        6           0.001954868   -0.000608136    0.000919318
      4        5          -0.001825323    0.000493381   -0.000603797
      5        8           0.000383331   -0.000539124    0.000374577
      6        1          -0.000003531    0.000136294   -0.000076332
      7        6          -0.000360411    0.000116966   -0.000749777
      8        1           0.000034963   -0.000082234    0.000173812
      9        6           0.005864665   -0.000260727    0.001503211
     10        1          -0.000944729    0.000082825    0.000037775
     11        6          -0.021080915    0.007123302   -0.008487734
     12        6           0.004364237   -0.003231446    0.002599682
     13        1          -0.000652420    0.000603780   -0.000144485
     14        6          -0.000427850   -0.000240982   -0.000584476
     15        1           0.000107140    0.000079171    0.000112193
     16        6           0.029746275   -0.008238936    0.014752363
     17        1          -0.003105740   -0.004932294   -0.014351331
     18        1          -0.012046465   -0.004527340    0.006378126
     19        1          -0.002699385    0.013807225   -0.001892499
 -------------------------------------------------------------------
 Cartesian Forces:  Max     0.029746275 RMS     0.006584828
 FormGI is forming the generalized inverse of G from B-inverse, IUseBI=4.

 GradGradGradGradGradGradGradGradGradGradGradGradGradGradGradGradGradGrad
 Berny optimization.
 Internal  Forces:  Max     0.015360144 RMS     0.003280376
 Search for a local minimum.
 Step number   1 out of a maximum of   96
 All quantities printed in internal units (Hartrees-Bohrs-Radians)
 Mixed Optimization -- RFO/linear search
 Second derivative matrix not updated -- analytic derivatives used.
 ITU=  0
     Eigenvalues ---    0.00004   0.00095   0.01052   0.01197   0.01480
     Eigenvalues ---    0.01655   0.01711   0.02031   0.02170   0.02427
     Eigenvalues ---    0.02621   0.02753   0.02831   0.03977   0.05779
     Eigenvalues ---    0.05906   0.10363   0.11222   0.11346   0.11553
     Eigenvalues ---    0.11998   0.12369   0.12747   0.14181   0.14687
     Eigenvalues ---    0.16008   0.17882   0.18610   0.18851   0.19035
     Eigenvalues ---    0.19620   0.20230   0.27819   0.28765   0.29530
     Eigenvalues ---    0.35433   0.36250   0.36479   0.36496   0.38850
     Eigenvalues ---    0.39010   0.39187   0.39507   0.42292   0.42517
     Eigenvalues ---    0.47770   0.47820   0.49045   0.51964   0.55208
     Eigenvalues ---    0.56238
 RFO step:  Lambda=-3.44112383D-03 EMin= 4.36943515D-05
 Linear search not attempted -- first point.
 Iteration  1 RMS(Cart)=  0.01449199 RMS(Int)=  0.00034453
 Iteration  2 RMS(Cart)=  0.00022909 RMS(Int)=  0.00011614
 Iteration  3 RMS(Cart)=  0.00000023 RMS(Int)=  0.00011614
 Variable       Old X    -DE/DX   Delta X   Delta X   Delta X     New X
                                 (Linear)    (Quad)   (Total)
    R1        1.81680  -0.00005   0.00000  -0.00008  -0.00008   1.81671
    R2        2.57522   0.00067   0.00000   0.00148   0.00148   2.57670
    R3        2.96072  -0.00085   0.00000  -0.00471  -0.00471   2.95601
    R4        2.64369  -0.00055   0.00000  -0.00059  -0.00062   2.64307
    R5        2.64627  -0.00057   0.00000  -0.00104  -0.00107   2.64519
    R6        2.58707   0.00055   0.00000   0.00173   0.00173   2.58880
    R7        1.81109  -0.00009   0.00000  -0.00003  -0.00003   1.81106
    R8        2.05436   0.00016   0.00000   0.00037   0.00037   2.05473
    R9        2.62762   0.00017   0.00000  -0.00252  -0.00252   2.62510
   R10        2.04768   0.00070   0.00000   0.00298   0.00298   2.05066
   R11        2.62931   0.00226   0.00000   0.00822   0.00825   2.63757
   R12        2.63029   0.00212   0.00000   0.00748   0.00752   2.63781
   R13        2.91018  -0.01343   0.00000  -0.06796  -0.06796   2.84222
   R14        2.04791   0.00065   0.00000   0.00287   0.00287   2.05078
   R15        2.62641   0.00027   0.00000  -0.00197  -0.00197   2.62443
   R16        2.04895   0.00012   0.00000   0.00031   0.00031   2.04926
   R17        2.02201   0.01536   0.00000   0.04145   0.04145   2.06346
   R18        2.02201   0.01417   0.00000   0.03735   0.03735   2.05936
   R19        2.02201   0.01400   0.00000   0.03688   0.03688   2.05889
    A1        1.95648  -0.00007   0.00000  -0.00139  -0.00139   1.95509
    A2        2.14059   0.00065   0.00000   0.00445   0.00447   2.14506
    A3        2.08305   0.00071   0.00000   0.00461   0.00464   2.08769
    A4        2.05954  -0.00136   0.00000  -0.00906  -0.00912   2.05043
    A5        2.06486   0.00038   0.00000   0.00211   0.00211   2.06697
    A6        2.05255  -0.00045   0.00000  -0.00219  -0.00219   2.05037
    A7        2.16577   0.00007   0.00000   0.00008   0.00008   2.16585
    A8        1.99765  -0.00024   0.00000  -0.00209  -0.00209   1.99556
    A9        2.10452  -0.00037   0.00000   0.00058   0.00059   2.10510
   A10        2.11753   0.00063   0.00000   0.00242   0.00239   2.11992
   A11        2.06113  -0.00026   0.00000  -0.00298  -0.00297   2.05816
   A12        2.09724  -0.00076   0.00000  -0.00429  -0.00431   2.09294
   A13        2.08944   0.00267   0.00000   0.01655   0.01659   2.10603
   A14        2.09650  -0.00191   0.00000  -0.01227  -0.01229   2.08421
   A15        2.09317  -0.00523   0.00000  -0.02892  -0.02888   2.06429
   A16        2.09394   0.00243   0.00000   0.01363   0.01355   2.10749
   A17        2.09608   0.00280   0.00000   0.01527   0.01519   2.11127
   A18        2.09394  -0.00189   0.00000  -0.01202  -0.01204   2.08190
   A19        2.09339   0.00267   0.00000   0.01644   0.01648   2.10987
   A20        2.09586  -0.00078   0.00000  -0.00442  -0.00444   2.09142
   A21        2.11329   0.00062   0.00000   0.00256   0.00253   2.11582
   A22        2.07323  -0.00037   0.00000   0.00070   0.00071   2.07395
   A23        2.09666  -0.00025   0.00000  -0.00326  -0.00325   2.09341
   A24        1.91063   0.00169   0.00000   0.01797   0.01775   1.92838
   A25        1.91063   0.00252   0.00000   0.02943   0.02900   1.93964
   A26        1.91063   0.00247   0.00000   0.02914   0.02872   1.93935
   A27        1.91063  -0.00239   0.00000  -0.02994  -0.03015   1.88049
   A28        1.91063  -0.00233   0.00000  -0.02923  -0.02944   1.88120
   A29        1.91063  -0.00196   0.00000  -0.01737  -0.01797   1.89267
    D1        3.13168   0.00001   0.00000   0.00057   0.00057   3.13225
    D2       -0.00754  -0.00001   0.00000   0.00009   0.00009  -0.00745
    D3        3.07801   0.00002   0.00000   0.00499   0.00501   3.08302
    D4       -0.06611   0.00004   0.00000   0.00550   0.00552  -0.06059
    D5       -0.06313  -0.00003   0.00000   0.00189   0.00186  -0.06127
    D6        3.07593   0.00000   0.00000   0.00240   0.00237   3.07830
    D7       -0.00824   0.00002   0.00000   0.00137   0.00140  -0.00684
    D8        3.13850  -0.00010   0.00000  -0.00271  -0.00271   3.13579
    D9        3.13290   0.00007   0.00000   0.00444   0.00449   3.13740
   D10       -0.00354  -0.00005   0.00000   0.00036   0.00038  -0.00316
   D11       -3.13731   0.00010   0.00000   0.00243   0.00243  -3.13489
   D12        0.00350  -0.00002   0.00000  -0.00095  -0.00098   0.00252
   D13        0.00471   0.00005   0.00000  -0.00053  -0.00056   0.00415
   D14       -3.13766  -0.00007   0.00000  -0.00391  -0.00396   3.14156
   D15        3.11325   0.00000   0.00000   0.00121   0.00121   3.11445
   D16       -0.02583  -0.00002   0.00000   0.00070   0.00070  -0.02513
   D17        3.14063   0.00007   0.00000   0.00378   0.00383  -3.13872
   D18        0.00050   0.00007   0.00000   0.00195   0.00202   0.00253
   D19        0.00406  -0.00005   0.00000  -0.00021  -0.00018   0.00388
   D20       -3.13607  -0.00005   0.00000  -0.00204  -0.00199  -3.13806
   D21        0.00149  -0.00008   0.00000  -0.00411  -0.00417  -0.00268
   D22       -3.14115  -0.00041   0.00000  -0.02105  -0.02096   3.12108
   D23       -3.13864  -0.00009   0.00000  -0.00594  -0.00598   3.13856
   D24        0.00191  -0.00042   0.00000  -0.02289  -0.02276  -0.02086
   D25        3.14022   0.00009   0.00000   0.00588   0.00592  -3.13704
   D26       -0.00034   0.00008   0.00000   0.00395   0.00402   0.00368
   D27       -0.00033   0.00042   0.00000   0.02285   0.02274   0.02241
   D28       -3.14089   0.00041   0.00000   0.02092   0.02084  -3.12004
   D29       -1.52291   0.00017   0.00000   0.00504   0.00518  -1.51774
   D30        0.57148  -0.00017   0.00000  -0.00260  -0.00262   0.56886
   D31        2.66588   0.00048   0.00000   0.01199   0.01227   2.67815
   D32        1.61763  -0.00017   0.00000  -0.01196  -0.01209   1.60555
   D33       -2.57115  -0.00051   0.00000  -0.01960  -0.01989  -2.59104
   D34       -0.47676   0.00014   0.00000  -0.00501  -0.00499  -0.48175
   D35       -0.00284  -0.00007   0.00000  -0.00163  -0.00170  -0.00454
   D36        3.13955   0.00005   0.00000   0.00179   0.00174   3.14129
   D37        3.13979  -0.00008   0.00000  -0.00356  -0.00361   3.13619
   D38       -0.00101   0.00004   0.00000  -0.00014  -0.00016  -0.00117
         Item               Value     Threshold  Converged?
 Maximum Force            0.015360     0.000015     NO 
 RMS     Force            0.003280     0.000010     NO 
 Maximum Displacement     0.041755     0.000060     NO 
 RMS     Displacement     0.014462     0.000040     NO 
 Predicted change in Energy=-1.752526D-03
 GradGradGradGradGradGradGradGradGradGradGradGradGradGradGradGradGradGrad

                          Input orientation:                          
 ---------------------------------------------------------------------
 Center     Atomic      Atomic             Coordinates (Angstroms)
 Number     Number       Type             X           Y           Z
 ---------------------------------------------------------------------
      1          8           0        8.700598    7.448116    5.540629
      2          1           0        9.508358    7.129715    5.953382
      3          6           0        6.251384    6.996447    5.174212
      4          5           0        7.646603    6.613761    5.769026
      5          8           0        7.881633    5.487425    6.512562
      6          1           0        7.105794    4.945873    6.665117
      7          6           0        5.124311    6.176724    5.292464
      8          1           0        5.185871    5.221796    5.808780
      9          6           0        3.897390    6.549485    4.758205
     10          1           0        3.038490    5.895235    4.866957
     11          6           0        3.754704    7.761158    4.080283
     12          6           0        4.874098    8.585989    3.957560
     13          1           0        4.780602    9.533793    3.437326
     14          6           0        6.099303    8.209256    4.492057
     15          1           0        6.959098    8.861786    4.387540
     16          6           0        2.433730    8.154662    3.478356
     17          1           0        2.338057    7.749916    2.468729
     18          1           0        1.602642    7.771398    4.069953
     19          1           0        2.339405    9.238110    3.412866
 ---------------------------------------------------------------------
                    Distance matrix (angstroms):
                    1          2          3          4          5
     1  O    0.000000
     2  H    0.961364   0.000000
     3  C    2.517323   3.351529   0.000000
     4  B    1.363531   1.940702   1.564253   0.000000
     5  O    2.336593   2.378241   2.593461   1.369934   0.000000
     6  H    3.173183   3.323859   2.675382   1.969087   0.958372
     7  C    3.803663   4.534851   1.398651   2.603857   3.092992
     8  H    4.169138   4.727045   2.165036   2.827428   2.798750
     9  C    4.948791   5.766115   2.431898   3.883618   4.481064
    10  H    5.909716   6.675586   3.410244   4.750233   5.131312
    11  C    5.166476   6.083729   2.831055   4.394912   5.302583
    12  C    4.294527   5.251705   2.429774   3.854591   5.017409
    13  H    4.913278   5.870418   3.408533   4.709286   5.953701
    14  C    2.906127   3.862970   1.399775   2.563278   3.829818
    15  H    2.522082   3.456973   2.144575   2.726679   4.093055
    16  C    6.635195   7.564829   4.334960   5.898779   6.782345
    17  H    7.071745   7.996291   4.816791   6.353225   7.225142
    18  H    7.255920   8.152264   4.840531   6.384077   7.113972
    19  H    6.942351   7.892620   4.840555   6.372209   7.375097
                    6          7          8          9         10
     6  H    0.000000
     7  C    2.706556   0.000000
     8  H    2.120272   1.087317   0.000000
     9  C    4.062234   1.389143   2.127592   0.000000
    10  H    4.547266   2.147310   2.439630   1.085163   0.000000
    11  C    5.083011   2.419842   3.388849   1.395740   2.147903
    12  C    5.055865   2.765706   3.852533   2.396318   3.381807
    13  H    6.072410   3.850920   4.937747   3.380958   4.279942
    14  C    4.047825   2.392164   3.390138   2.770216   3.855362
    15  H    4.532466   3.375631   4.291128   3.854632   4.939780
    16  C    6.502304   3.800323   4.648318   2.521291   2.720103
    17  H    6.942884   4.267507   5.065310   3.018982   3.111582
    18  H    6.708439   4.054586   4.729008   2.689355   2.493364
    19  H    7.191586   4.545402   5.474811   3.386143   3.711862
                   11         12         13         14         15
    11  C    0.000000
    12  C    1.395869   0.000000
    13  H    2.146647   1.085227   0.000000
    14  C    2.422291   1.388791   2.146119   0.000000
    15  H    3.402048   2.146665   2.469888   1.084420   0.000000
    16  C    1.504039   2.524099   2.722405   3.803550   4.669646
    17  H    2.145721   3.057309   3.175912   4.295558   5.125632
    18  H    2.152111   3.373221   3.688588   4.537604   5.475530
    19  H    2.151722   2.673317   2.459160   4.044753   4.736367
                   16         17         18         19
    16  C    0.000000
    17  H    1.091933   0.000000
    18  H    1.089764   1.762162   0.000000
    19  H    1.089517   1.762419   1.768001   0.000000
 Symmetry turned off by external request.
 Stoichiometry    C7H9BO2
 Framework group  C1[X(C7H9BO2)]
 Deg. of freedom    51
 Full point group                 C1      NOp   1
 Rotational constants (GHZ):           3.6343817           0.7381355           0.6160520
 Standard basis: 6-311+G(d,p) (5D, 7F)
   274 basis functions,   432 primitive gaussians,   284 cartesian basis functions
    36 alpha electrons       36 beta electrons
       nuclear repulsion energy       473.6281619749 Hartrees.
 NAtoms=   19 NActive=   19 NUniq=   19 SFac= 1.00D+00 NAtFMM=   60 NAOKFM=F Big=F
 Integral buffers will be    131072 words long.
 Raffenetti 2 integral format.
 Two-electron integral symmetry is turned off.
 One-electron integrals computed using PRISM.
 NBasis=   274 RedAO= T EigKep=  2.29D-06  NBF=   274
 NBsUse=   274 1.00D-06 EigRej= -1.00D+00 NBFU=   274
 Initial guess from the checkpoint file:  "4-Me-phboh2-opt-freq.chk"
 B after Tr=    -0.014234    0.012845    0.005646
         Rot=    1.000000   -0.000403   -0.000612    0.000240 Ang=  -0.09 deg.
 ExpMin= 3.15D-02 ExpMax= 8.59D+03 ExpMxC= 1.30D+03 IAcc=3 IRadAn=         5 AccDes= 0.00D+00
 Harris functional with IExCor= 1009 and IRadAn=       5 diagonalized for initial guess.
 HarFok:  IExCor= 1009 AccDes= 0.00D+00 IRadAn=         5 IDoV= 1 UseB2=F ITyADJ=14
 ICtDFT=  3500011 ScaDFX=  1.000000  1.000000  1.000000  1.000000
 FoFCou: FMM=F IPFlag=           0 FMFlag=      100000 FMFlg1=           0
         NFxFlg=           0 DoJE=T BraDBF=F KetDBF=T FulRan=T
         wScrn=  0.000000 ICntrl=       500 IOpCl=  0 I1Cent=   200000004 NGrid=           0
         NMat0=    1 NMatS0=      1 NMatT0=    0 NMatD0=    1 NMtDS0=    0 NMtDT0=    0
 Symmetry not used in FoFCou.
 Requested convergence on RMS density matrix=1.00D-08 within 128 cycles.
 Requested convergence on MAX density matrix=1.00D-06.
 Requested convergence on             energy=1.00D-06.
 Level shift goal  0.100 maximum shift  0.100.
 No special actions if energy rises.
 Dynamic level shift is on during FON iterations.
 SCF Done:  E(RM062X) =  -447.531888611     A.U. after   12 cycles
            NFock= 12  Conv=0.27D-08     -V/T= 2.0037
 Calling FoFJK, ICntrl=      2127 FMM=F ISym2X=0 I1Cent= 0 IOpClX= 0 NMat=1 NMatS=1 NMatT=0.
 -------------------------------------------------------------------
 Center     Atomic                   Forces (Hartrees/Bohr)
 Number     Number              X              Y              Z
 -------------------------------------------------------------------
      1        8           0.000006675    0.000005212    0.000010572
      2        1          -0.000002117   -0.000006376    0.000001761
      3        6           0.000066060   -0.000026949    0.000013476
      4        5          -0.000024993    0.000011341    0.000000563
      5        8           0.000008180   -0.000014402    0.000000280
      6        1          -0.000003520   -0.000003178   -0.000006876
      7        6          -0.000006818   -0.000054318   -0.000036592
      8        1          -0.000011955    0.000001205    0.000012756
      9        6           0.000088943   -0.000047298    0.000012285
     10        1          -0.000039928    0.000020521    0.000049592
     11        6           0.000942761   -0.000199919    0.000614408
     12        6           0.000110724   -0.000053637   -0.000015204
     13        1          -0.000020954    0.000051537    0.000041021
     14        6           0.000026703    0.000000138   -0.000070489
     15        1          -0.000004924    0.000011639    0.000009202
     16        6           0.000031110    0.000116964    0.000206240
     17        1          -0.000200276   -0.000353155   -0.001054330
     18        1          -0.000787044   -0.000332531    0.000366753
     19        1          -0.000178625    0.000873206   -0.000155416
 -------------------------------------------------------------------
 Cartesian Forces:  Max     0.001054330 RMS     0.000277047

 GradGradGradGradGradGradGradGradGradGradGradGradGradGradGradGradGradGrad
 Berny optimization.
 Using GEDIIS/GDIIS optimizer.
 FormGI is forming the generalized inverse of G from B-inverse, IUseBI=4.
 Internal  Forces:  Max     0.001331327 RMS     0.000237584
 Search for a local minimum.
 Step number   2 out of a maximum of   96
 All quantities printed in internal units (Hartrees-Bohrs-Radians)
 Mixed Optimization -- En-DIIS/RFO-DIIS
 Update second derivatives using D2CorX and points    1    2
 DE= -1.75D-03 DEPred=-1.75D-03 R= 1.00D+00
 TightC=F SS=  1.41D+00  RLast= 1.36D-01 DXNew= 5.0454D-01 4.0891D-01
 Trust test= 1.00D+00 RLast= 1.36D-01 DXMaxT set to 4.09D-01
 ITU=  1  0
 Use linear search instead of GDIIS.
     Eigenvalues ---    0.00004   0.00095   0.01052   0.01197   0.01480
     Eigenvalues ---    0.01655   0.01711   0.02030   0.02170   0.02427
     Eigenvalues ---    0.02621   0.02754   0.02831   0.03977   0.05774
     Eigenvalues ---    0.05905   0.10363   0.11222   0.11346   0.11553
     Eigenvalues ---    0.11999   0.12484   0.12760   0.14179   0.14682
     Eigenvalues ---    0.16008   0.17883   0.18635   0.18981   0.19197
     Eigenvalues ---    0.19644   0.20229   0.27819   0.29080   0.29990
     Eigenvalues ---    0.35433   0.36250   0.36479   0.36497   0.37403
     Eigenvalues ---    0.38865   0.39011   0.39187   0.42284   0.42508
     Eigenvalues ---    0.47770   0.47821   0.49047   0.51952   0.55208
     Eigenvalues ---    0.56238
 RFO step:  Lambda=-3.28839895D-05 EMin= 4.36940329D-05
 Quartic linear search produced a step of  0.01831.
 Iteration  1 RMS(Cart)=  0.06509047 RMS(Int)=  0.00490187
 Iteration  2 RMS(Cart)=  0.00509637 RMS(Int)=  0.00002009
 Iteration  3 RMS(Cart)=  0.00002514 RMS(Int)=  0.00000411
 Iteration  4 RMS(Cart)=  0.00000000 RMS(Int)=  0.00000411
 Variable       Old X    -DE/DX   Delta X   Delta X   Delta X     New X
                                 (Linear)    (Quad)   (Total)
    R1        1.81671   0.00000   0.00000   0.00000   0.00000   1.81671
    R2        2.57670   0.00001   0.00003   0.00006   0.00009   2.57679
    R3        2.95601  -0.00001  -0.00009   0.00013   0.00004   2.95605
    R4        2.64307   0.00004  -0.00001  -0.00149  -0.00151   2.64156
    R5        2.64519   0.00004  -0.00002   0.00177   0.00175   2.64694
    R6        2.58880   0.00001   0.00003  -0.00010  -0.00006   2.58874
    R7        1.81106   0.00000   0.00000  -0.00005  -0.00005   1.81101
    R8        2.05473   0.00000   0.00001   0.00000   0.00001   2.05474
    R9        2.62510   0.00002  -0.00005   0.00184   0.00180   2.62690
   R10        2.05066   0.00002   0.00005  -0.00031  -0.00026   2.05040
   R11        2.63757   0.00008   0.00015  -0.00178  -0.00163   2.63593
   R12        2.63781   0.00009   0.00014   0.00160   0.00173   2.63954
   R13        2.84222   0.00133  -0.00124   0.00554   0.00429   2.84652
   R14        2.05078   0.00003   0.00005   0.00031   0.00036   2.05114
   R15        2.62443   0.00002  -0.00004  -0.00171  -0.00174   2.62269
   R16        2.04926   0.00000   0.00001  -0.00002  -0.00001   2.04924
   R17        2.06346   0.00112   0.00076   0.00236   0.00312   2.06657
   R18        2.05936   0.00092   0.00068   0.00112   0.00180   2.06116
   R19        2.05889   0.00089   0.00068   0.00235   0.00302   2.06191
    A1        1.95509   0.00000  -0.00003  -0.00005  -0.00008   1.95501
    A2        2.14506   0.00001   0.00008   0.00037   0.00045   2.14552
    A3        2.08769   0.00001   0.00008  -0.00042  -0.00033   2.08736
    A4        2.05043  -0.00002  -0.00017   0.00004  -0.00012   2.05030
    A5        2.06697   0.00001   0.00004  -0.00035  -0.00031   2.06666
    A6        2.05037  -0.00001  -0.00004  -0.00020  -0.00024   2.05012
    A7        2.16585   0.00000   0.00000   0.00055   0.00056   2.16640
    A8        1.99556  -0.00001  -0.00004   0.00042   0.00038   1.99594
    A9        2.10510   0.00000   0.00001   0.00045   0.00046   2.10557
   A10        2.11992   0.00001   0.00004   0.00024   0.00028   2.12020
   A11        2.05816  -0.00001  -0.00005  -0.00069  -0.00074   2.05741
   A12        2.09294  -0.00001  -0.00008  -0.00031  -0.00039   2.09255
   A13        2.10603   0.00004   0.00030  -0.00058  -0.00028   2.10575
   A14        2.08421  -0.00003  -0.00022   0.00089   0.00066   2.08488
   A15        2.06429  -0.00008  -0.00053   0.00059   0.00006   2.06434
   A16        2.10749   0.00003   0.00025   0.00513   0.00537   2.11286
   A17        2.11127   0.00005   0.00028  -0.00579  -0.00551   2.10575
   A18        2.08190  -0.00003  -0.00022  -0.00041  -0.00063   2.08126
   A19        2.10987   0.00004   0.00030  -0.00014   0.00017   2.11004
   A20        2.09142  -0.00001  -0.00008   0.00055   0.00047   2.09188
   A21        2.11582   0.00001   0.00005  -0.00015  -0.00011   2.11572
   A22        2.07395   0.00000   0.00001  -0.00019  -0.00018   2.07377
   A23        2.09341  -0.00001  -0.00006   0.00034   0.00028   2.09369
   A24        1.92838   0.00009   0.00032  -0.00130  -0.00098   1.92740
   A25        1.93964   0.00015   0.00053   0.00329   0.00381   1.94345
   A26        1.93935   0.00015   0.00053  -0.00150  -0.00098   1.93837
   A27        1.88049  -0.00015  -0.00055   0.00154   0.00098   1.88147
   A28        1.88120  -0.00015  -0.00054  -0.00253  -0.00308   1.87812
   A29        1.89267  -0.00010  -0.00033   0.00045   0.00011   1.89278
    D1        3.13225   0.00000   0.00001   0.00437   0.00438   3.13663
    D2       -0.00745   0.00000   0.00000   0.00319   0.00320  -0.00426
    D3        3.08302   0.00002   0.00009   0.02633   0.02643   3.10945
    D4       -0.06059   0.00002   0.00010   0.02759   0.02769  -0.03290
    D5       -0.06127   0.00001   0.00003   0.02570   0.02574  -0.03553
    D6        3.07830   0.00001   0.00004   0.02696   0.02700   3.10530
    D7       -0.00684   0.00001   0.00003   0.00382   0.00385  -0.00300
    D8        3.13579  -0.00001  -0.00005   0.00152   0.00147   3.13726
    D9        3.13740   0.00002   0.00008   0.00444   0.00452  -3.14127
   D10       -0.00316   0.00000   0.00001   0.00214   0.00215  -0.00101
   D11       -3.13489   0.00001   0.00004  -0.00203  -0.00198  -3.13687
   D12        0.00252   0.00000  -0.00002  -0.00203  -0.00205   0.00047
   D13        0.00415   0.00000  -0.00001  -0.00263  -0.00263   0.00152
   D14        3.14156  -0.00002  -0.00007  -0.00262  -0.00270   3.13886
   D15        3.11445   0.00000   0.00002   0.01084   0.01086   3.12532
   D16       -0.02513   0.00000   0.00001   0.00960   0.00961  -0.01553
   D17       -3.13872   0.00001   0.00007   0.00118   0.00125  -3.13747
   D18        0.00253   0.00001   0.00004   0.00017   0.00021   0.00274
   D19        0.00388   0.00000   0.00000  -0.00106  -0.00106   0.00282
   D20       -3.13806   0.00000  -0.00004  -0.00206  -0.00210  -3.14016
   D21       -0.00268  -0.00002  -0.00008  -0.00203  -0.00211  -0.00479
   D22        3.12108  -0.00008  -0.00038  -0.00666  -0.00706   3.11403
   D23        3.13856  -0.00003  -0.00011  -0.00304  -0.00314   3.13542
   D24       -0.02086  -0.00008  -0.00042  -0.00766  -0.00809  -0.02894
   D25       -3.13704   0.00002   0.00011   0.00253   0.00264  -3.13440
   D26        0.00368   0.00002   0.00007   0.00155   0.00163   0.00531
   D27        0.02241   0.00008   0.00042   0.00705   0.00745   0.02987
   D28       -3.12004   0.00008   0.00038   0.00607   0.00644  -3.11361
   D29       -1.51774   0.00002   0.00009  -0.19146  -0.19136  -1.70910
   D30        0.56886  -0.00003  -0.00005  -0.18825  -0.18830   0.38056
   D31        2.67815   0.00005   0.00022  -0.18646  -0.18623   2.49192
   D32        1.60555  -0.00004  -0.00022  -0.19614  -0.19636   1.40919
   D33       -2.59104  -0.00008  -0.00036  -0.19293  -0.19330  -2.78434
   D34       -0.48175   0.00000  -0.00009  -0.19114  -0.19123  -0.67298
   D35       -0.00454  -0.00001  -0.00003   0.00081   0.00077  -0.00376
   D36        3.14129   0.00000   0.00003   0.00081   0.00084  -3.14106
   D37        3.13619  -0.00001  -0.00007  -0.00017  -0.00025   3.13594
   D38       -0.00117   0.00000   0.00000  -0.00017  -0.00018  -0.00135
         Item               Value     Threshold  Converged?
 Maximum Force            0.001331     0.000015     NO 
 RMS     Force            0.000238     0.000010     NO 
 Maximum Displacement     0.281327     0.000060     NO 
 RMS     Displacement     0.065124     0.000040     NO 
 Predicted change in Energy=-2.070903D-05
 GradGradGradGradGradGradGradGradGradGradGradGradGradGradGradGradGradGrad

                          Input orientation:                          
 ---------------------------------------------------------------------
 Center     Atomic      Atomic             Coordinates (Angstroms)
 Number     Number       Type             X           Y           Z
 ---------------------------------------------------------------------
      1          8           0        8.699380    7.450510    5.541111
      2          1           0        9.509312    7.130166    5.948061
      3          6           0        6.250366    6.996185    5.177858
      4          5           0        7.647223    6.613612    5.768947
      5          8           0        7.886249    5.484746    6.507293
      6          1           0        7.113858    4.936223    6.652076
      7          6           0        5.117707    6.189701    5.321609
      8          1           0        5.173684    5.246510    5.859682
      9          6           0        3.889232    6.561754    4.787956
     10          1           0        3.025712    5.917818    4.918186
     11          6           0        3.752345    7.758982    4.085401
     12          6           0        4.878135    8.572705    3.938894
     13          1           0        4.787848    9.511062    3.400876
     14          6           0        6.103051    8.197424    4.472676
     15          1           0        6.967157    8.841086    4.350322
     16          6           0        2.434105    8.154363    3.473117
     17          1           0        2.415015    7.898788    2.409991
     18          1           0        1.602083    7.639271    3.954868
     19          1           0        2.269609    9.229736    3.557078
 ---------------------------------------------------------------------
                    Distance matrix (angstroms):
                    1          2          3          4          5
     1  O    0.000000
     2  H    0.961362   0.000000
     3  C    2.517148   3.351401   0.000000
     4  B    1.363577   1.940692   1.564275   0.000000
     5  O    2.336432   2.377915   2.593831   1.369900   0.000000
     6  H    3.173289   3.323736   2.676262   1.969271   0.958347
     7  C    3.803446   4.534656   1.397854   2.603509   3.093159
     8  H    4.170088   4.727963   2.164600   2.827648   2.798958
     9  C    4.949207   5.766648   2.432223   3.884266   4.482433
    10  H    5.909965   6.675889   3.410088   4.750398   5.132020
    11  C    5.165986   6.083385   2.831154   4.395028   5.303478
    12  C    4.292823   5.250282   2.429705   3.854217   5.018059
    13  H    4.911880   5.869330   3.408993   4.709459   5.954926
    14  C    2.905230   3.862436   1.400699   2.563835   3.831199
    15  H    2.520372   3.455802   2.145289   2.727018   4.094176
    16  C    6.635185   7.565241   4.337207   5.900961   6.786675
    17  H    7.035489   7.964782   4.815153   6.349036   7.249130
    18  H    7.274848   8.170450   4.849309   6.394260   7.116712
    19  H    6.960172   7.908115   4.843770   6.376143   7.367182
                    6          7          8          9         10
     6  H    0.000000
     7  C    2.706652   0.000000
     8  H    2.118594   1.087320   0.000000
     9  C    4.063927   1.390093   2.127975   0.000000
    10  H    4.547838   2.147816   2.439437   1.085025   0.000000
    11  C    5.084836   2.419725   3.388332   1.394876   2.147420
    12  C    5.058044   2.765502   3.852317   2.396406   3.382146
    13  H    6.075342   3.850904   4.937712   3.380817   4.280042
    14  C    4.050549   2.392183   3.390487   2.770526   3.855528
    15  H    4.535146   3.375456   4.291351   3.854932   4.939935
    16  C    6.508632   3.805068   4.653665   2.526381   2.727702
    17  H    6.989363   4.324702   5.152204   3.100919   3.253957
    18  H    6.705300   4.040897   4.702122   2.661978   2.432715
    19  H    7.174957   4.524052   5.440747   3.355052   3.659660
                   11         12         13         14         15
    11  C    0.000000
    12  C    1.396787   0.000000
    13  H    2.147237   1.085417   0.000000
    14  C    2.422402   1.387868   2.145730   0.000000
    15  H    3.402374   2.146000   2.469758   1.084413   0.000000
    16  C    1.506311   2.522943   2.717712   3.802911   4.667937
    17  H    2.148254   2.976352   3.035065   4.236208   5.037341
    18  H    2.157543   3.406475   3.736256   4.564906   5.512237
    19  H    2.154240   2.716962   2.538715   4.074219   4.779879
                   16         17         18         19
    16  C    0.000000
    17  H    1.093582   0.000000
    18  H    1.090717   1.764895   0.000000
    19  H    1.091116   1.763059   1.770143   0.000000
 Symmetry turned off by external request.
 Stoichiometry    C7H9BO2
 Framework group  C1[X(C7H9BO2)]
 Deg. of freedom    51
 Full point group                 C1      NOp   1
 Rotational constants (GHZ):           3.6339740           0.7378749           0.6157471
 Standard basis: 6-311+G(d,p) (5D, 7F)
   274 basis functions,   432 primitive gaussians,   284 cartesian basis functions
    36 alpha electrons       36 beta electrons
       nuclear repulsion energy       473.5425906810 Hartrees.
 NAtoms=   19 NActive=   19 NUniq=   19 SFac= 1.00D+00 NAtFMM=   60 NAOKFM=F Big=F
 Integral buffers will be    131072 words long.
 Raffenetti 2 integral format.
 Two-electron integral symmetry is turned off.
 One-electron integrals computed using PRISM.
 NBasis=   274 RedAO= T EigKep=  2.28D-06  NBF=   274
 NBsUse=   274 1.00D-06 EigRej= -1.00D+00 NBFU=   274
 Initial guess from the checkpoint file:  "4-Me-phboh2-opt-freq.chk"
 B after Tr=    -0.058541   -0.031519    0.115610
         Rot=    0.999993    0.003219   -0.001198    0.001317 Ang=   0.42 deg.
 ExpMin= 3.15D-02 ExpMax= 8.59D+03 ExpMxC= 1.30D+03 IAcc=3 IRadAn=         5 AccDes= 0.00D+00
 Harris functional with IExCor= 1009 and IRadAn=       5 diagonalized for initial guess.
 HarFok:  IExCor= 1009 AccDes= 0.00D+00 IRadAn=         5 IDoV= 1 UseB2=F ITyADJ=14
 ICtDFT=  3500011 ScaDFX=  1.000000  1.000000  1.000000  1.000000
 FoFCou: FMM=F IPFlag=           0 FMFlag=      100000 FMFlg1=           0
         NFxFlg=           0 DoJE=T BraDBF=F KetDBF=T FulRan=T
         wScrn=  0.000000 ICntrl=       500 IOpCl=  0 I1Cent=   200000004 NGrid=           0
         NMat0=    1 NMatS0=      1 NMatT0=    0 NMatD0=    1 NMtDS0=    0 NMtDT0=    0
 Symmetry not used in FoFCou.
 Requested convergence on RMS density matrix=1.00D-08 within 128 cycles.
 Requested convergence on MAX density matrix=1.00D-06.
 Requested convergence on             energy=1.00D-06.
 Level shift goal  0.100 maximum shift  0.100.
 No special actions if energy rises.
 Dynamic level shift is on during FON iterations.
 SCF Done:  E(RM062X) =  -447.531902554     A.U. after   12 cycles
            NFock= 12  Conv=0.67D-08     -V/T= 2.0038
 Calling FoFJK, ICntrl=      2127 FMM=F ISym2X=0 I1Cent= 0 IOpClX= 0 NMat=1 NMatS=1 NMatT=0.
 -------------------------------------------------------------------
 Center     Atomic                   Forces (Hartrees/Bohr)
 Number     Number              X              Y              Z
 -------------------------------------------------------------------
      1        8          -0.000006659   -0.000003286    0.000002332
      2        1          -0.000000093   -0.000005554    0.000002201
      3        6          -0.000012373   -0.000022480   -0.000000347
      4        5           0.000014808   -0.000013200   -0.000022152
      5        8          -0.000002748    0.000000966    0.000009647
      6        1          -0.000016394   -0.000005818   -0.000007861
      7        6           0.000006439    0.000023527    0.000097649
      8        1           0.000013552   -0.000003724   -0.000004539
      9        6          -0.000045429    0.000069037   -0.000015666
     10        1          -0.000005071   -0.000008524   -0.000063568
     11        6          -0.000103367   -0.000215403   -0.000226479
     12        6           0.000015163    0.000074675    0.000069968
     13        1           0.000033589   -0.000021560   -0.000054575
     14        6          -0.000039426    0.000066986    0.000055272
     15        1           0.000004455   -0.000012052   -0.000018809
     16        6           0.000171917   -0.000106244    0.000100956
     17        1          -0.000011379    0.000038541   -0.000000949
     18        1           0.000057599   -0.000006802    0.000086975
     19        1          -0.000074583    0.000150917   -0.000010055
 -------------------------------------------------------------------
 Cartesian Forces:  Max     0.000226479 RMS     0.000066088

 GradGradGradGradGradGradGradGradGradGradGradGradGradGradGradGradGradGrad
 Berny optimization.
 Using GEDIIS/GDIIS optimizer.
 FormGI is forming the generalized inverse of G from B-inverse, IUseBI=4.
 Internal  Forces:  Max     0.000177375 RMS     0.000044211
 Search for a local minimum.
 Step number   3 out of a maximum of   96
 All quantities printed in internal units (Hartrees-Bohrs-Radians)
 Mixed Optimization -- En-DIIS/RFO-DIIS
 Swapping is turned off.
 Update second derivatives using D2CorX and points    1    2    3
 DE= -1.39D-05 DEPred=-2.07D-05 R= 6.73D-01
 TightC=F SS=  1.41D+00  RLast= 4.72D-01 DXNew= 6.8771D-01 1.4160D+00
 Trust test= 6.73D-01 RLast= 4.72D-01 DXMaxT set to 6.88D-01
 ITU=  1  1  0
     Eigenvalues ---    0.00008   0.00094   0.01052   0.01197   0.01480
     Eigenvalues ---    0.01710   0.01806   0.02030   0.02181   0.02429
     Eigenvalues ---    0.02626   0.02770   0.02833   0.03978   0.05786
     Eigenvalues ---    0.05904   0.10363   0.11223   0.11346   0.11541
     Eigenvalues ---    0.11997   0.12331   0.12744   0.14187   0.14695
     Eigenvalues ---    0.16008   0.17881   0.18628   0.18973   0.19202
     Eigenvalues ---    0.19644   0.20227   0.26791   0.28043   0.29325
     Eigenvalues ---    0.33311   0.35434   0.36250   0.36480   0.36498
     Eigenvalues ---    0.38878   0.39089   0.39188   0.42282   0.42520
     Eigenvalues ---    0.47778   0.47817   0.49047   0.51931   0.55208
     Eigenvalues ---    0.56238
 Eigenvalue     1 is   7.88D-05 Eigenvector:
                          D29       D32       D31       D34       D30
   1                    0.41387   0.41323   0.40557   0.40493   0.40474
                          D33       D4        D6        D3        D5
   1                    0.40411  -0.02099  -0.02092  -0.02039  -0.02031
 En-DIIS/RFO-DIIS/Sim-DIIS IScMMF=       -3 using points:     3    2
 RFO step:  Lambda=-3.75614924D-06.
 DidBck=T Rises=F RFO-DIIS coefs:    0.69455    0.30545
 Iteration  1 RMS(Cart)=  0.02017730 RMS(Int)=  0.00049078
 Iteration  2 RMS(Cart)=  0.00050843 RMS(Int)=  0.00000034
 Iteration  3 RMS(Cart)=  0.00000024 RMS(Int)=  0.00000028
 Variable       Old X    -DE/DX   Delta X   Delta X   Delta X     New X
                                 (Linear)    (Quad)   (Total)
    R1        1.81671   0.00000   0.00000   0.00000   0.00000   1.81671
    R2        2.57679  -0.00001  -0.00003   0.00000  -0.00003   2.57676
    R3        2.95605  -0.00001  -0.00001  -0.00002  -0.00003   2.95602
    R4        2.64156  -0.00001   0.00046   0.00000   0.00046   2.64202
    R5        2.64694   0.00003  -0.00053   0.00011  -0.00042   2.64652
    R6        2.58874   0.00000   0.00002   0.00001   0.00003   2.58877
    R7        1.81101   0.00001   0.00001   0.00000   0.00002   1.81103
    R8        2.05474   0.00000   0.00000   0.00000   0.00000   2.05474
    R9        2.62690   0.00002  -0.00055   0.00007  -0.00048   2.62641
   R10        2.05040   0.00000   0.00008   0.00004   0.00012   2.05052
   R11        2.63593  -0.00007   0.00050  -0.00009   0.00041   2.63634
   R12        2.63954   0.00005  -0.00053   0.00013  -0.00040   2.63915
   R13        2.84652  -0.00018  -0.00131   0.00124  -0.00007   2.84645
   R14        2.05114   0.00001  -0.00011   0.00004  -0.00007   2.05107
   R15        2.62269  -0.00002   0.00053  -0.00004   0.00049   2.62318
   R16        2.04924   0.00000   0.00000   0.00000   0.00000   2.04925
   R17        2.06657  -0.00001  -0.00095   0.00128   0.00033   2.06690
   R18        2.06116   0.00000  -0.00055   0.00107   0.00052   2.06168
   R19        2.06191   0.00016  -0.00092   0.00135   0.00042   2.06233
    A1        1.95501   0.00000   0.00002  -0.00002   0.00000   1.95501
    A2        2.14552  -0.00004  -0.00014  -0.00005  -0.00019   2.14533
    A3        2.08736   0.00002   0.00010   0.00005   0.00015   2.08751
    A4        2.05030   0.00002   0.00004   0.00000   0.00004   2.05034
    A5        2.06666   0.00001   0.00010   0.00004   0.00013   2.06679
    A6        2.05012   0.00002   0.00007   0.00001   0.00008   2.05021
    A7        2.16640  -0.00003  -0.00017  -0.00005  -0.00022   2.16619
    A8        1.99594  -0.00002  -0.00012  -0.00006  -0.00017   1.99577
    A9        2.10557  -0.00001  -0.00014   0.00005  -0.00009   2.10548
   A10        2.12020  -0.00002  -0.00009  -0.00006  -0.00014   2.12006
   A11        2.05741   0.00002   0.00023   0.00001   0.00023   2.05765
   A12        2.09255   0.00003   0.00012   0.00018   0.00030   2.09285
   A13        2.10575   0.00000   0.00008   0.00006   0.00014   2.10589
   A14        2.08488  -0.00003  -0.00020  -0.00023  -0.00044   2.08444
   A15        2.06434   0.00003  -0.00002   0.00003   0.00001   2.06436
   A16        2.11286  -0.00008  -0.00164  -0.00037  -0.00201   2.11085
   A17        2.10575   0.00005   0.00168   0.00038   0.00206   2.10782
   A18        2.08126   0.00003   0.00019   0.00011   0.00030   2.08156
   A19        2.11004  -0.00003  -0.00005  -0.00008  -0.00013   2.10991
   A20        2.09188   0.00000  -0.00014  -0.00003  -0.00017   2.09171
   A21        2.11572   0.00000   0.00003   0.00005   0.00008   2.11579
   A22        2.07377   0.00000   0.00005   0.00000   0.00005   2.07382
   A23        2.09369   0.00000  -0.00009  -0.00004  -0.00013   2.09356
   A24        1.92740   0.00006   0.00030   0.00081   0.00111   1.92851
   A25        1.94345  -0.00016  -0.00116  -0.00061  -0.00178   1.94167
   A26        1.93837   0.00010   0.00030   0.00087   0.00117   1.93954
   A27        1.88147   0.00006  -0.00030  -0.00017  -0.00047   1.88100
   A28        1.87812  -0.00005   0.00094  -0.00068   0.00026   1.87838
   A29        1.89278   0.00000  -0.00003  -0.00027  -0.00030   1.89248
    D1        3.13663   0.00000  -0.00134   0.00092  -0.00042   3.13621
    D2       -0.00426   0.00000  -0.00098   0.00070  -0.00027  -0.00453
    D3        3.10945   0.00000  -0.00807   0.00485  -0.00322   3.10623
    D4       -0.03290  -0.00001  -0.00846   0.00508  -0.00338  -0.03628
    D5       -0.03553   0.00001  -0.00786   0.00511  -0.00275  -0.03828
    D6        3.10530   0.00000  -0.00825   0.00534  -0.00291   3.10240
    D7       -0.00300   0.00000  -0.00117   0.00091  -0.00027  -0.00326
    D8        3.13726   0.00002  -0.00045   0.00078   0.00033   3.13759
    D9       -3.14127  -0.00001  -0.00138   0.00065  -0.00073   3.14119
   D10       -0.00101   0.00001  -0.00066   0.00052  -0.00014  -0.00115
   D11       -3.13687  -0.00001   0.00061  -0.00066  -0.00005  -3.13692
   D12        0.00047   0.00001   0.00063  -0.00026   0.00037   0.00084
   D13        0.00152  -0.00001   0.00080  -0.00041   0.00039   0.00191
   D14        3.13886   0.00001   0.00082  -0.00001   0.00081   3.13967
   D15        3.12532   0.00000  -0.00332   0.00215  -0.00117   3.12414
   D16       -0.01553   0.00001  -0.00293   0.00192  -0.00102  -0.01654
   D17       -3.13747  -0.00001  -0.00038  -0.00021  -0.00059  -3.13806
   D18        0.00274  -0.00002  -0.00006  -0.00032  -0.00039   0.00235
   D19        0.00282   0.00001   0.00032  -0.00033  -0.00001   0.00281
   D20       -3.14016   0.00000   0.00064  -0.00045   0.00019  -3.13997
   D21       -0.00479   0.00002   0.00064   0.00000   0.00064  -0.00415
   D22        3.11403   0.00008   0.00215   0.00193   0.00408   3.11811
   D23        3.13542   0.00001   0.00096  -0.00012   0.00084   3.13626
   D24       -0.02894   0.00008   0.00247   0.00181   0.00428  -0.02466
   D25       -3.13440  -0.00002  -0.00081  -0.00023  -0.00103  -3.13543
   D26        0.00531  -0.00001  -0.00050   0.00011  -0.00038   0.00493
   D27        0.02987  -0.00009  -0.00228  -0.00214  -0.00442   0.02545
   D28       -3.11361  -0.00008  -0.00197  -0.00180  -0.00377  -3.11737
   D29       -1.70910  -0.00002   0.05845  -0.00032   0.05813  -1.65097
   D30        0.38056  -0.00001   0.05752  -0.00040   0.05712   0.43768
   D31        2.49192  -0.00006   0.05688  -0.00056   0.05632   2.54824
   D32        1.40919   0.00005   0.05998   0.00165   0.06163   1.47082
   D33       -2.78434   0.00006   0.05904   0.00158   0.06062  -2.72372
   D34       -0.67298   0.00001   0.05841   0.00142   0.05983  -0.61316
   D35       -0.00376   0.00000  -0.00024   0.00010  -0.00014  -0.00390
   D36       -3.14106  -0.00002  -0.00026  -0.00030  -0.00056   3.14157
   D37        3.13594   0.00002   0.00008   0.00044   0.00052   3.13646
   D38       -0.00135   0.00000   0.00005   0.00004   0.00010  -0.00126
         Item               Value     Threshold  Converged?
 Maximum Force            0.000177     0.000015     NO 
 RMS     Force            0.000044     0.000010     NO 
 Maximum Displacement     0.090417     0.000060     NO 
 RMS     Displacement     0.020181     0.000040     NO 
 Predicted change in Energy=-2.077174D-06
[...]
 0.00374593,0.00049629,0.00113769,0.05078485,0.59473968,-0.00304457,0.0
 0097827,-0.00035241,-0.00061272,-0.00015977,0.00033094,0.01664734,0.04
 257269,-0.08130836,-0.00557228,-0.00791324,0.00402507,0.00062434,0.001
 07056,-0.00140454,-0.00184358,0.00002041,-0.00036753,0.10777707,-0.237
 36606,0.29865415,0.00031147,0.00037798,-0.00018571,-0.00005240,-0.0000
 7669,-0.00002794,0.00712773,-0.01998388,0.01258098,0.00011628,-0.00092
 215,0.00132357,-0.00004157,0.00073139,-0.00014890,-0.00228307,0.000332
 33,-0.00148281,-0.05917777,0.00859151,-0.01037568,0.05995805,-0.000224
 21,0.00068569,-0.00036792,-0.00017785,-0.00004723,0.00009220,0.0023150
 0,-0.01191892,0.00804287,0.00174676,-0.00336969,0.00078730,0.00104016,
 0.00193719,-0.00116598,-0.00144014,0.00099620,-0.00022941,0.01237430,-
 0.25844962,0.12503270,-0.01130512,0.27270078,0.00023117,-0.00016356,0.
 00032133,0.00003168,0.00012618,0.00013905,0.00035079,0.00195860,0.0004
 9066,-0.00016825,0.00001139,-0.00305308,-0.00044500,-0.00126483,-0.000
 05570,-0.00041056,0.00040354,0.00110836,-0.01255356,0.12381907,-0.1092
 8835,0.01590710,-0.13983258,0.10589972,-0.00254083,0.00036489,-0.00069
 562,-0.00007381,-0.00012420,0.00015608,-0.05434644,-0.03970678,0.00442
 745,0.00091061,-0.00701189,0.00245498,0.00085635,0.00144200,-0.0006647
 1,-0.00059280,0.00029736,-0.00011375,-0.29460525,0.07558361,-0.1039781
 3,0.00256479,-0.00212532,0.00065227,0.70089983,0.00090881,0.00095532,-
 0.00063679,-0.00046320,-0.00016540,-0.00020962,0.00844839,0.05045894,-
 0.01974119,-0.00539960,0.00043675,0.00179957,0.00051827,0.00027445,0.0
 0010141,-0.00086762,-0.00008423,-0.00073786,0.00915327,-0.12898665,0.0
 3877191,0.02558541,-0.00506829,0.01233278,0.09015075,0.57203078,-0.001
 15935,-0.00074413,-0.00034885,0.00034252,-0.00018582,-0.00026132,-0.02
 188907,-0.03182712,0.02278301,0.00161072,0.00133282,0.00579731,-0.0001
 7017,0.00032082,-0.00006870,0.00062243,-0.00035518,-0.00035590,-0.0679
 6058,0.05651034,-0.11249395,-0.01468902,0.00467379,-0.00221001,0.10227
 943,-0.21870468,0.28305944,-0.00073642,0.00001201,-0.00015821,-0.00004
 403,-0.00003922,0.00002557,-0.00333737,0.00217079,-0.00409804,0.000440
 88,-0.00115253,0.00069201,-0.00020242,0.00041393,-0.00029841,-0.000032
 73,-0.00013679,0.00007163,-0.01671678,-0.01830695,0.00467340,0.0004820
 2,0.00076075,0.00080980,-0.23432313,-0.13538245,0.02255616,0.24738295,
 0.00009114,-0.00006635,-0.00002641,0.00004823,0.00000002,-0.00002014,0
 .00140825,0.00232588,0.00329063,0.00028833,0.00037534,0.00008710,-0.00
 007957,-0.00000875,-0.00001560,0.00004590,-0.00000652,0.00002131,0.008
 41840,0.00842684,-0.00075613,0.00018277,-0.00032684,-0.00208348,-0.134
 89015,-0.15343662,0.02817601,0.14610491,0.15814456,-0.00018936,-0.0000
 4215,-0.00018712,-0.00003008,-0.00004172,-0.00003829,-0.00361890,0.003
 51538,0.00460019,-0.00016614,-0.00028277,0.00051175,-0.00001216,0.0001
 1776,-0.00006127,-0.00003302,-0.00003326,0.00000484,-0.01008493,-0.007
 93956,0.00459935,0.00114748,-0.00189556,-0.00278476,0.02232389,0.02834
 920,-0.04686493,-0.02179815,-0.03427124,0.03874342,-0.00038947,0.00019
 644,-0.00021445,0.00007099,0.00001431,-0.00001786,-0.01211518,-0.02737
 504,0.01379291,-0.00092964,-0.00130690,0.00075596,0.00037283,-0.000440
 58,0.00036860,0.00027297,0.00009600,-0.00001198,0.03049379,0.03066860,
 -0.01078135,-0.00433668,0.00125411,-0.00386138,-0.12764148,0.04201430,
 -0.03860032,0.00358522,-0.02244765,0.01299254,0.63236587,-0.00132502,0
 .00002554,-0.00025943,0.00008198,-0.00010952,0.00004869,-0.02829362,-0
 .05755847,0.02007591,-0.00030695,-0.00342102,0.00141300,0.00070576,-0.
 00002800,0.00004253,0.00004392,0.00034561,0.00001440,0.08406188,0.0013
 5047,0.02513879,0.00036650,0.00304495,0.00247418,-0.02779595,-0.261699
 13,0.10063021,0.00268982,-0.01143224,0.00900319,0.05797916,0.56549152,
 0.00094607,0.00018598,0.00016797,-0.00006368,0.00005879,-0.00003548,0.
 01511556,0.01976694,-0.01464572,-0.00079025,0.00143624,-0.00148158,0.0
 0000157,-0.00052613,0.00003046,-0.00005637,0.00009355,0.00024587,-0.03
 928323,0.01144013,-0.01097564,-0.00354962,0.00288830,0.00523677,-0.000
 82267,0.11812700,-0.13432947,-0.00143833,0.00250220,0.00244988,0.09549
 090,-0.19867636,0.31569774,0.00012590,-0.00043284,0.00026585,0.0000758
 7,0.00018246,-0.00003793,0.02456995,0.07502700,-0.03780524,0.00486880,
 0.00103129,-0.00091763,-0.00101905,0.00123898,-0.00057748,-0.00009716,
 -0.00045616,0.00017292,-0.07635915,-0.01302761,-0.01157584,-0.00130404
 ,-0.00011418,0.00002506,0.04781245,-0.06199268,0.04384004,0.00179244,0
 .00077293,-0.00200318,-0.24679473,-0.06358649,-0.01335074,0.65171320,-
 0.00040164,0.00080292,-0.00063250,0.00016339,0.00012051,-0.00003047,0.
 02849366,0.00254747,0.01252310,-0.00132844,-0.00348082,0.00493700,0.00
 164586,-0.00010661,-0.00007731,-0.00016832,0.00021843,-0.00017401,-0.0
 1210173,-0.00527185,-0.00378391,-0.00018975,0.00030139,-0.00073227,-0.
 01573051,-0.03415123,0.01893436,0.00058766,-0.00252913,0.00521519,-0.1
 3249959,-0.18633685,0.02827421,0.04163300,0.60622354,0.00017099,-0.000
 65914,0.00026085,-0.00005518,-0.00003205,-0.00000137,-0.01242939,0.024
 68863,-0.00537618,0.00045528,0.00545785,0.00318774,-0.00082825,-0.0003
 1573,-0.00130435,0.00006232,-0.00017881,0.00021896,-0.01136131,-0.0040
 2934,-0.00726268,0.00001255,-0.00070837,-0.00052792,0.01868733,0.00726
 110,0.00904937,-0.00166404,0.00547071,0.00344502,0.02373943,0.04547093
 ,-0.08789260,0.11693221,-0.24415114,0.30239379,-0.00028313,-0.00021527
 ,0.00004649,0.00001006,0.00001475,-0.00001622,-0.00430192,0.00057129,-
 0.00353348,0.00091710,0.00094536,-0.00029813,-0.00055929,0.00032527,-0
 .00030890,-0.00002649,-0.00010675,0.00005745,-0.00138015,-0.00029149,-
 0.00001460,0.00004574,0.00019757,0.00024406,-0.00357789,-0.00385543,-0
 .00074091,0.00028475,-0.00121774,0.00069027,0.00545792,-0.02157600,0.0
 1225552,-0.05963673,0.01765813,-0.01503217,0.05903246,0.00031609,0.000
 11163,0.00001943,-0.00002882,-0.00000559,0.00001277,0.00110571,0.00288
 816,0.00290188,-0.00074854,-0.00012219,-0.00003802,0.00028030,-0.00023
 592,0.00010487,-0.00002116,0.00007042,-0.00003887,-0.00036092,0.000383
 28,-0.00071491,0.00018338,-0.00034890,-0.00042916,-0.00408919,0.000934
 27,0.00213728,0.00012307,-0.00067346,0.00049152,0.00427810,-0.01249661
 ,0.01002805,0.01716259,-0.26365008,0.12724816,-0.01777046,0.27653260,-
 0.00022730,-0.00011206,0.00001063,0.00000878,0.00002169,0.00001952,-0.
 00386253,0.00272047,0.00525529,0.00056710,0.00042559,0.00013346,-0.000
 22868,0.00008052,-0.00033601,0.00000449,-0.00004403,0.00005657,0.00011
 778,-0.00067270,-0.00034010,0.00024895,-0.00043943,-0.00093562,-0.0006
 2141,0.00247447,0.00546528,-0.00006428,0.00009080,0.00001093,-0.001242
 25,0.00295915,0.00211099,-0.01500097,0.12710094,-0.11186666,0.01840789
 ,-0.14122015,0.10798441,-0.00234061,-0.00055638,-0.00019307,0.00057925
 ,0.00021221,0.00005451,-0.12330063,-0.01345372,-0.00811466,0.00215500,
 0.02076333,-0.01141947,-0.00531593,0.00192205,-0.00316468,-0.00033717,
 -0.00069669,0.00037675,0.04670884,-0.01703480,0.02045099,-0.00366774,-
 0.00447890,-0.00059770,-0.02796256,0.02858056,-0.02109579,0.00017436,0
 .00106889,-0.00023410,-0.05619799,-0.04313792,0.00660555,-0.29815944,0
 .07794401,-0.10569028,0.00257742,-0.00162299,0.00045533,0.70256492,-0.
 00292899,-0.00284715,0.00068289,-0.00034376,-0.00036354,-0.00000049,0.
 03712291,-0.25632196,0.11540492,0.01123825,-0.00139282,0.00461924,-0.0
 0232653,0.00209698,-0.00094166,-0.00030280,-0.00049243,0.00018137,-0.0
 6242702,-0.03757008,0.00715348,-0.00391298,0.00107392,0.00261112,0.030
 70694,-0.03591175,0.02406069,0.00084014,-0.00071041,0.00007346,0.00864
 799,0.05681054,-0.02621373,0.01198953,-0.13421508,0.04122074,0.0251219
 4,-0.00334988,0.01066785,0.08942084,0.57040730,0.00114984,0.00124492,-
 0.00076833,0.00038855,0.00010979,-0.00020432,-0.03610471,0.10160483,-0
 .13090580,-0.00620702,0.00743783,-0.00388998,-0.00058708,0.00026621,0.
 00118166,0.00000962,0.00004767,0.00002721,0.04540532,0.01924555,0.0075
 0620,-0.00088563,0.00240855,0.00607778,-0.02275660,0.02387781,-0.02530
 715,-0.00018345,0.00018331,-0.00098335,-0.02189381,-0.03943110,0.02190
 030,-0.06895069,0.05866252,-0.11657644,-0.01415997,0.00348391,-0.00212
 491,0.10085526,-0.20855209,0.28783838,-0.00114160,0.00049670,-0.000532
 41,-0.00002222,0.00000359,0.00004725,0.00617755,0.00227988,-0.00026363
 ,0.00042214,0.00105774,0.00026338,0.00002296,-0.00041676,0.00013520,0.
 00002386,-0.00000947,0.00002691,0.00177749,0.00075145,-0.00190943,0.00
 031471,0.00026881,-0.00012386,-0.00005942,0.00105137,-0.00031997,-0.00
 011400,0.00006175,0.00024708,-0.00280135,0.00155075,-0.00388441,-0.015
 51271,-0.01745195,0.00404548,0.00053759,0.00077089,0.00090627,-0.23818
 260,-0.13705823,0.02186046,0.24946458,0.00036521,0.00073845,-0.0004160
 9,0.00022214,0.00031683,-0.00021814,-0.02117371,-0.01181288,0.00208544
 ,-0.00204012,-0.00242491,-0.00067523,0.00037530,0.00064689,-0.00002060
 ,-0.00014013,0.00005601,-0.00010754,0.00070358,-0.00243800,0.00556441,
 -0.00118101,-0.00071006,0.00020554,0.00089717,-0.00049637,-0.00004723,
 0.00004284,-0.00021067,-0.00049619,0.00161386,0.00215311,0.00376990,0.
 00864002,0.00923399,-0.00007772,0.00013312,-0.00045808,-0.00211032,-0.
 13623465,-0.15554055,0.02579175,0.14739673,0.16072010,-0.00038377,-0.0
 0033950,-0.00004008,-0.00007097,-0.00027661,-0.00009411,0.01258296,0.0
 0849856,0.00119534,0.00196208,0.00011857,-0.00234986,-0.00033483,-0.00
 015723,0.00048635,0.00008705,-0.00006504,0.00002256,-0.00195012,0.0055
 5105,0.00373397,0.00067050,0.00058033,0.00007752,-0.00019374,-0.000034
 69,-0.00100361,0.00025118,-0.00050236,-0.00078995,-0.00360237,0.003750
 59,0.00504320,-0.01032578,-0.00724196,0.00596241,0.00124500,-0.0019071
 6,-0.00298677,0.02142516,0.02546881,-0.04926825,-0.02082341,-0.0330067
 9,0.04020210,0.00000884,0.00003547,-0.00000047,-0.00000064,0.00001562,
 0.00000425,-0.00062450,0.00066036,-0.00016621,-0.00000391,-0.00003542,
 0.00006848,0.00004084,0.00008935,-0.00003993,-0.00006051,0.00000894,-0
 .00003421,0.00167329,-0.00158899,0.00035174,0.00032351,-0.00030429,0.0
 0014275,-0.00390351,0.00459194,-0.00488469,0.00095680,-0.00143683,0.00
 123298,-0.19372360,0.03027559,-0.05270792,-0.02826909,0.00655801,-0.01
 351293,0.00126953,0.00157254,0.00024055,0.00032064,-0.00427197,0.00050
 648,-0.00054272,0.00032767,-0.00033438,0.52200647,0.00001314,0.0001167
 9,-0.00005277,0.00001315,0.00002548,0.00000752,0.00021891,-0.00065589,
 -0.00034706,0.00011611,-0.00035659,-0.00015322,0.00002343,0.00019214,-
 0.00008598,-0.00012187,0.00001839,-0.00003868,-0.00175904,-0.00171128,
 0.00561209,0.00112777,-0.00044925,0.00042651,0.02680481,-0.00461572,0.
 01447352,0.00149550,-0.00015594,-0.00230486,0.02977241,-0.09471200,0.0
 2176203,-0.01517773,0.00926391,-0.00769899,-0.00071457,0.00016408,-0.0
 0102859,-0.00377741,-0.00157270,0.00215567,-0.00087277,0.00031227,-0.0
 0037836,0.02463297,0.57609844,-0.00052975,-0.00024036,0.00003094,0.000
 04060,-0.00000487,0.00002214,-0.00158655,0.00048303,-0.00204271,0.0016
 2556,-0.00061705,-0.00010940,-0.00028472,0.00039830,-0.00018662,0.0000
 0738,-0.00009265,0.00006266,0.00046993,0.00380876,0.00516547,-0.000352
 55,0.00003686,-0.00027635,-0.01697293,0.00747334,-0.00346165,0.0004307
 5,-0.00192163,-0.00251822,-0.04783180,0.02063317,-0.09680776,-0.000928
 88,-0.00112452,0.00581747,0.00115312,-0.00173616,-0.00238222,0.0020782
 6,0.00315941,0.00612898,0.00051236,-0.00024175,-0.00002636,-0.03130951
 ,-0.00613989,0.53530892,-0.00033876,-0.00010528,-0.00000080,0.00003203
 ,-0.00000411,-0.00000771,-0.00047736,0.00069017,-0.00072641,0.00085755
 ,-0.00019628,0.00022475,-0.00018943,0.00021994,-0.00016694,0.00000836,
 -0.00006200,0.00004297,-0.00096361,0.00045143,0.00082914,-0.00008270,0
 .00005645,-0.00009235,-0.00073941,-0.00065624,0.00051805,0.00020838,-0
 .00000574,-0.00039000,-0.00223797,-0.00714285,-0.03006297,-0.00098355,
 0.00116696,-0.00001395,0.00003344,-0.00064472,-0.00030156,0.00021804,0
 .00029137,0.00147142,-0.00003542,-0.00007012,-0.00010062,-0.04439738,-
 0.00253096,-0.00602684,0.04915672,0.00008406,0.00000722,0.00000859,-0.
 00000661,0.00000191,-0.00000579,0.00062504,0.00071487,-0.00017084,-0.0
 0019534,0.00013619,-0.00007239,0.00003413,-0.00007773,0.00005275,0.000
 00274,0.00001681,-0.00000538,-0.00088795,-0.00058259,-0.00095081,0.000
 00339,-0.00000096,0.00010285,0.00182943,-0.00105974,0.00044329,-0.0001
 6016,0.00007977,0.00043441,0.00037809,0.00236639,0.01017123,-0.0015491
 9,0.00037010,-0.00019966,-0.00008929,-0.00008826,-0.00011934,0.0005893
 8,-0.00077730,0.00052072,0.00000290,-0.00000318,-0.00000405,-0.0016139
 8,-0.06247193,-0.06650030,0.00005421,0.06487664,-0.00014273,-0.0000059
 0,0.00000253,0.00001649,0.00000172,-0.00000072,-0.00006472,-0.00047156
 ,0.00001466,0.00026715,-0.00015484,-0.00002111,-0.00008767,0.00008781,
 -0.00003503,0.00002289,-0.00003636,0.00001539,-0.00022124,0.00056243,0
 .00055908,-0.00007139,0.00004976,-0.00006932,-0.00116755,-0.00029750,0
 .00037951,0.00007798,-0.00022345,-0.00053627,-0.00321006,-0.00146986,-
 0.01114381,0.00115414,0.00089471,0.00054839,-0.00001914,-0.00027863,-0
 .00046091,-0.00093339,0.00079900,0.00001265,-0.00005542,0.00001063,-0.
 00002409,-0.00267009,-0.06785910,-0.29445505,0.00714342,0.07297088,0.3
 1988895,-0.00014434,-0.00001216,-0.00004654,0.00002425,0.00000912,0.00
 000405,0.00003133,0.00054095,-0.00014717,0.00038410,-0.00006656,0.0002
 3562,-0.00010952,0.00017648,-0.00014629,-0.00001193,-0.00004231,0.0000
 2707,-0.00016870,-0.00008342,-0.00054052,-0.00000191,0.00002698,0.0000
 1674,0.00166910,-0.00225493,0.00092830,0.00022009,0.00126384,-0.000156
 19,-0.02161371,-0.01415108,0.01343842,-0.00410422,0.00311198,-0.002581
 90,0.00005084,0.00016955,0.00016524,-0.00019170,-0.00168231,0.00009671
 ,-0.00034022,0.00013742,-0.00014183,-0.20231467,-0.09292439,0.09596927
 ,0.00084011,0.00119906,-0.00042682,0.22142834,0.00002423,0.00001398,-0
 .00001342,0.00000288,-0.00000470,-0.00000793,0.00017794,-0.00010900,0.
 00013603,-0.00014131,0.00007493,0.00003197,-0.00000825,-0.00003132,-0.
 00000733,0.00002061,-0.00000180,0.00001645,-0.00008162,0.00000819,-0.0
 0053624,-0.00004398,0.00002422,-0.00001528,0.00139484,0.00059317,0.000
 04406,-0.00010317,0.00001534,0.00040878,0.00643138,0.00304182,-0.00585
 456,0.00096708,-0.00008483,0.00130707,0.00031319,0.00024614,-0.0001746
 6,-0.00007570,0.00058345,0.00002530,0.00007386,-0.00005022,-0.00003034
 ,-0.09479849,-0.10600447,0.05945802,0.00794361,0.00397522,-0.00423632,
 0.10235858,0.11017652,0.00004098,0.00002685,-0.00000308,-0.00000661,0.
 00000658,0.00000216,-0.00003094,-0.00034289,0.00023326,-0.00012018,-0.
 00000973,-0.00005188,0.00003401,-0.00002645,0.00002573,-0.00001081,0.0
 0001805,-0.00000706,0.00027351,-0.00013645,0.00010918,0.00005293,-0.00
 002856,-0.00001159,-0.00052589,-0.00052085,0.00032763,0.00025681,0.000
 08230,0.00013549,-0.01296228,-0.00781811,0.00605917,-0.00194597,0.0014
 2419,-0.00052585,-0.00009270,-0.00000883,-0.00005143,-0.00092150,-0.00
 024194,-0.00023919,-0.00014286,0.00000394,-0.00015439,0.09902466,0.059
 83206,-0.10531239,0.02373225,0.01560634,-0.01370303,-0.10324351,-0.066
 18592,0.11260131,-0.00021918,-0.00010361,-0.00000966,0.00001570,0.0000
 0375,0.00000875,-0.00046403,0.00018825,-0.00008848,0.00051506,-0.00010
 112,0.00016838,-0.00011337,0.00010587,-0.00005943,0.00002727,-0.000046
 49,0.00002172,0.00061701,0.00041716,-0.00110531,-0.00029643,0.00012911
 ,-0.00015878,-0.00434660,-0.00013091,-0.00118780,-0.00002100,0.0003223
 6,0.00008199,-0.00383779,0.02956053,0.00215660,0.00128124,0.00090926,-
 0.00093620,-0.00045125,-0.00067542,0.00042658,0.00035789,-0.00012531,-
 0.00001469,0.00001140,-0.00001531,0.00003788,-0.05275939,0.03366054,0.
 00353630,-0.00090904,-0.00029991,0.00038816,0.00435277,-0.02445568,-0.
 00341189,0.05623972,0.00015306,0.00004583,0.00002792,-0.00001608,-0.00
 000323,0.00000183,0.00025326,0.00047985,-0.00033302,-0.00016446,0.0000
 0014,-0.00022489,0.00005463,-0.00001176,0.00007592,-0.00003655,0.00001
 560,-0.00003687,-0.00070884,-0.00012460,0.00026576,0.00013315,-0.00007
 459,0.00004941,0.00200219,-0.00000855,0.00012697,0.00003985,0.00018918
 ,-0.00030160,0.00072501,-0.00683612,0.00076622,-0.00230800,0.00074419,
 -0.00007423,0.00055638,0.00009839,-0.00062017,0.00056788,0.00009344,0.
 00091685,0.00004274,-0.00003271,-0.00002382,0.03528150,-0.31348573,-0.
 01683172,0.00054416,-0.00748343,-0.00034343,0.00222319,-0.01246665,-0.
 00168059,-0.03934307,0.33886076,0.00001122,-0.00000257,-0.00001282,-0.
 00000401,0.00000250,0.00000081,0.00025887,0.00016648,0.00009988,-0.000
 10713,0.00008567,0.00002383,-0.00001119,-0.00004851,0.00000310,0.00003
 145,-0.00000379,0.00001812,-0.00041539,0.00032608,-0.00088983,-0.00017
 480,0.00007517,-0.00013849,-0.00246845,0.00031460,-0.00015600,-0.00014
 236,-0.00008392,0.00026327,-0.00291043,0.01600013,-0.00163031,0.001030
 10,-0.00001814,0.00045006,0.00011643,-0.00005598,0.00043756,0.00006283
 ,-0.00015306,-0.00040545,0.00001102,-0.00001401,0.00001401,0.00408845,
 -0.01818192,-0.04495785,0.00392817,-0.03228251,-0.00097181,-0.00345066
 ,0.01563433,0.00056596,0.00014586,0.01823946,0.04728597\\0.00000013,0.
 00000361,-0.00000135,0.00000057,0.00000462,-0.00000143,0.00000037,0.00
 000114,-0.00000016,0.00000095,0.00000284,-0.00000043,0.00000223,0.0000
 0353,0.00000026,0.00000278,0.00000295,0.00000089,0.00000127,0.00000033
 ,0.00000078,0.00000221,0.00000070,0.00000138,0.00000062,-0.00000116,0.
 00000095,0.00000128,-0.00000186,0.00000170,-0.00000072,-0.00000183,0.0
 0000023,-0.00000134,-0.00000081,-0.00000074,-0.00000248,-0.00000129,-0
 .00000134,-0.00000094,0.00000058,-0.00000091,-0.00000154,0.00000128,-0
 .00000167,-0.00000138,-0.00000340,0.00000049,-0.00000135,-0.00000410,0
 .00000061,-0.00000049,-0.00000369,0.00000098,-0.00000217,-0.00000344,-
 0.00000023\\\@
 The archive entry for this job was punched.


 "THE ACADEMIC HIERARCHY"


 THE PRESIDENT:
   LEAPS TALL BUILDINGS IN A SINGLE BOUND,
     IS MORE POWERFUL THAN A LOCOMOTIVE,
       IS FASTER THAN A SPEEDING BULLET,
         WALKS ON WATER,
           GIVES POLICY TO GOD.

 THE VICE PRESIDENT FOR ACADEMIC AFFAIRS:
   LEAPS SHORT BUILDINGS IN A SINGLE BOUND,
     IS MORE POWERFUL THAN A SWITCH ENGINE,
       IS JUST AS FAST AS A SPEEDING BULLET,
         WALKS ON WATER IF SEA IS CALM,
           TALKS WITH GOD.

 PROFESSOR:
   LEAPS SHORT BUILDINGS WITH A RUNNING START AND FAVORABLE WINDS,
     IS ALMOST AS POWERFUL AS A SWITCH ENGINE,
       CAN FIRE A SPEEDING BULLET,
         WALKS ON WATER IN AN INDOOR SWIMMING POOL,
          TALKS WITH GOD IF SPECIAL REQUEST IS APPROVED.

 ASSOCIATE PROFESSOR:
   BARELY CLEARS A QUONSET HUT,
     LOSES TUG OF WAR WITH LOCOMOTIVE,
       MISFIRES FREQUENTLY,
         SWIMS WELL,
           IS OCCASIONALLY ADDRESSED BY GOD.

 ASSISTANT PROFESSOR:
   MAKES HIGH MARKS ON WALLS WHEN TRYING TO LEAP TALL BUILDINGS,
     IS RUN OVER BY LOCOMOTIVES,
       CAN SOMETIMES HANDLE A GUN WITHOUT INFLICTING SELF INJURY,
         DOG PADDLES,
           TALKS TO ANIMALS.

 GRADUATE STUDENT:
   RUNS INTO BUILDINGS,
     RECOGNIZES LOCOMOTIVES TWO OUT OF THREE TIMES,
       IS NOT ISSUED AMMUNITION,
         CAN STAY AFLOAT WITH A LIFE JACKET,
           TALKS TO WALLS.

 UNDERGRADUATE AND WORK STUDY STUDENT:
   FALLS OVER DOORSTEP WHEN TRYING TO ENTER BUILDINGS,
     SAYS, "LOOK AT THE CHOO-CHOO,"
       WETS HIMSELF WITH A WATER PISTOL,
        PLAYS IN MUD PUDDLES,
          MUMBLES TO HIMSELF.

 DEPARTMENT SECRETARY:
   LIFTS TALL BUILDINGS AND WALKS UNDER THEM,
     KICKS LOCOMOTIVES OFF THE TRACKS,
       CATCHES SPEEDING BULLETS IN HER TEETH AND EATS THEM,
         FREEZES WATER WITH A SINGLE GLANCE,
           IS GOD.
 Job cpu time:       0 days  0 hours 51 minutes 58.8 seconds.
 Elapsed time:       0 days  0 hours  1 minutes 39.6 seconds.
 File lengths (MBytes):  RWF=    136 Int=      0 D2E=      0 Chk=      8 Scr=      1
 Normal termination of Gaussian 16 at Mon Apr 21 18:05:28 2025.
