/home/tahminaafroz
cn010.cluster.local
tahminaafroz
Tue Apr 22 20:41:34 CDT 2025
 Entering Gaussian System, Link 0=g16
 Initial command:
 /home/apps/g16/l1.exe "/tmp/4-Me-phboh2-opt-freq-thf/Gau-1031821.inp" -scrdir="/tmp/4-Me-phboh2-opt-freq-thf/"
 Entering Link 1 = /home/apps/g16/l1.exe PID=   1031822.
  
 Copyright (c) 1988-2019, Gaussian, Inc.  All Rights Reserved.
  
 This is part of the Gaussian(R) 16 program.  It is based on
 the Gaussian(R) 09 system (copyright 2009, Gaussian, Inc.),
 the Gaussian(R) 03 system (copyright 2003, Gaussian, Inc.),
 the Gaussian(R) 98 system (copyright 1998, Gaussian, Inc.),
 the Gaussian(R) 94 system (copyright 1995, Gaussian, Inc.),
 the Gaussian 92(TM) system (copyright 1992, Gaussian, Inc.),
 the Gaussian 90(TM) system (copyright 1990, Gaussian, Inc.),
 the Gaussian 88(TM) system (copyright 1988, Gaussian, Inc.),
 the Gaussian 86(TM) system (copyright 1986, Carnegie Mellon
 University), and the Gaussian 82(TM) system (copyright 1983,
 Carnegie Mellon University). Gaussian is a federally registered
 trademark of Gaussian, Inc.
  
 This software contains proprietary and confidential information,
 including trade secrets, belonging to Gaussian, Inc.
  
 This software is provided under written license and may be
 used, copied, transmitted, or stored only in accord with that
 written license.
  
 The following legend is applicable only to US Government
 contracts under FAR:
  
                    RESTRICTED RIGHTS LEGEND
  
 Use, reproduction and disclosure by the US Government is
 subject to restrictions as set forth in subparagraphs (a)
 and (c) of the Commercial Computer Software - Restricted
 Rights clause in FAR 52.227-19.
  
 Gaussian, Inc.
 340 Quinnipiac St., Bldg. 40, Wallingford CT 06492
  
  
 ---------------------------------------------------------------
 Warning -- This program may not be used in any manner that
 competes with the business of Gaussian, Inc. or will provide
 assistance to any competitor of Gaussian, Inc.  The licensee
 of this program is prohibited from giving any competitor of
 Gaussian, Inc. access to this program.  By using this program,
 the user acknowledges that Gaussian, Inc. is engaged in the
 business of creating and licensing software in the field of
 computational chemistry and represents and warrants to the
 licensee that it is not a competitor of Gaussian, Inc. and that
 it will not use this program in any manner prohibited above.
 ---------------------------------------------------------------
  

 Cite this work as:
 Gaussian 16, Revision C.01,
 M. J. Frisch, G. W. Trucks, H. B. Schlegel, G. E. Scuseria, 
 M. A. Robb, J. R. Cheeseman, G. Scalmani, V. Barone, 
 G. A. Petersson, H. Nakatsuji, X. Li, M. Caricato, A. V. Marenich, 
 J. Bloino, B. G. Janesko, R. Gomperts, B. Mennucci, H. P. Hratchian, 
 J. V. Ortiz, A. F. Izmaylov, J. L. Sonnenberg, D. Williams-Young, 
 F. Ding, F. Lipparini, F. Egidi, J. Goings, B. Peng, A. Petrone, 
 T. Henderson, D. Ranasinghe, V. G. Zakrzewski, J. Gao, N. Rega, 
 G. Zheng, W. Liang, M. Hada, M. Ehara, K. Toyota, R. Fukuda, 
 J. Hasegawa, M. Ishida, T. Nakajima, Y. Honda, O. Kitao, H. Nakai, 
 T. Vreven, K. Throssell, J. A. Montgomery, Jr., J. E. Peralta, 
 F. Ogliaro, M. J. Bearpark, J. J. Heyd, E. N. Brothers, K. N. Kudin, 
 V. N. Staroverov, T. A. Keith, R. Kobayashi, J. Normand, 
 K. Raghavachari, A. P. Rendell, J. C. Burant, S. S. Iyengar, 
 J. Tomasi, M. Cossi, J. M. Millam, M. Klene, C. Adamo, R. Cammi, 
 J. W. Ochterski, R. L. Martin, K. Morokuma, O. Farkas, 
 J. B. Foresman, and D. J. Fox, Gaussian, Inc., Wallingford CT, 2019.
 
 ******************************************
 Gaussian 16:  AS64L-G16RevC.01  3-Jul-2019
                22-Apr-2025 
 ******************************************
 %mem=20GB
 %nprocshared=32
 Will use up to   32 processors via shared memory.
 %chk=4-Me-phboh2-opt-freq-thf.chk
 ----------------------------------------------------------------------
 # opt=(calcfc,tight) freq 6-311+g(d,p) scrf=(smd,solvent=thf) nosymm s
 cf=(qc,fermi,xqc) geom=connectivity int=ultrafine m062x
 ----------------------------------------------------------------------
 1/7=10,10=4,18=20,19=15,26=6,38=1,57=2/1,3;
 2/9=110,12=2,15=1,17=6,18=5,40=1/2;
 3/5=4,6=6,7=111,11=2,25=1,30=1,70=32201,71=2,72=20,74=-55,75=-5,140=1/1,2,3;
 4//1;
 5/5=2,22=13,38=5,53=20/2;
 8/6=4,10=90,11=11/1;
 11/6=1,8=1,9=11,15=111,16=1,31=1/1,2,10;
 10/6=1,13=1,31=1/2;
 6/7=2,8=2,9=2,10=2,28=1/1;
 7/10=1,25=1,30=1/1,2,3,16;
 1/7=10,10=4,18=20,19=15,26=6/3(2);
 2/9=110,15=1/2;
 99//99;
 2/9=110,15=1/2;
 3/5=4,6=6,7=111,11=2,25=1,30=1,70=32205,71=1,72=20,74=-55,75=-5/1,2,3;
 4/5=5,16=3,69=1/1;
 5/5=2,22=13,38=5,53=20/2;
 7/30=1/1,2,3,16;
 1/7=10,18=20,19=15,26=6/3(-5);
 2/9=110,15=1/2;
 6/7=2,8=2,9=2,10=2,19=2,28=1/1;
 99/9=1/99;
 ------------------------
 4-Me-phboh2-opt-freq-thf
 ------------------------
 Symbolic Z-matrix:
 Charge =  0 Multiplicity = 1
 O                     8.69919   7.4512    5.54335 
 H                     9.50873   7.13099   5.95119 
 C                     6.25061   6.9964    5.17743 
 B                     7.64701   6.61396   5.76968 
 O                     7.88538   5.48481   6.50782 
 H                     7.11269   4.93653   6.65196 
 C                     5.11878   6.18793   5.3174 
 H                     5.17541   5.24329   5.85286 
 C                     3.89081   6.55966   4.78262 
 H                     3.02788   5.91417   4.90925 
 C                     3.7533    7.75869   4.08318 
 C                     4.8782    8.57416   3.94017 
 H                     4.78783   9.51346   3.40385 
 C                     6.10288   8.19902   4.47485 
 H                     6.96648   8.8438    4.35487 
 C                     2.43379   8.15463   3.4747 
 H                     2.40091   7.87644   2.41758 
 H                     1.60196   7.65826   3.97617 
 H                     2.28025   9.23325   3.5371 
 

 GradGradGradGradGradGradGradGradGradGradGradGradGradGradGradGradGradGrad
 Berny optimization.
 Initialization pass.
                           ----------------------------
                           !    Initial Parameters    !
                           ! (Angstroms and Degrees)  !
 --------------------------                            --------------------------
 ! Name  Definition              Value          Derivative Info.                !
 --------------------------------------------------------------------------------
 ! R1    R(1,2)                  0.9614         calculate D2E/DX2 analytically  !
 ! R2    R(1,4)                  1.3636         calculate D2E/DX2 analytically  !
 ! R3    R(3,4)                  1.5643         calculate D2E/DX2 analytically  !
 ! R4    R(3,7)                  1.3979         calculate D2E/DX2 analytically  !
 ! R5    R(3,14)                 1.4006         calculate D2E/DX2 analytically  !
 ! R6    R(4,5)                  1.3699         calculate D2E/DX2 analytically  !
 ! R7    R(5,6)                  0.9584         calculate D2E/DX2 analytically  !
 ! R8    R(7,8)                  1.0873         calculate D2E/DX2 analytically  !
 ! R9    R(7,9)                  1.39           calculate D2E/DX2 analytically  !
 ! R10   R(9,10)                 1.0851         calculate D2E/DX2 analytically  !
 ! R11   R(9,11)                 1.3949         calculate D2E/DX2 analytically  !
 ! R12   R(11,12)                1.3967         calculate D2E/DX2 analytically  !
 ! R13   R(11,16)                1.506          calculate D2E/DX2 analytically  !
 ! R14   R(12,13)                1.0854         calculate D2E/DX2 analytically  !
 ! R15   R(12,14)                1.388          calculate D2E/DX2 analytically  !
 ! R16   R(14,15)                1.0844         calculate D2E/DX2 analytically  !
 ! R17   R(16,17)                1.0936         calculate D2E/DX2 analytically  !
 ! R18   R(16,18)                1.0908         calculate D2E/DX2 analytically  !
 ! R19   R(16,19)                1.0913         calculate D2E/DX2 analytically  !
 ! A1    A(2,1,4)              112.0147         calculate D2E/DX2 analytically  !
 ! A2    A(4,3,7)              122.9187         calculate D2E/DX2 analytically  !
 ! A3    A(4,3,14)             119.6037         calculate D2E/DX2 analytically  !
 ! A4    A(7,3,14)             117.4774         calculate D2E/DX2 analytically  !
 ! A5    A(1,4,3)              118.4163         calculate D2E/DX2 analytically  !
 ! A6    A(1,4,5)              117.4688         calculate D2E/DX2 analytically  !
 ! A7    A(3,4,5)              124.1148         calculate D2E/DX2 analytically  !
 ! A8    A(4,5,6)              114.3498         calculate D2E/DX2 analytically  !
 ! A9    A(3,7,8)              120.636          calculate D2E/DX2 analytically  !
 ! A10   A(3,7,9)              121.4718         calculate D2E/DX2 analytically  !
 ! A11   A(8,7,9)              117.8922         calculate D2E/DX2 analytically  !
 ! A12   A(7,9,10)             119.9072         calculate D2E/DX2 analytically  !
 ! A13   A(7,9,11)             120.6554         calculate D2E/DX2 analytically  !
 ! A14   A(10,9,11)            119.4374         calculate D2E/DX2 analytically  !
 ! A15   A(9,11,12)            118.2816         calculate D2E/DX2 analytically  !
 ! A16   A(9,11,16)            120.9933         calculate D2E/DX2 analytically  !
 ! A17   A(12,11,16)           120.7156         calculate D2E/DX2 analytically  !
 ! A18   A(11,12,13)           119.2614         calculate D2E/DX2 analytically  !
 ! A19   A(11,12,14)           120.8894         calculate D2E/DX2 analytically  !
 ! A20   A(13,12,14)           119.8491         calculate D2E/DX2 analytically  !
 ! A21   A(3,14,12)            121.2238         calculate D2E/DX2 analytically  !
 ! A22   A(3,14,15)            118.8189         calculate D2E/DX2 analytically  !
 ! A23   A(12,14,15)           119.9569         calculate D2E/DX2 analytically  !
 ! A24   A(11,16,17)           110.4881         calculate D2E/DX2 analytically  !
 ! A25   A(11,16,18)           111.2703         calculate D2E/DX2 analytically  !
 ! A26   A(11,16,19)           111.1014         calculate D2E/DX2 analytically  !
 ! A27   A(17,16,18)           107.8008         calculate D2E/DX2 analytically  !
 ! A28   A(17,16,19)           107.6064         calculate D2E/DX2 analytically  !
 ! A29   A(18,16,19)           108.4336         calculate D2E/DX2 analytically  !
 ! D1    D(2,1,4,3)            179.6965         calculate D2E/DX2 analytically  !
 ! D2    D(2,1,4,5)             -0.2543         calculate D2E/DX2 analytically  !
 ! D3    D(7,3,4,1)            178.0187         calculate D2E/DX2 analytically  !
 ! D4    D(7,3,4,5)             -2.0341         calculate D2E/DX2 analytically  !
 ! D5    D(14,3,4,1)            -2.1529         calculate D2E/DX2 analytically  !
 ! D6    D(14,3,4,5)           177.7943         calculate D2E/DX2 analytically  !
 ! D7    D(4,3,7,8)             -0.1869         calculate D2E/DX2 analytically  !
 ! D8    D(4,3,7,9)            179.767          calculate D2E/DX2 analytically  !
 ! D9    D(14,3,7,8)           179.9813         calculate D2E/DX2 analytically  !
 ! D10   D(14,3,7,9)            -0.0648         calculate D2E/DX2 analytically  !
 ! D11   D(4,3,14,12)         -179.7283         calculate D2E/DX2 analytically  !
 ! D12   D(4,3,14,15)            0.0498         calculate D2E/DX2 analytically  !
 ! D13   D(7,3,14,12)            0.1093         calculate D2E/DX2 analytically  !
 ! D14   D(7,3,14,15)          179.8874         calculate D2E/DX2 analytically  !
 ! D15   D(1,4,5,6)            179.0236         calculate D2E/DX2 analytically  !
 ! D16   D(3,4,5,6)             -0.9242         calculate D2E/DX2 analytically  !
 ! D17   D(3,7,9,10)          -179.796          calculate D2E/DX2 analytically  !
 ! D18   D(3,7,9,11)             0.1315         calculate D2E/DX2 analytically  !
 ! D19   D(8,7,9,10)             0.1592         calculate D2E/DX2 analytically  !
 ! D20   D(8,7,9,11)          -179.9134         calculate D2E/DX2 analytically  !
 ! D21   D(7,9,11,12)           -0.2337         calculate D2E/DX2 analytically  !
 ! D22   D(7,9,11,16)          178.6471         calculate D2E/DX2 analytically  !
 ! D23   D(10,9,11,12)         179.6941         calculate D2E/DX2 analytically  !
 ! D24   D(10,9,11,16)          -1.4252         calculate D2E/DX2 analytically  !
 ! D25   D(9,11,12,13)        -179.6459         calculate D2E/DX2 analytically  !
 ! D26   D(9,11,12,14)           0.2787         calculate D2E/DX2 analytically  !
 ! D27   D(16,11,12,13)          1.4702         calculate D2E/DX2 analytically  !
 ! D28   D(16,11,12,14)       -178.6053         calculate D2E/DX2 analytically  !
 ! D29   D(9,11,16,17)         -96.3462         calculate D2E/DX2 analytically  !
 ! D30   D(9,11,16,18)          23.3674         calculate D2E/DX2 analytically  !
 ! D31   D(9,11,16,19)         144.2936         calculate D2E/DX2 analytically  !
 ! D32   D(12,11,16,17)         82.5073         calculate D2E/DX2 analytically  !
 ! D33   D(12,11,16,18)       -157.7791         calculate D2E/DX2 analytically  !
 ! D34   D(12,11,16,19)        -36.853          calculate D2E/DX2 analytically  !
 ! D35   D(11,12,14,3)          -0.2217         calculate D2E/DX2 analytically  !
 ! D36   D(11,12,14,15)       -179.9973         calculate D2E/DX2 analytically  !
 ! D37   D(13,12,14,3)         179.7024         calculate D2E/DX2 analytically  !
 ! D38   D(13,12,14,15)         -0.0731         calculate D2E/DX2 analytically  !
 --------------------------------------------------------------------------------
 Trust Radius=3.00D-01 FncErr=5.00D-06 GrdErr=5.00D-06 EigMax=2.50D+02 EigMin=1.00D-04
 Number of steps in this run=     96 maximum allowed number of steps=    114.
 GradGradGradGradGradGradGradGradGradGradGradGradGradGradGradGradGradGrad

                          Input orientation:                          
 ---------------------------------------------------------------------
 Center     Atomic      Atomic             Coordinates (Angstroms)
 Number     Number       Type             X           Y           Z
 ---------------------------------------------------------------------
      1          8           0        8.699194    7.451204    5.543347
      2          1           0        9.508728    7.130989    5.951190
      3          6           0        6.250609    6.996402    5.177434
      4          5           0        7.647008    6.613959    5.769676
      5          8           0        7.885381    5.484812    6.507818
      6          1           0        7.112687    4.936526    6.651956
      7          6           0        5.118783    6.187926    5.317396
      8          1           0        5.175405    5.243293    5.852864
      9          6           0        3.890807    6.559656    4.782621
     10          1           0        3.027877    5.914169    4.909250
     11          6           0        3.753302    7.758692    4.083176
     12          6           0        4.878201    8.574164    3.940166
     13          1           0        4.787832    9.513461    3.403847
     14          6           0        6.102877    8.199016    4.474850
     15          1           0        6.966475    8.843805    4.354867
     16          6           0        2.433787    8.154631    3.474698
     17          1           0        2.400905    7.876435    2.417578
     18          1           0        1.601964    7.658256    3.976169
     19          1           0        2.280251    9.233246    3.537099
 ---------------------------------------------------------------------
                    Distance matrix (angstroms):
                    1          2          3          4          5
     1  O    0.000000
     2  H    0.961363   0.000000
     3  C    2.517202   3.351440   0.000000
     4  B    1.363561   1.940688   1.564271   0.000000
     5  O    2.336492   2.378022   2.593705   1.369908   0.000000
     6  H    3.173267   3.323816   2.675908   1.969187   0.958358
     7  C    3.803455   4.534609   1.397946   2.603456   3.092820
     8  H    4.169863   4.727658   2.164639   2.827449   2.798440
     9  C    4.949156   5.766542   2.432137   3.884105   4.481988
    10  H    5.910025   6.675906   3.410154   4.750412   5.131775
    11  C    5.166091   6.083454   2.831083   4.394956   5.303159
    12  C    4.293159   5.250595   2.429747   3.854323   5.017974
    13  H    4.912140   5.869582   3.408946   4.709474   5.954785
    14  C    2.905473   3.862652   1.400618   2.563849   3.831081
    15  H    2.520741   3.456159   2.145222   2.727091   4.094193
    16  C    6.635469   7.565424   4.336927   5.900701   6.785840
    17  H    7.044125   7.972656   4.817830   6.352323   7.247717
    18  H    7.271148   8.166740   4.846750   6.391383   7.114382
    19  H    6.957265   7.905580   4.843337   6.375511   7.368406
                    6          7          8          9         10
     6  H    0.000000
     7  C    2.706050   0.000000
     8  H    2.117951   1.087319   0.000000
     9  C    4.063185   1.389997   2.128009   0.000000
    10  H    4.547360   2.147886   2.439746   1.085051   0.000000
    11  C    5.084164   2.419740   3.388422   1.394926   2.147302
    12  C    5.057583   2.765642   3.852460   2.396439   3.382070
    13  H    6.074825   3.851023   4.937837   3.380922   4.280021
    14  C    4.050105   2.392239   3.390490   2.770465   3.855497
    15  H    4.534846   3.375518   4.291342   3.854873   4.939905
    16  C    6.507171   3.804296   4.652745   2.525374   2.725904
    17  H    6.983832   4.318202   5.141252   3.089845   3.232957
    18  H    6.703411   4.040888   4.703564   2.663849   2.438382
    19  H    7.177505   4.527769   5.446504   3.360550   3.668517
                   11         12         13         14         15
    11  C    0.000000
    12  C    1.396726   0.000000
    13  H    2.147313   1.085396   0.000000
    14  C    2.422353   1.387968   2.145730   0.000000
    15  H    3.402318   2.146060   2.469689   1.084412   0.000000
    16  C    1.506032   2.523456   2.719001   3.803222   4.668503
    17  H    2.148734   2.990334   3.057777   4.247473   5.053051
    18  H    2.156338   3.402045   3.730830   4.560627   5.506988
    19  H    2.154620   2.710387   2.526705   4.069580   4.772955
                   16         17         18         19
    16  C    0.000000
    17  H    1.093607   0.000000
    18  H    1.090775   1.764969   0.000000
    19  H    1.091273   1.763185   1.770155   0.000000
 Symmetry turned off by external request.
 Stoichiometry    C7H9BO2
 Framework group  C1[X(C7H9BO2)]
 Deg. of freedom    51
 Full point group                 C1      NOp   1
 Rotational constants (GHZ):           3.6339524           0.7379163           0.6157795
 Standard basis: 6-311+G(d,p) (5D, 7F)
   274 basis functions,   432 primitive gaussians,   284 cartesian basis functions
    36 alpha electrons       36 beta electrons
       nuclear repulsion energy       473.5498427485 Hartrees.
 NAtoms=   19 NActive=   19 NUniq=   19 SFac= 1.00D+00 NAtFMM=   60 NAOKFM=F Big=F
 Integral buffers will be    131072 words long.
 Raffenetti 2 integral format.
 Two-electron integral symmetry is turned off.
 Force inversion solution in PCM.
 ------------------------------------------------------------------------------
 Polarizable Continuum Model (PCM)
 =================================
 Model                : PCM.
 Atomic radii         : SMD-Coulomb.
 Polarization charges : Total charges.
 Charge compensation  : None.
 Solution method      : Matrix inversion.
 Cavity type          : VdW (van der Waals Surface) (Alpha=1.000).
 Cavity algorithm     : GePol (No added spheres)
                        Default sphere list used, NSphG=   19.
                        Lebedev-Laikov grids with approx.  5.0 points / Ang**2.
                        Smoothing algorithm: York/Karplus (Gamma=1.0000).
                        Polarization charges: spherical gaussians, with
                                              point-specific exponents (IZeta= 3).
                        Self-potential: point-specific (ISelfS= 7).
                        Self-field    : sphere-specific E.n sum rule (ISelfD= 2).
 1st derivatives      : Analytical E(r).r(x)/FMM algorithm (CHGder, D1EAlg=3).
                        Cavity 1st derivative terms included.
 2nd derivatives      : Analytical E(r).r(xy)/FMM algorithm (CHGder, D2EAlg=3).
                        Cavity 2nd derivative terms included.
 Solvent              : TetraHydroFuran, Eps=   7.425700 Eps(inf)=   1.974025
 ------------------------------------------------------------------------------
 Spheres list:
 ISph  on   Nord     Re0    Alpha      Xe            Ye            Ze
    1   O      1    2.2940  1.000      8.699194      7.451204      5.543347
    2   H      2    1.2000  1.000      9.508728      7.130989      5.951190
    3   C      3    1.8500  1.000      6.250609      6.996402      5.177434
    4   B      4    1.8000  1.000      7.647008      6.613959      5.769676
    5   O      5    2.2940  1.000      7.885381      5.484812      6.507818
    6   H      6    1.2000  1.000      7.112687      4.936526      6.651956
    7   C      7    1.8500  1.000      5.118783      6.187926      5.317396
    8   H      8    1.2000  1.000      5.175405      5.243293      5.852864
    9   C      9    1.8500  1.000      3.890807      6.559656      4.782621
   10   H     10    1.2000  1.000      3.027877      5.914169      4.909250
   11   C     11    1.8500  1.000      3.753302      7.758692      4.083176
   12   C     12    1.8500  1.000      4.878201      8.574164      3.940166
   13   H     13    1.2000  1.000      4.787832      9.513461      3.403847
   14   C     14    1.8500  1.000      6.102877      8.199016      4.474850
   15   H     15    1.2000  1.000      6.966475      8.843805      4.354867
   16   C     16    1.8500  1.000      2.433787      8.154631      3.474698
   17   H     17    1.2000  1.000      2.400905      7.876435      2.417578
   18   H     18    1.2000  1.000      1.601964      7.658256      3.976169
   19   H     19    1.2000  1.000      2.280251      9.233246      3.537099
 ------------------------------------------------------------------------------
 ------------------------------------------------------------------------------
 Atomic radii for non-electrostatic terms: SMD-CDS.
 ------------------------------------------------------------------------------
 Nuclear repulsion after PCM non-electrostatic terms =      473.5456524770 Hartrees.
 One-electron integrals computed using PRISM.
 NBasis=   274 RedAO= T EigKep=  2.28D-06  NBF=   274
 NBsUse=   274 1.00D-06 EigRej= -1.00D+00 NBFU=   274
 ExpMin= 3.15D-02 ExpMax= 8.59D+03 ExpMxC= 1.30D+03 IAcc=3 IRadAn=         5 AccDes= 0.00D+00
 Harris functional with IExCor= 1009 and IRadAn=       5 diagonalized for initial guess.
 HarFok:  IExCor= 1009 AccDes= 0.00D+00 IRadAn=         5 IDoV= 1 UseB2=F ITyADJ=14
 ICtDFT=  3500011 ScaDFX=  1.000000  1.000000  1.000000  1.000000
 FoFCou: FMM=F IPFlag=           0 FMFlag=      100000 FMFlg1=           0
         NFxFlg=           0 DoJE=T BraDBF=F KetDBF=T FulRan=T
         wScrn=  0.000000 ICntrl=       500 IOpCl=  0 I1Cent=   200000004 NGrid=           0
         NMat0=    1 NMatS0=      1 NMatT0=    0 NMatD0=    1 NMtDS0=    0 NMtDT0=    0
 Symmetry not used in FoFCou.
 Requested convergence on RMS density matrix=1.00D-08 within 128 cycles.
 Requested convergence on MAX density matrix=1.00D-06.
 Requested convergence on             energy=1.00D-06.
 Level shift goal  0.100 maximum shift  0.100.
 No special actions if energy rises.
 Dynamic level shift is on during FON iterations.
 Inv3:  Mode=1 IEnd=     8029488.
 Iteration    1 A*A^-1 deviation from unit magnitude is 7.99D-15 for   1634.
 Iteration    1 A*A^-1 deviation from orthogonality  is 2.04D-15 for    819    316.
 Iteration    1 A^-1*A deviation from unit magnitude is 8.22D-15 for   1634.
 Iteration    1 A^-1*A deviation from orthogonality  is 1.27D-15 for   1620   1618.
 Error on total polarization charges =  0.03041
 SCF Done:  E(RM062X) =  -447.545582574     A.U. after   14 cycles
            NFock= 14  Conv=0.38D-08     -V/T= 2.0038
 SMD-CDS (non-electrostatic) energy       (kcal/mol) =      -2.63
 (included in total energy above)
 DoSCS=F DFT=T ScalE2(SS,OS)=  1.000000  1.000000
 Range of M.O.s used for correlation:     1   274
 NBasis=   274 NAE=    36 NBE=    36 NFC=     0 NFV=     0
 NROrb=    274 NOA=    36 NOB=    36 NVA=   238 NVB=   238

 **** Warning!!: The largest alpha MO coefficient is  0.16568119D+03

 Symmetrizing basis deriv contribution to polar:
 IMax=3 JMax=2 DiffMx= 0.00D+00
 G2DrvN: will do    20 centers at a time, making    1 passes.
 Calling FoFCou, ICntrl=  3107 FMM=F I1Cent=   0 AccDes= 0.00D+00.
 NEqPCM:  Using equilibrium solvation (IEInf=0, Eps=   7.4257, EpsInf=   1.9740)
 G2PCM: DoFxE=T DoFxN=T DoGrad=T DoDP/DQ/DG/TGxP=FFFF NFrqRd=   0 IEInf=0 SqF1=F DoCFld=F IF1Alg=4.
 End of G2Drv F.D. properties file   721 does not exist.
 End of G2Drv F.D. properties file   722 does not exist.
 End of G2Drv F.D. properties file   788 does not exist.
          IDoAtm=1111111111111111111
 NEqPCM:  Using equilibrium solvation (IEInf=0, Eps=   7.4257, EpsInf=   1.9740)
          Differentiating once with respect to nuclear coordinates.
 Keep R1 ints in memory in canonical form, NReq=745413662.
          There are    60 degrees of freedom in the 1st order CPHF.  IDoFFX=6 NUNeed=     0.
     54 vectors produced by pass  0 Test12= 1.43D-14 1.67D-09 XBig12= 1.45D-01 1.11D-01.
 AX will form    54 AO Fock derivatives at one time.
     54 vectors produced by pass  1 Test12= 1.43D-14 1.67D-09 XBig12= 8.91D-03 2.95D-02.
     54 vectors produced by pass  2 Test12= 1.43D-14 1.67D-09 XBig12= 2.81D-04 2.77D-03.
     54 vectors produced by pass  3 Test12= 1.43D-14 1.67D-09 XBig12= 1.80D-06 2.14D-04.
     54 vectors produced by pass  4 Test12= 1.43D-14 1.67D-09 XBig12= 1.49D-08 1.25D-05.
     54 vectors produced by pass  5 Test12= 1.43D-14 1.67D-09 XBig12= 7.11D-11 7.31D-07.
     43 vectors produced by pass  6 Test12= 1.43D-14 1.67D-09 XBig12= 2.78D-13 5.49D-08.
      6 vectors produced by pass  7 Test12= 1.43D-14 1.67D-09 XBig12= 9.84D-16 3.27D-09.
 InvSVY:  IOpt=1 It=  1 EMax= 5.00D-16
 Solved reduced A of dimension   373 with    60 vectors.
 End of Minotr F.D. properties file   721 does not exist.
 End of Minotr F.D. properties file   722 does not exist.
 End of Minotr F.D. properties file   788 does not exist.

 **********************************************************************

            Population analysis using the SCF Density.

 **********************************************************************

 Alpha  occ. eigenvalues --  -19.63362 -19.62859 -10.55418 -10.54662 -10.54182
 Alpha  occ. eigenvalues --  -10.53889 -10.53754 -10.52651 -10.52541  -7.08061
 Alpha  occ. eigenvalues --   -1.16519  -1.12826  -0.96385  -0.86947  -0.84247
 Alpha  occ. eigenvalues --   -0.77479  -0.69094  -0.67109  -0.64614  -0.62545
 Alpha  occ. eigenvalues --   -0.57288  -0.52976  -0.51947  -0.49531  -0.48748
 Alpha  occ. eigenvalues --   -0.48481  -0.47543  -0.45405  -0.44370  -0.43463
 Alpha  occ. eigenvalues --   -0.42288  -0.40276  -0.39228  -0.37830  -0.30984
 Alpha  occ. eigenvalues --   -0.29979
 Alpha virt. eigenvalues --   -0.00075   0.00184   0.01686   0.02130   0.02282
 Alpha virt. eigenvalues --    0.03229   0.03835   0.04516   0.05141   0.05814
 Alpha virt. eigenvalues --    0.07167   0.07601   0.09199   0.09440   0.10412
 Alpha virt. eigenvalues --    0.10817   0.11344   0.12587   0.13589   0.13956
 Alpha virt. eigenvalues --    0.14695   0.15243   0.15330   0.15611   0.16405
 Alpha virt. eigenvalues --    0.17146   0.17798   0.18974   0.19403   0.19586
 Alpha virt. eigenvalues --    0.20489   0.21509   0.22037   0.22698   0.22777
 Alpha virt. eigenvalues --    0.23068   0.23982   0.24651   0.24798   0.24988
 Alpha virt. eigenvalues --    0.25361   0.25980   0.26630   0.27092   0.28226
 Alpha virt. eigenvalues --    0.28711   0.29287   0.29807   0.30788   0.32281
 Alpha virt. eigenvalues --    0.33393   0.34431   0.35782   0.37355   0.38128
 Alpha virt. eigenvalues --    0.39047   0.41919   0.43890   0.45525   0.46238
 Alpha virt. eigenvalues --    0.48048   0.49797   0.50362   0.50953   0.51796
 Alpha virt. eigenvalues --    0.53261   0.55547   0.57853   0.58469   0.58762
 Alpha virt. eigenvalues --    0.60168   0.61271   0.62032   0.62995   0.65011
 Alpha virt. eigenvalues --    0.65391   0.66520   0.67881   0.68459   0.69581
 Alpha virt. eigenvalues --    0.69632   0.71678   0.72128   0.72762   0.74258
 Alpha virt. eigenvalues --    0.74634   0.76262   0.78158   0.79480   0.83083
 Alpha virt. eigenvalues --    0.84915   0.86603   0.88055   0.91108   0.91235
 Alpha virt. eigenvalues --    0.92330   0.92949   0.94016   0.95784   0.96394
 Alpha virt. eigenvalues --    1.00804   1.03042   1.03881   1.05495   1.05928
 Alpha virt. eigenvalues --    1.08118   1.09532   1.11145   1.11882   1.12478
 Alpha virt. eigenvalues --    1.13094   1.14442   1.15692   1.20816   1.21519
 Alpha virt. eigenvalues --    1.27444   1.33627   1.34465   1.35629   1.39572
 Alpha virt. eigenvalues --    1.42048   1.42238   1.46193   1.49002   1.51149
 Alpha virt. eigenvalues --    1.51874   1.52560   1.54269   1.56846   1.58592
 Alpha virt. eigenvalues --    1.60805   1.60894   1.62687   1.63955   1.65201
 Alpha virt. eigenvalues --    1.66235   1.68873   1.71445   1.71635   1.73060
 Alpha virt. eigenvalues --    1.76719   1.80714   1.81294   1.81558   1.84416
 Alpha virt. eigenvalues --    1.86639   1.87029   1.88612   1.94951   1.95761
 Alpha virt. eigenvalues --    1.97185   1.98261   1.99557   2.02649   2.03932
 Alpha virt. eigenvalues --    2.05298   2.08011   2.11194   2.13647   2.15033
 Alpha virt. eigenvalues --    2.17383   2.20054   2.22676   2.24871   2.28741
 Alpha virt. eigenvalues --    2.36072   2.40961   2.42205   2.44925   2.46651
 Alpha virt. eigenvalues --    2.49619   2.56567   2.58002   2.58310   2.59532
 Alpha virt. eigenvalues --    2.62721   2.63372   2.64274   2.66450   2.68090
 Alpha virt. eigenvalues --    2.70224   2.72619   2.74470   2.74808   2.79646
 Alpha virt. eigenvalues --    2.80153   2.80922   2.81863   2.86123   2.90676
 Alpha virt. eigenvalues --    2.92823   2.94331   2.97311   2.99679   2.99933
 Alpha virt. eigenvalues --    3.07773   3.11575   3.15861   3.24477   3.24982
 Alpha virt. eigenvalues --    3.26885   3.28750   3.32186   3.41074   3.43928
 Alpha virt. eigenvalues --    3.48900   3.54877   3.56544   3.61205   3.64325
 Alpha virt. eigenvalues --    3.67040   3.71623   3.86004   3.88204   3.92800
 Alpha virt. eigenvalues --    3.95534   4.05127   4.11569   4.19717   4.21909
 Alpha virt. eigenvalues --    4.38007   4.87133   5.08617   5.09511   5.40147
 Alpha virt. eigenvalues --    5.50656   5.69385   5.77144  14.80185  23.69010
 Alpha virt. eigenvalues --   24.01557  24.03516  24.07432  24.15203  24.19100
 Alpha virt. eigenvalues --   24.26926  50.01188  50.06128
          Condensed to atoms (all electrons):
               1          2          3          4          5          6
     1  O    7.776506   0.286840   0.073402   0.433720  -0.124431   0.017840
     2  H    0.286840   0.419756   0.038988  -0.005825  -0.031675   0.002944
     3  C    0.073402   0.038988   8.888582   0.300243  -0.161410   0.018057
     4  B    0.433720  -0.005825   0.300243   3.326222   0.372176   0.012780
     5  O   -0.124431  -0.031675  -0.161410   0.372176   7.969221   0.272411
     6  H    0.017840   0.002944   0.018057   0.012780   0.272411   0.393915
     7  C    0.047710  -0.010390  -1.556110   0.100435   0.013383  -0.058062
     8  H    0.002066  -0.000020   0.023360   0.009934  -0.006642   0.009583
     9  C    0.058420   0.005350   0.510339   0.061032  -0.017770   0.054638
    10  H   -0.000044  -0.000001  -0.020691  -0.000248   0.000295  -0.000046
    11  C   -0.010439  -0.001530  -1.451641  -0.005193   0.014998  -0.004397
    12  C   -0.015589  -0.016341  -0.319277   0.006526   0.057906  -0.014523
    13  H    0.000421   0.000002  -0.008256   0.000096  -0.000034   0.000002
    14  C   -0.158223  -0.012170   0.185822  -0.085859   0.023236   0.015296
    15  H    0.002730  -0.000262   0.046028  -0.009365   0.001980  -0.000067
    16  C   -0.000944  -0.000119   0.041278  -0.016171   0.001227  -0.000164
    17  H   -0.000002   0.000000  -0.008176  -0.000115   0.000000   0.000000
    18  H    0.000002   0.000000   0.005770   0.000126  -0.000003   0.000001
    19  H   -0.000002   0.000000   0.003577   0.000107   0.000002   0.000000
               7          8          9         10         11         12
     1  O    0.047710   0.002066   0.058420  -0.000044  -0.010439  -0.015589
     2  H   -0.010390  -0.000020   0.005350  -0.000001  -0.001530  -0.016341
     3  C   -1.556110   0.023360   0.510339  -0.020691  -1.451641  -0.319277
     4  B    0.100435   0.009934   0.061032  -0.000248  -0.005193   0.006526
     5  O    0.013383  -0.006642  -0.017770   0.000295   0.014998   0.057906
     6  H   -0.058062   0.009583   0.054638  -0.000046  -0.004397  -0.014523
     7  C   11.382417   0.332698  -2.764670   0.060420   0.767246  -0.022056
     8  H    0.332698   0.491243   0.004889  -0.005784  -0.014870  -0.022372
     9  C   -2.764670   0.004889  10.777509   0.228683  -1.143770  -1.010422
    10  H    0.060420  -0.005784   0.228683   0.470844   0.057940   0.012251
    11  C    0.767246  -0.014870  -1.143770   0.057940   8.455808  -0.592420
    12  C   -0.022056  -0.022372  -1.010422   0.012251  -0.592420  10.489180
    13  H   -0.013269   0.000065   0.014277  -0.000173   0.040477   0.224239
    14  C   -2.110273   0.003914  -0.524426  -0.009915   0.564691  -2.761580
    15  H    0.007179  -0.000096  -0.017477   0.000051  -0.016359  -0.002638
    16  C   -0.126243   0.003758   0.318383   0.021336  -1.340304   0.409361
    17  H    0.002779   0.000005  -0.044352   0.000260   0.133662  -0.059810
    18  H    0.043246  -0.000003   0.228781  -0.000404  -0.189906  -0.161960
    19  H    0.007504   0.000008  -0.167085   0.000372  -0.152739   0.216923
              13         14         15         16         17         18
     1  O    0.000421  -0.158223   0.002730  -0.000944  -0.000002   0.000002
     2  H    0.000002  -0.012170  -0.000262  -0.000119   0.000000   0.000000
     3  C   -0.008256   0.185822   0.046028   0.041278  -0.008176   0.005770
     4  B    0.000096  -0.085859  -0.009365  -0.016171  -0.000115   0.000126
     5  O   -0.000034   0.023236   0.001980   0.001227   0.000000  -0.000003
     6  H    0.000002   0.015296  -0.000067  -0.000164   0.000000   0.000001
     7  C   -0.013269  -2.110273   0.007179  -0.126243   0.002779   0.043246
     8  H    0.000065   0.003914  -0.000096   0.003758   0.000005  -0.000003
     9  C    0.014277  -0.524426  -0.017477   0.318383  -0.044352   0.228781
    10  H   -0.000173  -0.009915   0.000051   0.021336   0.000260  -0.000404
    11  C    0.040477   0.564691  -0.016359  -1.340304   0.133662  -0.189906
    12  C    0.224239  -2.761580  -0.002638   0.409361  -0.059810  -0.161960
    13  H    0.469437   0.068795  -0.005677   0.023189   0.000194   0.000362
    14  C    0.068795  11.080805   0.331137  -0.513412  -0.002470   0.009029
    15  H   -0.005677   0.331137   0.463908   0.004761   0.000006   0.000005
    16  C    0.023189  -0.513412   0.004761   6.669559   0.340799   0.432691
    17  H    0.000194  -0.002470   0.000006   0.340799   0.468317  -0.021310
    18  H    0.000362   0.009029   0.000005   0.432691  -0.021310   0.499920
    19  H   -0.000700   0.042852   0.000001   0.412226  -0.024181  -0.028744
              19
     1  O   -0.000002
     2  H    0.000000
     3  C    0.003577
     4  B    0.000107
     5  O    0.000002
     6  H    0.000000
     7  C    0.007504
     8  H    0.000008
     9  C   -0.167085
    10  H    0.000372
    11  C   -0.152739
    12  C    0.216923
    13  H   -0.000700
    14  C    0.042852
    15  H    0.000001
    16  C    0.412226
    17  H   -0.024181
    18  H   -0.028744
    19  H    0.505985
 Mulliken charges:
               1
     1  O   -0.389984
     2  H    0.324453
     3  C   -0.609884
     4  B    0.499378
     5  O   -0.384869
     6  H    0.279793
     7  C   -0.103946
     8  H    0.168262
     9  C   -0.572328
    10  H    0.184853
    11  C    0.888744
    12  C   -0.417400
    13  H    0.186556
    14  C   -0.147251
    15  H    0.194152
    16  C   -0.681213
    17  H    0.214393
    18  H    0.182398
    19  H    0.183894
 Sum of Mulliken charges =   0.00000
 Mulliken charges with hydrogens summed into heavy atoms:
               1
     1  O   -0.065531
     3  C   -0.609884
     4  B    0.499378
     5  O   -0.105076
     7  C    0.064316
     9  C   -0.387475
    11  C    0.888744
    12  C   -0.230845
    14  C    0.046901
    16  C   -0.100528
 APT charges:
               1
     1  O   -0.506358
     2  H    2.044156
     3  C   -1.365582
     4  B   -0.333004
     5  O    1.281181
     6  H   -1.210224
     7  C   -0.326710
     8  H   -0.147027
     9  C    0.483970
    10  H   -0.745388
    11  C   -0.841045
    12  C   -0.887959
    13  H    1.181476
    14  C   -0.743554
    15  H    1.852053
    16  C   -0.489247
    17  H   -0.471567
    18  H   -0.205984
    19  H    1.430812
 Sum of APT charges =   0.00000
 APT charges with hydrogens summed into heavy atoms:
               1
     1  O    1.537798
     3  C   -1.365582
     4  B   -0.333004
     5  O    0.070957
     7  C   -0.473737
     9  C   -0.261418
    11  C   -0.841045
    12  C    0.293518
    14  C    1.108499
    16  C    0.264014
 Electronic spatial extent (au):  <R**2>=          29559.6137
 Charge=              0.0000 electrons
 Dipole moment (field-independent basis, Debye):
    X=             -1.9268    Y=             -1.0040    Z=              0.0789  Tot=              2.1741
 Quadrupole moment (field-independent basis, Debye-Ang):
   XX=            -74.6356   YY=            -69.0829   ZZ=            -58.6798
   XY=            -19.2736   XZ=             -6.0830   YZ=             -9.1260
 Traceless Quadrupole moment (field-independent basis, Debye-Ang):
   XX=             -7.1695   YY=             -1.6168   ZZ=              8.7863
   XY=            -19.2736   XZ=             -6.0830   YZ=             -9.1260
 Octapole moment (field-independent basis, Debye-Ang**2):
  XXX=          -1062.5327  YYY=          -1343.6866  ZZZ=           -864.5918  XYY=           -491.6297
  XXY=           -564.3629  XXZ=           -330.0099  XZZ=           -348.6646  YZZ=           -493.6657
  YYZ=           -400.6317  XYZ=            -89.8022
 Hexadecapole moment (field-independent basis, Debye-Ang**3):
 XXXX=         -12392.9850 YYYY=         -19112.7724 ZZZZ=          -8841.0280 XXXY=          -7624.8547
 XXXZ=          -5122.0058 YYYX=          -8243.5176 YYYZ=          -7133.2877 ZZZX=          -5163.8323
 ZZZY=          -6550.3211 XXYY=          -6405.6954 XXZZ=          -3643.5806 YYZZ=          -5479.4781
 XXYZ=          -2520.1135 YYXZ=          -2599.7971 ZZXY=          -2781.9325
 N-N= 4.735456524770D+02 E-N=-1.991972671308D+03  KE= 4.458605662872D+02
  Exact polarizability:       0.000       0.000       0.000       0.000       0.000       0.000
 Approx polarizability:     141.232       3.847     123.356      15.099     -23.641      97.035
 D2PCM: PCM CHGder 2nd derivatives, FixD1E=F FixD2E=F DoIter=F DoCFld=F I1PDM=0
 Calling FoFJK, ICntrl=    100127 FMM=F ISym2X=0 I1Cent= 0 IOpClX= 0 NMat=1 NMatS=1 NMatT=0.
 -------------------------------------------------------------------
 Center     Atomic                   Forces (Hartrees/Bohr)
 Number     Number              X              Y              Z
 -------------------------------------------------------------------
      1        8          -0.000850426    0.001710245   -0.001282074
      2        1           0.002526560   -0.000667953    0.001065816
      3        6           0.000428421    0.000315364   -0.000062743
      4        5          -0.000740438   -0.001875077    0.000969914
      5        8           0.002695189    0.002353466   -0.000692222
      6        1          -0.002790000   -0.002118135    0.000542123
      7        6          -0.000030160   -0.001899075    0.000921100
      8        1          -0.000148999    0.000055008   -0.000028465
      9        6          -0.000285550   -0.000413605    0.000159890
     10        1          -0.000102776   -0.000154564    0.000036416
     11        6          -0.001863230    0.000461434   -0.000911336
     12        6           0.000405515    0.001447983   -0.000618894
     13        1          -0.000081213    0.000205175   -0.000141862
     14        6           0.000431513   -0.000167708    0.000188152
     15        1          -0.000223758    0.000771680   -0.000452022
     16        6           0.000422346    0.000074146    0.000750172
     17        1           0.000096524   -0.000056461   -0.000354699
     18        1          -0.000062473   -0.000399517    0.000108691
     19        1           0.000172955    0.000357595   -0.000197956
 -------------------------------------------------------------------
 Cartesian Forces:  Max     0.002790000 RMS     0.001015464
 FormGI is forming the generalized inverse of G from B-inverse, IUseBI=4.

 GradGradGradGradGradGradGradGradGradGradGradGradGradGradGradGradGradGrad
 Berny optimization.
 Internal  Forces:  Max     0.003540176 RMS     0.000691131
 Search for a local minimum.
 Step number   1 out of a maximum of   96
 All quantities printed in internal units (Hartrees-Bohrs-Radians)
 Mixed Optimization -- En-DIIS/RFO-DIIS
 Second derivative matrix not updated -- analytic derivatives used.
 ITU=  0
     Eigenvalues ---   -0.00005   0.00106   0.01023   0.01219   0.01424
     Eigenvalues ---    0.01682   0.01736   0.02038   0.02200   0.02425
     Eigenvalues ---    0.02573   0.02795   0.02845   0.03898   0.05551
     Eigenvalues ---    0.05719   0.10540   0.11240   0.11270   0.11565
     Eigenvalues ---    0.12017   0.12128   0.12734   0.14203   0.14412
     Eigenvalues ---    0.15858   0.17689   0.18484   0.18660   0.19255
     Eigenvalues ---    0.19675   0.19866   0.27963   0.29389   0.32394
     Eigenvalues ---    0.34017   0.34585   0.35158   0.35524   0.35973
     Eigenvalues ---    0.36218   0.36433   0.38422   0.42143   0.42552
     Eigenvalues ---    0.47362   0.47651   0.48834   0.51781   0.54660
     Eigenvalues ---    0.55718
 RFO step:  Lambda=-1.00085687D-04 EMin=-4.89449018D-05
 Linear search not attempted -- first point.
 Iteration  1 RMS(Cart)=  0.00651751 RMS(Int)=  0.00002310
 Iteration  2 RMS(Cart)=  0.00002690 RMS(Int)=  0.00000080
 Iteration  3 RMS(Cart)=  0.00000000 RMS(Int)=  0.00000080
 Variable       Old X    -DE/DX   Delta X   Delta X   Delta X     New X
                                 (Linear)    (Quad)   (Total)
    R1        1.81671   0.00280   0.00000   0.00499   0.00499   1.82170
    R2        2.57676   0.00197   0.00000   0.00444   0.00444   2.58120
    R3        2.95604   0.00113   0.00000   0.00377   0.00377   2.95982
    R4        2.64173   0.00150   0.00000   0.00346   0.00346   2.64520
    R5        2.64678   0.00172   0.00000   0.00229   0.00229   2.64908
    R6        2.58875  -0.00029   0.00000  -0.00183  -0.00183   2.58692
    R7        1.81103   0.00354   0.00000   0.00642   0.00642   1.81746
    R8        2.05474  -0.00007   0.00000  -0.00036  -0.00036   2.05437
    R9        2.62671   0.00109   0.00000   0.00199   0.00199   2.62870
   R10        2.05045   0.00018   0.00000   0.00061   0.00061   2.05106
   R11        2.63603   0.00148   0.00000   0.00294   0.00294   2.63897
   R12        2.63943   0.00116   0.00000   0.00245   0.00245   2.64188
   R13        2.84599  -0.00068   0.00000  -0.00245  -0.00245   2.84354
   R14        2.05110   0.00025   0.00000   0.00055   0.00055   2.05165
   R15        2.62288   0.00092   0.00000   0.00207   0.00207   2.62495
   R16        2.04924   0.00033   0.00000   0.00097   0.00097   2.05021
   R17        2.06662   0.00035   0.00000   0.00128   0.00128   2.06790
   R18        2.06127   0.00028   0.00000   0.00073   0.00073   2.06200
   R19        2.06221   0.00032   0.00000   0.00073   0.00073   2.06293
    A1        1.95503   0.00062   0.00000   0.00306   0.00306   1.95809
    A2        2.14534  -0.00050   0.00000  -0.00328  -0.00328   2.14206
    A3        2.08748   0.00059   0.00000   0.00375   0.00375   2.09123
    A4        2.05037  -0.00009   0.00000  -0.00048  -0.00048   2.04989
    A5        2.06675  -0.00001   0.00000  -0.00138  -0.00138   2.06538
    A6        2.05022  -0.00004   0.00000   0.00071   0.00071   2.05093
    A7        2.16621   0.00005   0.00000   0.00067   0.00067   2.16688
    A8        1.99578   0.00018   0.00000   0.00090   0.00090   1.99668
    A9        2.10550   0.00035   0.00000   0.00194   0.00194   2.10743
   A10        2.12008  -0.00040   0.00000  -0.00172  -0.00172   2.11836
   A11        2.05761   0.00006   0.00000  -0.00022  -0.00022   2.05738
   A12        2.09278  -0.00027   0.00000  -0.00144  -0.00144   2.09133
   A13        2.10583   0.00041   0.00000   0.00225   0.00225   2.10809
   A14        2.08458  -0.00014   0.00000  -0.00081  -0.00081   2.08377
   A15        2.06440  -0.00001   0.00000  -0.00094  -0.00094   2.06346
   A16        2.11173   0.00013   0.00000   0.00045   0.00045   2.11219
   A17        2.10688  -0.00011   0.00000   0.00049   0.00049   2.10738
   A18        2.08150   0.00006   0.00000   0.00031   0.00031   2.08181
   A19        2.10992  -0.00025   0.00000  -0.00096  -0.00096   2.10895
   A20        2.09176   0.00019   0.00000   0.00066   0.00066   2.09242
   A21        2.11576   0.00036   0.00000   0.00185   0.00185   2.11760
   A22        2.07378   0.00070   0.00000   0.00589   0.00589   2.07968
   A23        2.09364  -0.00106   0.00000  -0.00775  -0.00775   2.08590
   A24        1.92838  -0.00014   0.00000  -0.00168  -0.00169   1.92670
   A25        1.94203  -0.00021   0.00000  -0.00060  -0.00060   1.94143
   A26        1.93908  -0.00004   0.00000   0.00026   0.00026   1.93934
   A27        1.88148   0.00010   0.00000  -0.00066  -0.00066   1.88082
   A28        1.87809  -0.00003   0.00000  -0.00146  -0.00146   1.87663
   A29        1.89252   0.00034   0.00000   0.00418   0.00418   1.89670
    D1        3.13630   0.00002   0.00000   0.00016   0.00016   3.13646
    D2       -0.00444   0.00000   0.00000   0.00008   0.00008  -0.00436
    D3        3.10701  -0.00002   0.00000  -0.00808  -0.00808   3.09893
    D4       -0.03550   0.00000   0.00000  -0.00798  -0.00798  -0.04348
    D5       -0.03758  -0.00003   0.00000  -0.00849  -0.00850  -0.04607
    D6        3.10310  -0.00001   0.00000  -0.00840  -0.00840   3.09469
    D7       -0.00326   0.00001   0.00000   0.00043   0.00043  -0.00283
    D8        3.13753  -0.00002   0.00000  -0.00070  -0.00070   3.13683
    D9        3.14127   0.00002   0.00000   0.00083   0.00083  -3.14109
   D10       -0.00113  -0.00001   0.00000  -0.00029  -0.00029  -0.00143
   D11       -3.13685   0.00003   0.00000   0.00111   0.00111  -3.13574
   D12        0.00087   0.00000   0.00000   0.00021   0.00020   0.00107
   D13        0.00191   0.00002   0.00000   0.00071   0.00071   0.00262
   D14        3.13963  -0.00001   0.00000  -0.00019  -0.00020   3.13943
   D15        3.12455   0.00005   0.00000   0.00175   0.00175   3.12630
   D16       -0.01613   0.00003   0.00000   0.00165   0.00165  -0.01448
   D17       -3.13803   0.00001   0.00000   0.00010   0.00010  -3.13793
   D18        0.00229   0.00000   0.00000  -0.00005  -0.00005   0.00224
   D19        0.00278  -0.00002   0.00000  -0.00100  -0.00100   0.00178
   D20       -3.14008  -0.00003   0.00000  -0.00115  -0.00115  -3.14123
   D21       -0.00408   0.00000   0.00000   0.00001   0.00001  -0.00407
   D22        3.11798   0.00002   0.00000   0.00024   0.00024   3.11822
   D23        3.13625   0.00000   0.00000  -0.00015  -0.00015   3.13611
   D24       -0.02487   0.00001   0.00000   0.00009   0.00009  -0.02478
   D25       -3.13541   0.00000   0.00000   0.00008   0.00008  -3.13533
   D26        0.00486   0.00000   0.00000   0.00040   0.00040   0.00526
   D27        0.02566  -0.00002   0.00000  -0.00015  -0.00015   0.02551
   D28       -3.11725  -0.00002   0.00000   0.00016   0.00016  -3.11709
   D29       -1.68156  -0.00002   0.00000   0.01298   0.01298  -1.66858
   D30        0.40784  -0.00013   0.00000   0.01065   0.01065   0.41849
   D31        2.51840   0.00013   0.00000   0.01574   0.01574   2.53413
   D32        1.44002  -0.00001   0.00000   0.01321   0.01321   1.45323
   D33       -2.75376  -0.00011   0.00000   0.01088   0.01088  -2.74289
   D34       -0.64321   0.00015   0.00000   0.01596   0.01596  -0.62724
   D35       -0.00387  -0.00001   0.00000  -0.00078  -0.00078  -0.00465
   D36       -3.14155   0.00001   0.00000   0.00010   0.00010  -3.14144
   D37        3.13640  -0.00001   0.00000  -0.00047  -0.00046   3.13593
   D38       -0.00128   0.00001   0.00000   0.00042   0.00042  -0.00086
         Item               Value     Threshold  Converged?
 Maximum Force            0.003540     0.000015     NO 
 RMS     Force            0.000691     0.000010     NO 
 Maximum Displacement     0.020356     0.000060     NO 
 RMS     Displacement     0.006520     0.000040     NO 
 Predicted change in Energy=-5.012623D-05
 GradGradGradGradGradGradGradGradGradGradGradGradGradGradGradGradGradGrad

                          Input orientation:                          
 ---------------------------------------------------------------------
 Center     Atomic      Atomic             Coordinates (Angstroms)
 Number     Number       Type             X           Y           Z
 ---------------------------------------------------------------------
      1          8           0        8.705194    7.445966    5.540109
      2          1           0        9.517803    7.126825    5.948908
      3          6           0        6.252382    6.997087    5.176659
      4          5           0        7.649014    6.611294    5.771447
      5          8           0        7.883640    5.485478    6.514068
      6          1           0        7.107180    4.937201    6.660616
      7          6           0        5.120558    6.185095    5.314599
      8          1           0        5.176575    5.239515    5.848067
      9          6           0        3.891994    6.558224    4.779416
     10          1           0        3.029804    5.910862    4.904258
     11          6           0        3.751442    7.760025    4.082220
     12          6           0        4.876186    8.578353    3.941639
     13          1           0        4.784826    9.519321    3.407831
     14          6           0        6.101799    8.201967    4.476147
     15          1           0        6.960691    8.853552    4.354488
     16          6           0        2.432260    8.154799    3.475472
     17          1           0        2.396347    7.866580    2.420439
     18          1           0        1.600821    7.663411    3.983292
     19          1           0        2.283555    9.235085    3.526327
 ---------------------------------------------------------------------
                    Distance matrix (angstroms):
                    1          2          3          4          5
     1  O    0.000000
     2  H    0.964003   0.000000
     3  C    2.519896   3.358002   0.000000
     4  B    1.365910   1.946698   1.566267   0.000000
     5  O    2.338175   2.384096   2.595116   1.368940   0.000000
     6  H    3.178536   3.333479   2.678794   1.971495   0.961756
     7  C    3.806608   4.541471   1.399780   2.604505   3.092379
     8  H    4.173058   4.734803   2.167304   2.828534   2.798617
     9  C    4.953144   5.774144   2.433481   3.886147   4.482526
    10  H    5.913620   6.683112   3.411611   4.751812   5.131487
    11  C    5.173368   6.093963   2.834532   4.400471   5.306837
    12  C    4.301013   5.261243   2.433021   3.860842   5.022753
    13  H    4.920843   5.880662   3.412351   4.716660   5.960138
    14  C    2.912253   3.872214   1.401830   2.569420   3.835022
    15  H    2.535800   3.473123   2.150379   2.740307   4.106037
    16  C    6.641903   7.574928   4.339086   5.904950   6.787922
    17  H    7.050589   7.982008   4.818897   6.355746   7.248298
    18  H    7.276199   8.174972   4.848209   6.394145   7.114916
    19  H    6.963743   7.915049   4.846011   6.380674   7.372049
                    6          7          8          9         10
     6  H    0.000000
     7  C    2.704749   0.000000
     8  H    2.116333   1.087128   0.000000
     9  C    4.062517   1.391049   2.128651   0.000000
    10  H    4.545085   2.148217   2.439284   1.085373   0.000000
    11  C    5.086988   2.423561   3.391489   1.396483   2.148467
    12  C    5.062426   2.769914   3.856494   2.398213   3.383972
    13  H    6.080277   3.855587   4.942162   3.383266   4.282566
    14  C    4.054799   2.394496   3.393277   2.770758   3.856111
    15  H    4.547251   3.380616   4.298269   3.855645   4.941006
    16  C    6.507915   3.806451   4.653961   2.525895   2.726489
    17  H    6.982285   4.315655   5.136124   3.084401   3.224198
    18  H    6.702258   4.043061   4.705175   2.665469   2.441638
    19  H    7.180734   4.533095   5.452030   3.364951   3.675056
                   11         12         13         14         15
    11  C    0.000000
    12  C    1.398024   0.000000
    13  H    2.148908   1.085688   0.000000
    14  C    2.423772   1.389062   2.147356   0.000000
    15  H    3.401355   2.142742   2.464508   1.084924   0.000000
    16  C    1.504736   2.523784   2.720490   3.803826   4.665578
    17  H    2.146893   2.995041   3.067789   4.250740   5.054493
    18  H    2.155061   3.401010   3.730073   4.559797   5.502947
    19  H    2.153952   2.706569   2.520157   4.067983   4.765189
                   16         17         18         19
    16  C    0.000000
    17  H    1.094283   0.000000
    18  H    1.091161   1.765403   0.000000
    19  H    1.091658   1.763099   1.773443   0.000000
 Symmetry turned off by external request.
 Stoichiometry    C7H9BO2
 Framework group  C1[X(C7H9BO2)]
 Deg. of freedom    51
 Full point group                 C1      NOp   1
 Rotational constants (GHZ):           3.6273293           0.7367299           0.6147927
 Standard basis: 6-311+G(d,p) (5D, 7F)
   274 basis functions,   432 primitive gaussians,   284 cartesian basis functions
    36 alpha electrons       36 beta electrons
       nuclear repulsion energy       473.1565174679 Hartrees.
 NAtoms=   19 NActive=   19 NUniq=   19 SFac= 1.00D+00 NAtFMM=   60 NAOKFM=F Big=F
 Integral buffers will be    131072 words long.
 Raffenetti 2 integral format.
 Two-electron integral symmetry is turned off.
 ------------------------------------------------------------------------------
 Polarizable Continuum Model (PCM)
 =================================
 Model                : PCM.
 Atomic radii         : SMD-Coulomb.
 Polarization charges : Total charges.
 Charge compensation  : None.
 Solution method      : Matrix inversion.
 Cavity type          : VdW (van der Waals Surface) (Alpha=1.000).
 Cavity algorithm     : GePol (No added spheres)
                        Default sphere list used, NSphG=   19.
                        Lebedev-Laikov grids with approx.  5.0 points / Ang**2.
                        Smoothing algorithm: York/Karplus (Gamma=1.0000).
                        Polarization charges: spherical gaussians, with
                                              point-specific exponents (IZeta= 3).
                        Self-potential: point-specific (ISelfS= 7).
                        Self-field    : sphere-specific E.n sum rule (ISelfD= 2).
 1st derivatives      : Analytical E(r).r(x)/FMM algorithm (CHGder, D1EAlg=3).
                        Cavity 1st derivative terms included.
 Solvent              : TetraHydroFuran, Eps=   7.425700 Eps(inf)=   1.974025
 ------------------------------------------------------------------------------
 Spheres list:
 ISph  on   Nord     Re0    Alpha      Xe            Ye            Ze
    1   O      1    2.2940  1.000      8.705194      7.445966      5.540109
    2   H      2    1.2000  1.000      9.517803      7.126825      5.948908
    3   C      3    1.8500  1.000      6.252382      6.997087      5.176659
    4   B      4    1.8000  1.000      7.649014      6.611294      5.771447
    5   O      5    2.2940  1.000      7.883640      5.485478      6.514068
    6   H      6    1.2000  1.000      7.107180      4.937201      6.660616
    7   C      7    1.8500  1.000      5.120558      6.185095      5.314599
    8   H      8    1.2000  1.000      5.176575      5.239515      5.848067
    9   C      9    1.8500  1.000      3.891994      6.558224      4.779416
   10   H     10    1.2000  1.000      3.029804      5.910862      4.904258
   11   C     11    1.8500  1.000      3.751442      7.760025      4.082220
   12   C     12    1.8500  1.000      4.876186      8.578353      3.941639
   13   H     13    1.2000  1.000      4.784826      9.519321      3.407831
   14   C     14    1.8500  1.000      6.101799      8.201967      4.476147
   15   H     15    1.2000  1.000      6.960691      8.853552      4.354488
   16   C     16    1.8500  1.000      2.432260      8.154799      3.475472
   17   H     17    1.2000  1.000      2.396347      7.866580      2.420439
   18   H     18    1.2000  1.000      1.600821      7.663411      3.983292
   19   H     19    1.2000  1.000      2.283555      9.235085      3.526327
 ------------------------------------------------------------------------------
 ------------------------------------------------------------------------------
 Atomic radii for non-electrostatic terms: SMD-CDS.
 ------------------------------------------------------------------------------
 Nuclear repulsion after PCM non-electrostatic terms =      473.1523309267 Hartrees.
 One-electron integrals computed using PRISM.
 NBasis=   274 RedAO= T EigKep=  2.30D-06  NBF=   274
 NBsUse=   274 1.00D-06 EigRej= -1.00D+00 NBFU=   274
 Initial guess from the checkpoint file:  "4-Me-phboh2-opt-freq-thf.chk"
 B after Tr=    -0.003479    0.001807    0.001780
         Rot=    1.000000    0.000053   -0.000007    0.000151 Ang=   0.02 deg.
 ExpMin= 3.15D-02 ExpMax= 8.59D+03 ExpMxC= 1.30D+03 IAcc=3 IRadAn=         5 AccDes= 0.00D+00
 Harris functional with IExCor= 1009 and IRadAn=       5 diagonalized for initial guess.
 HarFok:  IExCor= 1009 AccDes= 0.00D+00 IRadAn=         5 IDoV= 1 UseB2=F ITyADJ=14
 ICtDFT=  3500011 ScaDFX=  1.000000  1.000000  1.000000  1.000000
 FoFCou: FMM=F IPFlag=           0 FMFlag=      100000 FMFlg1=           0
         NFxFlg=           0 DoJE=T BraDBF=F KetDBF=T FulRan=T
         wScrn=  0.000000 ICntrl=       500 IOpCl=  0 I1Cent=   200000004 NGrid=           0
         NMat0=    1 NMatS0=      1 NMatT0=    0 NMatD0=    1 NMtDS0=    0 NMtDT0=    0
 Symmetry not used in FoFCou.
 Requested convergence on RMS density matrix=1.00D-08 within 128 cycles.
 Requested convergence on MAX density matrix=1.00D-06.
 Requested convergence on             energy=1.00D-06.
 Level shift goal  0.100 maximum shift  0.100.
 No special actions if energy rises.
 Dynamic level shift is on during FON iterations.
 Inv3:  Mode=1 IEnd=     8019675.
 Iteration    1 A*A^-1 deviation from unit magnitude is 4.11D-15 for   1617.
 Iteration    1 A*A^-1 deviation from orthogonality  is 2.48D-15 for   1627   1389.
 Iteration    1 A^-1*A deviation from unit magnitude is 4.33D-15 for   1617.
 Iteration    1 A^-1*A deviation from orthogonality  is 2.49D-15 for   1627   1389.
 Error on total polarization charges =  0.03044
 SCF Done:  E(RM062X) =  -447.545632905     A.U. after   10 cycles
            NFock= 10  Conv=0.76D-08     -V/T= 2.0039
 SMD-CDS (non-electrostatic) energy       (kcal/mol) =      -2.63
 (included in total energy above)
 D1PCM: PCM CHGder 1st derivatives, ID1Alg=3 FixD1E=F DoIter=F DoCFld=F I1PDM=0.
 Calling FoFJK, ICntrl=      2127 FMM=F ISym2X=0 I1Cent= 0 IOpClX= 0 NMat=1 NMatS=1 NMatT=0.
 -------------------------------------------------------------------
 Center     Atomic                   Forces (Hartrees/Bohr)
 Number     Number              X              Y              Z
 -------------------------------------------------------------------
      1        8          -0.000010458    0.000016553   -0.000004538
      2        1           0.000019880   -0.000003692    0.000017802
      3        6           0.000003221    0.000004039    0.000000251
      4        5          -0.000008369   -0.000009394    0.000006196
      5        8           0.000034199    0.000020955   -0.000007431
      6        1          -0.000033347   -0.000027238    0.000001376
      7        6          -0.000003590   -0.000009768   -0.000001482
      8        1           0.000000881   -0.000004593   -0.000005921
      9        6           0.000000883   -0.000007034   -0.000004597
     10        1           0.000001794   -0.000005267   -0.000009608
     11        6          -0.000002347    0.000002425   -0.000005330
     12        6          -0.000002201    0.000006908    0.000003760
     13        1          -0.000001742    0.000004328    0.000006773
     14        6           0.000002038    0.000005968    0.000004183
     15        1          -0.000003180    0.000007602    0.000008484
     16        6          -0.000001075    0.000001046   -0.000000178
     17        1           0.000002779    0.000001430   -0.000004630
     18        1           0.000000636   -0.000003948   -0.000005413
     19        1          -0.000000002   -0.000000321    0.000000304
 -------------------------------------------------------------------
 Cartesian Forces:  Max     0.000034199 RMS     0.000009987

 GradGradGradGradGradGradGradGradGradGradGradGradGradGradGradGradGradGrad
 Berny optimization.
 Using GEDIIS/GDIIS optimizer.
 FormGI is forming the generalized inverse of G from B-inverse, IUseBI=4.
 Internal  Forces:  Max     0.000041783 RMS     0.000006007
 Search for a local minimum.
 Step number   2 out of a maximum of   96
 All quantities printed in internal units (Hartrees-Bohrs-Radians)
 Mixed Optimization -- En-DIIS/RFO-DIIS
 Swapping is turned off.
 Update second derivatives using D2CorX and points    1    2
 DE= -5.03D-05 DEPred=-5.01D-05 R= 1.00D+00
 TightC=F SS=  1.41D+00  RLast= 4.11D-02 DXNew= 5.0454D-01 1.2341D-01
 Trust test= 1.00D+00 RLast= 4.11D-02 DXMaxT set to 3.00D-01
 ITU=  1  0
     Eigenvalues ---   -0.00005   0.00106   0.01023   0.01219   0.01424
     Eigenvalues ---    0.01682   0.01736   0.02038   0.02200   0.02425
     Eigenvalues ---    0.02573   0.02795   0.02844   0.03898   0.05552
     Eigenvalues ---    0.05719   0.10540   0.11241   0.11270   0.11567
     Eigenvalues ---    0.12017   0.12128   0.12733   0.14203   0.14412
     Eigenvalues ---    0.15853   0.17686   0.18488   0.18661   0.19254
     Eigenvalues ---    0.19675   0.19872   0.27963   0.29384   0.32401
     Eigenvalues ---    0.34017   0.34585   0.35158   0.35524   0.35973
     Eigenvalues ---    0.36218   0.36433   0.38407   0.42141   0.42547
     Eigenvalues ---    0.47361   0.47637   0.48831   0.51741   0.54519
     Eigenvalues ---    0.55558
 Eigenvalue     1 is  -4.90D-05 should be greater than     0.000000 Eigenvector:
                          D29       D31       D32       D30       D34
   1                    0.41956   0.41074   0.41022   0.40375   0.40140
                          D33       D6        D4        D5        D3
   1                    0.39440   0.03955   0.03906   0.03739   0.03689
 Use linear search instead of GDIIS.
 RFO step:  Lambda=-1.00068545D-04 EMin=-1.00000000D-04
 I=     1 Eig=   -1.00D-04 Dot1=  1.59D-06
 I=     1 Stepn=  6.00D-01 RXN=   6.00D-01 EDone=F
 Mixed    1 eigenvectors in step.  Raw Step.Grad=  1.59D-06.
 RFO eigenvector is Hessian eigenvector with negative curvature.
 Taking step of  6.00D-01 in eigenvector direction(s).  Step.Grad= -1.92D-07.
 Quartic linear search produced a step of  0.00798.
 Iteration  1 RMS(Cart)=  0.07179395 RMS(Int)=  0.01379319
 Iteration  2 RMS(Cart)=  0.01749247 RMS(Int)=  0.00037677
 Iteration  3 RMS(Cart)=  0.00040271 RMS(Int)=  0.00000465
 Iteration  4 RMS(Cart)=  0.00000020 RMS(Int)=  0.00000465
 Variable       Old X    -DE/DX   Delta X   Delta X   Delta X     New X
                                 (Linear)    (Quad)   (Total)
    R1        1.82170   0.00003   0.00004  -0.00003   0.00001   1.82171
    R2        2.58120   0.00001   0.00004   0.00002   0.00005   2.58125
    R3        2.95982   0.00001   0.00003   0.00014   0.00017   2.95998
    R4        2.64520   0.00001   0.00003   0.00207   0.00209   2.64729
    R5        2.64908   0.00001   0.00002  -0.00206  -0.00204   2.64703
    R6        2.58692   0.00000  -0.00001   0.00009   0.00008   2.58700
    R7        1.81746   0.00004   0.00005  -0.00004   0.00001   1.81746
    R8        2.05437   0.00000   0.00000  -0.00005  -0.00005   2.05433
    R9        2.62870   0.00000   0.00002  -0.00233  -0.00232   2.62638
   R10        2.05106   0.00000   0.00000   0.00030   0.00030   2.05136
   R11        2.63897   0.00001   0.00002   0.00218   0.00221   2.64118
   R12        2.64188   0.00000   0.00002  -0.00223  -0.00221   2.63968
   R13        2.84354   0.00000  -0.00002  -0.00018  -0.00020   2.84334
   R14        2.05165   0.00000   0.00000  -0.00040  -0.00039   2.05126
   R15        2.62495   0.00001   0.00002   0.00231   0.00232   2.62727
   R16        2.05021   0.00000   0.00001   0.00000   0.00001   2.05022
   R17        2.06790   0.00000   0.00001   0.00053   0.00054   2.06843
   R18        2.06200   0.00000   0.00001   0.00091   0.00091   2.06291
   R19        2.06293   0.00000   0.00001  -0.00142  -0.00141   2.06152
    A1        1.95809   0.00000   0.00002  -0.00015  -0.00012   1.95796
    A2        2.14206  -0.00001  -0.00003   0.00024   0.00021   2.14227
    A3        2.09123   0.00001   0.00003  -0.00004  -0.00001   2.09122
    A4        2.04989   0.00000   0.00000  -0.00020  -0.00020   2.04969
    A5        2.06538   0.00000  -0.00001   0.00003   0.00001   2.06539
    A6        2.05093   0.00000   0.00001  -0.00020  -0.00019   2.05074
    A7        2.16688   0.00000   0.00001   0.00017   0.00018   2.16706
    A8        1.99668   0.00000   0.00001   0.00014   0.00015   1.99682
    A9        2.10743   0.00000   0.00002  -0.00003  -0.00002   2.10742
   A10        2.11836   0.00000  -0.00001  -0.00004  -0.00005   2.11831
   A11        2.05738   0.00000   0.00000   0.00006   0.00006   2.05745
   A12        2.09133   0.00000  -0.00001   0.00021   0.00020   2.09153
   A13        2.10809   0.00000   0.00002   0.00022   0.00024   2.10833
   A14        2.08377   0.00000  -0.00001  -0.00043  -0.00044   2.08333
   A15        2.06346   0.00000  -0.00001  -0.00007  -0.00008   2.06338
   A16        2.11219   0.00000   0.00000  -0.00645  -0.00645   2.10573
   A17        2.10738   0.00000   0.00000   0.00643   0.00643   2.11381
   A18        2.08181   0.00000   0.00000   0.00060   0.00060   2.08241
   A19        2.10895   0.00000  -0.00001  -0.00021  -0.00021   2.10874
   A20        2.09242   0.00000   0.00001  -0.00039  -0.00039   2.09203
   A21        2.11760   0.00000   0.00001   0.00029   0.00030   2.11791
   A22        2.07968   0.00000   0.00005   0.00024   0.00028   2.07996
   A23        2.08590   0.00000  -0.00006  -0.00053  -0.00059   2.08531
   A24        1.92670   0.00000  -0.00001  -0.00172  -0.00174   1.92496
   A25        1.94143   0.00000   0.00000  -0.00124  -0.00126   1.94018
   A26        1.93934   0.00000   0.00000   0.00342   0.00342   1.94276
   A27        1.88082   0.00000  -0.00001  -0.00603  -0.00604   1.87478
   A28        1.87663   0.00000  -0.00001   0.00338   0.00336   1.87999
   A29        1.89670   0.00000   0.00003   0.00212   0.00215   1.89885
    D1        3.13646   0.00000   0.00000   0.00373   0.00373   3.14019
    D2       -0.00436   0.00000   0.00000   0.00251   0.00251  -0.00185
    D3        3.09893   0.00000  -0.00006   0.02214   0.02207   3.12101
    D4       -0.04348   0.00000  -0.00006   0.02344   0.02337  -0.02011
    D5       -0.04607   0.00000  -0.00007   0.02243   0.02236  -0.02371
    D6        3.09469   0.00000  -0.00007   0.02373   0.02367   3.11836
    D7       -0.00283   0.00000   0.00000   0.00321   0.00322   0.00038
    D8        3.13683   0.00000  -0.00001   0.00097   0.00096   3.13779
    D9       -3.14109   0.00000   0.00001   0.00292   0.00293  -3.13816
   D10       -0.00143   0.00000   0.00000   0.00068   0.00068  -0.00075
   D11       -3.13574   0.00000   0.00001  -0.00233  -0.00232  -3.13806
   D12        0.00107   0.00000   0.00000  -0.00229  -0.00228  -0.00121
   D13        0.00262   0.00000   0.00001  -0.00205  -0.00205   0.00057
   D14        3.13943   0.00000   0.00000  -0.00200  -0.00200   3.13743
   D15        3.12630   0.00000   0.00001   0.00385   0.00386   3.13016
   D16       -0.01448   0.00000   0.00001   0.00256   0.00257  -0.01190
   D17       -3.13793   0.00000   0.00000   0.00138   0.00139  -3.13655
   D18        0.00224   0.00000   0.00000   0.00165   0.00165   0.00389
   D19        0.00178   0.00000  -0.00001  -0.00080  -0.00080   0.00098
   D20       -3.14123   0.00000  -0.00001  -0.00053  -0.00054   3.14142
   D21       -0.00407   0.00000   0.00000  -0.00258  -0.00258  -0.00665
   D22        3.11822   0.00000   0.00000  -0.00797  -0.00795   3.11027
   D23        3.13611   0.00000   0.00000  -0.00231  -0.00232   3.13379
   D24       -0.02478   0.00000   0.00000  -0.00771  -0.00769  -0.03247
   D25       -3.13533   0.00000   0.00000   0.00226   0.00225  -3.13308
   D26        0.00526   0.00000   0.00000   0.00122   0.00122   0.00648
   D27        0.02551   0.00000   0.00000   0.00778   0.00780   0.03331
   D28       -3.11709   0.00000   0.00000   0.00675   0.00677  -3.11032
   D29       -1.66858   0.00000   0.00010   0.25174   0.25184  -1.41674
   D30        0.41849   0.00000   0.00009   0.24225   0.24234   0.66083
   D31        2.53413   0.00000   0.00013   0.24644   0.24657   2.78070
   D32        1.45323   0.00000   0.00011   0.24613   0.24623   1.69946
   D33       -2.74289   0.00000   0.00009   0.23664   0.23673  -2.50616
   D34       -0.62724   0.00000   0.00013   0.24084   0.24096  -0.38628
   D35       -0.00465   0.00000  -0.00001   0.00111   0.00111  -0.00354
   D36       -3.14144   0.00000   0.00000   0.00106   0.00106  -3.14038
   D37        3.13593   0.00000   0.00000   0.00007   0.00007   3.13601
   D38       -0.00086   0.00000   0.00000   0.00002   0.00003  -0.00083
         Item               Value     Threshold  Converged?
 Maximum Force            0.000042     0.000015     NO 
 RMS     Force            0.000006     0.000010     YES
 Maximum Displacement     0.410661     0.000060     NO 
 RMS     Displacement     0.086822     0.000040     NO 
 Predicted change in Energy=-1.035550D-05
 GradGradGradGradGradGradGradGradGradGradGradGradGradGradGradGradGradGrad

                          Input orientation:                          
 ---------------------------------------------------------------------
 Center     Atomic      Atomic             Coordinates (Angstroms)
 Number     Number       Type             X           Y           Z
 ---------------------------------------------------------------------
      1          8           0        8.695581    7.468409    5.581684
      2          1           0        9.509527    7.143718    5.983399
      3          6           0        6.252253    7.000648    5.179452
      4          5           0        7.648783    6.611986    5.772844
      5          8           0        7.892689    5.462477    6.475162
      6          1           0        7.123374    4.897225    6.591896
      7          6           0        5.123008    6.180392    5.299759
      8          1           0        5.180989    5.227729    5.820203
      9          6           0        3.895978    6.555686    4.765757
     10          1           0        3.035904    5.902893    4.877634
     11          6           0        3.752488    7.767763    4.084795
     12          6           0        4.872429    8.593672    3.963070
     13          1           0        4.779021    9.542736    3.444593
     14          6           0        6.098285    8.215129    4.498696
     15          1           0        6.953684    8.873971    4.392441
     16          6           0        2.432645    8.152435    3.473278
     17          1           0        2.305321    7.659775    2.504180
     18          1           0        1.599554    7.844877    4.108143
     19          1           0        2.370560    9.229120    3.309015
 ---------------------------------------------------------------------
                    Distance matrix (angstroms):
                    1          2          3          4          5
     1  O    0.000000
     2  H    0.964006   0.000000
     3  C    2.520008   3.358070   0.000000
     4  B    1.365939   1.946648   1.566355   0.000000
     5  O    2.338098   2.383813   2.595355   1.368982   0.000000
     6  H    3.178577   3.333275   2.679224   1.971625   0.961760
     7  C    3.808116   4.542786   1.400888   2.605690   3.093236
     8  H    4.174913   4.736443   2.168274   2.829915   2.799535
     9  C    4.953280   5.774111   2.433345   3.885993   4.482284
    10  H    5.914259   6.683573   3.411900   4.752143   5.131707
    11  C    5.173438   6.094065   2.834707   4.400733   5.307491
    12  C    4.301466   5.261821   2.433356   3.861412   5.023639
    13  H    4.920307   5.880348   3.412089   4.716522   5.960518
    14  C    2.911426   3.871542   1.400750   2.568573   3.834501
    15  H    2.534582   3.472356   2.149588   2.739571   4.105819
    16  C    6.643616   7.576310   4.339014   5.905005   6.786697
    17  H    7.095286   8.016974   4.813502   6.350954   7.198299
    18  H    7.257178   8.159404   4.848508   6.394092   7.133172
    19  H    6.947734   7.903548   4.850996   6.385881   7.396350
                    6          7          8          9         10
     6  H    0.000000
     7  C    2.705107   0.000000
     8  H    2.116035   1.087103   0.000000
     9  C    4.062187   1.389822   2.127576   0.000000
    10  H    4.545049   2.147370   2.438375   1.085533   0.000000
    11  C    5.088067   2.423677   3.391759   1.397651   2.149378
    12  C    5.063714   2.770098   3.856647   2.398155   3.383717
    13  H    6.081305   3.855557   4.942103   3.383446   4.282583
    14  C    4.054724   2.394373   3.392989   2.770420   3.855931
    15  H    4.547626   3.380823   4.298376   3.855305   4.940821
    16  C    6.505775   3.803030   4.649232   2.522192   2.719665
    17  H    6.895995   4.235941   5.018000   2.977236   3.041985
    18  H    6.735745   4.074946   4.754712   2.714411   2.535057
    19  H    7.220240   4.564403   5.496882   3.405326   3.737249
                   11         12         13         14         15
    11  C    0.000000
    12  C    1.396857   0.000000
    13  H    2.148059   1.085479   0.000000
    14  C    2.423678   1.390291   2.148052   0.000000
    15  H    3.400882   2.143490   2.464715   1.084929   0.000000
    16  C    1.504630   2.527278   2.727497   3.806879   4.669611
    17  H    2.145763   3.096865   3.247940   4.321237   5.162081
    18  H    2.154441   3.360573   3.664974   4.530805   5.459539
    19  H    2.155719   2.662880   2.432575   4.042208   4.722813
                   16         17         18         19
    16  C    0.000000
    17  H    1.094567   0.000000
    18  H    1.091644   1.762120   0.000000
    19  H    1.090911   1.764896   1.774595   0.000000
 Symmetry turned off by external request.
 Stoichiometry    C7H9BO2
 Framework group  C1[X(C7H9BO2)]
 Deg. of freedom    51
 Full point group                 C1      NOp   1
 Rotational constants (GHZ):           3.6274856           0.7367053           0.6147144
 Standard basis: 6-311+G(d,p) (5D, 7F)
   274 basis functions,   432 primitive gaussians,   284 cartesian basis functions
    36 alpha electrons       36 beta electrons
       nuclear repulsion energy       473.1504083773 Hartrees.
 NAtoms=   19 NActive=   19 NUniq=   19 SFac= 1.00D+00 NAtFMM=   60 NAOKFM=F Big=F
 Integral buffers will be    131072 words long.
 Raffenetti 2 integral format.
 Two-electron integral symmetry is turned off.
 ------------------------------------------------------------------------------
 Polarizable Continuum Model (PCM)
 =================================
 Model                : PCM.
 Atomic radii         : SMD-Coulomb.
 Polarization charges : Total charges.
 Charge compensation  : None.
 Solution method      : Matrix inversion.
 Cavity type          : VdW (van der Waals Surface) (Alpha=1.000).
 Cavity algorithm     : GePol (No added spheres)
                        Default sphere list used, NSphG=   19.
                        Lebedev-Laikov grids with approx.  5.0 points / Ang**2.
                        Smoothing algorithm: York/Karplus (Gamma=1.0000).
                        Polarization charges: spherical gaussians, with
                                              point-specific exponents (IZeta= 3).
                        Self-potential: point-specific (ISelfS= 7).
                        Self-field    : sphere-specific E.n sum rule (ISelfD= 2).
 1st derivatives      : Analytical E(r).r(x)/FMM algorithm (CHGder, D1EAlg=3).
                        Cavity 1st derivative terms included.
 Solvent              : TetraHydroFuran, Eps=   7.425700 Eps(inf)=   1.974025
 ------------------------------------------------------------------------------
 Spheres list:
 ISph  on   Nord     Re0    Alpha      Xe            Ye            Ze
    1   O      1    2.2940  1.000      8.695581      7.468409      5.581684
    2   H      2    1.2000  1.000      9.509527      7.143718      5.983399
    3   C      3    1.8500  1.000      6.252253      7.000648      5.179452
    4   B      4    1.8000  1.000      7.648783      6.611986      5.772844
    5   O      5    2.2940  1.000      7.892689      5.462477      6.475162
    6   H      6    1.2000  1.000      7.123374      4.897225      6.591896
    7   C      7    1.8500  1.000      5.123008      6.180392      5.299759
    8   H      8    1.2000  1.000      5.180989      5.227729      5.820203
    9   C      9    1.8500  1.000      3.895978      6.555686      4.765757
   10   H     10    1.2000  1.000      3.035904      5.902893      4.877634
   11   C     11    1.8500  1.000      3.752488      7.767763      4.084795
   12   C     12    1.8500  1.000      4.872429      8.593672      3.963070
   13   H     13    1.2000  1.000      4.779021      9.542736      3.444593
   14   C     14    1.8500  1.000      6.098285      8.215129      4.498696
   15   H     15    1.2000  1.000      6.953684      8.873971      4.392441
   16   C     16    1.8500  1.000      2.432645      8.152435      3.473278
   17   H     17    1.2000  1.000      2.305321      7.659775      2.504180
   18   H     18    1.2000  1.000      1.599554      7.844877      4.108143
   19   H     19    1.2000  1.000      2.370560      9.229120      3.309015
 ------------------------------------------------------------------------------
 ------------------------------------------------------------------------------
 Atomic radii for non-electrostatic terms: SMD-CDS.
 ------------------------------------------------------------------------------
 Nuclear repulsion after PCM non-electrostatic terms =      473.1462211571 Hartrees.
 One-electron integrals computed using PRISM.
 NBasis=   274 RedAO= T EigKep=  2.27D-06  NBF=   274
 NBsUse=   274 1.00D-06 EigRej= -1.00D+00 NBFU=   274
[...]
 .01579369,0.07048940,0.47874593,0.03141425,0.03819811,-0.06206096,-0.0
 1268722,-0.00938199,0.00430340,-0.04404682,0.01586785,-0.08274813,0.05
 810627,-0.18184398,0.26814910,0.00249001,-0.03522451,0.01872472,0.0049
 3779,0.00178850,0.00090988,0.00125474,0.02125446,-0.01663301,-0.090085
 88,0.02423344,-0.02664110,0.44423500,-0.02479686,-0.04516700,0.0277503
 5,0.00568839,-0.00055032,0.00022794,0.00544261,-0.00734209,0.01561577,
 0.05456318,-0.22974094,0.12661983,0.20144051,0.46657308,0.01255846,0.0
 2511078,-0.00019298,-0.00148166,-0.00083845,-0.00254069,-0.00700613,0.
 01970902,0.00262172,-0.04501791,0.11928111,-0.12553157,-0.01844465,-0.
 21733103,0.15540632,0.00302357,0.00263307,-0.00237172,-0.00001787,0.00
 034851,0.00000767,-0.00141203,0.00121028,-0.00042710,0.00406409,0.0010
 9142,0.00106450,-0.35825896,-0.24480880,0.06308833,0.35480378,0.000875
 70,-0.00017536,0.00407844,0.00038536,-0.00052614,-0.00010115,0.0002523
 6,0.00137464,-0.00227716,-0.02438756,-0.02076051,0.00477486,-0.2153452
 2,-0.18348500,0.05304621,0.23870670,0.20218311,-0.00140593,0.00442958,
 0.00328280,0.00001582,-0.00008778,-0.00082035,0.00004172,-0.00201026,-
 0.00117408,0.01659492,0.01083364,-0.00535652,0.04511796,0.04622390,-0.
 02601778,-0.05965524,-0.05928303,0.02930930,-0.00046147,0.00117719,-0.
 00114186,-0.00066347,-0.00033583,0.00001943,-0.25107986,-0.07622297,-0
 .01027939,-0.02059547,-0.00809935,-0.00156169,0.00133034,-0.00325816,0
 .00259499,0.00108351,0.00034247,0.00005127,0.63723182,0.00529317,0.000
 11233,0.00178843,0.00042261,0.00042274,0.00005767,-0.12381275,-0.17783
 906,0.02900161,-0.00070601,0.01054518,-0.00521362,0.00059257,-0.003668
 36,0.00177314,0.00299769,0.00011917,0.00116124,0.04922168,0.59953566,-
 0.00331546,0.00077184,-0.00034981,-0.00048259,-0.00012175,0.00038377,0
 .01583423,0.04178845,-0.08213588,-0.00544962,-0.00730073,0.00387580,0.
 00037976,0.00048250,-0.00155519,-0.00156818,0.00031733,-0.00024360,0.1
 0783660,-0.23607057,0.30037508,0.00043366,0.00029827,-0.00011428,-0.00
 005564,-0.00004423,-0.00004092,0.00700606,-0.02017946,0.01246681,-0.00
 019529,-0.00059081,0.00111417,0.00056725,-0.00006112,-0.00085822,-0.00
 257281,0.00059531,-0.00157568,-0.05931082,0.00854543,-0.01019908,0.059
 90293,-0.00023352,0.00039451,-0.00020000,-0.00011831,0.00000468,0.0000
 6741,0.00237959,-0.01112586,0.00773071,0.00148082,-0.00238111,0.000077
 38,0.00049837,0.00157105,-0.00028484,-0.00102878,0.00083925,-0.0003932
 2,0.01235507,-0.26244441,0.12525259,-0.01109239,0.27491107,0.00028108,
 -0.00001055,0.00025601,-0.00000029,0.00009383,0.00012603,0.00024101,0.
 00149903,0.00105398,-0.00007593,-0.00053830,-0.00286288,-0.00112677,-0
 .00043286,-0.00155971,-0.00065368,0.00025748,0.00058946,-0.01248887,0.
 12402756,-0.11003340,0.01689494,-0.13959371,0.10747703,-0.00302851,0.0
 0011230,-0.00067965,0.00002392,-0.00010898,0.00017340,-0.05424664,-0.0
 3908018,0.00378417,0.00164194,-0.00638787,0.00224057,0.00049473,0.0011
 7175,-0.00056101,-0.00044777,0.00023487,-0.00010557,-0.29383102,0.0750
 6716,-0.10309931,0.00219580,-0.00197819,0.00037387,0.69963003,0.000846
 80,0.00070744,-0.00049628,-0.00042420,-0.00012323,-0.00021518,0.008316
 10,0.05045706,-0.01952252,-0.00548421,0.00091082,0.00148777,0.00024453
 ,-0.00028912,0.00021384,-0.00065190,0.00013298,-0.00065057,0.00934855,
 -0.13025353,0.03838698,0.02563596,-0.00432939,0.01214013,0.09070879,0.
 57309666,-0.00125224,-0.00063947,-0.00041816,0.00033970,-0.00021127,-0
 .00025483,-0.02186164,-0.03136503,0.02241640,0.00175570,0.00120285,0.0
 0600151,-0.00002515,0.00045632,-0.00029118,0.00045308,-0.00035298,-0.0
 0016591,-0.06787070,0.05595661,-0.11334237,-0.01477546,0.00448580,-0.0
 0169323,0.10267890,-0.21504849,0.28155589,-0.00084455,-0.00002011,-0.0
 0016969,-0.00002031,-0.00004290,0.00003530,-0.00322568,0.00202578,-0.0
 0403089,0.00058928,-0.00107066,0.00069686,-0.00020580,0.00039443,-0.00
 029253,-0.00001301,-0.00014141,0.00008433,-0.01645034,-0.01773912,0.00
 420226,0.00074610,0.00063093,0.00099735,-0.23410900,-0.13642176,0.0221
 5631,0.24622468,0.00010126,-0.00006231,-0.00001812,0.00004295,-0.00000
 257,-0.00002151,0.00134747,0.00225429,0.00335753,0.00032020,0.00033808
 ,0.00008084,-0.00006481,0.00001213,-0.00001386,0.00002850,-0.00000841,
 0.00001336,0.00875108,0.00861284,-0.00054860,0.00012024,-0.00034180,-0
 .00214417,-0.13607956,-0.15457407,0.02724091,0.14668835,0.15883291,-0.
 00022624,-0.00004509,-0.00017943,-0.00002022,-0.00004165,-0.00003758,-
 0.00359416,0.00356107,0.00473457,-0.00012668,-0.00027571,0.00044969,-0
 .00002507,0.00010623,-0.00004679,-0.00001962,-0.00003462,0.00000933,-0
 .01023835,-0.00769594,0.00467787,0.00129854,-0.00197826,-0.00284830,0.
 02202001,0.02750369,-0.04680877,-0.02114914,-0.03340704,0.03827885,-0.
 00039964,0.00026142,-0.00024925,0.00009822,0.00002591,-0.00002384,-0.0
 1078602,-0.02765856,0.01410059,-0.00115426,-0.00115638,0.00062658,0.00
 039033,-0.00044899,0.00034708,0.00026814,0.00004302,0.00004155,0.02991
 483,0.03137750,-0.01103656,-0.00424577,0.00093589,-0.00373061,-0.12747
 128,0.04068798,-0.03738785,0.00412101,-0.02172282,0.01254579,0.6300636
 8,-0.00125166,0.00007923,-0.00026058,0.00009837,-0.00009550,0.00004927
 ,-0.02787065,-0.05759814,0.01999126,-0.00060232,-0.00311947,0.00109861
 ,0.00067652,-0.00014742,0.00018322,0.00004143,0.00030885,-0.00003994,0
 .08336541,0.00183991,0.02454017,0.00020042,0.00305215,0.00253789,-0.02
 718217,-0.26117753,0.09883253,0.00313129,-0.01132489,0.00905774,0.0573
 6341,0.56396439,0.00092982,0.00017597,0.00018621,-0.00006840,0.0000726
 4,-0.00002636,0.01524561,0.01943639,-0.01412187,-0.00076821,0.00127380
 ,-0.00148537,-0.00001742,-0.00041007,0.00010506,-0.00000878,0.00003490
 ,0.00017533,-0.03851137,0.01117864,-0.01099791,-0.00351062,0.00289012,
 0.00548598,-0.00116157,0.11568736,-0.13279397,-0.00156136,0.00264948,0
 .00253196,0.09562501,-0.19475048,0.31315522,-0.00037134,-0.00055016,0.
 00021726,0.00008952,0.00014495,-0.00000788,0.02305794,0.07502848,-0.03
 770768,0.00611442,0.00041963,-0.00025590,-0.00111072,0.00161859,-0.000
 81658,-0.00012385,-0.00050844,0.00019721,-0.07553431,-0.01345918,-0.01
 143796,-0.00113889,-0.00000759,0.00004733,0.04743903,-0.06082930,0.042
 89230,0.00161585,0.00069822,-0.00205875,-0.24485766,-0.06404483,-0.013
 23360,0.64769204,-0.00054330,0.00054187,-0.00055654,0.00016584,0.00014
 048,-0.00003635,0.02841733,0.00227243,0.01252911,-0.00116923,-0.002915
 92,0.00465453,0.00157089,-0.00048499,0.00012775,-0.00009131,0.00028895
 ,-0.00017068,-0.01182240,-0.00460454,-0.00381399,-0.00005390,0.0001658
 2,-0.00068682,-0.01606728,-0.03417089,0.01813542,0.00058065,-0.0023827
 3,0.00517968,-0.13127432,-0.18654026,0.02804552,0.04097974,0.60861333,
 0.00014928,-0.00056885,0.00014254,-0.00005436,-0.00005588,0.00001005,-
 0.01253904,0.02477426,-0.00548890,0.00059757,0.00498822,0.00361513,-0.
 00076884,-0.00003994,-0.00145337,0.00000034,-0.00020143,0.00024825,-0.
 01154697,-0.00424019,-0.00672674,0.00002424,-0.00068424,-0.00068559,0.
 01889926,0.00699382,0.00870516,-0.00176876,0.00538978,0.00367404,0.022
 50223,0.04473500,-0.08740166,0.11743527,-0.24230731,0.30044182,-0.0002
 9883,-0.00015223,0.00000267,0.00001781,0.00000330,-0.00000451,-0.00420
 465,0.00042768,-0.00346272,0.00092309,0.00081643,-0.00022180,-0.000552
 88,0.00040065,-0.00035391,-0.00003197,-0.00012213,0.00006691,-0.001173
 57,-0.00020477,0.00004069,0.00009277,0.00019999,0.00024847,-0.00351352
 ,-0.00373824,-0.00086843,0.00029052,-0.00115452,0.00067875,0.00507118,
 -0.02144293,0.01187246,-0.05878501,0.01806051,-0.01516098,0.05812188,0
 .00033903,0.00008703,0.00004908,-0.00003118,0.00000235,0.00000202,0.00
 102946,0.00286183,0.00291224,-0.00080327,-0.00003886,-0.00009937,0.000
 26391,-0.00028288,0.00013004,-0.00000495,0.00008104,-0.00004248,-0.000
 38274,0.00020717,-0.00070340,0.00020624,-0.00034571,-0.00040382,-0.003
 93334,0.00091784,0.00222655,0.00013608,-0.00066523,0.00042914,0.004005
 59,-0.01194748,0.00959018,0.01762525,-0.26591510,0.12694330,-0.0181084
 8,0.27796161,-0.00025007,-0.00007268,0.00000204,0.00001579,0.00000829,
 0.00001782,-0.00383013,0.00272288,0.00537362,0.00060214,0.00034854,0.0
 0020083,-0.00022081,0.00013015,-0.00036163,-0.00000426,-0.00005758,0.0
 0005871,0.00021913,-0.00062843,-0.00050115,0.00024438,-0.00041864,-0.0
 0092058,-0.00077489,0.00253906,0.00554833,-0.00003880,0.00004255,-0.00
 005702,-0.00120960,0.00261537,0.00245588,-0.01519294,0.12677814,-0.111
 07072,0.01855922,-0.14026015,0.10671615,-0.00187916,-0.00001000,-0.000
 33876,0.00060802,0.00014765,0.00007200,-0.12286693,-0.01248575,-0.0086
 3163,0.00133533,0.02005758,-0.01109731,-0.00518432,0.00224739,-0.00335
 422,-0.00033262,-0.00076340,0.00043454,0.04609804,-0.01730694,0.020477
 41,-0.00362738,-0.00422033,-0.00080093,-0.02728177,0.02855750,-0.02085
 996,0.00013290,0.00096170,-0.00015066,-0.05588387,-0.04274347,0.006244
 35,-0.29592716,0.07773207,-0.10481087,0.00205832,-0.00168783,0.0003602
 8,0.69679993,-0.00278186,-0.00242920,0.00044739,-0.00031942,-0.0004141
 3,0.00005990,0.03664988,-0.25626884,0.11381667,0.01102501,-0.00235840,
 0.00508045,-0.00223354,0.00255665,-0.00122082,-0.00028959,-0.00049988,
 0.00018154,-0.06156248,-0.03770521,0.00706549,-0.00371830,0.00117138,0
 .00258328,0.03060691,-0.03542618,0.02386005,0.00068247,-0.00069802,-0.
 00002304,0.00812256,0.05635391,-0.02597971,0.01246388,-0.13432714,0.04
 090245,0.02489390,-0.00286884,0.01030465,0.08913246,0.57207967,0.00120
 868,0.00106651,-0.00080950,0.00036052,0.00015232,-0.00017167,-0.035556
 29,0.10033859,-0.12958831,-0.00620303,0.00777978,-0.00409192,-0.000643
 60,0.00010991,0.00123687,0.00001745,0.00000914,0.00001084,0.04451188,0
 .01882433,0.00752742,-0.00105004,0.00242190,0.00609494,-0.02249651,0.0
 2372891,-0.02453632,-0.00007448,0.00009846,-0.00100354,-0.02147627,-0.
 03903509,0.02111693,-0.06875886,0.05823843,-0.11619474,-0.01397169,0.0
 0313258,-0.00193931,0.10092061,-0.20644777,0.28549397,-0.00055067,0.00
 065903,-0.00062702,-0.00004637,0.00000630,0.00004098,0.00642086,0.0024
 1312,-0.00023176,-0.00041097,0.00086270,0.00023042,0.00020345,-0.00040
 272,0.00017683,0.00001236,0.00003777,-0.00000386,0.00169402,0.00066812
 ,-0.00192945,0.00028607,0.00021683,-0.00009683,-0.00013127,0.00087840,
 -0.00020567,-0.00011141,0.00002185,0.00027350,-0.00256140,0.00166403,-
 0.00389558,-0.01598667,-0.01765524,0.00385113,0.00082218,0.00069589,0.
 00104912,-0.23498047,-0.13710399,0.02133407,0.24632104,-0.00000508,0.0
 0067543,-0.00030879,0.00028333,0.00032091,-0.00019745,-0.02092632,-0.0
 1154248,0.00184173,-0.00149617,-0.00204894,-0.00084864,0.00022283,0.00
 050573,0.00001099,-0.00008585,0.00005003,-0.00009157,0.00081447,-0.002
 36030,0.00555196,-0.00113616,-0.00063999,0.00016362,0.00082553,-0.0004
 7367,-0.00013565,0.00001962,-0.00019074,-0.00051019,0.00159218,0.00215
 079,0.00377455,0.00861476,0.00915299,0.00003978,0.00008662,-0.00044251
 ,-0.00212907,-0.13698126,-0.15745866,0.02590063,0.14781105,0.16208301,
 -0.00020140,-0.00007072,0.00022378,-0.00010947,-0.00027612,-0.00010630
 ,0.01238643,0.00827688,0.00127576,0.00152093,-0.00024542,-0.00247892,-
 0.00020779,-0.00007977,0.00047440,0.00005605,-0.00005710,-0.00000571,-
 0.00207937,0.00549212,0.00390227,0.00063334,0.00051719,0.00009741,-0.0
 0013012,-0.00016407,-0.00104426,0.00026749,-0.00051968,-0.00078558,-0.
 00355632,0.00379373,0.00514560,-0.01040927,-0.00720694,0.00590949,0.00
 136144,-0.00193123,-0.00299368,0.02127008,0.02572449,-0.04881462,-0.02
 027121,-0.03280586,0.03941685,-0.00013099,-0.00002446,-0.00000749,0.00
 001451,0.00001558,0.00001039,-0.00095854,0.00068504,-0.00025037,0.0003
 3954,-0.00006973,0.00019159,-0.00003672,0.00015195,-0.00010005,-0.0000
 5213,-0.00000901,-0.00001797,0.00201423,-0.00166507,0.00047150,0.00034
 028,-0.00027146,0.00014949,-0.00394556,0.00459079,-0.00492789,0.000801
 71,-0.00112148,0.00104817,-0.19571323,0.03080787,-0.05307143,-0.028113
 47,0.00642502,-0.01359039,0.00118134,0.00152104,0.00035491,0.00053462,
 -0.00420613,0.00037145,-0.00054868,0.00031915,-0.00031355,0.52356556,-
 0.00005686,0.00006094,-0.00003052,0.00002056,0.00002598,0.00000549,0.0
 0008726,-0.00043001,-0.00051779,0.00027246,-0.00025805,-0.00018318,-0.
 00004129,0.00014920,-0.00008191,-0.00009339,0.00002253,-0.00003462,-0.
 00186448,-0.00185777,0.00568071,0.00116729,-0.00043915,0.00036477,0.02
 687346,-0.00467430,0.01448699,0.00138548,-0.00008815,-0.00226623,0.031
 15887,-0.09486488,0.02169110,-0.01561452,0.00897763,-0.00753933,-0.000
 46748,0.00013859,-0.00114275,-0.00348657,-0.00160767,0.00232195,-0.000
 90387,0.00029411,-0.00039182,0.02310552,0.57764446,-0.00066760,-0.0002
 2616,0.00000149,0.00005238,-0.00002249,0.00002582,-0.00210550,0.000414
 84,-0.00216793,0.00192959,-0.00077358,0.00003094,-0.00031350,0.0005253
 1,-0.00026209,-0.00001010,-0.00011950,0.00006840,0.00082987,0.00372350
 ,0.00530300,-0.00033107,0.00001799,-0.00034744,-0.01697361,0.00794250,
 -0.00370946,0.00048331,-0.00193585,-0.00236083,-0.04811750,0.02009671,
 -0.09708857,-0.00129804,-0.00123423,0.00602998,0.00121416,-0.00172638,
 -0.00251630,0.00200215,0.00335099,0.00634975,0.00052339,-0.00027133,-0
 .00005481,-0.03112346,-0.00708574,0.53487367,-0.00042265,-0.00010077,-
 0.00002491,0.00003802,-0.00001236,0.00000025,-0.00072566,0.00071518,-0
 .00080383,0.00103556,-0.00027041,0.00029771,-0.00020953,0.00029296,-0.
 00020933,-0.00000185,-0.00008080,0.00004931,-0.00084425,0.00046415,0.0
 0087813,-0.00009040,0.00006229,-0.00011940,-0.00065808,-0.00058215,0.0
 0053722,0.00022816,-0.00007759,-0.00037784,-0.00230988,-0.00834130,-0.
 02948638,-0.00116120,0.00110194,-0.00008807,0.00009121,-0.00049402,-0.
 00030542,0.00023311,0.00027647,0.00154385,-0.00006929,-0.00006852,-0.0
 0011313,-0.04431871,-0.00320154,-0.00885719,0.04864292,0.00014056,0.00
 002362,0.00001468,-0.00001246,0.00000354,-0.00000693,0.00077387,0.0007
 2513,-0.00013136,-0.00030659,0.00014987,-0.00012422,0.00004816,-0.0000
 9820,0.00007346,0.00000579,0.00002246,-0.00001110,-0.00105826,-0.00050
 366,-0.00097723,0.00000007,0.00000132,0.00010257,0.00177499,-0.0010780
 4,0.00052504,-0.00012729,0.00004193,0.00029483,0.00026689,0.00287011,0
 .00994167,-0.00147944,0.00022550,-0.00014142,-0.00006748,-0.00000351,-
 0.00007064,0.00057203,-0.00073018,0.00046972,0.00001257,-0.00000329,-0
 .00000367,-0.00239837,-0.06665408,-0.07475315,0.00115066,0.06882966,-0
 .00012674,0.00000220,-0.00000347,0.00001239,-0.00000089,0.00000252,-0.
 00008533,-0.00046007,0.00001671,0.00023498,-0.00014154,-0.00002366,-0.
 00006594,0.00007979,-0.00003146,0.00001142,-0.00003166,0.00001362,-0.0
 0020475,0.00057877,0.00052699,-0.00008343,0.00004587,-0.00007452,-0.00
 110643,-0.00029433,0.00044656,0.00005001,-0.00018252,-0.00044919,-0.00
 306403,-0.00195951,-0.01086756,0.00110246,0.00089602,0.00041013,0.0000
 1441,-0.00019873,-0.00038796,-0.00093692,0.00074172,-0.00000989,-0.000
 07590,0.00001756,-0.00002691,-0.00622144,-0.07587308,-0.28941513,0.010
 82774,0.08170400,0.31341641,-0.00022436,-0.00003778,-0.00005262,0.0000
 2695,0.00000448,0.00000672,-0.00021579,0.00048279,-0.00017278,0.000505
 49,-0.00007242,0.00027917,-0.00012312,0.00018425,-0.00015532,-0.000009
 43,-0.00004930,0.00003267,-0.00005759,-0.00024364,-0.00047341,-0.00000
 728,0.00004121,0.00001269,0.00159634,-0.00175293,0.00061925,0.00021937
 ,0.00091919,-0.00001954,-0.02134521,-0.01329508,0.01395890,-0.00395234
 ,0.00300015,-0.00245017,0.00005085,0.00015183,0.00017746,-0.00028235,-
 0.00161712,-0.00001838,-0.00037274,0.00013104,-0.00014702,-0.20303382,
 -0.08786440,0.10068732,0.00128326,0.00140056,-0.00063754,0.22181270,0.
 00010948,0.00002761,0.00000049,-0.00000667,-0.00000469,-0.00001132,0.0
 0035152,-0.00014357,0.00019765,-0.00030087,0.00011690,-0.00003622,0.00
 004182,-0.00008363,0.00004029,0.00000990,0.00001567,-0.00000046,-0.000
 09562,0.00008749,-0.00055975,-0.00004787,0.00000543,-0.00001306,0.0014
 0350,0.00021468,0.00027153,-0.00013228,0.00012384,0.00034650,0.0062016
 4,0.00277427,-0.00601705,0.00101095,0.00012998,0.00114898,0.00015134,0
 .00019395,-0.00012732,-0.00015995,0.00051689,0.00005754,0.00006841,-0.
 00004074,-0.00003356,-0.09002018,-0.10007796,0.05933303,0.00854765,0.0
 0433263,-0.00474970,0.09678675,0.10283296,-0.00000397,0.00001437,-0.00
 000749,-0.00000097,0.00000772,0.00000337,-0.00008881,-0.00036743,0.000
 21320,-0.00003619,-0.00002052,-0.00002207,0.00000467,-0.00000355,0.000
 00400,-0.00000268,0.00000616,0.00000010,0.00031165,-0.00011827,0.00015
 580,0.00005130,-0.00001954,-0.00000954,-0.00061666,-0.00040165,0.00038
 821,0.00027389,-0.00001555,-0.00000217,-0.01324311,-0.00727780,0.00651
 508,-0.00179251,0.00126663,-0.00053717,-0.00007598,0.00007155,0.000008
 95,-0.00088667,-0.00022136,-0.00035461,-0.00014822,0.00000769,-0.00014
 050,0.10425821,0.05958561,-0.11085989,0.02287426,0.01424273,-0.0138571
 9,-0.10819542,-0.06565885,0.11822829,-0.00028937,-0.00009168,-0.000033
 25,0.00002204,-0.00000283,0.00001238,-0.00064212,0.00023117,-0.0001788
 3,0.00064749,-0.00016178,0.00024974,-0.00013572,0.00017999,-0.00011416
 ,0.00001886,-0.00006629,0.00003605,0.00063538,0.00048741,-0.00112895,-
 0.00032664,0.00014959,-0.00015292,-0.00435738,0.00006931,-0.00139746,0
 .00001054,0.00021978,0.00014152,-0.00319918,0.02942565,0.00141857,0.00
 105382,0.00064285,-0.00068088,-0.00016071,-0.00052849,0.00024450,0.000
 44577,-0.00002113,-0.00001935,0.00000995,-0.00002121,0.00004288,-0.051
 93995,0.02952349,0.00207539,-0.00074074,-0.00069624,0.00035504,0.00412
 906,-0.02391956,-0.00268279,0.05481890,0.00012688,0.00002643,0.0000280
 6,-0.00001157,0.00000264,0.00000051,0.00027296,0.00039645,-0.00026779,
 -0.00014704,0.00001345,-0.00020901,0.00003284,-0.00002790,0.00007106,-
 0.00001872,0.00001661,-0.00002756,-0.00067362,-0.00024565,0.00025799,0
 .00015500,-0.00006926,0.00005314,0.00203830,0.00013247,0.00007231,0.00
 002044,0.00012290,-0.00020112,0.00021821,-0.00657805,0.00071501,-0.002
 11098,0.00083260,-0.00013700,0.00041785,0.00005871,-0.00058237,0.00043
 715,0.00011383,0.00083214,0.00004977,-0.00003168,-0.00001844,0.0321639
 3,-0.31636141,-0.00725646,0.00061817,-0.00815480,-0.00017389,0.0018304
 3,-0.01102170,-0.00109794,-0.03542000,0.34077436,0.00000615,0.00000049
 ,-0.00001330,-0.00000351,0.00000158,0.00000060,0.00028840,0.00019213,0
 .00007253,-0.00008711,0.00006285,0.00003561,-0.00000334,-0.00003079,-0
 .00000394,0.00002253,-0.00000832,0.00001781,-0.00045149,0.00040338,-0.
 00084194,-0.00018891,0.00006550,-0.00014565,-0.00246485,0.00016903,-0.
 00000360,-0.00016144,-0.00006602,0.00022289,-0.00269387,0.01579190,-0.
 00208996,0.00107815,0.00016164,0.00037231,0.00006084,-0.00012109,0.000
 36602,0.00008653,-0.00022637,-0.00031628,0.00000607,-0.00000995,0.0000
 0575,0.00276831,-0.00898962,-0.04390061,0.00337701,-0.03114897,0.00031
 401,-0.00345200,0.01581130,0.00027362,0.00181251,0.00794135,0.04563414
 \\0.00000193,-0.00000370,-0.00000758,0.00000211,-0.00000371,-0.0000079
 9,0.00000032,-0.00000031,-0.00000095,0.00000076,-0.00000075,-0.0000022
 6,0.,0.00000160,0.00000161,-0.00000074,0.00000369,0.00000526,-0.000001
 00,0.00000241,0.00000444,-0.00000178,0.00000434,0.00000796,-0.00000133
 ,0.00000273,0.00000548,-0.00000236,0.00000491,0.00000968,-0.00000040,0
 .00000040,0.00000112,0.00000093,-0.00000235,-0.00000427,0.00000171,-0.
 00000422,-0.00000770,0.00000128,-0.00000272,-0.00000526,0.00000231,-0.
 00000483,-0.00000950,-0.00000083,0.00000060,0.00000225,-0.00000354,-0.
 00000332,0.00000357,-0.00000070,0.00000425,0.00000574,0.00000133,0.000
 00098,-0.00000160\\\@
 The archive entry for this job was punched.


 ACHIEVEMENT--  THE MAN WHO ROWS THE BOAT GENERALLY 
                DOESN'T HAVE TIME TO ROCK IT.

                   -- FROM THE BACK OF A SUGAR PACKET
 Job cpu time:       0 days  0 hours 53 minutes 23.2 seconds.
 Elapsed time:       0 days  0 hours  1 minutes 45.1 seconds.
 File lengths (MBytes):  RWF=    185 Int=      0 D2E=      0 Chk=     16 Scr=      1
 Normal termination of Gaussian 16 at Tue Apr 22 20:46:30 2025.
