/home/tahminaafroz
cn013.cluster.local
tahminaafroz
Tue May  6 17:35:57 CDT 2025
 Entering Gaussian System, Link 0=g16
 Initial command:
 /home/apps/g16/l1.exe "/tmp/4-Me-ph-opt-freq-thf/Gau-781554.inp" -scrdir="/tmp/4-Me-ph-opt-freq-thf/"
 Entering Link 1 = /home/apps/g16/l1.exe PID=    781555.
  
 Copyright (c) 1988-2019, Gaussian, Inc.  All Rights Reserved.
  
 This is part of the Gaussian(R) 16 program.  It is based on
 the Gaussian(R) 09 system (copyright 2009, Gaussian, Inc.),
 the Gaussian(R) 03 system (copyright 2003, Gaussian, Inc.),
 the Gaussian(R) 98 system (copyright 1998, Gaussian, Inc.),
 the Gaussian(R) 94 system (copyright 1995, Gaussian, Inc.),
 the Gaussian 92(TM) system (copyright 1992, Gaussian, Inc.),
 the Gaussian 90(TM) system (copyright 1990, Gaussian, Inc.),
 the Gaussian 88(TM) system (copyright 1988, Gaussian, Inc.),
 the Gaussian 86(TM) system (copyright 1986, Carnegie Mellon
 University), and the Gaussian 82(TM) system (copyright 1983,
 Carnegie Mellon University). Gaussian is a federally registered
 trademark of Gaussian, Inc.
  
 This software contains proprietary and confidential information,
 including trade secrets, belonging to Gaussian, Inc.
  
 This software is provided under written license and may be
 used, copied, transmitted, or stored only in accord with that
 written license.
  
 The following legend is applicable only to US Government
 contracts under FAR:
  
                    RESTRICTED RIGHTS LEGEND
  
 Use, reproduction and disclosure by the US Government is
 subject to restrictions as set forth in subparagraphs (a)
 and (c) of the Commercial Computer Software - Restricted
 Rights clause in FAR 52.227-19.
  
 Gaussian, Inc.
 340 Quinnipiac St., Bldg. 40, Wallingford CT 06492
  
  
 ---------------------------------------------------------------
 Warning -- This program may not be used in any manner that
 competes with the business of Gaussian, Inc. or will provide
 assistance to any competitor of Gaussian, Inc.  The licensee
 of this program is prohibited from giving any competitor of
 Gaussian, Inc. access to this program.  By using this program,
 the user acknowledges that Gaussian, Inc. is engaged in the
 business of creating and licensing software in the field of
 computational chemistry and represents and warrants to the
 licensee that it is not a competitor of Gaussian, Inc. and that
 it will not use this program in any manner prohibited above.
 ---------------------------------------------------------------
  

 Cite this work as:
 Gaussian 16, Revision C.01,
 M. J. Frisch, G. W. Trucks, H. B. Schlegel, G. E. Scuseria, 
 M. A. Robb, J. R. Cheeseman, G. Scalmani, V. Barone, 
 G. A. Petersson, H. Nakatsuji, X. Li, M. Caricato, A. V. Marenich, 
 J. Bloino, B. G. Janesko, R. Gomperts, B. Mennucci, H. P. Hratchian, 
 J. V. Ortiz, A. F. Izmaylov, J. L. Sonnenberg, D. Williams-Young, 
 F. Ding, F. Lipparini, F. Egidi, J. Goings, B. Peng, A. Petrone, 
 T. Henderson, D. Ranasinghe, V. G. Zakrzewski, J. Gao, N. Rega, 
 G. Zheng, W. Liang, M. Hada, M. Ehara, K. Toyota, R. Fukuda, 
 J. Hasegawa, M. Ishida, T. Nakajima, Y. Honda, O. Kitao, H. Nakai, 
 T. Vreven, K. Throssell, J. A. Montgomery, Jr., J. E. Peralta, 
 F. Ogliaro, M. J. Bearpark, J. J. Heyd, E. N. Brothers, K. N. Kudin, 
 V. N. Staroverov, T. A. Keith, R. Kobayashi, J. Normand, 
 K. Raghavachari, A. P. Rendell, J. C. Burant, S. S. Iyengar, 
 J. Tomasi, M. Cossi, J. M. Millam, M. Klene, C. Adamo, R. Cammi, 
 J. W. Ochterski, R. L. Martin, K. Morokuma, O. Farkas, 
 J. B. Foresman, and D. J. Fox, Gaussian, Inc., Wallingford CT, 2019.
 
 ******************************************
 Gaussian 16:  AS64L-G16RevC.01  3-Jul-2019
                 6-May-2025 
 ******************************************
 %mem=20GB
 %nprocshared=32
 Will use up to   32 processors via shared memory.
 %chk=4-Me-ph-opt-freq-thf.chk
 ----------------------------------------------------------------------
 # opt=(calcfc,tight) freq 6-311+g(d,p) scrf=(smd,solvent=thf) nosymm s
 cf=(qc,fermi,xqc) geom=connectivity int=ultrafine m062x
 ----------------------------------------------------------------------
 1/7=10,10=4,18=20,19=15,26=6,38=1,57=2/1,3;
 2/9=110,12=2,15=1,17=6,18=5,40=1/2;
 3/5=4,6=6,7=111,11=2,25=1,30=1,70=32201,71=2,72=20,74=-55,75=-5,140=1/1,2,3;
 4//1;
 5/5=2,22=13,38=5,53=20/2;
 8/6=4,10=90,11=11/1;
 11/6=1,8=1,9=11,15=111,16=1,31=1/1,2,10;
 10/6=1,13=1,31=1/2;
 6/7=2,8=2,9=2,10=2,28=1/1;
 7/10=1,25=1,30=1/1,2,3,16;
 1/7=10,10=4,18=20,19=15,26=6/3(2);
 2/9=110,15=1/2;
 99//99;
 2/9=110,15=1/2;
 3/5=4,6=6,7=111,11=2,25=1,30=1,70=32205,71=1,72=20,74=-55,75=-5/1,2,3;
 4/5=5,16=3,69=1/1;
 5/5=2,22=13,38=5,53=20/2;
 7/30=1/1,2,3,16;
 1/7=10,18=20,19=15,26=6/3(-5);
 2/9=110,15=1/2;
 6/7=2,8=2,9=2,10=2,19=2,28=1/1;
 99/9=1/99;
 --------------------
 4-Me-ph-opt-freq-thf
 --------------------
 Symbolic Z-matrix:
 Charge =  0 Multiplicity = 2
 C                     6.25241   6.99759   5.17696 
 C                     5.12098   6.18436   5.31244 
 H                     5.17735   5.23776   5.84407 
 C                     3.89263   6.55768   4.77733 
 H                     3.03078   5.90946   4.90027 
 C                     3.75161   7.76094   4.08243 
 C                     4.87565   8.58042   3.94449 
 H                     4.78396   9.52251   3.41277 
 C                     6.10132   8.2038    4.47913 
 H                     6.95971   8.85645   4.35956 
 C                     2.43226   8.1545    3.47528 
 H                     2.38562   7.83991   2.4282 
 H                     1.59955   7.68419   4.0008 
 H                     2.29481   9.23709   3.5002 
 

 GradGradGradGradGradGradGradGradGradGradGradGradGradGradGradGradGradGrad
 Berny optimization.
 Initialization pass.
                           ----------------------------
                           !    Initial Parameters    !
                           ! (Angstroms and Degrees)  !
 --------------------------                            --------------------------
 ! Name  Definition              Value          Derivative Info.                !
 --------------------------------------------------------------------------------
 ! R1    R(1,2)                  1.3999         calculate D2E/DX2 analytically  !
 ! R2    R(1,9)                  1.4017         calculate D2E/DX2 analytically  !
 ! R3    R(2,3)                  1.0871         calculate D2E/DX2 analytically  !
 ! R4    R(2,4)                  1.3909         calculate D2E/DX2 analytically  !
 ! R5    R(4,5)                  1.0854         calculate D2E/DX2 analytically  !
 ! R6    R(4,6)                  1.3966         calculate D2E/DX2 analytically  !
 ! R7    R(6,7)                  1.3979         calculate D2E/DX2 analytically  !
 ! R8    R(6,11)                 1.5047         calculate D2E/DX2 analytically  !
 ! R9    R(7,8)                  1.0857         calculate D2E/DX2 analytically  !
 ! R10   R(7,9)                  1.3892         calculate D2E/DX2 analytically  !
 ! R11   R(9,10)                 1.0849         calculate D2E/DX2 analytically  !
 ! R12   R(11,12)                1.0943         calculate D2E/DX2 analytically  !
 ! R13   R(11,13)                1.0912         calculate D2E/DX2 analytically  !
 ! R14   R(11,14)                1.0916         calculate D2E/DX2 analytically  !
 ! A1    A(2,1,9)              117.4491         calculate D2E/DX2 analytically  !
 ! A2    A(1,2,3)              120.7459         calculate D2E/DX2 analytically  !
 ! A3    A(1,2,4)              121.3726         calculate D2E/DX2 analytically  !
 ! A4    A(3,2,4)              117.8814         calculate D2E/DX2 analytically  !
 ! A5    A(2,4,5)              119.8263         calculate D2E/DX2 analytically  !
 ! A6    A(2,4,6)              120.7862         calculate D2E/DX2 analytically  !
 ! A7    A(5,4,6)              119.3875         calculate D2E/DX2 analytically  !
 ! A8    A(4,6,7)              118.2273         calculate D2E/DX2 analytically  !
 ! A9    A(4,6,11)             120.9724         calculate D2E/DX2 analytically  !
 ! A10   A(7,6,11)             120.7905         calculate D2E/DX2 analytically  !
 ! A11   A(6,7,8)              119.2829         calculate D2E/DX2 analytically  !
 ! A12   A(6,7,9)              120.8328         calculate D2E/DX2 analytically  !
 ! A13   A(8,7,9)              119.8842         calculate D2E/DX2 analytically  !
 ! A14   A(1,9,7)              121.3313         calculate D2E/DX2 analytically  !
 ! A15   A(1,9,10)             119.16           calculate D2E/DX2 analytically  !
 ! A16   A(7,9,10)             119.5081         calculate D2E/DX2 analytically  !
 ! A17   A(6,11,12)            110.3805         calculate D2E/DX2 analytically  !
 ! A18   A(6,11,13)            111.2253         calculate D2E/DX2 analytically  !
 ! A19   A(6,11,14)            111.1366         calculate D2E/DX2 analytically  !
 ! A20   A(12,11,13)           107.7211         calculate D2E/DX2 analytically  !
 ! A21   A(12,11,14)           107.5534         calculate D2E/DX2 analytically  !
 ! A22   A(13,11,14)           108.6854         calculate D2E/DX2 analytically  !
 ! D1    D(9,1,2,3)           -179.953          calculate D2E/DX2 analytically  !
 ! D2    D(9,1,2,4)             -0.0753         calculate D2E/DX2 analytically  !
 ! D3    D(2,1,9,7)              0.1383         calculate D2E/DX2 analytically  !
 ! D4    D(2,1,9,10)           179.864          calculate D2E/DX2 analytically  !
 ! D5    D(1,2,4,5)           -179.7856         calculate D2E/DX2 analytically  !
 ! D6    D(1,2,4,6)              0.1356         calculate D2E/DX2 analytically  !
 ! D7    D(3,2,4,5)              0.0955         calculate D2E/DX2 analytically  !
 ! D8    D(3,2,4,6)           -179.9833         calculate D2E/DX2 analytically  !
 ! D9    D(2,4,6,7)             -0.2486         calculate D2E/DX2 analytically  !
 ! D10   D(2,4,6,11)           178.6169         calculate D2E/DX2 analytically  !
 ! D11   D(5,4,6,7)            179.673          calculate D2E/DX2 analytically  !
 ! D12   D(5,4,6,11)            -1.4615         calculate D2E/DX2 analytically  !
 ! D13   D(4,6,7,8)           -179.6277         calculate D2E/DX2 analytically  !
 ! D14   D(4,6,7,9)              0.3113         calculate D2E/DX2 analytically  !
 ! D15   D(11,6,7,8)             1.5046         calculate D2E/DX2 analytically  !
 ! D16   D(11,6,7,9)          -178.5564         calculate D2E/DX2 analytically  !
 ! D17   D(4,6,11,12)          -93.8156         calculate D2E/DX2 analytically  !
 ! D18   D(4,6,11,13)           25.6979         calculate D2E/DX2 analytically  !
 ! D19   D(4,6,11,14)          146.9379         calculate D2E/DX2 analytically  !
 ! D20   D(7,6,11,12)           85.0208         calculate D2E/DX2 analytically  !
 ! D21   D(7,6,11,13)         -155.4657         calculate D2E/DX2 analytically  !
 ! D22   D(7,6,11,14)          -34.2257         calculate D2E/DX2 analytically  !
 ! D23   D(6,7,9,1)             -0.2627         calculate D2E/DX2 analytically  !
 ! D24   D(6,7,9,10)          -179.9874         calculate D2E/DX2 analytically  !
 ! D25   D(8,7,9,1)            179.676          calculate D2E/DX2 analytically  !
 ! D26   D(8,7,9,10)            -0.0487         calculate D2E/DX2 analytically  !
 --------------------------------------------------------------------------------
 Trust Radius=3.00D-01 FncErr=5.00D-06 GrdErr=5.00D-06 EigMax=2.50D+02 EigMin=1.00D-04
 Number of steps in this run=     72 maximum allowed number of steps=    100.
 GradGradGradGradGradGradGradGradGradGradGradGradGradGradGradGradGradGrad

                          Input orientation:                          
 ---------------------------------------------------------------------
 Center     Atomic      Atomic             Coordinates (Angstroms)
 Number     Number       Type             X           Y           Z
 ---------------------------------------------------------------------
      1          6           0        6.252407    6.997587    5.176957
      2          6           0        5.120984    6.184355    5.312439
      3          1           0        5.177354    5.237760    5.844070
      4          6           0        3.892626    6.557684    4.777334
      5          1           0        3.030782    5.909460    4.900273
      6          6           0        3.751608    7.760942    4.082430
      7          6           0        4.875651    8.580424    3.944490
      8          1           0        4.783957    9.522512    3.412769
      9          6           0        6.101321    8.203804    4.479131
     10          1           0        6.959706    8.856447    4.359559
     11          6           0        2.432257    8.154502    3.475280
     12          1           0        2.385623    7.839908    2.428199
     13          1           0        1.599554    7.684190    4.000804
     14          1           0        2.294809    9.237094    3.500199
 ---------------------------------------------------------------------
                    Distance matrix (angstroms):
                    1          2          3          4          5
     1  C    0.000000
     2  C    1.399936   0.000000
     3  H    2.167434   1.087130   0.000000
     4  C    2.433471   1.390890   2.128533   0.000000
     5  H    3.411663   2.148114   2.439202   1.085396   0.000000
     6  C    2.834554   2.423580   3.391545   1.396641   2.148591
     7  C    2.433065   2.769949   3.856531   2.398217   3.383949
     8  H    3.412323   3.855597   4.942174   3.383299   4.282573
     9  C    1.401695   2.394501   3.393257   2.770735   3.856110
    10  H    2.150296   3.380674   4.298307   3.855623   4.941007
    11  C    4.339090   3.806033   4.653397   2.525441   2.725629
    12  H    4.818422   4.306030   5.121827   3.071415   3.202188
    13  H    4.848072   4.046030   4.709915   2.670242   2.450944
    14  H    4.846596   4.537697   5.458706   3.370954   3.684428
                    6          7          8          9         10
     6  C    0.000000
     7  C    1.397874   0.000000
     8  H    2.148795   1.085663   0.000000
     9  C    2.423768   1.389227   2.147456   0.000000
    10  H    3.401297   2.142838   2.464536   1.084926   0.000000
    11  C    1.504728   2.524231   2.721369   3.804232   4.666098
    12  H    2.146772   3.007946   3.090718   4.259713   5.068110
    13  H    2.154969   3.396942   3.723659   4.556830   5.498556
    14  H    2.154131   2.699881   2.506983   4.063930   4.758640
                   11         12         13         14
    11  C    0.000000
    12  H    1.094314   0.000000
    13  H    1.091221   1.765004   0.000000
    14  H    1.091567   1.763394   1.773555   0.000000
 Symmetry turned off by external request.
 Stoichiometry    C7H7(2)
 Framework group  C1[X(C7H7)]
 Deg. of freedom    36
 Full point group                 C1      NOp   1
 Rotational constants (GHZ):           5.5771174           2.6318806           1.8081505
 Standard basis: 6-311+G(d,p) (5D, 7F)
   196 basis functions,   308 primitive gaussians,   203 cartesian basis functions
    25 alpha electrons       24 beta electrons
       nuclear repulsion energy       259.1324550682 Hartrees.
 NAtoms=   14 NActive=   14 NUniq=   14 SFac= 1.00D+00 NAtFMM=   60 NAOKFM=F Big=F
 Integral buffers will be    131072 words long.
 Raffenetti 2 integral format.
 Two-electron integral symmetry is turned off.
 Force inversion solution in PCM.
 ------------------------------------------------------------------------------
 Polarizable Continuum Model (PCM)
 =================================
 Model                : PCM.
 Atomic radii         : SMD-Coulomb.
 Polarization charges : Total charges.
 Charge compensation  : None.
 Solution method      : Matrix inversion.
 Cavity type          : VdW (van der Waals Surface) (Alpha=1.000).
 Cavity algorithm     : GePol (No added spheres)
                        Default sphere list used, NSphG=   14.
                        Lebedev-Laikov grids with approx.  5.0 points / Ang**2.
                        Smoothing algorithm: York/Karplus (Gamma=1.0000).
                        Polarization charges: spherical gaussians, with
                                              point-specific exponents (IZeta= 3).
                        Self-potential: point-specific (ISelfS= 7).
                        Self-field    : sphere-specific E.n sum rule (ISelfD= 2).
 1st derivatives      : Analytical E(r).r(x)/FMM algorithm (CHGder, D1EAlg=3).
                        Cavity 1st derivative terms included.
 2nd derivatives      : Analytical E(r).r(xy)/FMM algorithm (CHGder, D2EAlg=3).
                        Cavity 2nd derivative terms included.
 Solvent              : TetraHydroFuran, Eps=   7.425700 Eps(inf)=   1.974025
 ------------------------------------------------------------------------------
 Spheres list:
 ISph  on   Nord     Re0    Alpha      Xe            Ye            Ze
    1   C      1    1.8500  1.000      6.252407      6.997587      5.176957
    2   C      2    1.8500  1.000      5.120984      6.184355      5.312439
    3   H      3    1.2000  1.000      5.177354      5.237760      5.844070
    4   C      4    1.8500  1.000      3.892626      6.557684      4.777334
    5   H      5    1.2000  1.000      3.030782      5.909460      4.900273
    6   C      6    1.8500  1.000      3.751608      7.760942      4.082430
    7   C      7    1.8500  1.000      4.875651      8.580424      3.944490
    8   H      8    1.2000  1.000      4.783957      9.522512      3.412769
    9   C      9    1.8500  1.000      6.101321      8.203804      4.479131
   10   H     10    1.2000  1.000      6.959706      8.856447      4.359559
   11   C     11    1.8500  1.000      2.432257      8.154502      3.475280
   12   H     12    1.2000  1.000      2.385623      7.839908      2.428199
   13   H     13    1.2000  1.000      1.599554      7.684190      4.000804
   14   H     14    1.2000  1.000      2.294809      9.237094      3.500199
 ------------------------------------------------------------------------------
 ------------------------------------------------------------------------------
 Atomic radii for non-electrostatic terms: SMD-CDS.
 ------------------------------------------------------------------------------
 Nuclear repulsion after PCM non-electrostatic terms =      259.1295253815 Hartrees.
 One-electron integrals computed using PRISM.
 NBasis=   196 RedAO= T EigKep=  3.74D-06  NBF=   196
 NBsUse=   196 1.00D-06 EigRej= -1.00D+00 NBFU=   196
 ExpMin= 4.38D-02 ExpMax= 4.56D+03 ExpMxC= 6.82D+02 IAcc=3 IRadAn=         5 AccDes= 0.00D+00
 Harris functional with IExCor= 1009 and IRadAn=       5 diagonalized for initial guess.
 HarFok:  IExCor= 1009 AccDes= 0.00D+00 IRadAn=         5 IDoV= 1 UseB2=F ITyADJ=14
 ICtDFT=  3500011 ScaDFX=  1.000000  1.000000  1.000000  1.000000
 FoFCou: FMM=F IPFlag=           0 FMFlag=      100000 FMFlg1=           0
         NFxFlg=           0 DoJE=T BraDBF=F KetDBF=T FulRan=T
         wScrn=  0.000000 ICntrl=       500 IOpCl=  0 I1Cent=   200000004 NGrid=           0
         NMat0=    1 NMatS0=      1 NMatT0=    0 NMatD0=    1 NMtDS0=    0 NMtDT0=    0
 Symmetry not used in FoFCou.
 Initial guess <Sx>= 0.0000 <Sy>= 0.0000 <Sz>= 0.5000 <S**2>= 0.7500 S= 0.5000
 Requested convergence on RMS density matrix=1.00D-08 within 128 cycles.
 Requested convergence on MAX density matrix=1.00D-06.
 Requested convergence on             energy=1.00D-06.
 Level shift goal  0.100 maximum shift  0.100.
 No special actions if energy rises.
 Dynamic level shift is on during FON iterations.
 Inv3:  Mode=1 IEnd=     4269747.
 Iteration    1 A*A^-1 deviation from unit magnitude is 3.33D-15 for   1186.
 Iteration    1 A*A^-1 deviation from orthogonality  is 2.10D-15 for    546    115.
 Iteration    1 A^-1*A deviation from unit magnitude is 3.55D-15 for   1186.
 Iteration    1 A^-1*A deviation from orthogonality  is 2.94D-15 for    649    474.
 Error on total polarization charges =  0.04078
 SCF Done:  E(UM062X) =  -270.822887707     A.U. after   16 cycles
            NFock= 16  Conv=0.82D-08     -V/T= 2.0045
 <Sx>= 0.0000 <Sy>= 0.0000 <Sz>= 0.5000 <S**2>= 0.7635 S= 0.5067
 <L.S>=  0.00000000000    
 SMD-CDS (non-electrostatic) energy       (kcal/mol) =      -1.84
 (included in total energy above)
 Annihilation of the first spin contaminant:
 S**2 before annihilation     0.7635,   after     0.7501
 DoSCS=F DFT=T ScalE2(SS,OS)=  1.000000  1.000000
 Range of M.O.s used for correlation:     1   196
 NBasis=   196 NAE=    25 NBE=    24 NFC=     0 NFV=     0
 NROrb=    196 NOA=    25 NOB=    24 NVA=   171 NVB=   172

 **** Warning!!: The largest alpha MO coefficient is  0.13836717D+03


 **** Warning!!: The largest beta MO coefficient is  0.15145054D+03

 Symmetrizing basis deriv contribution to polar:
 IMax=3 JMax=2 DiffMx= 0.00D+00
 G2DrvN: will do    15 centers at a time, making    1 passes.
 Calling FoFCou, ICntrl=  3107 FMM=F I1Cent=   0 AccDes= 0.00D+00.
 NEqPCM:  Using equilibrium solvation (IEInf=0, Eps=   7.4257, EpsInf=   1.9740)
 G2PCM: DoFxE=T DoFxN=T DoGrad=T DoDP/DQ/DG/TGxP=FFFF NFrqRd=   0 IEInf=0 SqF1=F DoCFld=F IF1Alg=4.
 End of G2Drv F.D. properties file   721 does not exist.
 End of G2Drv F.D. properties file   722 does not exist.
 End of G2Drv F.D. properties file   788 does not exist.
          IDoAtm=11111111111111
 NEqPCM:  Using equilibrium solvation (IEInf=0, Eps=   7.4257, EpsInf=   1.9740)
          Differentiating once with respect to nuclear coordinates.
 Keep R1 and R2 ints in memory in canonical form, NReq=405643473.
          There are    45 degrees of freedom in the 1st order CPHF.  IDoFFX=6 NUNeed=     0.
     39 vectors produced by pass  0 Test12= 1.87D-14 2.22D-09 XBig12= 1.85D-01 1.08D-01.
 AX will form    39 AO Fock derivatives at one time.
     39 vectors produced by pass  1 Test12= 1.87D-14 2.22D-09 XBig12= 2.62D-02 4.74D-02.
     39 vectors produced by pass  2 Test12= 1.87D-14 2.22D-09 XBig12= 5.82D-04 6.85D-03.
     39 vectors produced by pass  3 Test12= 1.87D-14 2.22D-09 XBig12= 1.34D-05 1.17D-03.
     39 vectors produced by pass  4 Test12= 1.87D-14 2.22D-09 XBig12= 2.17D-07 1.22D-04.
     39 vectors produced by pass  5 Test12= 1.87D-14 2.22D-09 XBig12= 3.12D-09 9.17D-06.
     37 vectors produced by pass  6 Test12= 1.87D-14 2.22D-09 XBig12= 2.47D-11 6.51D-07.
     19 vectors produced by pass  7 Test12= 1.87D-14 2.22D-09 XBig12= 1.50D-13 4.34D-08.
      2 vectors produced by pass  8 Test12= 1.87D-14 2.22D-09 XBig12= 8.91D-16 3.96D-09.
 InvSVY:  IOpt=1 It=  1 EMax= 1.78D-15
 Solved reduced A of dimension   292 with    39 vectors.
 End of Minotr F.D. properties file   721 does not exist.
 End of Minotr F.D. properties file   722 does not exist.
 End of Minotr F.D. properties file   788 does not exist.

 **********************************************************************

            Population analysis using the SCF Density.

 **********************************************************************

 Alpha  occ. eigenvalues --  -10.57644 -10.55309 -10.55091 -10.55085 -10.54524
 Alpha  occ. eigenvalues --  -10.54493 -10.52702  -0.96964  -0.87147  -0.84816
 Alpha  occ. eigenvalues --   -0.77224  -0.69220  -0.66335  -0.56851  -0.53516
 Alpha  occ. eigenvalues --   -0.52016  -0.48881  -0.48659  -0.44665  -0.43751
 Alpha  occ. eigenvalues --   -0.43206  -0.39874  -0.32454  -0.31354  -0.30617
 Alpha virt. eigenvalues --    0.01312   0.01503   0.02032   0.03445   0.03648
 Alpha virt. eigenvalues --    0.05584   0.05812   0.05902   0.07211   0.08279
 Alpha virt. eigenvalues --    0.08505   0.08850   0.09518   0.11300   0.12868
 Alpha virt. eigenvalues --    0.14086   0.14134   0.14670   0.15589   0.15802
 Alpha virt. eigenvalues --    0.16104   0.18936   0.19043   0.19257   0.20092
 Alpha virt. eigenvalues --    0.21196   0.21749   0.22272   0.22693   0.23942
 Alpha virt. eigenvalues --    0.24247   0.24992   0.25124   0.26024   0.26781
 Alpha virt. eigenvalues --    0.27587   0.27835   0.29840   0.32776   0.36291
 Alpha virt. eigenvalues --    0.36498   0.37994   0.38357   0.45651   0.49194
 Alpha virt. eigenvalues --    0.49632   0.51614   0.53781   0.56213   0.57004
 Alpha virt. eigenvalues --    0.59540   0.60319   0.60886   0.61389   0.61951
 Alpha virt. eigenvalues --    0.62923   0.65542   0.66654   0.67243   0.68376
 Alpha virt. eigenvalues --    0.70376   0.70800   0.72815   0.73499   0.75058
 Alpha virt. eigenvalues --    0.77944   0.78101   0.79746   0.83841   0.86445
 Alpha virt. eigenvalues --    0.87136   0.89966   0.90236   0.90855   0.90993
 Alpha virt. eigenvalues --    0.96300   0.98250   1.01955   1.04839   1.05774
 Alpha virt. eigenvalues --    1.05954   1.11703   1.13840   1.19333   1.23222
 Alpha virt. eigenvalues --    1.23470   1.40351   1.41057   1.42246   1.50728
 Alpha virt. eigenvalues --    1.53509   1.53589   1.56343   1.56689   1.60090
 Alpha virt. eigenvalues --    1.60907   1.64562   1.65122   1.67891   1.69193
 Alpha virt. eigenvalues --    1.69732   1.71414   1.76226   1.78161   1.81247
 Alpha virt. eigenvalues --    1.84381   1.85934   1.89606   1.90804   1.95167
 Alpha virt. eigenvalues --    1.96102   1.97134   1.97685   1.99768   2.01737
 Alpha virt. eigenvalues --    2.06570   2.08997   2.10994   2.18720   2.21441
 Alpha virt. eigenvalues --    2.25169   2.32323   2.35225   2.39540   2.42404
 Alpha virt. eigenvalues --    2.45470   2.49085   2.51982   2.54765   2.58773
 Alpha virt. eigenvalues --    2.62237   2.64210   2.64672   2.66680   2.71090
 Alpha virt. eigenvalues --    2.71774   2.73644   2.74290   2.77963   2.78026
 Alpha virt. eigenvalues --    2.85436   2.86563   2.91392   2.92145   2.96624
 Alpha virt. eigenvalues --    2.97689   2.98269   3.02458   3.14019   3.20843
 Alpha virt. eigenvalues --    3.27439   3.39379   3.45889   3.54250   3.59711
 Alpha virt. eigenvalues --    3.69588   3.80257   3.85835   3.88026   4.02362
 Alpha virt. eigenvalues --    4.15521   4.17324   4.36859   4.83251  23.62044
 Alpha virt. eigenvalues --   23.97184  24.02193  24.04012  24.12791  24.17407
 Alpha virt. eigenvalues --   24.23779
  Beta  occ. eigenvalues --  -10.56593 -10.55343 -10.55084 -10.55078 -10.54450
  Beta  occ. eigenvalues --  -10.54418 -10.52696  -0.96331  -0.86204  -0.84441
  Beta  occ. eigenvalues --   -0.76184  -0.68721  -0.65435  -0.55423  -0.52683
  Beta  occ. eigenvalues --   -0.51333  -0.48675  -0.48527  -0.44400  -0.42486
  Beta  occ. eigenvalues --   -0.42455  -0.39419  -0.31398  -0.29264
  Beta virt. eigenvalues --   -0.06365   0.01412   0.01987   0.02413   0.03474
  Beta virt. eigenvalues --    0.03789   0.05592   0.05786   0.06652   0.07373
  Beta virt. eigenvalues --    0.08584   0.08736   0.08809   0.09562   0.11644
  Beta virt. eigenvalues --    0.12664   0.14067   0.14184   0.14309   0.15464
  Beta virt. eigenvalues --    0.15921   0.16287   0.18912   0.18946   0.19205
  Beta virt. eigenvalues --    0.20502   0.21360   0.22228   0.22402   0.22728
  Beta virt. eigenvalues --    0.23899   0.24303   0.25133   0.25510   0.25979
  Beta virt. eigenvalues --    0.26440   0.27691   0.27901   0.29836   0.32683
  Beta virt. eigenvalues --    0.36605   0.37653   0.38343   0.38755   0.45703
  Beta virt. eigenvalues --    0.48029   0.49352   0.50046   0.53846   0.56429
  Beta virt. eigenvalues --    0.57185   0.59182   0.59611   0.60171   0.60938
  Beta virt. eigenvalues --    0.61984   0.63223   0.65562   0.66808   0.67543
  Beta virt. eigenvalues --    0.68453   0.70593   0.71569   0.72782   0.73451
  Beta virt. eigenvalues --    0.74699   0.78098   0.78391   0.79561   0.83704
  Beta virt. eigenvalues --    0.85722   0.86853   0.89375   0.90158   0.91143
  Beta virt. eigenvalues --    0.91980   0.95889   0.98733   1.02263   1.04784
  Beta virt. eigenvalues --    1.05597   1.06467   1.12076   1.13867   1.19827
  Beta virt. eigenvalues --    1.23088   1.25279   1.40446   1.41352   1.42316
  Beta virt. eigenvalues --    1.51044   1.53612   1.55556   1.56632   1.56780
  Beta virt. eigenvalues --    1.60361   1.61113   1.64597   1.65215   1.68675
  Beta virt. eigenvalues --    1.69425   1.70036   1.71621   1.76610   1.78616
  Beta virt. eigenvalues --    1.81269   1.84449   1.86090   1.90151   1.90863
  Beta virt. eigenvalues --    1.95659   1.96691   1.97358   1.97998   2.00305
  Beta virt. eigenvalues --    2.02157   2.06668   2.08943   2.10963   2.18869
  Beta virt. eigenvalues --    2.21601   2.25446   2.32982   2.35518   2.39699
  Beta virt. eigenvalues --    2.42654   2.45617   2.49065   2.52316   2.54710
  Beta virt. eigenvalues --    2.58812   2.62286   2.64287   2.64944   2.66720
  Beta virt. eigenvalues --    2.71606   2.72156   2.73650   2.74683   2.77991
  Beta virt. eigenvalues --    2.78047   2.85281   2.87222   2.91375   2.92279
  Beta virt. eigenvalues --    2.96600   2.97742   2.98155   3.04395   3.14035
  Beta virt. eigenvalues --    3.21333   3.27766   3.39800   3.46133   3.54404
  Beta virt. eigenvalues --    3.60551   3.69692   3.80839   3.85831   3.88024
  Beta virt. eigenvalues --    4.02451   4.15496   4.17746   4.36733   4.83519
  Beta virt. eigenvalues --   23.62284  23.97628  24.02197  24.04199  24.12973
  Beta virt. eigenvalues --   24.17388  24.23838
          Condensed to atoms (all electrons):
               1          2          3          4          5          6
     1  C    5.530691   0.008613   0.008802   0.527157  -0.010843  -0.865243
     2  C    0.008613   5.980910   0.358733  -0.403561   0.023630   0.725881
     3  H    0.008802   0.358733   0.463808  -0.019726  -0.005769   0.001592
     4  C    0.527157  -0.403561  -0.019726   7.848630   0.301980  -1.046459
     5  H   -0.010843   0.023630  -0.005769   0.301980   0.459574   0.019003
     6  C   -0.865243   0.725881   0.001592  -1.046459   0.019003   7.791483
     7  C    0.495875  -0.790084  -0.003029  -0.145570  -0.013729  -0.916118
     8  H   -0.011301   0.001288   0.000043  -0.014474  -0.000161   0.016031
     9  C    0.006692   0.650062  -0.010109  -0.844234   0.001179   0.736358
    10  H    0.006748  -0.010942  -0.000074  -0.002786   0.000043  -0.000189
    11  C    0.115523  -0.206798   0.006270   0.237288   0.032478  -1.058751
    12  H   -0.009384   0.009224   0.000004  -0.052088   0.000227   0.126912
    13  H    0.002221   0.031079  -0.000006   0.170867  -0.000188  -0.164605
    14  H    0.001658  -0.003992   0.000007  -0.111268   0.000267  -0.141789
               7          8          9         10         11         12
     1  C    0.495875  -0.011301   0.006692   0.006748   0.115523  -0.009384
     2  C   -0.790084   0.001288   0.650062  -0.010942  -0.206798   0.009224
     3  H   -0.003029   0.000043  -0.010109  -0.000074   0.006270   0.000004
     4  C   -0.145570  -0.014474  -0.844234  -0.002786   0.237288  -0.052088
     5  H   -0.013729  -0.000161   0.001179   0.000043   0.032478   0.000227
     6  C   -0.916118   0.016031   0.736358  -0.000189  -1.058751   0.126912
     7  C    7.704541   0.303594  -0.377726  -0.016240   0.131797  -0.063977
     8  H    0.303594   0.458411   0.023929  -0.005492   0.034651   0.000215
     9  C   -0.377726   0.023929   6.009948   0.359688  -0.226237   0.007183
    10  H   -0.016240  -0.005492   0.359688   0.462819   0.006183   0.000003
    11  C    0.131797   0.034651  -0.226237   0.006183   6.502364   0.343358
    12  H   -0.063977   0.000215   0.007183   0.000003   0.343358   0.472794
    13  H   -0.105485   0.000267  -0.004557   0.000007   0.437658  -0.022433
    14  H    0.164211  -0.000426   0.032017  -0.000003   0.423891  -0.024666
              13         14
     1  C    0.002221   0.001658
     2  C    0.031079  -0.003992
     3  H   -0.000006   0.000007
     4  C    0.170867  -0.111268
     5  H   -0.000188   0.000267
     6  C   -0.164605  -0.141789
     7  C   -0.105485   0.164211
     8  H    0.000267  -0.000426
     9  C   -0.004557   0.032017
    10  H    0.000007  -0.000003
    11  C    0.437658   0.423891
    12  H   -0.022433  -0.024666
    13  H    0.500577  -0.027612
    14  H   -0.027612   0.504933
          Atomic-Atomic Spin Densities.
               1          2          3          4          5          6
     1  C    1.139078  -0.233771   0.008800   0.209340   0.003311  -0.214315
     2  C   -0.233771   0.292370  -0.009392  -0.311539  -0.006920   0.255323
     3  H    0.008800  -0.009392   0.021870   0.012839   0.001043  -0.015437
     4  C    0.209340  -0.311539   0.012839   0.447595   0.008577  -0.266289
     5  H    0.003311  -0.006920   0.001043   0.008577   0.003310  -0.005251
     6  C   -0.214315   0.255323  -0.015437  -0.266289  -0.005251   0.172793
     7  C    0.199910  -0.233147   0.008665   0.210710   0.002056  -0.253486
     8  H    0.003310  -0.002340   0.000012   0.002269   0.000028  -0.005011
     9  C   -0.233763   0.277753  -0.012865  -0.242151  -0.002284   0.251045
    10  H    0.008349  -0.013365   0.000120   0.009020   0.000012  -0.015097
    11  C   -0.045578   0.051618  -0.001427  -0.064857  -0.000776   0.052678
    12  H   -0.000264   0.000362   0.000000  -0.000889   0.000027   0.002472
    13  H    0.000090  -0.000390   0.000003   0.000092   0.000114   0.001133
    14  H    0.000026   0.000284   0.000000   0.000223   0.000021   0.001784
               7          8          9         10         11         12
     1  C    0.199910   0.003310  -0.233763   0.008349  -0.045578  -0.000264
     2  C   -0.233147  -0.002340   0.277753  -0.013365   0.051618   0.000362
     3  H    0.008665   0.000012  -0.012865   0.000120  -0.001427   0.000000
     4  C    0.210710   0.002269  -0.242151   0.009020  -0.064857  -0.000889
     5  H    0.002056   0.000028  -0.002284   0.000012  -0.000776   0.000027
     6  C   -0.253486  -0.005011   0.251045  -0.015097   0.052678   0.002472
     7  C    0.418953   0.008407  -0.299799   0.012373  -0.061797  -0.001065
     8  H    0.008407   0.003358  -0.007214   0.001004  -0.000678   0.000031
     9  C   -0.299799  -0.007214   0.294065  -0.009011   0.051769   0.000287
    10  H    0.012373   0.001004  -0.009011   0.021774  -0.001423   0.000000
    11  C   -0.061797  -0.000678   0.051769  -0.001423   0.025194   0.000040
    12  H   -0.001065   0.000031   0.000287   0.000000   0.000040  -0.005034
    13  H    0.000489   0.000022   0.000227   0.000000  -0.001745   0.000532
    14  H    0.000024   0.000095  -0.000227   0.000002  -0.002165   0.000691
              13         14
     1  C    0.000090   0.000026
     2  C   -0.000390   0.000284
     3  H    0.000003   0.000000
     4  C    0.000092   0.000223
     5  H    0.000114   0.000021
     6  C    0.001133   0.001784
     7  C    0.000489   0.000024
     8  H    0.000022   0.000095
     9  C    0.000227  -0.000227
    10  H    0.000000   0.000002
    11  C   -0.001745  -0.002165
    12  H    0.000532   0.000691
    13  H   -0.000914  -0.000167
    14  H   -0.000167  -0.001450
 Mulliken charges and spin densities:
               1          2
     1  C    0.192793   0.844524
     2  C   -0.374041   0.066846
     3  H    0.199455   0.014231
     4  C   -0.445757   0.014940
     5  H    0.192308   0.003267
     6  C    0.775894  -0.037659
     7  C   -0.368059   0.012295
     8  H    0.193426   0.003293
     9  C   -0.364192   0.067832
    10  H    0.200236   0.013760
    11  C   -0.779675   0.000853
    12  H    0.212629  -0.002811
    13  H    0.182212  -0.000513
    14  H    0.182773  -0.000857
 Sum of Mulliken charges =   0.00000   1.00000
 Mulliken charges and spin densities with hydrogens summed into heavy atoms:
               1          2
     1  C    0.192793   0.844524
     2  C   -0.174587   0.081077
     4  C   -0.253449   0.018207
     6  C    0.775894  -0.037659
     7  C   -0.174633   0.015588
     9  C   -0.163956   0.081591
    11  C   -0.202061  -0.003328
 APT charges:
               1
     1  C    1.270200
     2  C   -0.995520
     3  H   -0.102580
     4  C    0.225601
     5  H   -0.760142
     6  C   -1.006142
     7  C   -0.145246
     8  H    1.188503
     9  C   -1.655738
    10  H    1.873373
    11  C   -0.635437
    12  H   -0.505518
    13  H   -0.177236
    14  H    1.425881
 Sum of APT charges =   0.00000
 APT charges with hydrogens summed into heavy atoms:
               1
     1  C    1.270200
     2  C   -1.098100
     4  C   -0.534541
     6  C   -1.006142
     7  C    1.043257
     9  C    0.217635
    11  C    0.107690
 Electronic spatial extent (au):  <R**2>=          17565.4985
 Charge=              0.0000 electrons
 Dipole moment (field-independent basis, Debye):
    X=             -1.5923    Y=              0.4710    Z=             -0.7582  Tot=              1.8255
 Quadrupole moment (field-independent basis, Debye-Ang):
   XX=            -54.6260   YY=            -31.4860   ZZ=            -50.7629
   XY=             -7.5767   XZ=             -9.9674   YZ=             -7.1741
 Traceless Quadrupole moment (field-independent basis, Debye-Ang):
   XX=             -9.0011   YY=             14.1390   ZZ=             -5.1379
   XY=             -7.5767   XZ=             -9.9674   YZ=             -7.1741
 Octapole moment (field-independent basis, Debye-Ang**2):
  XXX=           -652.3407  YYY=           -789.8620  ZZZ=           -633.1211  XYY=           -199.7465
  XXY=           -376.3606  XXZ=           -254.8601  XZZ=           -260.4850  YZZ=           -405.0133
  YYZ=           -234.2072  XYZ=            -71.8034
 Hexadecapole moment (field-independent basis, Debye-Ang**3):
 XXXX=          -6205.8914 YYYY=         -12531.4256 ZZZZ=          -5683.1856 XXXY=          -4624.7991
 XXXZ=          -3037.2702 YYYX=          -3873.5550 YYYZ=          -4340.3709 ZZZX=          -3103.1723
 ZZZY=          -4876.9079 XXYY=          -3500.1782 XXZZ=          -2247.2594 YYZZ=          -4032.5985
 XXYZ=          -1819.3591 YYXZ=          -1313.1115 ZZXY=          -2016.5779
 N-N= 2.591295253815D+02 E-N=-1.146024133390D+03  KE= 2.696019092075D+02
  Exact polarizability:       0.000       0.000       0.000       0.000       0.000       0.000
 Approx polarizability:     112.687       4.480     102.159      11.505     -19.922      77.929
                          Isotropic Fermi Contact Couplings
        Atom                 a.u.       MegaHertz       Gauss      10(-4) cm-1
     1  C(13)              0.54291     610.32918     217.78063     203.58390
     2  C(13)              0.02213      24.87529       8.87612       8.29750
     3  H(1)               0.00924      41.32386      14.74538      13.78416
     4  C(13)              0.03957      44.48122      15.87200      14.83734
     5  H(1)               0.00189       8.43594       3.01015       2.81393
     6  C(13)             -0.00969     -10.89218      -3.88660      -3.63324
     7  C(13)              0.03881      43.62616      15.56690      14.55212
     8  H(1)               0.00189       8.46202       3.01946       2.82262
     9  C(13)              0.02227      25.03875       8.93445       8.35203
    10  H(1)               0.00926      41.37360      14.76313      13.80075
    11  C(13)              0.00464       5.21713       1.86160       1.74025
    12  H(1)              -0.00149      -6.64345      -2.37055      -2.21602
    13  H(1)              -0.00030      -1.33019      -0.47464      -0.44370
    14  H(1)              -0.00048      -2.14913      -0.76686      -0.71687
 --------------------------------------------------------
       Center         ----  Spin Dipole Couplings  ----
                      3XX-RR        3YY-RR        3ZZ-RR
 --------------------------------------------------------
     1   Atom        0.586841     -0.395259     -0.191582
     2   Atom        0.094956     -0.014645     -0.080310
     3   Atom        0.002161      0.008193     -0.010354
     4   Atom        0.036081     -0.029380     -0.006701
     5   Atom        0.006943     -0.001999     -0.004943
     6   Atom        0.027300      0.005905     -0.033204
     7   Atom        0.025431     -0.022968     -0.002463
     8   Atom       -0.003190      0.004380     -0.001189
     9   Atom       -0.000771      0.045063     -0.044292
    10   Atom       -0.010034      0.016211     -0.006176
    11   Atom        0.002859     -0.001330     -0.001529
    12   Atom        0.000937     -0.000716     -0.000221
    13   Atom        0.001650     -0.000788     -0.000862
    14   Atom        0.001356     -0.000551     -0.000806
 --------------------------------------------------------
                        XY            XZ            YZ
 --------------------------------------------------------
     1   Atom       -0.356124      0.452304     -0.076447
     2   Atom        0.056449      0.023482     -0.033871
     3   Atom        0.016306     -0.004792     -0.007093
     4   Atom       -0.020168      0.022927      0.005635
     5   Atom        0.005540      0.000218     -0.000208
     6   Atom        0.005943      0.020440     -0.032786
     7   Atom       -0.028390      0.024145     -0.000106
     8   Atom       -0.003365      0.002320     -0.006000
     9   Atom       -0.027814      0.042977     -0.088493
    10   Atom        0.006256     -0.002507     -0.014280
    11   Atom       -0.000974      0.002701     -0.001521
    12   Atom       -0.000269      0.001331     -0.000432
    13   Atom       -0.000681      0.000814     -0.000330
    14   Atom       -0.000956      0.000811     -0.000415
 --------------------------------------------------------


 ---------------------------------------------------------------------------------
              Anisotropic Spin Dipole Couplings in Principal Axis System
 ---------------------------------------------------------------------------------

       Atom             a.u.   MegaHertz   Gauss  10(-4) cm-1        Axes

              Baa    -0.5359   -71.915   -25.661   -23.988  0.4081  0.8437 -0.3488
     1 C(13)  Bbb    -0.3569   -47.898   -17.091   -15.977 -0.2334  0.4657  0.8536
              Bcc     0.8929   119.813    42.752    39.965  0.8826 -0.2670  0.3869
 
              Baa    -0.1051   -14.101    -5.031    -4.703 -0.2314  0.4646  0.8547
     2 C(13)  Bbb    -0.0141    -1.896    -0.676    -0.632 -0.3029  0.8005 -0.5171
              Bcc     0.1192    15.996     5.708     5.336  0.9245  0.3786  0.0445
 
              Baa    -0.0129    -6.896    -2.461    -2.300 -0.2341  0.4672  0.8526
     3 H(1)   Bbb    -0.0110    -5.845    -2.086    -1.950  0.7520 -0.4688  0.4633
              Bcc     0.0239    12.741     4.546     4.250  0.6161  0.7497 -0.2416
 
              Baa    -0.0399    -5.360    -1.913    -1.788  0.3429  0.8582 -0.3819
     4 C(13)  Bbb    -0.0096    -1.284    -0.458    -0.428 -0.2221  0.4691  0.8548
              Bcc     0.0495     6.644     2.371     2.216  0.9128 -0.2082  0.3514
 
              Baa    -0.0051    -2.729    -0.974    -0.910 -0.2285  0.4637  0.8560
     5 H(1)   Bbb    -0.0045    -2.389    -0.852    -0.797 -0.3656  0.7740 -0.5169
              Bcc     0.0096     5.118     1.826     1.707  0.9023  0.4311  0.0074
 
              Baa    -0.0569    -7.640    -2.726    -2.548 -0.2395  0.4668  0.8513
     6 C(13)  Bbb     0.0223     2.990     1.067     0.997  0.4120  0.8428 -0.3462
              Bcc     0.0347     4.650     1.659     1.551  0.8791 -0.2678  0.3942
 
              Baa    -0.0393    -5.280    -1.884    -1.761  0.4761  0.8232 -0.3093
     7 C(13)  Bbb    -0.0089    -1.198    -0.428    -0.400 -0.2284  0.4554  0.8605
              Bcc     0.0483     6.478     2.312     2.161  0.8492 -0.3390  0.4048
 
              Baa    -0.0051    -2.697    -0.962    -0.900 -0.2320  0.4618  0.8561
     8 H(1)   Bbb    -0.0045    -2.384    -0.851    -0.795  0.9233  0.3814  0.0445
              Bcc     0.0095     5.081     1.813     1.695 -0.3060  0.8008 -0.5148
 
              Baa    -0.1040   -13.953    -4.979    -4.654 -0.2308  0.4645  0.8549
     9 C(13)  Bbb    -0.0139    -1.863    -0.665    -0.622  0.9004  0.4350  0.0067
              Bcc     0.1179    15.816     5.644     5.276 -0.3687  0.7714 -0.5187
 
              Baa    -0.0132    -7.067    -2.522    -2.357 -0.2383  0.4642  0.8531
    10 H(1)   Bbb    -0.0112    -5.989    -2.137    -1.998  0.9522 -0.0613  0.2993
              Bcc     0.0245    13.057     4.659     4.355  0.1912  0.8836 -0.4274
 
              Baa    -0.0033    -0.449    -0.160    -0.150 -0.2834  0.4861  0.8267
    11 C(13)  Bbb    -0.0012    -0.162    -0.058    -0.054  0.4290  0.8352 -0.3440
              Bcc     0.0046     0.611     0.218     0.204  0.8577 -0.2572  0.4452
 
              Baa    -0.0012    -0.642    -0.229    -0.214 -0.4282  0.4553  0.7806
    12 H(1)   Bbb    -0.0007    -0.367    -0.131    -0.123  0.3872  0.8729 -0.2968
              Bcc     0.0019     1.009     0.360     0.337  0.8165 -0.1752  0.5501
 
              Baa    -0.0012    -0.628    -0.224    -0.209 -0.1231  0.5079  0.8526
    13 H(1)   Bbb    -0.0009    -0.485    -0.173    -0.162  0.3589  0.8237 -0.4389
              Bcc     0.0021     1.113     0.397     0.371  0.9252 -0.2520  0.2837
 
              Baa    -0.0011    -0.599    -0.214    -0.200 -0.1181  0.4464  0.8870
    14 H(1)   Bbb    -0.0009    -0.491    -0.175    -0.164  0.4656  0.8139 -0.3476
              Bcc     0.0020     1.090     0.389     0.364  0.8771 -0.3719  0.3040
 

 ---------------------------------------------------------------------------------

 D2PCM: PCM CHGder 2nd derivatives, FixD1E=F FixD2E=F DoIter=F DoCFld=F I1PDM=0
 Calling FoFJK, ICntrl=    100127 FMM=F ISym2X=0 I1Cent= 0 IOpClX= 1 NMat=1 NMatS=1 NMatT=0.
 -------------------------------------------------------------------
 Center     Atomic                   Forces (Hartrees/Bohr)
 Number     Number              X              Y              Z
 -------------------------------------------------------------------
      1        6          -0.046573969    0.013212746   -0.020206807
      2        6           0.022708028   -0.010486522    0.011838340
      3        1           0.001284278    0.000575942    0.000178235
      4        6           0.000003640    0.007661989   -0.004228070
      5        1           0.001116425   -0.000855066    0.000769666
      6        6           0.000295314    0.000037222    0.000331950
      7        6          -0.006111970   -0.004448365    0.000695131
      8        1           0.001572581    0.000000494    0.000406538
      9        6           0.026269113   -0.007820286    0.011669025
     10        1          -0.000102795    0.001870138   -0.000969485
     11        6          -0.000151592    0.000114290   -0.000650461
     12        1          -0.000184258    0.000063609    0.000062160
     13        1           0.000031696    0.000126109    0.000024146
     14        1          -0.000156491   -0.000052301    0.000079632
 -------------------------------------------------------------------
 Cartesian Forces:  Max     0.046573969 RMS     0.010410404
 FormGI is forming the generalized inverse of G from B-inverse, IUseBI=4.

 GradGradGradGradGradGradGradGradGradGradGradGradGradGradGradGradGradGrad
 Berny optimization.
 Internal  Forces:  Max     0.028356028 RMS     0.005982186
 Search for a local minimum.
 Step number   1 out of a maximum of   72
 All quantities printed in internal units (Hartrees-Bohrs-Radians)
 Mixed Optimization -- RFO/linear search
 Second derivative matrix not updated -- analytic derivatives used.
 ITU=  0
     Eigenvalues ---    0.00010   0.01672   0.01869   0.01907   0.02115
     Eigenvalues ---    0.02495   0.02641   0.03071   0.03275   0.05564
     Eigenvalues ---    0.05756   0.10799   0.11064   0.11533   0.12132
     Eigenvalues ---    0.12386   0.14233   0.14541   0.16434   0.18942
     Eigenvalues ---    0.19192   0.20585   0.25623   0.32523   0.33871
     Eigenvalues ---    0.34501   0.35057   0.35492   0.35849   0.36082
     Eigenvalues ---    0.36172   0.39893   0.41520   0.45450   0.47329
     Eigenvalues ---    0.51023
 RFO step:  Lambda=-9.04324284D-03 EMin= 9.82424693D-05
 Linear search not attempted -- first point.
 Iteration  1 RMS(Cart)=  0.02398339 RMS(Int)=  0.00104800
 Iteration  2 RMS(Cart)=  0.00151894 RMS(Int)=  0.00036781
 Iteration  3 RMS(Cart)=  0.00000057 RMS(Int)=  0.00036781
 Variable       Old X    -DE/DX   Delta X   Delta X   Delta X     New X
                                 (Linear)    (Quad)   (Total)
    R1        2.64549  -0.01942   0.00000  -0.05306  -0.05247   2.59302
    R2        2.64882  -0.01894   0.00000  -0.05467  -0.05408   2.59474
    R3        2.05438  -0.00035   0.00000  -0.00514  -0.00514   2.04923
    R4        2.62840   0.00253   0.00000   0.01312   0.01312   2.64153
    R5        2.05110  -0.00029   0.00000   0.00050   0.00050   2.05160
    R6        2.63927   0.00214   0.00000   0.00140   0.00083   2.64010
    R7        2.64160   0.00172   0.00000   0.00040  -0.00018   2.64142
    R8        2.84352   0.00067   0.00000   0.00427   0.00427   2.84780
    R9        2.05161  -0.00033   0.00000   0.00025   0.00025   2.05186
   R10        2.62526   0.00229   0.00000   0.01444   0.01443   2.63969
   R11        2.05021   0.00115   0.00000  -0.00097  -0.00097   2.04924
   R12        2.06795  -0.00007   0.00000  -0.00051  -0.00051   2.06744
   R13        2.06211  -0.00006   0.00000  -0.00008  -0.00008   2.06203
   R14        2.06276  -0.00003   0.00000  -0.00011  -0.00011   2.06265
    A1        2.04987   0.02836   0.00000   0.12472   0.12629   2.17616
    A2        2.10741   0.00597   0.00000   0.02652   0.02626   2.13367
    A3        2.11835  -0.01475   0.00000  -0.07457  -0.07405   2.04430
    A4        2.05742   0.00879   0.00000   0.04805   0.04778   2.10520
    A5        2.09136  -0.00171   0.00000  -0.00818  -0.00785   2.08352
    A6        2.10812   0.00018   0.00000   0.00622   0.00557   2.11368
    A7        2.08370   0.00153   0.00000   0.00195   0.00228   2.08598
    A8        2.06346   0.00069   0.00000   0.01188   0.01061   2.07407
    A9        2.11137  -0.00021   0.00000  -0.00566  -0.00503   2.10634
   A10        2.10819  -0.00047   0.00000  -0.00621  -0.00558   2.10261
   A11        2.08188   0.00169   0.00000   0.00301   0.00335   2.08523
   A12        2.10893  -0.00013   0.00000   0.00540   0.00472   2.11365
   A13        2.09237  -0.00157   0.00000  -0.00841  -0.00807   2.08430
   A14        2.11763  -0.01434   0.00000  -0.07364  -0.07314   2.04449
   A15        2.07974   0.00899   0.00000   0.05051   0.05026   2.13000
   A16        2.08581   0.00536   0.00000   0.02313   0.02288   2.10869
   A17        1.92650   0.00030   0.00000   0.00363   0.00363   1.93013
   A18        1.94125  -0.00009   0.00000  -0.00121  -0.00121   1.94004
   A19        1.93970   0.00010   0.00000   0.00005   0.00004   1.93974
   A20        1.88009  -0.00008   0.00000  -0.00018  -0.00018   1.87991
   A21        1.87716  -0.00009   0.00000   0.00062   0.00061   1.87777
   A22        1.89692  -0.00016   0.00000  -0.00294  -0.00294   1.89398
    D1       -3.14077   0.00012   0.00000   0.00385   0.00392  -3.13685
    D2       -0.00131   0.00007   0.00000   0.00218   0.00223   0.00092
    D3        0.00241  -0.00011   0.00000  -0.00313  -0.00316  -0.00075
    D4        3.13922  -0.00006   0.00000  -0.00213  -0.00221   3.13701
    D5       -3.13785  -0.00001   0.00000   0.00014   0.00020  -3.13765
    D6        0.00237  -0.00003   0.00000  -0.00040  -0.00030   0.00207
    D7        0.00167  -0.00006   0.00000  -0.00151  -0.00149   0.00018
    D8       -3.14130  -0.00007   0.00000  -0.00204  -0.00199   3.13990
    D9       -0.00434  -0.00003   0.00000  -0.00075  -0.00073  -0.00507
   D10        3.11745  -0.00003   0.00000  -0.00057  -0.00059   3.11687
   D11        3.13588  -0.00005   0.00000  -0.00129  -0.00124   3.13465
   D12       -0.02551  -0.00005   0.00000  -0.00111  -0.00109  -0.02660
   D13       -3.13510   0.00003   0.00000   0.00036   0.00028  -3.13481
   D14        0.00543   0.00001   0.00000  -0.00013  -0.00018   0.00525
   D15        0.02626   0.00002   0.00000   0.00018   0.00013   0.02639
   D16       -3.11640   0.00000   0.00000  -0.00031  -0.00033  -3.11673
   D17       -1.63739   0.00004   0.00000   0.00130   0.00133  -1.63606
   D18        0.44851   0.00007   0.00000   0.00268   0.00270   0.45121
   D19        2.56455  -0.00012   0.00000  -0.00187  -0.00184   2.56271
   D20        1.48389   0.00005   0.00000   0.00169   0.00166   1.48556
   D21       -2.71339   0.00009   0.00000   0.00306   0.00303  -2.71035
   D22       -0.59735  -0.00010   0.00000  -0.00148  -0.00151  -0.59886
   D23       -0.00459   0.00010   0.00000   0.00229   0.00217  -0.00241
   D24       -3.14137   0.00004   0.00000   0.00121   0.00116  -3.14022
   D25        3.13594   0.00008   0.00000   0.00181   0.00171   3.13765
   D26       -0.00085   0.00002   0.00000   0.00073   0.00070  -0.00015
         Item               Value     Threshold  Converged?
 Maximum Force            0.028356     0.000015     NO 
 RMS     Force            0.005982     0.000010     NO 
 Maximum Displacement     0.141026     0.000060     NO 
 RMS     Displacement     0.023866     0.000040     NO 
 Predicted change in Energy=-4.699642D-03
 GradGradGradGradGradGradGradGradGradGradGradGradGradGradGradGradGradGrad

                          Input orientation:                          
 ---------------------------------------------------------------------
 Center     Atomic      Atomic             Coordinates (Angstroms)
 Number     Number       Type             X           Y           Z
 ---------------------------------------------------------------------
      1          6           0        6.177779    7.016413    5.144792
      2          6           0        5.116913    6.164233    5.321427
      3          1           0        5.210448    5.227659    5.859963
      4          6           0        3.889250    6.553538    4.778077
      5          1           0        3.024538    5.908412    4.899508
      6          6           0        3.756798    7.758839    4.084149
      7          6           0        4.877384    8.582431    3.943532
      8          1           0        4.784679    9.524485    3.411653
      9          6           0        6.114697    8.214771    4.477487
     10          1           0        6.980785    8.857874    4.366762
     11          6           0        2.436420    8.154367    3.474907
     12          1           0        2.386260    7.840327    2.428105
     13          1           0        1.603507    7.686431    4.002126
     14          1           0        2.299183    9.236887    3.501444
 ---------------------------------------------------------------------
                    Distance matrix (angstroms):
                    1          2          3          4          5
     1  C    0.000000
     2  C    1.372169   0.000000
     3  H    2.155653   1.084408   0.000000
     4  C    2.363493   1.397835   2.161942   0.000000
     5  H    3.351233   2.149765   2.482760   1.085661   0.000000
     6  C    2.745416   2.433832   3.416648   1.397079   2.150603
     7  C    2.363571   2.793502   3.877903   2.406093   3.390768
     8  H    3.351854   3.879292   4.963690   3.390492   4.288099
     9  C    1.373076   2.431566   3.413465   2.793325   3.878979
    10  H    2.154327   3.411907   4.306066   3.877723   4.963369
    11  C    4.252203   3.815142   4.685012   2.524207   2.723910
    12  H    4.736544   4.317067   5.155552   3.071998   3.201176
    13  H    4.762203   4.049897   4.744169   2.666490   2.446625
    14  H    4.761786   4.548972   5.487439   3.370233   3.682318
                    6          7          8          9         10
     6  C    0.000000
     7  C    1.397780   0.000000
     8  H    2.150883   1.085797   0.000000
     9  C    2.433573   1.396863   2.149489   0.000000
    10  H    3.417871   2.163166   2.485858   1.084412   0.000000
    11  C    1.506989   2.522133   2.719475   3.812944   4.684185
    12  H    2.151162   3.008810   3.091306   4.270998   5.089544
    13  H    2.156069   3.394779   3.721150   4.566832   5.515466
    14  H    2.156111   2.696456   2.503690   4.068849   4.775963
                   11         12         13         14
    11  C    0.000000
    12  H    1.094043   0.000000
    13  H    1.091178   1.764633   0.000000
    14  H    1.091507   1.763525   1.771599   0.000000
 Symmetry turned off by external request.
 Stoichiometry    C7H7(2)
 Framework group  C1[X(C7H7)]
 Deg. of freedom    36
 Full point group                 C1      NOp   1
 Rotational constants (GHZ):           5.4949202           2.6811288           1.8223245
 Standard basis: 6-311+G(d,p) (5D, 7F)
   196 basis functions,   308 primitive gaussians,   203 cartesian basis functions
    25 alpha electrons       24 beta electrons
       nuclear repulsion energy       259.9229784672 Hartrees.
 NAtoms=   14 NActive=   14 NUniq=   14 SFac= 1.00D+00 NAtFMM=   60 NAOKFM=F Big=F
 Integral buffers will be    131072 words long.
 Raffenetti 2 integral format.
 Two-electron integral symmetry is turned off.
 ------------------------------------------------------------------------------
 Polarizable Continuum Model (PCM)
 =================================
 Model                : PCM.
 Atomic radii         : SMD-Coulomb.
 Polarization charges : Total charges.
 Charge compensation  : None.
 Solution method      : Matrix inversion.
 Cavity type          : VdW (van der Waals Surface) (Alpha=1.000).
 Cavity algorithm     : GePol (No added spheres)
                        Default sphere list used, NSphG=   14.
                        Lebedev-Laikov grids with approx.  5.0 points / Ang**2.
                        Smoothing algorithm: York/Karplus (Gamma=1.0000).
                        Polarization charges: spherical gaussians, with
                                              point-specific exponents (IZeta= 3).
                        Self-potential: point-specific (ISelfS= 7).
                        Self-field    : sphere-specific E.n sum rule (ISelfD= 2).
 1st derivatives      : Analytical E(r).r(x)/FMM algorithm (CHGder, D1EAlg=3).
                        Cavity 1st derivative terms included.
 Solvent              : TetraHydroFuran, Eps=   7.425700 Eps(inf)=   1.974025
 ------------------------------------------------------------------------------
 Spheres list:
 ISph  on   Nord     Re0    Alpha      Xe            Ye            Ze
    1   C      1    1.8500  1.000      6.177779      7.016413      5.144792
    2   C      2    1.8500  1.000      5.116913      6.164233      5.321427
    3   H      3    1.2000  1.000      5.210448      5.227659      5.859963
    4   C      4    1.8500  1.000      3.889250      6.553538      4.778077
    5   H      5    1.2000  1.000      3.024538      5.908412      4.899508
    6   C      6    1.8500  1.000      3.756798      7.758839      4.084149
    7   C      7    1.8500  1.000      4.877384      8.582431      3.943532
    8   H      8    1.2000  1.000      4.784679      9.524485      3.411653
    9   C      9    1.8500  1.000      6.114697      8.214771      4.477487
   10   H     10    1.2000  1.000      6.980785      8.857874      4.366762
   11   C     11    1.8500  1.000      2.436420      8.154367      3.474907
   12   H     12    1.2000  1.000      2.386260      7.840327      2.428105
   13   H     13    1.2000  1.000      1.603507      7.686431      4.002126
   14   H     14    1.2000  1.000      2.299183      9.236887      3.501444
 ------------------------------------------------------------------------------
 ------------------------------------------------------------------------------
 Atomic radii for non-electrostatic terms: SMD-CDS.
 ------------------------------------------------------------------------------
 Nuclear repulsion after PCM non-electrostatic terms =      259.9199785488 Hartrees.
 One-electron integrals computed using PRISM.
 NBasis=   196 RedAO= T EigKep=  3.48D-06  NBF=   196
 NBsUse=   196 1.00D-06 EigRej= -1.00D+00 NBFU=   196
 Initial guess from the checkpoint file:  "4-Me-ph-opt-freq-thf.chk"
 B after Tr=    -0.015328    0.008236   -0.012574
         Rot=    1.000000   -0.000147    0.000224    0.000279 Ang=  -0.04 deg.
 Initial guess <Sx>= 0.0000 <Sy>= 0.0000 <Sz>= 0.5000 <S**2>= 0.7631 S= 0.5065
 ExpMin= 4.38D-02 ExpMax= 4.56D+03 ExpMxC= 6.82D+02 IAcc=3 IRadAn=         5 AccDes= 0.00D+00
 Harris functional with IExCor= 1009 and IRadAn=       5 diagonalized for initial guess.
 HarFok:  IExCor= 1009 AccDes= 0.00D+00 IRadAn=         5 IDoV= 1 UseB2=F ITyADJ=14
 ICtDFT=  3500011 ScaDFX=  1.000000  1.000000  1.000000  1.000000
 FoFCou: FMM=F IPFlag=           0 FMFlag=      100000 FMFlg1=           0
         NFxFlg=           0 DoJE=T BraDBF=F KetDBF=T FulRan=T
         wScrn=  0.000000 ICntrl=       500 IOpCl=  0 I1Cent=   200000004 NGrid=           0
         NMat0=    1 NMatS0=      1 NMatT0=    0 NMatD0=    1 NMtDS0=    0 NMtDT0=    0
 Symmetry not used in FoFCou.
 Requested convergence on RMS density matrix=1.00D-08 within 128 cycles.
 Requested convergence on MAX density matrix=1.00D-06.
 Requested convergence on             energy=1.00D-06.
 Level shift goal  0.100 maximum shift  0.100.
 No special actions if energy rises.
 Dynamic level shift is on during FON iterations.
 Inv3:  Mode=1 IEnd=     4284075.
 Iteration    1 A*A^-1 deviation from unit magnitude is 6.55D-15 for   1193.
 Iteration    1 A*A^-1 deviation from orthogonality  is 2.05D-15 for   1195   1117.
 Iteration    1 A^-1*A deviation from unit magnitude is 6.77D-15 for   1193.
 Iteration    1 A^-1*A deviation from orthogonality  is 1.83D-15 for   1195   1117.
 Error on total polarization charges =  0.04077
 SCF Done:  E(UM062X) =  -270.827582913     A.U. after   15 cycles
            NFock= 15  Conv=0.40D-08     -V/T= 2.0042
 <Sx>= 0.0000 <Sy>= 0.0000 <Sz>= 0.5000 <S**2>= 0.7618 S= 0.5059
 <L.S>=  0.00000000000    
 SMD-CDS (non-electrostatic) energy       (kcal/mol) =      -1.88
 (included in total energy above)
 Annihilation of the first spin contaminant:
 S**2 before annihilation     0.7618,   after     0.7501
 D1PCM: PCM CHGder 1st derivatives, ID1Alg=3 FixD1E=F DoIter=F DoCFld=F I1PDM=0.
 Calling FoFJK, ICntrl=      2127 FMM=F ISym2X=0 I1Cent= 0 IOpClX= 1 NMat=1 NMatS=1 NMatT=0.
 -------------------------------------------------------------------
 Center     Atomic                   Forces (Hartrees/Bohr)
 Number     Number              X              Y              Z
 -------------------------------------------------------------------
      1        6          -0.001047815    0.000242139   -0.000488831
      2        6           0.000239732   -0.002119153    0.001210085
      3        1           0.000040792   -0.000105402    0.000090955
      4        6          -0.000605556    0.000144102   -0.000278875
      5        1          -0.000029402   -0.000054206    0.000008772
      6        6          -0.000279565    0.000106085   -0.000086513
      7        6          -0.000563707    0.000309915   -0.000315457
      8        1           0.000036015    0.000053135   -0.000013358
      9        6           0.002251736    0.001114026    0.000037911
     10        1          -0.000065811    0.000314250   -0.000140813
     11        6           0.000048574   -0.000020580   -0.000072939
     12        1          -0.000011829   -0.000002196    0.000004500
     13        1           0.000000939    0.000022079    0.000015944
     14        1          -0.000014104   -0.000004194    0.000028620
 -------------------------------------------------------------------
 Cartesian Forces:  Max     0.002251736 RMS     0.000596788

 GradGradGradGradGradGradGradGradGradGradGradGradGradGradGradGradGradGrad
 Berny optimization.
 Using GEDIIS/GDIIS optimizer.
 FormGI is forming the generalized inverse of G from B-inverse, IUseBI=4.
 Internal  Forces:  Max     0.001475942 RMS     0.000426124
 Search for a local minimum.
 Step number   2 out of a maximum of   72
 All quantities printed in internal units (Hartrees-Bohrs-Radians)
 Mixed Optimization -- En-DIIS/RFO-DIIS
 Update second derivatives using D2CorX and points    1    2
 DE= -4.70D-03 DEPred=-4.70D-03 R= 9.99D-01
 TightC=F SS=  1.41D+00  RLast= 1.98D-01 DXNew= 5.0454D-01 5.9533D-01
 Trust test= 9.99D-01 RLast= 1.98D-01 DXMaxT set to 5.05D-01
 ITU=  1  0
 Use linear search instead of GDIIS.
     Eigenvalues ---    0.00010   0.01672   0.01869   0.01904   0.02115
     Eigenvalues ---    0.02494   0.02641   0.03066   0.03273   0.05564
     Eigenvalues ---    0.05756   0.10794   0.11064   0.11531   0.12132
     Eigenvalues ---    0.12386   0.14233   0.14541   0.16432   0.18814
     Eigenvalues ---    0.19191   0.20165   0.25618   0.32528   0.33873
     Eigenvalues ---    0.34501   0.35061   0.35495   0.35857   0.36092
     Eigenvalues ---    0.36174   0.40661   0.41514   0.45451   0.47413
     Eigenvalues ---    0.51358
 RFO step:  Lambda=-2.90502396D-05 EMin= 9.82426415D-05
 Quartic linear search produced a step of  0.04010.
 Iteration  1 RMS(Cart)=  0.02198523 RMS(Int)=  0.00048493
 Iteration  2 RMS(Cart)=  0.00050143 RMS(Int)=  0.00001586
 Iteration  3 RMS(Cart)=  0.00000020 RMS(Int)=  0.00001586
 Variable       Old X    -DE/DX   Delta X   Delta X   Delta X     New X
                                 (Linear)    (Quad)   (Total)
    R1        2.59302   0.00111  -0.00210   0.00484   0.00277   2.59579
    R2        2.59474   0.00110  -0.00217   0.00342   0.00128   2.59602
    R3        2.04923   0.00014  -0.00021   0.00016  -0.00005   2.04918
    R4        2.64153   0.00084   0.00053   0.00091   0.00144   2.64297
    R5        2.05160   0.00006   0.00002   0.00027   0.00029   2.05189
    R6        2.64010   0.00074   0.00003   0.00157   0.00158   2.64167
    R7        2.64142   0.00073  -0.00001   0.00041   0.00037   2.64180
    R8        2.84780  -0.00001   0.00017  -0.00002   0.00015   2.84795
    R9        2.05186   0.00005   0.00001   0.00010   0.00011   2.05197
   R10        2.63969   0.00085   0.00058   0.00229   0.00287   2.64255
   R11        2.04924   0.00015  -0.00004   0.00002  -0.00002   2.04922
   R12        2.06744   0.00000  -0.00002   0.00004   0.00002   2.06746
   R13        2.06203   0.00000   0.00000   0.00022   0.00021   2.06224
   R14        2.06265   0.00000   0.00000  -0.00027  -0.00027   2.06238
    A1        2.17616   0.00148   0.00506   0.00230   0.00743   2.18359
    A2        2.13367   0.00050   0.00105   0.00041   0.00145   2.13512
    A3        2.04430  -0.00107  -0.00297  -0.00224  -0.00519   2.03911
    A4        2.10520   0.00057   0.00192   0.00184   0.00374   2.10894
    A5        2.08352  -0.00006  -0.00031   0.00040   0.00010   2.08361
    A6        2.11368   0.00007   0.00022   0.00033   0.00053   2.11421
    A7        2.08598  -0.00001   0.00009  -0.00073  -0.00063   2.08536
    A8        2.07407   0.00052   0.00043   0.00158   0.00195   2.07602
    A9        2.10634  -0.00026  -0.00020  -0.00225  -0.00243   2.10391
   A10        2.10261  -0.00025  -0.00022   0.00066   0.00046   2.10308
   A11        2.08523   0.00000   0.00013  -0.00041  -0.00026   2.08497
   A12        2.11365   0.00008   0.00019   0.00045   0.00061   2.11426
   A13        2.08430  -0.00008  -0.00032  -0.00004  -0.00035   2.08395
   A14        2.04449  -0.00108  -0.00293  -0.00241  -0.00533   2.03917
   A15        2.13000   0.00086   0.00202   0.00292   0.00493   2.13493
   A16        2.10869   0.00021   0.00092  -0.00051   0.00040   2.10908
   A17        1.93013   0.00003   0.00015   0.00003   0.00017   1.93031
   A18        1.94004  -0.00002  -0.00005  -0.00033  -0.00038   1.93966
   A19        1.93974   0.00000   0.00000   0.00032   0.00032   1.94007
   A20        1.87991   0.00000  -0.00001  -0.00097  -0.00098   1.87893
   A21        1.87777   0.00001   0.00002   0.00112   0.00114   1.87892
   A22        1.89398  -0.00002  -0.00012  -0.00016  -0.00028   1.89370
    D1       -3.13685   0.00003   0.00016   0.00128   0.00144  -3.13541
    D2        0.00092   0.00001   0.00009   0.00073   0.00082   0.00174
    D3       -0.00075  -0.00002  -0.00013  -0.00082  -0.00095  -0.00170
    D4        3.13701  -0.00002  -0.00009  -0.00128  -0.00137   3.13564
    D5       -3.13765   0.00000   0.00001   0.00006   0.00008  -3.13758
    D6        0.00207  -0.00001  -0.00001  -0.00019  -0.00019   0.00187
    D7        0.00018  -0.00001  -0.00006  -0.00048  -0.00054  -0.00036
    D8        3.13990  -0.00002  -0.00008  -0.00073  -0.00081   3.13909
    D9       -0.00507   0.00000  -0.00003  -0.00021  -0.00024  -0.00531
   D10        3.11687   0.00000  -0.00002  -0.00085  -0.00088   3.11599
   D11        3.13465  -0.00001  -0.00005  -0.00046  -0.00051   3.13414
   D12       -0.02660  -0.00001  -0.00004  -0.00110  -0.00115  -0.02774
   D13       -3.13481   0.00000   0.00001   0.00039   0.00040  -3.13442
   D14        0.00525   0.00000  -0.00001   0.00011   0.00010   0.00535
   D15        0.02639   0.00000   0.00001   0.00107   0.00107   0.02746
   D16       -3.11673   0.00000  -0.00001   0.00079   0.00077  -3.11596
   D17       -1.63606   0.00001   0.00005   0.05607   0.05612  -1.57994
   D18        0.45121   0.00002   0.00011   0.05465   0.05476   0.50598
   D19        2.56271  -0.00002  -0.00007   0.05444   0.05437   2.61708
   D20        1.48556   0.00002   0.00007   0.05543   0.05549   1.54105
   D21       -2.71035   0.00003   0.00012   0.05401   0.05413  -2.65622
   D22       -0.59886  -0.00001  -0.00006   0.05380   0.05374  -0.54512
   D23       -0.00241   0.00001   0.00009   0.00037   0.00045  -0.00196
   D24       -3.14022   0.00002   0.00005   0.00081   0.00086  -3.13936
   D25        3.13765   0.00001   0.00007   0.00010   0.00016   3.13781
   D26       -0.00015   0.00001   0.00003   0.00054   0.00056   0.00041
         Item               Value     Threshold  Converged?
 Maximum Force            0.001476     0.000015     NO 
 RMS     Force            0.000426     0.000010     NO 
 Maximum Displacement     0.084174     0.000060     NO 
 RMS     Displacement     0.021985     0.000040     NO 
 Predicted change in Energy=-2.179846D-05
 GradGradGradGradGradGradGradGradGradGradGradGradGradGradGradGradGradGrad

                          Input orientation:                          
 ---------------------------------------------------------------------
 Center     Atomic      Atomic             Coordinates (Angstroms)
 Number     Number       Type             X           Y           Z
 ---------------------------------------------------------------------
      1          6           0        6.175126    7.016614    5.142728
      2          6           0        5.117298    6.157591    5.315787
      3          1           0        5.213816    5.218965    5.850155
      4          6           0        3.890007    6.549820    4.771740
      5          1           0        3.025087    5.903678    4.887517
      6          6           0        3.757756    7.759803    4.084272
      7          6           0        4.876452    8.587287    3.949609
      8          1           0        4.781524    9.532154    3.423016
      9          6           0        6.115774    8.220314    4.483347
     10          1           0        6.979939    8.866853    4.377846
     11          6           0        2.436962    8.154119    3.474949
     12          1           0        2.366569    7.795784    2.443644
     13          1           0        1.602717    7.724681    4.032205
     14          1           0        2.319610    9.239008    3.457119
 ---------------------------------------------------------------------
                    Distance matrix (angstroms):
                    1          2          3          4          5
     1  C    0.000000
     2  C    1.373633   0.000000
     3  H    2.157802   1.084382   0.000000
     4  C    2.361630   1.398598   2.164862   0.000000
     5  H    3.350597   2.150636   2.487175   1.085813   0.000000
     6  C    2.741594   2.435583   3.419694   1.397913   2.151094
     7  C    2.361589   2.797833   3.882200   2.408369   3.392488
     8  H    3.350742   3.883683   4.968045   3.392370   4.289017
     9  C    1.373754   2.438182   3.419033   2.797813   3.883619
    10  H    2.157813   3.418957   4.312073   3.882200   4.968000
    11  C    4.248444   3.815627   4.686966   2.523248   2.721345
    12  H    4.732575   4.301092   5.133335   3.048495   3.160099
    13  H    4.758313   4.056554   4.756426   2.675613   2.463888
    14  H    4.758709   4.558161   5.501253   3.380252   3.697047
                    6          7          8          9         10
     6  C    0.000000
     7  C    1.397978   0.000000
     8  H    2.150950   1.085857   0.000000
     9  C    2.435483   1.398379   2.150685   0.000000
    10  H    3.419679   2.164764   2.487439   1.084401   0.000000
    11  C    1.507069   2.522706   2.720046   3.815089   4.686347
    12  H    2.151362   3.032148   3.131479   4.289190   5.115810
    13  H    2.155954   3.386480   3.707140   4.562550   5.508043
    14  H    2.156300   2.684162   2.479540   4.062233   4.764966
                   11         12         13         14
    11  C    0.000000
    12  H    1.094052   0.000000
    13  H    1.091291   1.764101   0.000000
    14  H    1.091363   1.764152   1.771396   0.000000
 Symmetry turned off by external request.
 Stoichiometry    C7H7(2)
 Framework group  C1[X(C7H7)]
 Deg. of freedom    36
 Full point group                 C1      NOp   1
 Rotational constants (GHZ):           5.4776748           2.6829848           1.8212903
 Standard basis: 6-311+G(d,p) (5D, 7F)
   196 basis functions,   308 primitive gaussians,   203 cartesian basis functions
    25 alpha electrons       24 beta electrons
       nuclear repulsion energy       259.8131593825 Hartrees.
 NAtoms=   14 NActive=   14 NUniq=   14 SFac= 1.00D+00 NAtFMM=   60 NAOKFM=F Big=F
 Integral buffers will be    131072 words long.
 Raffenetti 2 integral format.
 Two-electron integral symmetry is turned off.
 ------------------------------------------------------------------------------
 Polarizable Continuum Model (PCM)
 =================================
 Model                : PCM.
 Atomic radii         : SMD-Coulomb.
 Polarization charges : Total charges.
 Charge compensation  : None.
 Solution method      : Matrix inversion.
 Cavity type          : VdW (van der Waals Surface) (Alpha=1.000).
 Cavity algorithm     : GePol (No added spheres)
                        Default sphere list used, NSphG=   14.
                        Lebedev-Laikov grids with approx.  5.0 points / Ang**2.
                        Smoothing algorithm: York/Karplus (Gamma=1.0000).
                        Polarization charges: spherical gaussians, with
                                              point-specific exponents (IZeta= 3).
                        Self-potential: point-specific (ISelfS= 7).
                        Self-field    : sphere-specific E.n sum rule (ISelfD= 2).
 1st derivatives      : Analytical E(r).r(x)/FMM algorithm (CHGder, D1EAlg=3).
                        Cavity 1st derivative terms included.
 Solvent              : TetraHydroFuran, Eps=   7.425700 Eps(inf)=   1.974025
 ------------------------------------------------------------------------------
 Spheres list:
 ISph  on   Nord     Re0    Alpha      Xe            Ye            Ze
    1   C      1    1.8500  1.000      6.175126      7.016614      5.142728
    2   C      2    1.8500  1.000      5.117298      6.157591      5.315787
    3   H      3    1.2000  1.000      5.213816      5.218965      5.850155
    4   C      4    1.8500  1.000      3.890007      6.549820      4.771740
    5   H      5    1.2000  1.000      3.025087      5.903678      4.887517
    6   C      6    1.8500  1.000      3.757756      7.759803      4.084272
    7   C      7    1.8500  1.000      4.876452      8.587287      3.949609
    8   H      8    1.2000  1.000      4.781524      9.532154      3.423016
    9   C      9    1.8500  1.000      6.115774      8.220314      4.483347
   10   H     10    1.2000  1.000      6.979939      8.866853      4.377846
   11   C     11    1.8500  1.000      2.436962      8.154119      3.474949
   12   H     12    1.2000  1.000      2.366569      7.795784      2.443644
   13   H     13    1.2000  1.000      1.602717      7.724681      4.032205
   14   H     14    1.2000  1.000      2.319610      9.239008      3.457119
 ------------------------------------------------------------------------------
 ------------------------------------------------------------------------------
 Atomic radii for non-electrostatic terms: SMD-CDS.
 ------------------------------------------------------------------------------
 Nuclear repulsion after PCM non-electrostatic terms =      259.8101658417 Hartrees.
 One-electron integrals computed using PRISM.
 NBasis=   196 RedAO= T EigKep=  3.50D-06  NBF=   196
 NBsUse=   196 1.00D-06 EigRej= -1.00D+00 NBFU=   196
 Initial guess from the checkpoint file:  "4-Me-ph-opt-freq-thf.chk"
 B after Tr=     0.022404    0.015474   -0.049190
         Rot=    0.999999   -0.001465    0.000420   -0.000540 Ang=  -0.19 deg.
 Initial guess <Sx>= 0.0000 <Sy>= 0.0000 <Sz>= 0.5000 <S**2>= 0.7618 S= 0.5059
 ExpMin= 4.38D-02 ExpMax= 4.56D+03 ExpMxC= 6.82D+02 IAcc=3 IRadAn=         5 AccDes= 0.00D+00
 Harris functional with IExCor= 1009 and IRadAn=       5 diagonalized for initial guess.
 HarFok:  IExCor= 1009 AccDes= 0.00D+00 IRadAn=         5 IDoV= 1 UseB2=F ITyADJ=14
 ICtDFT=  3500011 ScaDFX=  1.000000  1.000000  1.000000  1.000000
 FoFCou: FMM=F IPFlag=           0 FMFlag=      100000 FMFlg1=           0
         NFxFlg=           0 DoJE=T BraDBF=F KetDBF=T FulRan=T
         wScrn=  0.000000 ICntrl=       500 IOpCl=  0 I1Cent=   200000004 NGrid=           0
         NMat0=    1 NMatS0=      1 NMatT0=    0 NMatD0=    1 NMtDS0=    0 NMtDT0=    0
 Symmetry not used in FoFCou.
 Requested convergence on RMS density matrix=1.00D-08 within 128 cycles.
 Requested convergence on MAX density matrix=1.00D-06.
 Requested convergence on             energy=1.00D-06.
 Level shift goal  0.100 maximum shift  0.100.
 No special actions if energy rises.
 Dynamic level shift is on during FON iterations.
 Inv3:  Mode=1 IEnd=     4291248.
 Iteration    1 A*A^-1 deviation from unit magnitude is 4.22D-15 for   1189.
 Iteration    1 A*A^-1 deviation from orthogonality  is 1.94D-15 for   1186    961.
 Iteration    1 A^-1*A deviation from unit magnitude is 3.77D-15 for   1171.
 Iteration    1 A^-1*A deviation from orthogonality  is 1.22D-15 for    607     57.
 Error on total polarization charges =  0.04078
 SCF Done:  E(UM062X) =  -270.827604903     A.U. after   11 cycles
            NFock= 11  Conv=0.85D-08     -V/T= 2.0043
 <Sx>= 0.0000 <Sy>= 0.0000 <Sz>= 0.5000 <S**2>= 0.7618 S= 0.5059
 <L.S>=  0.00000000000    
 SMD-CDS (non-electrostatic) energy       (kcal/mol) =      -1.88
 (included in total energy above)
 Annihilation of the first spin contaminant:
 S**2 before annihilation     0.7618,   after     0.7501
 D1PCM: PCM CHGder 1st derivatives, ID1Alg=3 FixD1E=F DoIter=F DoCFld=F I1PDM=0.
 Calling FoFJK, ICntrl=      2127 FMM=F ISym2X=0 I1Cent= 0 IOpClX= 1 NMat=1 NMatS=1 NMatT=0.
 -------------------------------------------------------------------
 Center     Atomic                   Forces (Hartrees/Bohr)
 Number     Number              X              Y              Z
 -------------------------------------------------------------------
      1        6          -0.000194628   -0.000025867   -0.000034469
      2        6           0.000217353    0.000134358   -0.000015264
      3        1           0.000002749   -0.000025785   -0.000000096
      4        6          -0.000051305   -0.000034331    0.000000592
      5        1          -0.000008439   -0.000006647   -0.000021463
      6        6          -0.000016555    0.000019279   -0.000031716
      7        6          -0.000039969    0.000076166   -0.000033829
      8        1          -0.000005912    0.000003490    0.000005101
      9        6           0.000096473   -0.000155385    0.000121186
[...]
 ! D7    D(3,2,4,5)             -0.0429         -DE/DX =    0.0                 !
 ! D8    D(3,2,4,6)            179.8817         -DE/DX =    0.0                 !
 ! D9    D(2,4,6,7)             -0.2672         -DE/DX =    0.0                 !
 ! D10   D(2,4,6,11)           178.7103         -DE/DX =    0.0                 !
 ! D11   D(5,4,6,7)            179.6573         -DE/DX =    0.0                 !
 ! D12   D(5,4,6,11)            -1.3652         -DE/DX =    0.0                 !
 ! D13   D(4,6,7,8)           -179.6443         -DE/DX =    0.0                 !
 ! D14   D(4,6,7,9)              0.254          -DE/DX =    0.0                 !
 ! D15   D(11,6,7,8)             1.3829         -DE/DX =    0.0                 !
 ! D16   D(11,6,7,9)          -178.7189         -DE/DX =    0.0                 !
 ! D17   D(4,6,11,12)          -81.0296         -DE/DX =    0.0                 !
 ! D18   D(4,6,11,13)           38.3611         -DE/DX =    0.0                 !
 ! D19   D(4,6,11,14)          159.2481         -DE/DX =    0.0                 !
 ! D20   D(7,6,11,12)           97.9294         -DE/DX =    0.0                 !
 ! D21   D(7,6,11,13)         -142.6799         -DE/DX =    0.0                 !
 ! D22   D(7,6,11,14)          -21.7929         -DE/DX =    0.0                 !
 ! D23   D(6,7,9,1)             -0.0867         -DE/DX =    0.0                 !
 ! D24   D(6,7,9,10)          -179.8483         -DE/DX =    0.0                 !
 ! D25   D(8,7,9,1)            179.8117         -DE/DX =    0.0                 !
 ! D26   D(8,7,9,10)             0.0501         -DE/DX =    0.0                 !
 --------------------------------------------------------------------------------
 GradGradGradGradGradGradGradGradGradGradGradGradGradGradGradGradGradGrad


 ----------------------------------------------------------------------

 Electric dipole moment (input orientation):
 (Debye = 10**-18 statcoulomb cm , SI units = C m)
                  (au)            (Debye)         (10**-30 SI)
   Tot        0.680960D+00      0.173083D+01      0.577342D+01
   x         -0.600166D+00     -0.152547D+01     -0.508842D+01
   y          0.166752D+00      0.423842D+00      0.141378D+01
   z         -0.275136D+00     -0.699327D+00     -0.233270D+01

 Dipole polarizability, Alpha (input orientation).
 (esu units = cm**3 , SI units = C**2 m**2 J**-1)
 Alpha(0;0):
               (au)            (10**-24 esu)      (10**-40 SI)
   iso        0.102954D+03      0.152561D+02      0.169747D+02
   aniso      0.569234D+02      0.843518D+01      0.938540D+01
   xx         0.120082D+03      0.177943D+02      0.197989D+02
   yx         0.517678D+01      0.767119D+00      0.853535D+00
   yy         0.108692D+03      0.161064D+02      0.179208D+02
   zx         0.134895D+02      0.199893D+01      0.222411D+01
   zy        -0.211360D+02     -0.313203D+01     -0.348485D+01
   zz         0.800869D+02      0.118677D+02      0.132046D+02

 ----------------------------------------------------------------------

 Dipole orientation:
     6         -1.31370043        -16.86917030        -10.96428740
     6         -2.70914600        -15.06091868         -9.72881427
     1         -3.76417374        -13.61753242        -10.73030068
     6         -2.72279956        -15.16275382         -7.08942208
     1         -3.80454429        -13.77525566         -6.03293827
     6         -1.36983414        -17.02236356         -5.78626410
     6          0.00414403        -18.80591557         -7.16555443
     1          1.05133198        -20.26321734         -6.17097613
     6          0.05089543        -18.74902248         -9.80903450
     1          1.11681404        -20.14089428        -10.87021508
     6         -1.36519130        -17.06585791         -2.93861102
     1         -0.00221316        -15.70283718         -2.19155067
     1         -3.22001867        -16.56788155         -2.18510064
     1         -0.84884057        -18.92962097         -2.22390145

 Electric dipole moment (dipole orientation):
 (Debye = 10**-18 statcoulomb cm , SI units = C m)
                  (au)            (Debye)         (10**-30 SI)
   Tot        0.680960D+00      0.173083D+01      0.577342D+01
   x          0.000000D+00      0.000000D+00      0.000000D+00
   y          0.000000D+00      0.000000D+00      0.000000D+00
   z          0.680960D+00      0.173083D+01      0.577342D+01

 Dipole polarizability, Alpha (dipole orientation).
 (esu units = cm**3 , SI units = C**2 m**2 J**-1)
 Alpha(0;0):
               (au)            (10**-24 esu)      (10**-40 SI)
   iso        0.102954D+03      0.152561D+02      0.169747D+02
   aniso      0.569234D+02      0.843518D+01      0.938540D+01
   xx         0.845604D+02      0.125306D+02      0.139421D+02
   yx        -0.259774D+02     -0.384945D+01     -0.428309D+01
   yy         0.998752D+02      0.148000D+02      0.164672D+02
   zx        -0.888359D+00     -0.131641D+00     -0.146471D+00
   zy        -0.272682D+00     -0.404074D-01     -0.449593D-01
   zz         0.124425D+03      0.184379D+02      0.205149D+02

 ----------------------------------------------------------------------
 Unable to Open any file for archive entry.
 1\1\GINC-CN013\Freq\UM062X\6-311+G(d,p)\C7H7(2)\TAHMINAAFROZ\06-May-20
 25\0\\#N Geom=AllCheck Guess=TCheck SCRF=Check GenChk UM062X/6-311+G(d
 ,p) Freq\\4-Me-ph-opt-freq-thf\\0,2\C,6.1752798972,7.0178691752,5.1429
 478142\C,5.1220775019,6.148438801,5.2952960546\H,5.2223336306,5.201657
 2183,5.8144409221\C,3.8961409394,6.5409384317,4.7505318797\H,3.0348054
 513,5.8869751861,4.8493650562\C,3.7594800916,7.7618960904,4.081866679\
 C,4.872673464,8.5984315852,3.9670795412\H,4.7749177465,9.5507295472,3.
 4548713418\C,6.1119969911,8.2308611048,4.5031049339\H,6.9721373215,8.8
 851439611,4.4132239082\C,2.4359920837,8.1533172104,3.4764809287\H,2.29
 89188377,7.6705189981,2.5044437668\H,1.6055527224,7.847819289,4.115920
 4413\H,2.3763323211,9.2320724015,3.3243607323\\Version=AS64L-G16RevC.0
 1\HF=-270.8276082\S2=0.76183\S2-1=0.\S2A=0.750065\RMSD=4.397e-09\RMSF=
 2.396e-06\ZeroPoint=0.1153525\Thermal=0.1215013\ETot=-270.7061069\HTot
 =-270.7051628\GTot=-270.7432762\Dipole=-0.6001663,0.1667522,-0.2751364
 \DipoleDeriv=-0.1462921,0.0525555,-0.0280452,0.0584587,-0.0522973,-0.0
 306442,-0.0325148,-0.0297547,-0.1395011,-0.1060255,0.036295,-0.0137358
 ,0.0458136,-0.0436576,-0.0353083,-0.0218891,-0.0419325,-0.1092737,0.13
 30247,0.000726,-0.0193988,0.0104685,0.023846,0.0953209,-0.0225392,0.09
 52235,0.147517,-0.0283904,0.0162014,0.0349667,0.1203978,0.0126133,-0.0
 694148,-0.0227714,-0.0935915,-0.1675509,-0.0302661,-0.1034193,-0.00318
 57,-0.0763418,0.0547132,0.0401168,-0.0110109,0.0340565,0.1540022,0.300
 0517,-0.1313513,0.2152131,-0.1143708,-0.1426581,-0.0150923,0.257535,-0
 .0385621,0.0207005,-0.0560567,0.0980048,-0.0169528,-0.0061066,0.009925
 9,-0.1170179,0.0348018,-0.0889846,-0.1537033,0.0904237,0.0300364,-0.03
 80232,0.0065949,-0.0246582,0.1042585,-0.0232052,0.1073704,0.11482,-0.0
 988296,0.0475333,-0.0161442,0.0277668,-0.0343348,-0.0338121,-0.0101646
 ,-0.0277574,-0.1136126,0.0325656,-0.0796121,-0.0066908,-0.0869098,0.08
 60196,0.0351474,-0.00208,0.0355109,0.1843551,-0.0415583,0.0236944,-0.0
 596928,-0.0475022,0.1011252,-0.0155148,-0.1471746,0.0428994,0.0246568,
 -0.0010573,0.0427819,-0.0497956,0.0300436,0.0618213,-0.0821342,-0.0848
 32,-0.0658288,-0.0704137,-0.0811455,-0.0061019,0.0273571,-0.027292,0.0
 702499,0.0684616,0.105922,0.0518955,0.0126665,0.0335557,-0.0273442,-0.
 0258719,0.0589794,-0.1227084,0.0556334,-0.0200769,0.0194553,0.0953371\
 Polar=120.0820956,5.1767756,108.6916418,13.48948,-21.1359626,80.086926
 9\Quadrupole=-6.5238572,10.1906186,-3.6667614,-5.2585001,-7.0342647,-5
 .0942075\PG=C01 [X(C7H7)]\NImag=0\\0.39042940,0.14094861,0.53442280,0.
 01616649,-0.19676489,0.18081389,-0.24276252,-0.11281385,0.00480748,0.5
 8719264,-0.14521239,-0.19941015,0.03465813,0.06657215,0.62676163,0.021
 60720,0.04375944,-0.06992380,0.09455319,-0.23938061,0.27790941,0.00544
 153,-0.01940822,0.01176236,-0.05506945,0.01908587,-0.01523623,0.054399
 35,0.00002970,-0.01354497,0.00670448,0.02381263,-0.26923353,0.12747397
 ,-0.02049441,0.28293875,0.00167975,0.00117605,-0.00076145,-0.01767832,
 0.12624943,-0.10676826,0.01935948,-0.14012680,0.10194195,-0.06371462,-
 0.05353464,0.00611679,-0.27222416,0.08184460,-0.10149653,0.00223520,-0
 .00184265,-0.00003892,0.67932848,0.00503789,0.05376066,-0.01964444,0.0
 0739431,-0.12612789,0.03570758,0.02465298,-0.00246137,0.01125064,0.093
 09244,0.57325140,-0.02381351,-0.03521876,0.02472457,-0.06373721,0.0563
 2143,-0.10787671,-0.01380128,0.00373966,-0.00010842,0.10453797,-0.2018
 5220,0.26762022,-0.00415442,0.00065853,-0.00350406,-0.01668120,-0.0166
 2343,0.00255699,0.00096677,0.00052716,0.00119295,-0.23293317,-0.137553
 74,0.01733611,0.24471724,0.00152155,0.00259598,0.00288136,0.00932001,0
 .00804486,0.00074540,-0.00014886,-0.00036473,-0.00208432,-0.13658731,-
 0.15609403,0.02300473,0.14751757,0.16053101,-0.00391349,0.00267142,0.0
 0481758,-0.01078890,-0.00650238,0.00474887,0.00154344,-0.00188311,-0.0
 0286061,0.01688330,0.02310616,-0.04536474,-0.01559801,-0.02899081,0.03
 594816,-0.01470488,-0.02935500,0.01273172,0.02504708,0.03016253,-0.010
 51906,-0.00369939,0.00065083,-0.00331562,-0.12467941,0.03831839,-0.034
 84845,0.00445698,-0.02167799,0.01189640,0.62808418,-0.02957194,-0.0656
 5424,0.02195571,0.08226298,0.00491984,0.02331208,0.00013084,0.00292959
 ,0.00221781,-0.02721480,-0.26162801,0.09293328,0.00316669,-0.01094576,
 0.00854808,0.05975066,0.56754183,0.01356523,0.02183800,-0.01449725,-0.
 03642268,0.00939605,-0.00949943,-0.00328148,0.00251595,0.00531306,-0.0
 0196107,0.11012599,-0.12665075,-0.00144211,0.00188590,0.00316530,0.100
 89818,-0.18574510,0.30159831,0.02851039,0.08776279,-0.04062986,-0.0746
 7814,-0.01584281,-0.01199276,-0.00138237,-0.00037468,-0.00009493,0.044
 89236,-0.06260674,0.04243419,0.00155187,0.00074229,-0.00194000,-0.2421
 3794,-0.06591432,-0.01568902,0.62211383,0.02889528,-0.00668906,0.01838
 081,-0.01594133,-0.00167124,-0.00492665,0.00002690,0.00028570,-0.00027
 586,-0.01600936,-0.03854616,0.01780293,0.00036966,-0.00259043,0.004688
 31,-0.13239593,-0.18888952,0.02496654,0.04651924,0.61310034,-0.0108849
 6,0.03409071,-0.00728605,-0.01128666,-0.00477133,-0.00330256,-0.000317
 94,-0.00038636,-0.00013520,0.01879591,0.00546341,0.00738094,-0.0015575
 2,0.00494074,0.00353926,0.01807111,0.04227430,-0.08446726,0.11462627,-
 0.23120120,0.28405306,-0.00361394,0.00198222,-0.00405543,-0.00067630,-
 0.00069368,0.00047700,0.00007073,0.00015825,0.00016156,-0.00315008,-0.
 00349488,-0.00093900,0.00037593,-0.00117351,0.00067478,0.00509106,-0.0
 2078050,0.01085340,-0.05770413,0.02034810,-0.01578744,0.05791411,0.001
 12826,0.00217898,0.00284396,-0.00034701,0.00023032,-0.00075707,0.00013
 867,-0.00021930,-0.00023419,-0.00390446,0.00050634,0.00191199,0.000172
 72,-0.00063102,0.00042184,0.00426892,-0.01185799,0.00931661,0.01896348
 ,-0.27133644,0.12382396,-0.02010758,0.28351528,-0.00361748,0.00305898,
 0.00464874,0.00032055,-0.00084341,-0.00051757,0.00016448,-0.00023699,-
 0.00058868,-0.00071801,0.00223256,0.00514536,-0.00003636,0.00000453,-0
 .00000024,-0.00132161,0.00225670,0.00286282,-0.01530389,0.12390073,-0.
 10572440,0.01921300,-0.13665282,0.10077152,-0.09951364,-0.01687545,-0.
 00479164,0.04586218,-0.02007148,0.02205054,-0.00314842,-0.00261966,-0.
 00117700,-0.02191699,0.03149831,-0.02123953,0.00068106,0.00053124,0.00
 025289,-0.05299394,-0.04068459,0.00444400,-0.27497798,0.07543186,-0.09
 910784,-0.00034569,-0.00191908,-0.00039214,0.64123497,0.01550307,-0.29
 481056,0.12852216,-0.05675036,-0.03765837,0.00585993,-0.00437935,0.000
 45431,0.00151398,0.03069018,-0.03611036,0.02542374,0.00086828,-0.00064
 689,0.00000199,0.01058915,0.05543339,-0.02349355,0.00139200,-0.1219386
 1,0.03193370,0.02395548,-0.00255058,0.01027925,0.11921814,0.59395718,-
 0.02137845,0.11936996,-0.12074618,0.04087859,0.01599710,0.00792105,-0.
 00026427,0.00202904,0.00466996,-0.02121527,0.02608585,-0.02151052,0.00
 005165,-0.00006985,-0.00097906,-0.02209027,-0.03681698,0.01855488,-0.0
 6086417,0.05223322,-0.10565273,-0.01362314,0.00303184,-0.00112000,0.08
 419680,-0.20525696,0.25609368,0.00578732,0.00035436,0.00164110,0.00149
 976,0.00152738,-0.00203817,0.00023927,0.00021513,0.00001200,-0.0002934
 2,0.00060522,-0.00030423,-0.00010761,-0.00000166,0.00019663,-0.0022985
 0,0.00184389,-0.00371831,-0.01593214,-0.01823885,0.00313352,0.00109208
 ,0.00064473,0.00116862,-0.23414572,-0.13739833,0.01409212,0.24508161,-
 0.01912439,-0.01387138,0.00132645,-0.00022280,-0.00254678,0.00424512,-
 0.00078384,-0.00041882,-0.00010019,0.00101193,-0.00043472,0.00034901,-
 0.00001939,-0.00010778,-0.00034754,0.00155117,0.00204334,0.00313362,0.
 00830148,0.00935619,0.00055660,-0.00004461,-0.00041052,-0.00194007,-0.
 14213810,-0.15457939,0.02029230,0.15117778,0.16080668,0.01163564,0.006
 93237,-0.00087403,-0.00113525,0.00475707,0.00311083,0.00051878,0.00016
 633,-0.00014823,-0.00047191,0.00023237,-0.00054981,0.00020296,-0.00035
 199,-0.00053853,-0.00324627,0.00320792,0.00463278,-0.01044234,-0.00703
 999,0.00640851,0.00151653,-0.00173358,-0.00286330,0.01640978,0.0215243
 0,-0.04206565,-0.01443577,-0.02731973,0.03309439,-0.00116361,-0.000407
 69,0.00018532,0.00328880,-0.00150320,0.00103905,0.00030435,-0.00022669
 ,0.00008662,-0.00460226,0.00582505,-0.00540381,0.00066770,-0.00100705,
 0.00083572,-0.19334174,0.02917492,-0.05239210,-0.02707705,0.00573111,-
 0.01277927,0.00104510,0.00169125,0.00048840,0.00013106,-0.00325246,-0.
 00046401,-0.00051028,0.00026561,-0.00034045,0.51722640,-0.00061694,-0.
 00027290,-0.00052709,-0.00125928,-0.00289154,0.00511322,0.00111105,-0.
 00030364,0.00034254,0.02787662,-0.00578516,0.01410438,0.00118410,0.000
 15787,-0.00199577,0.03264573,-0.09384118,0.02218465,-0.01585545,0.0081
 8441,-0.00682177,-0.00076754,-0.00000139,-0.00135470,-0.00309763,-0.00
 118420,0.00196803,-0.00082688,0.00022148,-0.00035858,0.02047704,0.5801
 4570,-0.00084390,-0.00019542,-0.00109266,0.00069937,0.00313794,0.00390
 388,-0.00029315,-0.00002315,-0.00031307,-0.01625903,0.00725216,-0.0043
 4353,0.00051841,-0.00165041,-0.00196424,-0.05036858,0.01996595,-0.0960
 7575,-0.00069755,-0.00060638,0.00560213,0.00153474,-0.00174352,-0.0029
 2823,0.00081040,0.00356408,0.00587266,0.00045546,-0.00021771,-0.000069
 03,-0.02947552,-0.00811067,0.53949557,-0.00024995,0.00045708,-0.000420
 74,-0.00104506,0.00020993,0.00066003,-0.00002665,0.00002476,-0.0000852
 8,0.00025769,-0.00103795,0.00092898,0.00027442,-0.00004757,-0.00039118
 ,-0.00569476,-0.01282807,-0.02725926,-0.00113443,0.00135724,-0.0005792
 1,0.00008844,-0.00042639,-0.00050072,-0.00050465,0.00050071,0.00125828
 ,-0.00012308,-0.00003327,-0.00009948,-0.04719681,-0.01402036,-0.027612
 07,0.05287512,0.00086754,0.00090662,-0.00028287,-0.00123809,-0.0002536
 6,-0.00077146,-0.00002028,-0.00001070,0.00003107,0.00152019,-0.0007986
 4,0.00078807,-0.00017102,-0.00011042,0.00006850,0.00066926,0.00502353,
 0.00935096,-0.00131236,0.00006982,-0.00011359,-0.00001232,0.00001724,-
 0.00018881,0.00051963,-0.00075358,0.00054944,0.00002190,-0.00001905,-0
 .00002949,-0.01298214,-0.09904674,-0.10620146,0.01334864,0.10330261,-0
 .00011975,-0.00042216,-0.00000477,-0.00026704,0.00044823,0.00048372,-0
 .00003718,0.00001975,-0.00006400,-0.00080090,-0.00019683,0.00081656,0.
 00009133,-0.00007412,-0.00051177,-0.00359832,-0.00371406,-0.00957044,0
 .00088889,0.00092030,-0.00011426,0.00003024,-0.00009459,-0.00022709,-0
 .00078900,0.00059229,-0.00015693,-0.00007918,0.00001784,-0.00001925,-0
 .02578372,-0.10722869,-0.25636779,0.03173035,0.11637492,0.27664904,-0.
 00002872,0.00036057,-0.00003266,-0.00024805,-0.00035115,-0.00059456,-0
 .00001195,0.00004455,0.00004096,0.00169222,-0.00202205,0.00048674,0.00
 019941,0.00081574,0.00022823,-0.02183047,-0.00870767,0.01583801,-0.003
 26538,0.00281928,-0.00185851,-0.00003291,0.00020379,0.00026843,-0.0005
 1982,-0.00120249,-0.00054813,-0.00031707,0.00008875,-0.00012867,-0.200
 34420,-0.05655878,0.12195277,0.00325591,0.00185292,-0.00225278,0.21930
 170,0.00037003,0.00002051,0.00015640,-0.00025211,0.00011689,-0.0005697
 3,-0.00004455,0.00001345,0.00003173,0.00114325,0.00018295,0.00038115,-
 0.00008209,0.00003405,0.00036595,0.00556181,0.00136803,-0.00645807,0.0
 0045758,-0.00015779,0.00059138,0.00008799,0.00026573,-0.00006354,-0.00
 010219,0.00025802,0.00008759,0.00002876,0.00000081,0.00005268,-0.05755
 939,-0.06931254,0.04734605,0.01217984,0.00439045,-0.00875582,0.0622656
 9,0.06925463,-0.00029399,-0.00051348,0.00016756,0.00049375,-0.00010074
 ,0.00027254,0.00004917,-0.00001460,-0.00001779,-0.00069130,-0.00008942
 ,0.00049731,0.00029643,-0.00010061,-0.00005724,-0.01343467,-0.00484391
 ,0.00885206,-0.00139433,0.00096701,-0.00061308,-0.00011850,0.00009655,
 0.00013602,-0.00078618,-0.00018918,-0.00068330,-0.00013071,0.00001519,
 -0.00011149,0.12466763,0.04733328,-0.14164069,0.02114492,0.00914547,-0
 .01629596,-0.13097463,-0.05199742,0.15193299,-0.00026234,-0.00012930,0
 .00002311,0.00049443,0.00089568,-0.00106669,-0.00031897,0.00009508,-0.
 00014326,-0.00489184,0.00029076,-0.00163697,-0.00001498,0.00019556,0.0
 0012018,-0.00129830,0.02937190,-0.00343278,0.00122111,0.00108682,-0.00
 046746,-0.00015439,-0.00050730,0.00026672,0.00015756,0.00026599,-0.000
 02974,0.00002781,-0.00003032,0.00001644,-0.04842745,0.00970833,-0.0004
 2136,-0.00077619,-0.00306387,0.00098706,0.00214934,-0.02405460,0.00117
 239,0.05209422,0.00022374,0.00036771,-0.00021018,-0.00053725,-0.000280
 38,0.00018877,0.00013320,-0.00006472,0.00000811,0.00191400,0.00028500,
 0.00031059,-0.00001503,0.00012729,-0.00015264,-0.00073952,-0.00644285,
 0.00098245,-0.00223248,0.00082279,-0.00038054,0.00054258,0.00029335,-0
 .00045241,0.00030902,0.00012963,0.00049941,0.00004656,-0.00004007,-0.0
 0003967,0.01377363,-0.31607017,0.03748255,0.00031543,-0.01271747,0.002
 11295,0.00039084,-0.00643520,0.00029186,-0.01412471,0.34002507,0.00021
 122,0.00021776,0.00001385,-0.00043687,0.00063309,-0.00046196,-0.000166
 19,0.00002184,-0.00015926,-0.00268103,0.00032618,0.00021954,-0.0001087
 9,-0.00014055,0.00005726,-0.00085456,0.01444821,-0.00421834,0.00109949
 ,0.00019022,0.00031164,0.00006226,-0.00023098,0.00040503,0.00011890,-0
 .00027571,-0.00019785,0.00000693,-0.00001090,-0.00000720,-0.00066386,0
 .03535117,-0.05007924,0.00122537,-0.02872073,0.00538295,-0.00242521,0.
 01883163,-0.00243893,0.00461235,-0.04064125,0.05117251\\0.00000057,0.0
 0000040,-0.00000179,0.00000040,0.00000137,0.00000205,0.00000019,0.0000
 0259,0.00000391,-0.00000026,0.00000151,0.00000276,-0.00000065,0.000002
 36,0.00000568,-0.00000024,-0.00000023,0.00000045,0.00000054,-0.0000013
 3,-0.00000321,0.00000048,-0.00000233,-0.00000526,0.00000087,-0.0000012
 6,-0.00000424,0.00000135,-0.00000214,-0.00000705,-0.00000062,-0.000000
 02,0.00000152,-0.00000266,-0.00000231,0.00000278,0.,0.00000186,0.00000
 336,0.00000002,-0.00000047,-0.00000096\\\@
 The archive entry for this job was punched.


 LORD, MAN... WERE YE BUT WHYLES WHERE I AM, 
 THE GENTILES YE WAD NE'ER ENVY 'EM.        
 IT'S TRUE, THEY NEEDNA STARVE OR SWEAT,     
 THRO' WINTER'S CAULD OR SIMMER'S HEAT...  
 THEY'VE NAE SAIR WARK TO CRAZE THEIR BANES, 
 AND FILL AULD AGE WITH GRIPS AN' GRANES...  
                                             
 BUT HUMAN BODIES ARE SIC FOOLS              
 FOR A' THEIR COLLEGES AND SCHOOLS,           
 THAT WHEN NAE REAL ILLS PERPLEX THEM,       
 THEY MAK ENOW THEMSELVES TO VEX THEM,       
 AN' AYE THE LESS THEY HAE TO STURT THEM,    
 IN LIKE PROPORTION LESS WILL HURT THEM....  
                                             
                (ROBERT BURNS 'THE TWA DOGS')
 Job cpu time:       0 days  0 hours 40 minutes 11.5 seconds.
 Elapsed time:       0 days  0 hours  1 minutes 18.9 seconds.
 File lengths (MBytes):  RWF=    127 Int=      0 D2E=      0 Chk=     13 Scr=      1
 Normal termination of Gaussian 16 at Tue May  6 17:42:53 2025.
