/home/tahminaafroz
cn018.cluster.local
tahminaafroz
Tue May 27 07:54:13 CDT 2025
 Entering Gaussian System, Link 0=g16
 Initial command:
 /home/apps/g16/l1.exe "/tmp/4-Me-ph-anion-opt-freq-thf/Gau-738200.inp" -scrdir="/tmp/4-Me-ph-anion-opt-freq-thf/"
 Entering Link 1 = /home/apps/g16/l1.exe PID=    738201.
  
 Copyright (c) 1988-2019, Gaussian, Inc.  All Rights Reserved.
  
 This is part of the Gaussian(R) 16 program.  It is based on
 the Gaussian(R) 09 system (copyright 2009, Gaussian, Inc.),
 the Gaussian(R) 03 system (copyright 2003, Gaussian, Inc.),
 the Gaussian(R) 98 system (copyright 1998, Gaussian, Inc.),
 the Gaussian(R) 94 system (copyright 1995, Gaussian, Inc.),
 the Gaussian 92(TM) system (copyright 1992, Gaussian, Inc.),
 the Gaussian 90(TM) system (copyright 1990, Gaussian, Inc.),
 the Gaussian 88(TM) system (copyright 1988, Gaussian, Inc.),
 the Gaussian 86(TM) system (copyright 1986, Carnegie Mellon
 University), and the Gaussian 82(TM) system (copyright 1983,
 Carnegie Mellon University). Gaussian is a federally registered
 trademark of Gaussian, Inc.
  
 This software contains proprietary and confidential information,
 including trade secrets, belonging to Gaussian, Inc.
  
 This software is provided under written license and may be
 used, copied, transmitted, or stored only in accord with that
 written license.
  
 The following legend is applicable only to US Government
 contracts under FAR:
  
                    RESTRICTED RIGHTS LEGEND
  
 Use, reproduction and disclosure by the US Government is
 subject to restrictions as set forth in subparagraphs (a)
 and (c) of the Commercial Computer Software - Restricted
 Rights clause in FAR 52.227-19.
  
 Gaussian, Inc.
 340 Quinnipiac St., Bldg. 40, Wallingford CT 06492
  
  
 ---------------------------------------------------------------
 Warning -- This program may not be used in any manner that
 competes with the business of Gaussian, Inc. or will provide
 assistance to any competitor of Gaussian, Inc.  The licensee
 of this program is prohibited from giving any competitor of
 Gaussian, Inc. access to this program.  By using this program,
 the user acknowledges that Gaussian, Inc. is engaged in the
 business of creating and licensing software in the field of
 computational chemistry and represents and warrants to the
 licensee that it is not a competitor of Gaussian, Inc. and that
 it will not use this program in any manner prohibited above.
 ---------------------------------------------------------------
  

 Cite this work as:
 Gaussian 16, Revision C.01,
 M. J. Frisch, G. W. Trucks, H. B. Schlegel, G. E. Scuseria, 
 M. A. Robb, J. R. Cheeseman, G. Scalmani, V. Barone, 
 G. A. Petersson, H. Nakatsuji, X. Li, M. Caricato, A. V. Marenich, 
 J. Bloino, B. G. Janesko, R. Gomperts, B. Mennucci, H. P. Hratchian, 
 J. V. Ortiz, A. F. Izmaylov, J. L. Sonnenberg, D. Williams-Young, 
 F. Ding, F. Lipparini, F. Egidi, J. Goings, B. Peng, A. Petrone, 
 T. Henderson, D. Ranasinghe, V. G. Zakrzewski, J. Gao, N. Rega, 
 G. Zheng, W. Liang, M. Hada, M. Ehara, K. Toyota, R. Fukuda, 
 J. Hasegawa, M. Ishida, T. Nakajima, Y. Honda, O. Kitao, H. Nakai, 
 T. Vreven, K. Throssell, J. A. Montgomery, Jr., J. E. Peralta, 
 F. Ogliaro, M. J. Bearpark, J. J. Heyd, E. N. Brothers, K. N. Kudin, 
 V. N. Staroverov, T. A. Keith, R. Kobayashi, J. Normand, 
 K. Raghavachari, A. P. Rendell, J. C. Burant, S. S. Iyengar, 
 J. Tomasi, M. Cossi, J. M. Millam, M. Klene, C. Adamo, R. Cammi, 
 J. W. Ochterski, R. L. Martin, K. Morokuma, O. Farkas, 
 J. B. Foresman, and D. J. Fox, Gaussian, Inc., Wallingford CT, 2019.
 
 ******************************************
 Gaussian 16:  AS64L-G16RevC.01  3-Jul-2019
                27-May-2025 
 ******************************************
 %mem=20GB
 %nprocshared=32
 Will use up to   32 processors via shared memory.
 %chk=4-Me-ph-anion-opt-freq-thf.chk
 ----------------------------------------------------------------------
 # opt=(calcfc,tight) freq 6-311+g(d,p) scrf=(smd,solvent=thf) nosymm s
 cf=(qc,fermi,xqc) geom=connectivity int=ultrafine m062x
 ----------------------------------------------------------------------
 1/7=10,10=4,18=20,19=15,26=6,38=1,57=2/1,3;
 2/9=110,12=2,15=1,17=6,18=5,40=1/2;
 3/5=4,6=6,7=111,11=2,25=1,30=1,70=32201,71=2,72=20,74=-55,75=-5,140=1/1,2,3;
 4//1;
 5/5=2,22=13,38=5,53=20/2;
 8/6=4,10=90,11=11/1;
 11/6=1,8=1,9=11,15=111,16=1,31=1/1,2,10;
 10/6=1,13=1,31=1/2;
 6/7=2,8=2,9=2,10=2,28=1/1;
 7/10=1,25=1,30=1/1,2,3,16;
 1/7=10,10=4,18=20,19=15,26=6/3(2);
 2/9=110,15=1/2;
 99//99;
 2/9=110,15=1/2;
 3/5=4,6=6,7=111,11=2,25=1,30=1,70=32205,71=1,72=20,74=-55,75=-5/1,2,3;
 4/5=5,16=3,69=1/1;
 5/5=2,22=13,38=5,53=20/2;
 7/30=1/1,2,3,16;
 1/7=10,18=20,19=15,26=6/3(-5);
 2/9=110,15=1/2;
 6/7=2,8=2,9=2,10=2,19=2,28=1/1;
 99/9=1/99;
 --------------------------
 4-Me-ph-anion-opt-freq-thf
 --------------------------
 Symbolic Z-matrix:
 Charge = -1 Multiplicity = 1
 C                     6.17528   7.01787   5.14295 
 C                     5.12208   6.14844   5.2953 
 H                     5.22233   5.20166   5.81444 
 C                     3.89614   6.54094   4.75053 
 H                     3.0348    5.88698   4.84937 
 C                     3.75948   7.7619    4.08187 
 C                     4.87267   8.59843   3.96708 
 H                     4.77492   9.55073   3.45487 
 C                     6.112     8.23086   4.50311 
 H                     6.97214   8.88514   4.41322 
 C                     2.43599   8.15332   3.47648 
 H                     2.29892   7.67052   2.50444 
 H                     1.60555   7.84782   4.11592 
 H                     2.37633   9.23207   3.32436 
 

 GradGradGradGradGradGradGradGradGradGradGradGradGradGradGradGradGradGrad
 Berny optimization.
 Initialization pass.
                           ----------------------------
                           !    Initial Parameters    !
                           ! (Angstroms and Degrees)  !
 --------------------------                            --------------------------
 ! Name  Definition              Value          Derivative Info.                !
 --------------------------------------------------------------------------------
 ! R1    R(1,2)                  1.3742         calculate D2E/DX2 analytically  !
 ! R2    R(1,9)                  1.3729         calculate D2E/DX2 analytically  !
 ! R3    R(2,3)                  1.0844         calculate D2E/DX2 analytically  !
 ! R4    R(2,4)                  1.3978         calculate D2E/DX2 analytically  !
 ! R5    R(4,5)                  1.086          calculate D2E/DX2 analytically  !
 ! R6    R(4,6)                  1.3988         calculate D2E/DX2 analytically  !
 ! R7    R(6,7)                  1.3972         calculate D2E/DX2 analytically  !
 ! R8    R(6,11)                 1.5071         calculate D2E/DX2 analytically  !
 ! R9    R(7,8)                  1.0857         calculate D2E/DX2 analytically  !
 ! R10   R(7,9)                  1.3994         calculate D2E/DX2 analytically  !
 ! R11   R(9,10)                 1.0844         calculate D2E/DX2 analytically  !
 ! R12   R(11,12)                1.094          calculate D2E/DX2 analytically  !
 ! R13   R(11,13)                1.0917         calculate D2E/DX2 analytically  !
 ! R14   R(11,14)                1.0911         calculate D2E/DX2 analytically  !
 ! A1    A(2,1,9)              125.1246         calculate D2E/DX2 analytically  !
 ! A2    A(1,2,3)              122.3174         calculate D2E/DX2 analytically  !
 ! A3    A(1,2,4)              116.8295         calculate D2E/DX2 analytically  !
 ! A4    A(3,2,4)              120.8527         calculate D2E/DX2 analytically  !
 ! A5    A(2,4,5)              119.4114         calculate D2E/DX2 analytically  !
 ! A6    A(2,4,6)              121.1388         calculate D2E/DX2 analytically  !
 ! A7    A(5,4,6)              119.4497         calculate D2E/DX2 analytically  !
 ! A8    A(4,6,7)              118.9502         calculate D2E/DX2 analytically  !
 ! A9    A(4,6,11)             120.3002         calculate D2E/DX2 analytically  !
 ! A10   A(7,6,11)             120.7416         calculate D2E/DX2 analytically  !
 ! A11   A(6,7,8)              119.4834         calculate D2E/DX2 analytically  !
 ! A12   A(6,7,9)              121.1217         calculate D2E/DX2 analytically  !
 ! A13   A(8,7,9)              119.3948         calculate D2E/DX2 analytically  !
 ! A14   A(1,9,7)              116.8345         calculate D2E/DX2 analytically  !
 ! A15   A(1,9,10)             122.3538         calculate D2E/DX2 analytically  !
 ! A16   A(7,9,10)             120.8112         calculate D2E/DX2 analytically  !
 ! A17   A(6,11,12)            110.6303         calculate D2E/DX2 analytically  !
 ! A18   A(6,11,13)            111.1031         calculate D2E/DX2 analytically  !
 ! A19   A(6,11,14)            111.1503         calculate D2E/DX2 analytically  !
 ! A20   A(12,11,13)           107.5556         calculate D2E/DX2 analytically  !
 ! A21   A(12,11,14)           107.7953         calculate D2E/DX2 analytically  !
 ! A22   A(13,11,14)           108.4663         calculate D2E/DX2 analytically  !
 ! D1    D(9,1,2,3)           -179.7006         calculate D2E/DX2 analytically  !
 ! D2    D(9,1,2,4)              0.0656         calculate D2E/DX2 analytically  !
 ! D3    D(2,1,9,7)             -0.078          calculate D2E/DX2 analytically  !
 ! D4    D(2,1,9,10)           179.6796         calculate D2E/DX2 analytically  !
 ! D5    D(1,2,4,5)           -179.8126         calculate D2E/DX2 analytically  !
 ! D6    D(1,2,4,6)              0.1119         calculate D2E/DX2 analytically  !
 ! D7    D(3,2,4,5)             -0.0428         calculate D2E/DX2 analytically  !
 ! D8    D(3,2,4,6)            179.8817         calculate D2E/DX2 analytically  !
 ! D9    D(2,4,6,7)             -0.2672         calculate D2E/DX2 analytically  !
 ! D10   D(2,4,6,11)           178.7103         calculate D2E/DX2 analytically  !
 ! D11   D(5,4,6,7)            179.6573         calculate D2E/DX2 analytically  !
 ! D12   D(5,4,6,11)            -1.3652         calculate D2E/DX2 analytically  !
 ! D13   D(4,6,7,8)           -179.6443         calculate D2E/DX2 analytically  !
 ! D14   D(4,6,7,9)              0.2541         calculate D2E/DX2 analytically  !
 ! D15   D(11,6,7,8)             1.3828         calculate D2E/DX2 analytically  !
 ! D16   D(11,6,7,9)          -178.7188         calculate D2E/DX2 analytically  !
 ! D17   D(4,6,11,12)          -81.0296         calculate D2E/DX2 analytically  !
 ! D18   D(4,6,11,13)           38.3611         calculate D2E/DX2 analytically  !
 ! D19   D(4,6,11,14)          159.2481         calculate D2E/DX2 analytically  !
 ! D20   D(7,6,11,12)           97.9294         calculate D2E/DX2 analytically  !
 ! D21   D(7,6,11,13)         -142.6799         calculate D2E/DX2 analytically  !
 ! D22   D(7,6,11,14)          -21.7929         calculate D2E/DX2 analytically  !
 ! D23   D(6,7,9,1)             -0.0867         calculate D2E/DX2 analytically  !
 ! D24   D(6,7,9,10)          -179.8483         calculate D2E/DX2 analytically  !
 ! D25   D(8,7,9,1)            179.8118         calculate D2E/DX2 analytically  !
 ! D26   D(8,7,9,10)             0.0502         calculate D2E/DX2 analytically  !
 --------------------------------------------------------------------------------
 Trust Radius=3.00D-01 FncErr=5.00D-06 GrdErr=5.00D-06 EigMax=2.50D+02 EigMin=1.00D-04
 Number of steps in this run=     72 maximum allowed number of steps=    100.
 GradGradGradGradGradGradGradGradGradGradGradGradGradGradGradGradGradGrad

                          Input orientation:                          
 ---------------------------------------------------------------------
 Center     Atomic      Atomic             Coordinates (Angstroms)
 Number     Number       Type             X           Y           Z
 ---------------------------------------------------------------------
      1          6           0        6.175280    7.017869    5.142948
      2          6           0        5.122078    6.148439    5.295296
      3          1           0        5.222334    5.201657    5.814441
      4          6           0        3.896141    6.540938    4.750532
      5          1           0        3.034805    5.886975    4.849365
      6          6           0        3.759480    7.761896    4.081867
      7          6           0        4.872673    8.598432    3.967080
      8          1           0        4.774918    9.550730    3.454871
      9          6           0        6.111997    8.230861    4.503105
     10          1           0        6.972137    8.885144    4.413224
     11          6           0        2.435992    8.153317    3.476481
     12          1           0        2.298919    7.670519    2.504444
     13          1           0        1.605553    7.847819    4.115920
     14          1           0        2.376332    9.232072    3.324361
 ---------------------------------------------------------------------
                    Distance matrix (angstroms):
                    1          2          3          4          5
     1  C    0.000000
     2  C    1.374174   0.000000
     3  H    2.158155   1.084416   0.000000
     4  C    2.361340   1.397764   2.164339   0.000000
     5  H    3.350775   2.150332   2.487231   1.085972   0.000000
     6  C    2.741452   2.435637   3.420026   1.398759   2.151636
     7  C    2.361701   2.798004   3.882407   2.408463   3.392372
     8  H    3.350523   3.883718   4.968117   3.392615   4.289022
     9  C    1.372863   2.438029   3.418652   2.797691   3.883659
    10  H    2.157358   3.419112   4.311994   3.882117   4.968080
    11  C    4.248368   3.813487   4.684235   2.520914   2.716559
    12  H    4.734325   4.251565   5.059418   2.978587   3.036645
    13  H    4.756680   4.079800   4.792520   2.712465   2.534879
    14  H    4.758357   4.575205   5.526705   3.403819   3.734822
                    6          7          8          9         10
     6  C    0.000000
     7  C    1.397200   0.000000
     8  H    2.150387   1.085719   0.000000
     9  C    2.435509   1.399412   2.151425   0.000000
    10  H    3.419451   2.165409   2.487814   1.084438   0.000000
    11  C    1.507091   2.525120   2.724666   3.817458   4.689314
    12  H    2.151709   3.102344   3.251012   4.341451   5.192083
    13  H    2.155909   3.355540   3.658110   4.539237   5.473998
    14  H    2.155999   2.654488   2.423178   4.043149   4.735758
                   11         12         13         14
    11  C    0.000000
    12  H    1.093956   0.000000
    13  H    1.091714   1.763249   0.000000
    14  H    1.091060   1.765419   1.771108   0.000000
 Symmetry turned off by external request.
 Stoichiometry    C7H7(1-)
 Framework group  C1[X(C7H7)]
 Deg. of freedom    36
 Full point group                 C1      NOp   1
 Rotational constants (GHZ):           5.4778916           2.6829318           1.8212724
 Standard basis: 6-311+G(d,p) (5D, 7F)
   196 basis functions,   308 primitive gaussians,   203 cartesian basis functions
    25 alpha electrons       25 beta electrons
       nuclear repulsion energy       259.8135111797 Hartrees.
 NAtoms=   14 NActive=   14 NUniq=   14 SFac= 1.00D+00 NAtFMM=   60 NAOKFM=F Big=F
 Integral buffers will be    131072 words long.
 Raffenetti 2 integral format.
 Two-electron integral symmetry is turned off.
 Force inversion solution in PCM.
 ------------------------------------------------------------------------------
 Polarizable Continuum Model (PCM)
 =================================
 Model                : PCM.
 Atomic radii         : SMD-Coulomb.
 Polarization charges : Total charges.
 Charge compensation  : None.
 Solution method      : Matrix inversion.
 Cavity type          : VdW (van der Waals Surface) (Alpha=1.000).
 Cavity algorithm     : GePol (No added spheres)
                        Default sphere list used, NSphG=   14.
                        Lebedev-Laikov grids with approx.  5.0 points / Ang**2.
                        Smoothing algorithm: York/Karplus (Gamma=1.0000).
                        Polarization charges: spherical gaussians, with
                                              point-specific exponents (IZeta= 3).
                        Self-potential: point-specific (ISelfS= 7).
                        Self-field    : sphere-specific E.n sum rule (ISelfD= 2).
 1st derivatives      : Analytical E(r).r(x)/FMM algorithm (CHGder, D1EAlg=3).
                        Cavity 1st derivative terms included.
 2nd derivatives      : Analytical E(r).r(xy)/FMM algorithm (CHGder, D2EAlg=3).
                        Cavity 2nd derivative terms included.
 Solvent              : TetraHydroFuran, Eps=   7.425700 Eps(inf)=   1.974025
 ------------------------------------------------------------------------------
 Spheres list:
 ISph  on   Nord     Re0    Alpha      Xe            Ye            Ze
    1   C      1    1.8500  1.000      6.175280      7.017869      5.142948
    2   C      2    1.8500  1.000      5.122078      6.148439      5.295296
    3   H      3    1.2000  1.000      5.222334      5.201657      5.814441
    4   C      4    1.8500  1.000      3.896141      6.540938      4.750532
    5   H      5    1.2000  1.000      3.034805      5.886975      4.849365
    6   C      6    1.8500  1.000      3.759480      7.761896      4.081867
    7   C      7    1.8500  1.000      4.872673      8.598432      3.967080
    8   H      8    1.2000  1.000      4.774918      9.550730      3.454871
    9   C      9    1.8500  1.000      6.111997      8.230861      4.503105
   10   H     10    1.2000  1.000      6.972137      8.885144      4.413224
   11   C     11    1.8500  1.000      2.435992      8.153317      3.476481
   12   H     12    1.2000  1.000      2.298919      7.670519      2.504444
   13   H     13    1.2000  1.000      1.605553      7.847819      4.115920
   14   H     14    1.2000  1.000      2.376332      9.232072      3.324361
 ------------------------------------------------------------------------------
 ------------------------------------------------------------------------------
 Atomic radii for non-electrostatic terms: SMD-CDS.
 ------------------------------------------------------------------------------
 Nuclear repulsion after PCM non-electrostatic terms =      259.8105147584 Hartrees.
 One-electron integrals computed using PRISM.
 NBasis=   196 RedAO= T EigKep=  3.50D-06  NBF=   196
 NBsUse=   196 1.00D-06 EigRej= -1.00D+00 NBFU=   196
 ExpMin= 4.38D-02 ExpMax= 4.56D+03 ExpMxC= 6.82D+02 IAcc=3 IRadAn=         5 AccDes= 0.00D+00
 Harris functional with IExCor= 1009 and IRadAn=       5 diagonalized for initial guess.
 HarFok:  IExCor= 1009 AccDes= 0.00D+00 IRadAn=         5 IDoV= 1 UseB2=F ITyADJ=14
 ICtDFT=  3500011 ScaDFX=  1.000000  1.000000  1.000000  1.000000
 FoFCou: FMM=F IPFlag=           0 FMFlag=      100000 FMFlg1=           0
         NFxFlg=           0 DoJE=T BraDBF=F KetDBF=T FulRan=T
         wScrn=  0.000000 ICntrl=       500 IOpCl=  0 I1Cent=   200000004 NGrid=           0
         NMat0=    1 NMatS0=      1 NMatT0=    0 NMatD0=    1 NMtDS0=    0 NMtDT0=    0
 Symmetry not used in FoFCou.
 Requested convergence on RMS density matrix=1.00D-08 within 128 cycles.
 Requested convergence on MAX density matrix=1.00D-06.
 Requested convergence on             energy=1.00D-06.
 Level shift goal  0.100 maximum shift  0.100.
 No special actions if energy rises.
 Dynamic level shift is on during FON iterations.
 Inv3:  Mode=1 IEnd=     4212675.
 Iteration    1 A*A^-1 deviation from unit magnitude is 3.33D-15 for   1162.
 Iteration    1 A*A^-1 deviation from orthogonality  is 2.39D-15 for   1181   1036.
 Iteration    1 A^-1*A deviation from unit magnitude is 3.55D-15 for   1162.
 Iteration    1 A^-1*A deviation from orthogonality  is 1.45D-15 for   1175   1019.
 Error on total polarization charges =  0.07048
 SCF Done:  E(RM062X) =  -270.934837938     A.U. after   16 cycles
            NFock= 16  Conv=0.95D-08     -V/T= 2.0037
 SMD-CDS (non-electrostatic) energy       (kcal/mol) =      -1.88
 (included in total energy above)
 DoSCS=F DFT=T ScalE2(SS,OS)=  1.000000  1.000000
 Range of M.O.s used for correlation:     1   196
 NBasis=   196 NAE=    25 NBE=    25 NFC=     0 NFV=     0
 NROrb=    196 NOA=    25 NOB=    25 NVA=   171 NVB=   171

 **** Warning!!: The largest alpha MO coefficient is  0.16674898D+03

 Symmetrizing basis deriv contribution to polar:
 IMax=3 JMax=2 DiffMx= 0.00D+00
 G2DrvN: will do    15 centers at a time, making    1 passes.
 Calling FoFCou, ICntrl=  3107 FMM=F I1Cent=   0 AccDes= 0.00D+00.
 NEqPCM:  Using equilibrium solvation (IEInf=0, Eps=   7.4257, EpsInf=   1.9740)
 G2PCM: DoFxE=T DoFxN=T DoGrad=T DoDP/DQ/DG/TGxP=FFFF NFrqRd=   0 IEInf=0 SqF1=F DoCFld=F IF1Alg=4.
 End of G2Drv F.D. properties file   721 does not exist.
 End of G2Drv F.D. properties file   722 does not exist.
 End of G2Drv F.D. properties file   788 does not exist.
          IDoAtm=11111111111111
 NEqPCM:  Using equilibrium solvation (IEInf=0, Eps=   7.4257, EpsInf=   1.9740)
          Differentiating once with respect to nuclear coordinates.
 Keep R1 ints in memory in canonical form, NReq=219272806.
          There are    45 degrees of freedom in the 1st order CPHF.  IDoFFX=6 NUNeed=     0.
     39 vectors produced by pass  0 Test12= 9.50D-15 2.22D-09 XBig12= 1.08D-01 9.36D-02.
 AX will form    39 AO Fock derivatives at one time.
     39 vectors produced by pass  1 Test12= 9.50D-15 2.22D-09 XBig12= 8.93D-03 2.32D-02.
     39 vectors produced by pass  2 Test12= 9.50D-15 2.22D-09 XBig12= 2.95D-04 4.88D-03.
     39 vectors produced by pass  3 Test12= 9.50D-15 2.22D-09 XBig12= 2.79D-06 4.11D-04.
     39 vectors produced by pass  4 Test12= 9.50D-15 2.22D-09 XBig12= 1.96D-08 2.76D-05.
     39 vectors produced by pass  5 Test12= 9.50D-15 2.22D-09 XBig12= 1.20D-10 2.29D-06.
     31 vectors produced by pass  6 Test12= 9.50D-15 2.22D-09 XBig12= 5.67D-13 1.36D-07.
      6 vectors produced by pass  7 Test12= 9.50D-15 2.22D-09 XBig12= 2.81D-15 6.98D-09.
 InvSVY:  IOpt=1 It=  1 EMax= 2.11D-15
 Solved reduced A of dimension   271 with    39 vectors.
 End of Minotr F.D. properties file   721 does not exist.
 End of Minotr F.D. properties file   722 does not exist.
 End of Minotr F.D. properties file   788 does not exist.

 **********************************************************************

            Population analysis using the SCF Density.

 **********************************************************************

 Alpha  occ. eigenvalues --  -10.50746 -10.50325 -10.49687 -10.49679 -10.48476
 Alpha  occ. eigenvalues --  -10.48429 -10.43112  -0.91330  -0.81783  -0.79452
 Alpha  occ. eigenvalues --   -0.72019  -0.63999  -0.60566  -0.51389  -0.47928
 Alpha  occ. eigenvalues --   -0.47031  -0.45935  -0.44409  -0.41021  -0.38849
 Alpha  occ. eigenvalues --   -0.37999  -0.35270  -0.26643  -0.24286  -0.16529
 Alpha virt. eigenvalues --    0.03746   0.05228   0.05326   0.05414   0.05997
 Alpha virt. eigenvalues --    0.07578   0.08323   0.08533   0.09290   0.10550
 Alpha virt. eigenvalues --    0.10891   0.10965   0.11641   0.13309   0.15321
 Alpha virt. eigenvalues --    0.16407   0.16527   0.16696   0.17869   0.17949
 Alpha virt. eigenvalues --    0.18700   0.20970   0.21117   0.21440   0.22798
 Alpha virt. eigenvalues --    0.23203   0.24139   0.24466   0.25768   0.26185
 Alpha virt. eigenvalues --    0.26867   0.27166   0.27701   0.28326   0.28687
 Alpha virt. eigenvalues --    0.30022   0.30190   0.31981   0.35972   0.40316
 Alpha virt. eigenvalues --    0.41341   0.41944   0.43684   0.48352   0.52000
 Alpha virt. eigenvalues --    0.52623   0.56755   0.57142   0.60799   0.60862
 Alpha virt. eigenvalues --    0.63680   0.64289   0.64495   0.66221   0.66892
 Alpha virt. eigenvalues --    0.67331   0.69130   0.70474   0.71902   0.72545
 Alpha virt. eigenvalues --    0.73661   0.75774   0.76669   0.77170   0.79880
 Alpha virt. eigenvalues --    0.82170   0.82636   0.83213   0.86984   0.90415
 Alpha virt. eigenvalues --    0.91133   0.92935   0.94701   0.95828   0.96171
 Alpha virt. eigenvalues --    1.01234   1.03107   1.06047   1.07919   1.08703
 Alpha virt. eigenvalues --    1.12117   1.16158   1.17802   1.24780   1.29144
 Alpha virt. eigenvalues --    1.35063   1.42988   1.44381   1.45553   1.54764
 Alpha virt. eigenvalues --    1.57031   1.59251   1.60523   1.62634   1.64167
 Alpha virt. eigenvalues --    1.65427   1.67351   1.68296   1.72120   1.73796
 Alpha virt. eigenvalues --    1.74417   1.76152   1.81245   1.83123   1.85190
 Alpha virt. eigenvalues --    1.87447   1.89748   1.94606   1.96039   2.00276
 Alpha virt. eigenvalues --    2.01659   2.03217   2.04293   2.06411   2.07983
 Alpha virt. eigenvalues --    2.10550   2.14220   2.16274   2.22880   2.26121
 Alpha virt. eigenvalues --    2.29262   2.40706   2.42248   2.44151   2.47980
 Alpha virt. eigenvalues --    2.49318   2.51313   2.58091   2.59438   2.63162
 Alpha virt. eigenvalues --    2.65439   2.67676   2.69151   2.70906   2.76395
 Alpha virt. eigenvalues --    2.77391   2.78560   2.80759   2.81369   2.82317
 Alpha virt. eigenvalues --    2.91136   2.93155   2.95171   2.96400   3.01695
 Alpha virt. eigenvalues --    3.03161   3.04211   3.12174   3.20669   3.28327
 Alpha virt. eigenvalues --    3.32283   3.48545   3.49636   3.60166   3.70039
 Alpha virt. eigenvalues --    3.74643   3.84478   3.87902   3.90238   4.07818
 Alpha virt. eigenvalues --    4.22452   4.24864   4.39804   4.90047  23.68775
 Alpha virt. eigenvalues --   24.03242  24.09270  24.11172  24.22664  24.22812
 Alpha virt. eigenvalues --   24.35031
          Condensed to atoms (all electrons):
               1          2          3          4          5          6
     1  C    9.021128  -1.630730  -0.157467   1.489767  -0.044415  -1.393423
     2  C   -1.630730   7.204722   0.553084  -1.427495   0.083599   1.184888
     3  H   -0.157467   0.553084   0.546770  -0.167685  -0.001201   0.058024
     4  C    1.489767  -1.427495  -0.167685   8.604589   0.201901  -1.186149
     5  H   -0.044415   0.083599  -0.001201   0.201901   0.513835   0.055291
     6  C   -1.393423   1.184888   0.058024  -1.186149   0.055291   7.576256
     7  C    1.517377  -1.465892  -0.052678   0.557279  -0.033137  -1.391400
     8  H   -0.043337   0.020839   0.000145  -0.035899  -0.000068   0.055804
     9  C   -1.603381   1.472992   0.056176  -1.438657   0.020062   1.169524
    10  H   -0.158595   0.056613   0.000400  -0.052331   0.000146   0.059823
    11  C    0.057971  -0.127283   0.012108  -0.042919   0.050809  -0.780701
    12  H   -0.006431   0.005819   0.000002  -0.050435   0.000138   0.092980
    13  H    0.000224   0.027420   0.000002   0.160164  -0.000242  -0.129860
    14  H    0.001172   0.000043   0.000012  -0.121012   0.000354  -0.174540
               7          8          9         10         11         12
     1  C    1.517377  -0.043337  -1.603381  -0.158595   0.057971  -0.006431
     2  C   -1.465892   0.020839   1.472992   0.056613  -0.127283   0.005819
     3  H   -0.052678   0.000145   0.056176   0.000400   0.012108   0.000002
     4  C    0.557279  -0.035899  -1.438657  -0.052331  -0.042919  -0.050435
     5  H   -0.033137  -0.000068   0.020062   0.000146   0.050809   0.000138
     6  C   -1.391400   0.055804   1.169524   0.059823  -0.780701   0.092980
     7  C    8.765205   0.197699  -1.483549  -0.169019   0.204329  -0.041242
     8  H    0.197699   0.515724   0.093750  -0.001105   0.044113   0.000233
     9  C   -1.483549   0.093750   7.215654   0.552599  -0.095510   0.007611
    10  H   -0.169019  -0.001105   0.552599   0.547460   0.012096   0.000004
    11  C    0.204329   0.044113  -0.095510   0.012096   6.221847   0.346464
    12  H   -0.041242   0.000233   0.007611   0.000004   0.346464   0.508447
    13  H   -0.125690   0.000341   0.000921   0.000010   0.430142  -0.030685
    14  H    0.180210   0.000489   0.028201   0.000003   0.454409  -0.025756
              13         14
     1  C    0.000224   0.001172
     2  C    0.027420   0.000043
     3  H    0.000002   0.000012
     4  C    0.160164  -0.121012
     5  H   -0.000242   0.000354
     6  C   -0.129860  -0.174540
     7  C   -0.125690   0.180210
     8  H    0.000341   0.000489
     9  C    0.000921   0.028201
    10  H    0.000010   0.000003
    11  C    0.430142   0.454409
    12  H   -0.030685  -0.025756
    13  H    0.526274  -0.028693
    14  H   -0.028693   0.516168
 Mulliken charges:
               1
     1  C   -1.049859
     2  C    0.041384
     3  H    0.152306
     4  C   -0.491119
     5  H    0.152928
     6  C    0.803482
     7  C   -0.659491
     8  H    0.151272
     9  C    0.003608
    10  H    0.151898
    11  C   -0.787874
    12  H    0.192851
    13  H    0.169671
    14  H    0.168941
 Sum of Mulliken charges =  -1.00000
 Mulliken charges with hydrogens summed into heavy atoms:
               1
     1  C   -1.049859
     2  C    0.193690
     4  C   -0.338191
     6  C    0.803482
     7  C   -0.508218
     9  C    0.155506
    11  C   -0.256410
 APT charges:
               1
     1  C   -2.359147
     2  C    1.082160
     3  H    0.104459
     4  C   -0.740804
     5  H   -0.703383
     6  C   -0.495642
     7  C   -0.470456
     8  H    1.139661
     9  C   -0.388992
    10  H    1.728048
    11  C   -0.633049
    12  H   -0.649805
    13  H    0.043581
    14  H    1.343369
 Sum of APT charges =  -1.00000
 APT charges with hydrogens summed into heavy atoms:
               1
     1  C   -2.359147
     2  C    1.186619
     4  C   -1.444186
     6  C   -0.495642
     7  C    0.669205
     9  C    1.339056
    11  C    0.104096
 Electronic spatial extent (au):  <R**2>=          17976.0643
 Charge=             -1.0000 electrons
 Dipole moment (field-independent basis, Debye):
    X=            -30.7116    Y=            -33.4286    Z=            -25.1948  Tot=             51.9177
 Quadrupole moment (field-independent basis, Debye-Ang):
   XX=           -246.2176   YY=           -278.8377   ZZ=           -181.9741
   XY=           -211.4652   XZ=           -161.9768   YZ=           -176.9315
 Traceless Quadrupole moment (field-independent basis, Debye-Ang):
   XX=            -10.5412   YY=            -43.1612   ZZ=             53.7024
   XY=           -211.4652   XZ=           -161.9768   YZ=           -176.9315
 Octapole moment (field-independent basis, Debye-Ang**2):
  XXX=          -1970.5579  YYY=          -2655.4372  ZZZ=          -1366.2685  XYY=          -1670.1776
  XXY=          -1710.7608  XXZ=          -1268.2770  XZZ=          -1090.4038  YZZ=          -1307.0481
  YYZ=          -1450.2662  XYZ=          -1123.5843
 Hexadecapole moment (field-independent basis, Debye-Ang**3):
 XXXX=         -15538.3329 YYYY=         -27078.5278 ZZZZ=          -9910.5382 XXXY=         -13770.5893
 XXXZ=         -10062.6459 YYYX=         -14801.5078 YYYZ=         -13326.9687 ZZZX=          -7794.1176
 ZZZY=          -9884.6520 XXYY=         -13046.2421 XXZZ=          -7822.9140 YYZZ=         -10413.1228
 XXYZ=          -8813.5610 YYXZ=          -8788.7570 ZZXY=          -7715.8522
 N-N= 2.598105147584D+02 E-N=-1.157405208822D+03  KE= 2.699422676578D+02
  Exact polarizability:       0.000       0.000       0.000       0.000       0.000       0.000
 Approx polarizability:     130.380       5.247     120.478      12.248     -19.991      92.933
 D2PCM: PCM CHGder 2nd derivatives, FixD1E=F FixD2E=F DoIter=F DoCFld=F I1PDM=0
 Calling FoFJK, ICntrl=    100127 FMM=F ISym2X=0 I1Cent= 0 IOpClX= 0 NMat=1 NMatS=1 NMatT=0.
 -------------------------------------------------------------------
 Center     Atomic                   Forces (Hartrees/Bohr)
 Number     Number              X              Y              Z
 -------------------------------------------------------------------
      1        6           0.073997705   -0.022623760    0.032861236
      2        6          -0.023533960    0.018756891   -0.016863686
      3        1          -0.001697800   -0.002477703    0.000824031
      4        6          -0.005697849   -0.008079510    0.002500970
      5        1          -0.005419944    0.000157244   -0.001461012
      6        6          -0.000766501    0.000689551    0.000415271
      7        6           0.002539300    0.009069283   -0.003821219
      8        1          -0.004109703    0.002834719   -0.002513952
      9        6          -0.033472693   -0.001385705   -0.008885540
     10        1           0.000881135    0.002740427   -0.001237610
     11        6           0.000108115   -0.000858578   -0.000747547
     12        1          -0.001263706    0.000308582   -0.000812042
     13        1          -0.001022581    0.000190473   -0.000014183
     14        1          -0.000541518    0.000678085   -0.000244718
 -------------------------------------------------------------------
 Cartesian Forces:  Max     0.073997705 RMS     0.015240212
 FormGI is forming the generalized inverse of G from B-inverse, IUseBI=4.

 GradGradGradGradGradGradGradGradGradGradGradGradGradGradGradGradGradGrad
 Berny optimization.
 Internal  Forces:  Max     0.050624974 RMS     0.010089915
 Search for a local minimum.
 Step number   1 out of a maximum of   72
 All quantities printed in internal units (Hartrees-Bohrs-Radians)
 Mixed Optimization -- RFO/linear search
 Second derivative matrix not updated -- analytic derivatives used.
 ITU=  0
     Eigenvalues ---    0.00000   0.01026   0.01584   0.02099   0.02351
     Eigenvalues ---    0.02694   0.02871   0.03733   0.03985   0.05664
     Eigenvalues ---    0.05841   0.10984   0.11058   0.11778   0.12072
     Eigenvalues ---    0.12284   0.14078   0.14637   0.18769   0.18838
     Eigenvalues ---    0.19530   0.20367   0.28358   0.32518   0.33720
     Eigenvalues ---    0.34398   0.34994   0.35117   0.35300   0.35783
     Eigenvalues ---    0.35805   0.41826   0.43093   0.46509   0.50450
     Eigenvalues ---    0.52801
 RFO step:  Lambda=-2.48670778D-02 EMin= 9.89881088D-07
 Linear search not attempted -- first point.
 Maximum step size (   0.300) exceeded in Quadratic search.
    -- Step size scaled by   0.921
 Iteration  1 RMS(Cart)=  0.04004559 RMS(Int)=  0.00250251
 Iteration  2 RMS(Cart)=  0.00359911 RMS(Int)=  0.00081038
 Iteration  3 RMS(Cart)=  0.00000331 RMS(Int)=  0.00081038
 Iteration  4 RMS(Cart)=  0.00000000 RMS(Int)=  0.00081038
 Variable       Old X    -DE/DX   Delta X   Delta X   Delta X     New X
                                 (Linear)    (Quad)   (Total)
    R1        2.59681   0.02610   0.00000   0.06097   0.06216   2.65898
    R2        2.59434   0.02609   0.00000   0.06056   0.06176   2.65610
    R3        2.04925   0.00240   0.00000   0.00926   0.00926   2.05851
    R4        2.64139   0.00898   0.00000   0.00111   0.00112   2.64251
    R5        2.05219   0.00407   0.00000   0.00513   0.00513   2.05732
    R6        2.64327  -0.00321   0.00000  -0.00580  -0.00702   2.63625
    R7        2.64032  -0.00310   0.00000  -0.00594  -0.00716   2.63316
    R8        2.84799   0.00320   0.00000   0.00370   0.00370   2.85169
    R9        2.05171   0.00404   0.00000   0.00504   0.00504   2.05675
   R10        2.64451   0.00887   0.00000  -0.00017  -0.00015   2.64435
   R11        2.04929   0.00245   0.00000   0.00939   0.00939   2.05868
   R12        2.06728   0.00074   0.00000   0.00171   0.00171   2.06899
   R13        2.06304   0.00071   0.00000   0.00197   0.00197   2.06501
   R14        2.06180   0.00074   0.00000   0.00218   0.00218   2.06399
    A1        2.18384  -0.05062   0.00000  -0.20021  -0.19656   1.98728
    A2        2.13484  -0.01102   0.00000  -0.04744  -0.04796   2.08689
    A3        2.03906   0.02612   0.00000   0.11538   0.11642   2.15548
    A4        2.10928  -0.01510   0.00000  -0.06795  -0.06847   2.04081
    A5        2.08412   0.00349   0.00000   0.00842   0.00916   2.09328
    A6        2.11427   0.00096   0.00000  -0.00130  -0.00278   2.11149
    A7        2.08479  -0.00445   0.00000  -0.00712  -0.00638   2.07841
    A8        2.07607  -0.00359   0.00000  -0.02874  -0.03153   2.04454
    A9        2.09963   0.00184   0.00000   0.01598   0.01737   2.11701
   A10        2.10734   0.00175   0.00000   0.01274   0.01413   2.12147
   A11        2.08538  -0.00448   0.00000  -0.00673  -0.00600   2.07938
   A12        2.11397   0.00105   0.00000  -0.00134  -0.00281   2.11117
   A13        2.08383   0.00343   0.00000   0.00807   0.00881   2.09264
   A14        2.03915   0.02608   0.00000   0.11620   0.11726   2.15640
   A15        2.13548  -0.01105   0.00000  -0.04873  -0.04926   2.08622
   A16        2.10855  -0.01503   0.00000  -0.06746  -0.06799   2.04056
   A17        1.93086   0.00174   0.00000   0.00800   0.00798   1.93885
   A18        1.93911   0.00063   0.00000   0.00333   0.00332   1.94244
   A19        1.93994   0.00018   0.00000   0.00013   0.00013   1.94007
   A20        1.87720  -0.00100   0.00000  -0.00368  -0.00370   1.87350
   A21        1.88138  -0.00095   0.00000  -0.00423  -0.00423   1.87715
   A22        1.89309  -0.00073   0.00000  -0.00410  -0.00409   1.88900
    D1       -3.13637  -0.00003   0.00000   0.00126   0.00127  -3.13509
    D2        0.00114  -0.00016   0.00000  -0.00025  -0.00027   0.00088
    D3       -0.00136   0.00014   0.00000  -0.00128  -0.00129  -0.00265
    D4        3.13600   0.00015   0.00000   0.00156   0.00160   3.13760
    D5       -3.13832   0.00011   0.00000   0.00156   0.00160  -3.13672
    D6        0.00195   0.00009   0.00000   0.00176   0.00177   0.00373
    D7       -0.00075  -0.00002   0.00000   0.00011   0.00013  -0.00062
    D8        3.13953  -0.00004   0.00000   0.00031   0.00030   3.13983
    D9       -0.00466  -0.00004   0.00000  -0.00178  -0.00173  -0.00640
   D10        3.11908  -0.00009   0.00000  -0.00333  -0.00325   3.11583
   D11        3.13561  -0.00005   0.00000  -0.00156  -0.00155   3.13406
   D12       -0.02383  -0.00011   0.00000  -0.00311  -0.00307  -0.02690
   D13       -3.13539  -0.00001   0.00000  -0.00090  -0.00084  -3.13623
   D14        0.00443   0.00001   0.00000   0.00018   0.00025   0.00469
   D15        0.02413   0.00004   0.00000   0.00062   0.00065   0.02478
   D16       -3.11923   0.00007   0.00000   0.00170   0.00174  -3.11749
   D17       -1.41423  -0.00001   0.00000   0.00156   0.00157  -1.41266
   D18        0.66953   0.00029   0.00000   0.00434   0.00437   0.67390
   D19        2.77940  -0.00008   0.00000   0.00150   0.00152   2.78093
   D20        1.70919  -0.00012   0.00000  -0.00045  -0.00048   1.70871
   D21       -2.49023   0.00018   0.00000   0.00234   0.00232  -2.48791
   D22       -0.38036  -0.00019   0.00000  -0.00050  -0.00053  -0.38089
   D23       -0.00151  -0.00003   0.00000   0.00135   0.00139  -0.00013
   D24       -3.13894  -0.00005   0.00000  -0.00148  -0.00147  -3.14042
   D25        3.13831  -0.00002   0.00000   0.00242   0.00247   3.14078
   D26        0.00088  -0.00003   0.00000  -0.00042  -0.00038   0.00049
         Item               Value     Threshold  Converged?
 Maximum Force            0.050625     0.000015     NO 
 RMS     Force            0.010090     0.000010     NO 
 Maximum Displacement     0.230458     0.000060     NO 
 RMS     Displacement     0.040482     0.000040     NO 
 Predicted change in Energy=-1.347217D-02
 GradGradGradGradGradGradGradGradGradGradGradGradGradGradGradGradGradGrad

                          Input orientation:                          
 ---------------------------------------------------------------------
 Center     Atomic      Atomic             Coordinates (Angstroms)
 Number     Number       Type             X           Y           Z
 ---------------------------------------------------------------------
      1          6           0        6.297233    6.980736    5.195435
      2          6           0        5.142660    6.181284    5.283083
      3          1           0        5.191384    5.220897    5.794841
      4          6           0        3.904920    6.551791    4.748177
      5          1           0        3.047296    5.889526    4.853658
      6          6           0        3.746605    7.764744    4.077487
      7          6           0        4.868196    8.585063    3.974029
      8          1           0        4.780012    9.541249    3.461671
      9          6           0        6.097243    8.196104    4.518348
     10          1           0        6.930066    8.888415    4.400366
     11          6           0        2.422593    8.156980    3.468908
     12          1           0        2.278966    7.677149    2.495331
     13          1           0        1.587940    7.855926    4.106743
     14          1           0        2.363527    9.236804    3.315859
 ---------------------------------------------------------------------
                    Distance matrix (angstroms):
                    1          2          3          4          5
     1  C    0.000000
     2  C    1.407069   0.000000
     3  H    2.163151   1.089318   0.000000
     4  C    2.471274   1.398357   2.126446   0.000000
     5  H    3.445235   2.158722   2.435160   1.088687   0.000000
     6  C    2.893126   2.431003   3.392322   1.395043   2.146605
     7  C    2.471405   2.750837   3.838934   2.379370   3.369769
     8  H    3.444434   3.839065   4.927306   3.370126   4.274928
     9  C    1.405546   2.357020   3.361825   2.750067   3.838607
    10  H    2.161446   3.361929   4.291650   3.838268   4.926937
    11  C    4.401963   3.820127   4.657977   2.531888   2.729309
    12  H    4.891015   4.267308   5.040052   2.997578   3.057390
    13  H    4.912092   4.101735   4.772615   2.735068   2.560142
    14  H    4.908839   4.574905   5.501785   3.411265   3.746550
                    6          7          8          9         10
     6  C    0.000000
     7  C    1.393411   0.000000
     8  H    2.145491   1.088384   0.000000
     9  C    2.430212   1.399332   2.158953   0.000000
    10  H    3.391359   2.127227   2.435174   1.089408   0.000000
    11  C    1.509048   2.533649   2.733803   3.821768   4.660465
    12  H    2.159827   3.116884   3.265565   4.352143   5.170016
    13  H    2.160788   3.362935   3.666845   4.540809   5.448904
    14  H    2.158691   2.670454   2.439949   4.058285   4.706465
                   11         12         13         14
    11  C    0.000000
    12  H    1.094860   0.000000
    13  H    1.092755   1.762421   0.000000
    14  H    1.092215   1.764353   1.770271   0.000000
 Symmetry turned off by external request.
 Stoichiometry    C7H7(1-)
 Framework group  C1[X(C7H7)]
 Deg. of freedom    36
 Full point group                 C1      NOp   1
 Rotational constants (GHZ):           5.6821983           2.5777301           1.7930291
 Standard basis: 6-311+G(d,p) (5D, 7F)
   196 basis functions,   308 primitive gaussians,   203 cartesian basis functions
    25 alpha electrons       25 beta electrons
       nuclear repulsion energy       258.4681802008 Hartrees.
 NAtoms=   14 NActive=   14 NUniq=   14 SFac= 1.00D+00 NAtFMM=   60 NAOKFM=F Big=F
 Integral buffers will be    131072 words long.
 Raffenetti 2 integral format.
 Two-electron integral symmetry is turned off.
 ------------------------------------------------------------------------------
 Polarizable Continuum Model (PCM)
 =================================
 Model                : PCM.
 Atomic radii         : SMD-Coulomb.
 Polarization charges : Total charges.
 Charge compensation  : None.
 Solution method      : Matrix inversion.
 Cavity type          : VdW (van der Waals Surface) (Alpha=1.000).
 Cavity algorithm     : GePol (No added spheres)
                        Default sphere list used, NSphG=   14.
                        Lebedev-Laikov grids with approx.  5.0 points / Ang**2.
                        Smoothing algorithm: York/Karplus (Gamma=1.0000).
                        Polarization charges: spherical gaussians, with
                                              point-specific exponents (IZeta= 3).
                        Self-potential: point-specific (ISelfS= 7).
                        Self-field    : sphere-specific E.n sum rule (ISelfD= 2).
 1st derivatives      : Analytical E(r).r(x)/FMM algorithm (CHGder, D1EAlg=3).
                        Cavity 1st derivative terms included.
 Solvent              : TetraHydroFuran, Eps=   7.425700 Eps(inf)=   1.974025
 ------------------------------------------------------------------------------
 Spheres list:
 ISph  on   Nord     Re0    Alpha      Xe            Ye            Ze
    1   C      1    1.8500  1.000      6.297233      6.980736      5.195435
    2   C      2    1.8500  1.000      5.142660      6.181284      5.283083
    3   H      3    1.2000  1.000      5.191384      5.220897      5.794841
    4   C      4    1.8500  1.000      3.904920      6.551791      4.748177
    5   H      5    1.2000  1.000      3.047296      5.889526      4.853658
    6   C      6    1.8500  1.000      3.746605      7.764744      4.077487
    7   C      7    1.8500  1.000      4.868196      8.585063      3.974029
    8   H      8    1.2000  1.000      4.780012      9.541249      3.461671
    9   C      9    1.8500  1.000      6.097243      8.196104      4.518348
   10   H     10    1.2000  1.000      6.930066      8.888415      4.400366
   11   C     11    1.8500  1.000      2.422593      8.156980      3.468908
   12   H     12    1.2000  1.000      2.278966      7.677149      2.495331
   13   H     13    1.2000  1.000      1.587940      7.855926      4.106743
   14   H     14    1.2000  1.000      2.363527      9.236804      3.315859
 ------------------------------------------------------------------------------
 ------------------------------------------------------------------------------
 Atomic radii for non-electrostatic terms: SMD-CDS.
 ------------------------------------------------------------------------------
 Nuclear repulsion after PCM non-electrostatic terms =      258.4652772124 Hartrees.
 One-electron integrals computed using PRISM.
 NBasis=   196 RedAO= T EigKep=  3.92D-06  NBF=   196
 NBsUse=   196 1.00D-06 EigRej= -1.00D+00 NBFU=   196
 Initial guess from the checkpoint file:  "4-Me-ph-anion-opt-freq-thf.chk"
 B after Tr=     0.025024   -0.007622    0.006041
         Rot=    1.000000   -0.000101    0.000022   -0.000150 Ang=  -0.02 deg.
 ExpMin= 4.38D-02 ExpMax= 4.56D+03 ExpMxC= 6.82D+02 IAcc=3 IRadAn=         5 AccDes= 0.00D+00
 Harris functional with IExCor= 1009 and IRadAn=       5 diagonalized for initial guess.
 HarFok:  IExCor= 1009 AccDes= 0.00D+00 IRadAn=         5 IDoV= 1 UseB2=F ITyADJ=14
 ICtDFT=  3500011 ScaDFX=  1.000000  1.000000  1.000000  1.000000
 FoFCou: FMM=F IPFlag=           0 FMFlag=      100000 FMFlg1=           0
         NFxFlg=           0 DoJE=T BraDBF=F KetDBF=T FulRan=T
         wScrn=  0.000000 ICntrl=       500 IOpCl=  0 I1Cent=   200000004 NGrid=           0
         NMat0=    1 NMatS0=      1 NMatT0=    0 NMatD0=    1 NMtDS0=    0 NMtDT0=    0
 Symmetry not used in FoFCou.
 Requested convergence on RMS density matrix=1.00D-08 within 128 cycles.
 Requested convergence on MAX density matrix=1.00D-06.
 Requested convergence on             energy=1.00D-06.
 Level shift goal  0.100 maximum shift  0.100.
 No special actions if energy rises.
 Dynamic level shift is on during FON iterations.
 Inv3:  Mode=1 IEnd=     4212675.
 Iteration    1 A*A^-1 deviation from unit magnitude is 6.22D-15 for   1180.
 Iteration    1 A*A^-1 deviation from orthogonality  is 1.97D-15 for   1017    236.
 Iteration    1 A^-1*A deviation from unit magnitude is 6.00D-15 for   1180.
 Iteration    1 A^-1*A deviation from orthogonality  is 1.63D-15 for    468    412.
 Error on total polarization charges =  0.06644
 SCF Done:  E(RM062X) =  -270.948131531     A.U. after   13 cycles
            NFock= 13  Conv=0.89D-08     -V/T= 2.0042
 SMD-CDS (non-electrostatic) energy       (kcal/mol) =      -1.82
 (included in total energy above)
 D1PCM: PCM CHGder 1st derivatives, ID1Alg=3 FixD1E=F DoIter=F DoCFld=F I1PDM=0.
 Calling FoFJK, ICntrl=      2127 FMM=F ISym2X=0 I1Cent= 0 IOpClX= 0 NMat=1 NMatS=1 NMatT=0.
 -------------------------------------------------------------------
 Center     Atomic                   Forces (Hartrees/Bohr)
 Number     Number              X              Y              Z
 -------------------------------------------------------------------
      1        6           0.012141015   -0.003816891    0.005406047
      2        6          -0.003414743    0.003075398   -0.002618353
      3        1          -0.000643842   -0.001201739    0.000343817
      4        6          -0.001615960   -0.003014850    0.000963016
      5        1          -0.000955214   -0.000093334   -0.000194530
      6        6          -0.001545975    0.000580082   -0.000437751
      7        6           0.001140331    0.003155111   -0.001185512
      8        1          -0.000691917    0.000636134   -0.000431276
      9        6          -0.004568063   -0.000445930   -0.001128979
     10        1           0.000429518    0.001251773   -0.000493165
     11        6           0.000294345   -0.000375044   -0.000132937
     12        1          -0.000259802    0.000093656   -0.000104555
     13        1          -0.000180732    0.000061045    0.000017024
     14        1          -0.000128959    0.000094590   -0.000002846
 -------------------------------------------------------------------
 Cartesian Forces:  Max     0.012141015 RMS     0.002564011

 GradGradGradGradGradGradGradGradGradGradGradGradGradGradGradGradGradGrad
 Berny optimization.
 Using GEDIIS/GDIIS optimizer.
 FormGI is forming the generalized inverse of G from B-inverse, IUseBI=4.
 Internal  Forces:  Max     0.006939106 RMS     0.001714574
 Search for a local minimum.
 Step number   2 out of a maximum of   72
 All quantities printed in internal units (Hartrees-Bohrs-Radians)
 Mixed Optimization -- RFO/linear search
 Update second derivatives using D2CorX and points    1    2
 DE= -1.33D-02 DEPred=-1.35D-02 R= 9.87D-01
 TightC=F SS=  1.41D+00  RLast= 3.00D-01 DXNew= 5.0454D-01 8.9980D-01
 Trust test= 9.87D-01 RLast= 3.00D-01 DXMaxT set to 5.05D-01
 ITU=  1  0
 Use linear search instead of GDIIS.
     Eigenvalues ---    0.00000   0.01025   0.01584   0.02099   0.02349
     Eigenvalues ---    0.02692   0.02865   0.03713   0.03982   0.05664
     Eigenvalues ---    0.05841   0.10984   0.11063   0.11778   0.12068
     Eigenvalues ---    0.12299   0.14078   0.14637   0.18790   0.18925
     Eigenvalues ---    0.20281   0.20361   0.28354   0.32555   0.33724
     Eigenvalues ---    0.34398   0.35006   0.35116   0.35311   0.35781
     Eigenvalues ---    0.35793   0.41804   0.43054   0.46486   0.50424
     Eigenvalues ---    0.51782
 RFO step:  Lambda=-8.32851383D-05 EMin= 9.89896139D-07
 Quartic linear search produced a step of  0.17687.
 Iteration  1 RMS(Cart)=  0.07999300 RMS(Int)=  0.00873424
 Iteration  2 RMS(Cart)=  0.01016062 RMS(Int)=  0.00019194
 Iteration  3 RMS(Cart)=  0.00011768 RMS(Int)=  0.00016150
 Iteration  4 RMS(Cart)=  0.00000002 RMS(Int)=  0.00016150
 Variable       Old X    -DE/DX   Delta X   Delta X   Delta X     New X
                                 (Linear)    (Quad)   (Total)
    R1        2.65898   0.00571   0.01099   0.00441   0.01564   2.67461
    R2        2.65610   0.00574   0.01092   0.00148   0.01264   2.66874
    R3        2.05851   0.00119   0.00164   0.00270   0.00433   2.06285
    R4        2.64251   0.00202   0.00020  -0.00020  -0.00001   2.64251
    R5        2.05732   0.00079   0.00091   0.00074   0.00165   2.05897
    R6        2.63625   0.00128  -0.00124   0.00621   0.00472   2.64097
    R7        2.63316   0.00152  -0.00127   0.00313   0.00163   2.63479
    R8        2.85169   0.00030   0.00065  -0.00078  -0.00013   2.85156
    R9        2.05675   0.00082   0.00089   0.00027   0.00116   2.05791
   R10        2.64435   0.00239  -0.00003   0.00496   0.00494   2.64930
   R11        2.05868   0.00118   0.00166   0.00257   0.00423   2.06291
   R12        2.06899   0.00010   0.00030  -0.00062  -0.00032   2.06866
   R13        2.06501   0.00012   0.00035   0.00119   0.00154   2.06655
   R14        2.06399   0.00010   0.00039  -0.00050  -0.00012   2.06387
    A1        1.98728  -0.00694  -0.03477   0.00202  -0.03201   1.95527
    A2        2.08689  -0.00125  -0.00848   0.00358  -0.00500   2.08188
    A3        2.15548   0.00403   0.02059   0.00007   0.02086   2.17634
    A4        2.04081  -0.00278  -0.01211  -0.00364  -0.01585   2.02496
    A5        2.09328   0.00073   0.00162   0.00164   0.00341   2.09669
    A6        2.11149  -0.00027  -0.00049  -0.00154  -0.00233   2.10915
    A7        2.07841  -0.00046  -0.00113  -0.00010  -0.00107   2.07734
    A8        2.04454  -0.00037  -0.00558   0.00182  -0.00431   2.04023
    A9        2.11701   0.00004   0.00307  -0.00672  -0.00338   2.11363
   A10        2.12147   0.00033   0.00250   0.00499   0.00777   2.12924
   A11        2.07938  -0.00052  -0.00106  -0.00029  -0.00120   2.07818
   A12        2.11117  -0.00024  -0.00050  -0.00125  -0.00203   2.10913
   A13        2.09264   0.00076   0.00156   0.00154   0.00324   2.09588
   A14        2.15640   0.00378   0.02074  -0.00112   0.01983   2.17624
   A15        2.08622  -0.00109  -0.00871   0.00528  -0.00353   2.08269
   A16        2.04056  -0.00269  -0.01203  -0.00417  -0.01630   2.02426
   A17        1.93885   0.00037   0.00141   0.00129   0.00270   1.94154
   A18        1.94244   0.00009   0.00059   0.00181   0.00240   1.94483
   A19        1.94007   0.00005   0.00002  -0.00186  -0.00184   1.93823
   A20        1.87350  -0.00019  -0.00065  -0.00140  -0.00207   1.87143
   A21        1.87715  -0.00019  -0.00075   0.00269   0.00194   1.87909
   A22        1.88900  -0.00016  -0.00072  -0.00257  -0.00330   1.88570
    D1       -3.13509  -0.00002   0.00023  -0.00140  -0.00119  -3.13628
    D2        0.00088  -0.00001  -0.00005   0.00132   0.00127   0.00215
    D3       -0.00265   0.00002  -0.00023  -0.00049  -0.00071  -0.00337
    D4        3.13760   0.00002   0.00028   0.00020   0.00050   3.13810
    D5       -3.13672   0.00002   0.00028  -0.00233  -0.00206  -3.13878
    D6        0.00373   0.00001   0.00031  -0.00160  -0.00130   0.00243
    D7       -0.00062   0.00003   0.00002   0.00034   0.00036  -0.00026
    D8        3.13983   0.00001   0.00005   0.00108   0.00112   3.14095
    D9       -0.00640  -0.00001  -0.00031   0.00089   0.00059  -0.00581
   D10        3.11583  -0.00004  -0.00058   0.00628   0.00570   3.12153
   D11        3.13406  -0.00002  -0.00027   0.00162   0.00134   3.13541
   D12       -0.02690  -0.00005  -0.00054   0.00702   0.00646  -0.02044
   D13       -3.13623   0.00000  -0.00015  -0.00064  -0.00077  -3.13700
   D14        0.00469   0.00002   0.00004  -0.00008  -0.00003   0.00466
   D15        0.02478   0.00004   0.00012  -0.00591  -0.00580   0.01898
   D16       -3.11749   0.00006   0.00031  -0.00536  -0.00506  -3.12255
   D17       -1.41266   0.00003   0.00028   0.21491   0.21519  -1.19747
   D18        0.67390   0.00010   0.00077   0.21521   0.21598   0.88988
   D19        2.78093  -0.00001   0.00027   0.21190   0.21216   2.99309
   D20        1.70871  -0.00001  -0.00008   0.22051   0.22042   1.92913
   D21       -2.48791   0.00006   0.00041   0.22080   0.22121  -2.26670
   D22       -0.38089  -0.00005  -0.00009   0.21749   0.21740  -0.16349
   D23       -0.00013  -0.00003   0.00025  -0.00010   0.00016   0.00003
   D24       -3.14042  -0.00002  -0.00026  -0.00078  -0.00102  -3.14144
   D25        3.14078  -0.00001   0.00044   0.00047   0.00091  -3.14150
   D26        0.00049   0.00000  -0.00007  -0.00021  -0.00027   0.00022
         Item               Value     Threshold  Converged?
 Maximum Force            0.006939     0.000015     NO 
 RMS     Force            0.001715     0.000010     NO 
 Maximum Displacement     0.334475     0.000060     NO 
 RMS     Displacement     0.086781     0.000040     NO 
 Predicted change in Energy=-3.783277D-04
 GradGradGradGradGradGradGradGradGradGradGradGradGradGradGradGradGradGrad

                          Input orientation:                          
 ---------------------------------------------------------------------
 Center     Atomic      Atomic             Coordinates (Angstroms)
 Number     Number       Type             X           Y           Z
 ---------------------------------------------------------------------
      1          6           0        6.318744    6.975352    5.207240
      2          6           0        5.152297    6.175247    5.256550
      3          1           0        5.194007    5.200063    5.745314
      4          6           0        3.913667    6.539920    4.719706
      5          1           0        3.061823    5.865636    4.802418
      6          6           0        3.746613    7.767162    4.072333
      7          6           0        4.863493    8.598498    3.998476
      8          1           0        4.771910    9.565169    3.505447
      9          6           0        6.091130    8.203563    4.548376
     10          1           0        6.912292    8.915489    4.445686
     11          6           0        2.419416    8.155592    3.468434
     12          1           0        2.182704    7.534872    2.598364
     13          1           0        1.602936    8.032922    4.185516
     14          1           0        2.427607    9.197182    3.140075
 ---------------------------------------------------------------------
                    Distance matrix (angstroms):
                    1          2          3          4          5
     1  C    0.000000
     2  C    1.415343   0.000000
     3  H    2.169380   1.091611   0.000000
     4  C    2.492325   1.398354   2.118103   0.000000
     5  H    3.464518   2.161522   2.424510   1.089560   0.000000
     6  C    2.920759   2.431566   3.388778   1.397541   2.148898
     7  C    2.492683   2.745597   3.835367   2.379093   3.370589
     8  H    3.463516   3.834400   4.924360   3.370925   4.277041
     9  C    1.412237   2.344565   3.355370   2.745615   3.834989
    10  H    2.167117   3.356189   4.294872   3.835383   4.924934
    11  C    4.429579   3.819393   4.649483   2.531573   2.726921
    12  H    4.922004   4.211059   4.941920   2.913118   2.901216
    13  H    4.939759   4.146811   4.832583   2.802480   2.684409
    14  H    4.934637   4.586447   5.515179   3.429963   3.776879
                    6          7          8          9         10
     6  C    0.000000
     7  C    1.394272   0.000000
     8  H    2.146025   1.088999   0.000000
     9  C    2.431835   1.401947   2.163795   0.000000
    10  H    3.388152   2.120862   2.426389   1.091646   0.000000
    11  C    1.508981   2.539807   2.742719   3.827539   4.660300
    12  H    2.161562   3.205970   3.413048   4.418765   5.261910
    13  H    2.163051   3.314528   3.585063   4.506070   5.388495
    14  H    2.157276   2.651191   2.400972   4.048702   4.679355
                   11         12         13         14
    11  C    0.000000
    12  H    1.094690   0.000000
    13  H    1.093570   1.761601   0.000000
    14  H    1.092153   1.765419   1.768766   0.000000
 Symmetry turned off by external request.
 Stoichiometry    C7H7(1-)
 Framework group  C1[X(C7H7)]
 Deg. of freedom    36
 Full point group                 C1      NOp   1
 Rotational constants (GHZ):           5.7040231           2.5580512           1.7856035
 Standard basis: 6-311+G(d,p) (5D, 7F)
   196 basis functions,   308 primitive gaussians,   203 cartesian basis functions
    25 alpha electrons       25 beta electrons
       nuclear repulsion energy       258.0340151746 Hartrees.
 NAtoms=   14 NActive=   14 NUniq=   14 SFac= 1.00D+00 NAtFMM=   60 NAOKFM=F Big=F
 Integral buffers will be    131072 words long.
 Raffenetti 2 integral format.
 Two-electron integral symmetry is turned off.
 ------------------------------------------------------------------------------
 Polarizable Continuum Model (PCM)
 =================================
 Model                : PCM.
 Atomic radii         : SMD-Coulomb.
 Polarization charges : Total charges.
 Charge compensation  : None.
 Solution method      : Matrix inversion.
 Cavity type          : VdW (van der Waals Surface) (Alpha=1.000).
 Cavity algorithm     : GePol (No added spheres)
                        Default sphere list used, NSphG=   14.
                        Lebedev-Laikov grids with approx.  5.0 points / Ang**2.
                        Smoothing algorithm: York/Karplus (Gamma=1.0000).
                        Polarization charges: spherical gaussians, with
                                              point-specific exponents (IZeta= 3).
                        Self-potential: point-specific (ISelfS= 7).
                        Self-field    : sphere-specific E.n sum rule (ISelfD= 2).
 1st derivatives      : Analytical E(r).r(x)/FMM algorithm (CHGder, D1EAlg=3).
                        Cavity 1st derivative terms included.
 Solvent              : TetraHydroFuran, Eps=   7.425700 Eps(inf)=   1.974025
 ------------------------------------------------------------------------------
 Spheres list:
 ISph  on   Nord     Re0    Alpha      Xe            Ye            Ze
    1   C      1    1.8500  1.000      6.318744      6.975352      5.207240
    2   C      2    1.8500  1.000      5.152297      6.175247      5.256550
    3   H      3    1.2000  1.000      5.194007      5.200063      5.745314
    4   C      4    1.8500  1.000      3.913667      6.539920      4.719706
    5   H      5    1.2000  1.000      3.061823      5.865636      4.802418
    6   C      6    1.8500  1.000      3.746613      7.767162      4.072333
    7   C      7    1.8500  1.000      4.863493      8.598498      3.998476
    8   H      8    1.2000  1.000      4.771910      9.565169      3.505447
    9   C      9    1.8500  1.000      6.091130      8.203563      4.548376
   10   H     10    1.2000  1.000      6.912292      8.915489      4.445686
   11   C     11    1.8500  1.000      2.419416      8.155592      3.468434
   12   H     12    1.2000  1.000      2.182704      7.534872      2.598364
   13   H     13    1.2000  1.000      1.602936      8.032922      4.185516
   14   H     14    1.2000  1.000      2.427607      9.197182      3.140075
 ------------------------------------------------------------------------------
 ------------------------------------------------------------------------------
 Atomic radii for non-electrostatic terms: SMD-CDS.
 ------------------------------------------------------------------------------
 Nuclear repulsion after PCM non-electrostatic terms =      258.0311309154 Hartrees.
 One-electron integrals computed using PRISM.
 NBasis=   196 RedAO= T EigKep=  4.10D-06  NBF=   196
 NBsUse=   196 1.00D-06 EigRej= -1.00D+00 NBFU=   196
 Initial guess from the checkpoint file:  "4-Me-ph-anion-opt-freq-thf.chk"
 B after Tr=     0.111800    0.050539   -0.191864
         Rot=    0.999979   -0.005607    0.001991   -0.002579 Ang=  -0.74 deg.
 ExpMin= 4.38D-02 ExpMax= 4.56D+03 ExpMxC= 6.82D+02 IAcc=3 IRadAn=         5 AccDes= 0.00D+00
 Harris functional with IExCor= 1009 and IRadAn=       5 diagonalized for initial guess.
 HarFok:  IExCor= 1009 AccDes= 0.00D+00 IRadAn=         5 IDoV= 1 UseB2=F ITyADJ=14
 ICtDFT=  3500011 ScaDFX=  1.000000  1.000000  1.000000  1.000000
 FoFCou: FMM=F IPFlag=           0 FMFlag=      100000 FMFlg1=           0
         NFxFlg=           0 DoJE=T BraDBF=F KetDBF=T FulRan=T
         wScrn=  0.000000 ICntrl=       500 IOpCl=  0 I1Cent=   200000004 NGrid=           0
         NMat0=    1 NMatS0=      1 NMatT0=    0 NMatD0=    1 NMtDS0=    0 NMtDT0=    0
 Symmetry not used in FoFCou.
 Requested convergence on RMS density matrix=1.00D-08 within 128 cycles.
 Requested convergence on MAX density matrix=1.00D-06.
 Requested convergence on             energy=1.00D-06.
 Level shift goal  0.100 maximum shift  0.100.
 No special actions if energy rises.
 Dynamic level shift is on during FON iterations.
 Inv3:  Mode=1 IEnd=     4085667.
 Iteration    1 A*A^-1 deviation from unit magnitude is 6.44D-15 for   1160.
 Iteration    1 A*A^-1 deviation from orthogonality  is 3.10D-15 for    794    483.
 Iteration    1 A^-1*A deviation from unit magnitude is 6.66D-15 for   1160.
 Iteration    1 A^-1*A deviation from orthogonality  is 9.98D-13 for    846    794.
 Error on total polarization charges =  0.06567
 SCF Done:  E(RM062X) =  -270.948503159     A.U. after   13 cycles
            NFock= 13  Conv=0.58D-08     -V/T= 2.0044
 SMD-CDS (non-electrostatic) energy       (kcal/mol) =      -1.81
 (included in total energy above)
 D1PCM: PCM CHGder 1st derivatives, ID1Alg=3 FixD1E=F DoIter=F DoCFld=F I1PDM=0.
 Calling FoFJK, ICntrl=      2127 FMM=F ISym2X=0 I1Cent= 0 IOpClX= 0 NMat=1 NMatS=1 NMatT=0.
 -------------------------------------------------------------------
 Center     Atomic                   Forces (Hartrees/Bohr)
 Number     Number              X              Y              Z
 -------------------------------------------------------------------
      1        6           0.000633162    0.000017086    0.000524626
      2        6          -0.000256102   -0.000469198    0.000047916
      3        1          -0.000003736   -0.000191712    0.000023163
      4        6          -0.000274142   -0.000136315    0.000035232
      5        1          -0.000013563   -0.000023824   -0.000081762
      6        6          -0.000322723   -0.000437934   -0.000137649
      7        6           0.000074065    0.000343382   -0.000041125
      8        1          -0.000020349    0.000057668   -0.000096697
      9        6           0.000024273    0.000361761   -0.000310825
     10        1           0.000091332    0.000154211   -0.000029686
     11        6           0.000143262    0.000158588   -0.000089684
     12        1           0.000005024    0.000025795    0.000090203
     13        1           0.000024339    0.000003336    0.000035622
     14        1          -0.000104843    0.000137157    0.000030667
 -------------------------------------------------------------------
 Cartesian Forces:  Max     0.000633162 RMS     0.000213445

 GradGradGradGradGradGradGradGradGradGradGradGradGradGradGradGradGradGrad
 Berny optimization.
 Using GEDIIS/GDIIS optimizer.
 FormGI is forming the generalized inverse of G from B-inverse, IUseBI=4.
 Internal  Forces:  Max     0.000805791 RMS     0.000180544
 Search for a local minimum.
 Step number   3 out of a maximum of   72
 All quantities printed in internal units (Hartrees-Bohrs-Radians)
 Mixed Optimization -- En-DIIS/RFO-DIIS
 Update second derivatives using D2CorX and points    2    3
 DE= -3.72D-04 DEPred=-3.78D-04 R= 9.82D-01
 TightC=F SS=  1.41D+00  RLast= 5.35D-01 DXNew= 8.4853D-01 1.6043D+00
 Trust test= 9.82D-01 RLast= 5.35D-01 DXMaxT set to 8.49D-01
 ITU=  1  1  0
 Use linear search instead of GDIIS.
     Eigenvalues ---    0.00000   0.01025   0.01590   0.02100   0.02349
     Eigenvalues ---    0.02692   0.02863   0.03705   0.03980   0.05661
     Eigenvalues ---    0.05841   0.10983   0.11084   0.11777   0.12049
     Eigenvalues ---    0.12293   0.14078   0.14638   0.18578   0.18920
     Eigenvalues ---    0.20194   0.20742   0.28352   0.32545   0.33741
     Eigenvalues ---    0.34408   0.35001   0.35118   0.35283   0.35768
     Eigenvalues ---    0.35791   0.41824   0.42677   0.46438   0.49499
     Eigenvalues ---    0.50422
 RFO step:  Lambda=-2.14007855D-05 EMin= 1.08696387D-06
 Quartic linear search produced a step of  0.02052.
 Iteration  1 RMS(Cart)=  0.07974360 RMS(Int)=  0.02406219
 Iteration  2 RMS(Cart)=  0.03075237 RMS(Int)=  0.00095088
 Iteration  3 RMS(Cart)=  0.00099162 RMS(Int)=  0.00000492
 Iteration  4 RMS(Cart)=  0.00000082 RMS(Int)=  0.00000488
 Variable       Old X    -DE/DX   Delta X   Delta X   Delta X     New X
                                 (Linear)    (Quad)   (Total)
    R1        2.67461   0.00081   0.00032   0.00053   0.00086   2.67547
    R2        2.66874   0.00068   0.00026   0.00410   0.00436   2.67310
    R3        2.06285   0.00018   0.00009   0.00072   0.00081   2.06365
    R4        2.64251   0.00039   0.00000   0.00347   0.00347   2.64597
    R5        2.05897   0.00002   0.00003  -0.00034  -0.00031   2.05866
    R6        2.64097   0.00029   0.00010  -0.00154  -0.00144   2.63953
    R7        2.63479   0.00039   0.00003   0.00336   0.00340   2.63819
    R8        2.85156   0.00000   0.00000  -0.00004  -0.00004   2.85152
    R9        2.05791   0.00010   0.00002   0.00067   0.00069   2.05860
   R10        2.64930   0.00018   0.00010  -0.00208  -0.00198   2.64731
   R11        2.06291   0.00017   0.00009   0.00069   0.00078   2.06369
   R12        2.06866  -0.00009  -0.00001   0.00048   0.00048   2.06914
   R13        2.06655   0.00001   0.00003  -0.00122  -0.00119   2.06536
   R14        2.06387   0.00012   0.00000   0.00100   0.00100   2.06487
    A1        1.95527  -0.00002  -0.00066  -0.00176  -0.00242   1.95285
    A2        2.08188   0.00007  -0.00010   0.00010   0.00000   2.08188
    A3        2.17634  -0.00008   0.00043   0.00099   0.00142   2.17776
    A4        2.02496   0.00001  -0.00033  -0.00110  -0.00143   2.02353
    A5        2.09669   0.00005   0.00007   0.00022   0.00029   2.09698
    A6        2.10915  -0.00003  -0.00005  -0.00047  -0.00052   2.10863
    A7        2.07734  -0.00002  -0.00002   0.00026   0.00023   2.07757
    A8        2.04023   0.00016  -0.00009   0.00029   0.00020   2.04043
    A9        2.11363   0.00021  -0.00007   0.00761   0.00754   2.12117
   A10        2.12924  -0.00036   0.00016  -0.00796  -0.00780   2.12144
   A11        2.07818  -0.00004  -0.00002  -0.00073  -0.00075   2.07742
   A12        2.10913   0.00003  -0.00004  -0.00009  -0.00013   2.10900
   A13        2.09588   0.00001   0.00007   0.00082   0.00089   2.09676
   A14        2.17624  -0.00005   0.00041   0.00105   0.00146   2.17769
   A15        2.08269   0.00008  -0.00007  -0.00036  -0.00043   2.08225
   A16        2.02426  -0.00003  -0.00033  -0.00070  -0.00103   2.02323
   A17        1.94154   0.00001   0.00006   0.00073   0.00078   1.94233
   A18        1.94483  -0.00011   0.00005  -0.00340  -0.00335   1.94148
   A19        1.93823   0.00013  -0.00004   0.00368   0.00364   1.94187
   A20        1.87143   0.00001  -0.00004   0.00107   0.00102   1.87245
   A21        1.87909   0.00001   0.00004  -0.00312  -0.00308   1.87601
   A22        1.88570  -0.00006  -0.00007   0.00096   0.00090   1.88660
    D1       -3.13628  -0.00008  -0.00002  -0.00241  -0.00243  -3.13872
    D2        0.00215  -0.00011   0.00003  -0.00558  -0.00555  -0.00341
    D3       -0.00337   0.00012  -0.00001   0.00516   0.00515   0.00178
    D4        3.13810   0.00006   0.00001   0.00212   0.00213   3.14023
    D5       -3.13878   0.00005  -0.00004   0.00493   0.00488  -3.13390
    D6        0.00243   0.00002  -0.00003   0.00262   0.00259   0.00502
    D7       -0.00026   0.00001   0.00001   0.00185   0.00186   0.00160
    D8        3.14095  -0.00001   0.00002  -0.00046  -0.00044   3.14051
    D9       -0.00581   0.00007   0.00001   0.00135   0.00137  -0.00444
   D10        3.12153   0.00013   0.00012  -0.00300  -0.00290   3.11863
   D11        3.13541   0.00005   0.00003  -0.00094  -0.00090   3.13450
   D12       -0.02044   0.00011   0.00013  -0.00529  -0.00517  -0.02561
   D13       -3.13700  -0.00005  -0.00002  -0.00140  -0.00141  -3.13841
   D14        0.00466  -0.00007   0.00000  -0.00174  -0.00174   0.00291
   D15        0.01898  -0.00012  -0.00012   0.00285   0.00272   0.02170
   D16       -3.12255  -0.00013  -0.00010   0.00251   0.00239  -3.12016
   D17       -1.19747   0.00002   0.00442  -0.27486  -0.27044  -1.46791
   D18        0.88988  -0.00003   0.00443  -0.27530  -0.27087   0.61902
   D19        2.99309  -0.00009   0.00435  -0.27387  -0.26952   2.72357
   D20        1.92913   0.00008   0.00452  -0.27935  -0.27483   1.65430
   D21       -2.26670   0.00003   0.00454  -0.27980  -0.27526  -2.54195
   D22       -0.16349  -0.00003   0.00446  -0.27837  -0.27391  -0.43740
   D23        0.00003  -0.00003   0.00000  -0.00177  -0.00177  -0.00174
   D24       -3.14144   0.00003  -0.00002   0.00118   0.00116  -3.14028
   D25       -3.14150  -0.00005   0.00002  -0.00212  -0.00211   3.13958
   D26        0.00022   0.00001  -0.00001   0.00083   0.00082   0.00104
         Item               Value     Threshold  Converged?
 Maximum Force            0.000806     0.000015     NO 
 RMS     Force            0.000181     0.000010     NO 
 Maximum Displacement     0.418494     0.000060     NO 
 RMS     Displacement     0.108481     0.000040     NO 
 Predicted change in Energy=-1.441428D-05
 GradGradGradGradGradGradGradGradGradGradGradGradGradGradGradGradGradGrad

                          Input orientation:                          
 ---------------------------------------------------------------------
 Center     Atomic      Atomic             Coordinates (Angstroms)
 Number     Number       Type             X           Y           Z
 ---------------------------------------------------------------------
      1          6           0        6.320452    6.975281    5.209965
      2          6           0        5.145508    6.189333    5.289156
      3          1           0        5.180299    5.227028    5.804238
      4          6           0        3.903746    6.553142    4.754182
      5          1           0        3.045146    5.891927    4.865460
      6          6           0        3.743857    7.763526    4.075660
      7          6           0        4.870759    8.580355    3.966614
      8          1           0        4.784224    9.533782    3.446798
      9          6           0        6.098412    8.187214    4.515089
     10          1           0        6.925970    8.887648    4.384193
     11          6           0        2.420593    8.158488    3.467436
     12          1           0        2.294183    7.720554    2.471879
     13          1           0        1.584314    7.815271    4.081731
     14          1           0        2.341177    9.243120    3.361532
 ---------------------------------------------------------------------
                    Distance matrix (angstroms):
                    1          2          3          4          5
     1  C    0.000000
     2  C    1.415796   0.000000
     3  H    2.170138   1.092039   0.000000
     4  C    2.495277   1.400188   2.119146   0.000000
     5  H    3.466983   2.163213   2.425339   1.089395   0.000000
     6  C    2.923495   2.432135   3.388977   1.396777   2.148223
     7  C    2.494753   2.746196   3.836336   2.380120   3.371711
     8  H    3.466220   3.835381   4.925700   3.371751   4.277861
     9  C    1.414545   2.344938   3.356715   2.746619   3.835823
    10  H    2.169262   3.357068   4.296979   3.836749   4.926130
    11  C    4.432301   3.823794   4.655113   2.536256   2.735295
    12  H    4.925788   4.290890   5.064775   3.026954   3.104360
    13  H    4.940597   4.096785   4.753644   2.724871   2.539195
    14  H    4.939072   4.572267   5.491486   3.408384   3.740036
                    6          7          8          9         10
     6  C    0.000000
     7  C    1.396069   0.000000
     8  H    2.147472   1.089367   0.000000
     9  C    2.432394   1.400899   2.163696   0.000000
    10  H    3.388906   2.119597   2.425546   1.092059   0.000000
    11  C    1.508960   2.535836   2.734704   3.824233   4.655162
    12  H    2.162294   3.100360   3.230877   4.343344   5.145143
    13  H    2.160171   3.376288   3.687254   4.550079   5.456625
    14  H    2.160252   2.684058   2.461754   4.069699   4.710894
                   11         12         13         14
    11  C    0.000000
    12  H    1.094942   0.000000
    13  H    1.092941   1.761961   0.000000
    14  H    1.092680   1.764058   1.769260   0.000000
 Symmetry turned off by external request.
 Stoichiometry    C7H7(1-)
 Framework group  C1[X(C7H7)]
 Deg. of freedom    36
 Full point group                 C1      NOp   1
 Rotational constants (GHZ):           5.7006441           2.5559491           1.7842460
 Standard basis: 6-311+G(d,p) (5D, 7F)
   196 basis functions,   308 primitive gaussians,   203 cartesian basis functions
    25 alpha electrons       25 beta electrons
       nuclear repulsion energy       257.9352054247 Hartrees.
 NAtoms=   14 NActive=   14 NUniq=   14 SFac= 1.00D+00 NAtFMM=   60 NAOKFM=F Big=F
 Integral buffers will be    131072 words long.
 Raffenetti 2 integral format.
 Two-electron integral symmetry is turned off.
 ------------------------------------------------------------------------------
 Polarizable Continuum Model (PCM)
 =================================
 Model                : PCM.
 Atomic radii         : SMD-Coulomb.
 Polarization charges : Total charges.
 Charge compensation  : None.
 Solution method      : Matrix inversion.
 Cavity type          : VdW (van der Waals Surface) (Alpha=1.000).
 Cavity algorithm     : GePol (No added spheres)
                        Default sphere list used, NSphG=   14.
                        Lebedev-Laikov grids with approx.  5.0 points / Ang**2.
                        Smoothing algorithm: York/Karplus (Gamma=1.0000).
                        Polarization charges: spherical gaussians, with
                                              point-specific exponents (IZeta= 3).
                        Self-potential: point-specific (ISelfS= 7).
                        Self-field    : sphere-specific E.n sum rule (ISelfD= 2).
 1st derivatives      : Analytical E(r).r(x)/FMM algorithm (CHGder, D1EAlg=3).
                        Cavity 1st derivative terms included.
 Solvent              : TetraHydroFuran, Eps=   7.425700 Eps(inf)=   1.974025
 ------------------------------------------------------------------------------
 Spheres list:
 ISph  on   Nord     Re0    Alpha      Xe            Ye            Ze
    1   C      1    1.8500  1.000      6.320452      6.975281      5.209965
    2   C      2    1.8500  1.000      5.145508      6.189333      5.289156
    3   H      3    1.2000  1.000      5.180299      5.227028      5.804238
    4   C      4    1.8500  1.000      3.903746      6.553142      4.754182
    5   H      5    1.2000  1.000      3.045146      5.891927      4.865460
    6   C      6    1.8500  1.000      3.743857      7.763526      4.075660
    7   C      7    1.8500  1.000      4.870759      8.580355      3.966614
    8   H      8    1.2000  1.000      4.784224      9.533782      3.446798
    9   C      9    1.8500  1.000      6.098412      8.187214      4.515089
   10   H     10    1.2000  1.000      6.925970      8.887648      4.384193
   11   C     11    1.8500  1.000      2.420593      8.158488      3.467436
   12   H     12    1.2000  1.000      2.294183      7.720554      2.471879
   13   H     13    1.2000  1.000      1.584314      7.815271      4.081731
   14   H     14    1.2000  1.000      2.341177      9.243120      3.361532
 ------------------------------------------------------------------------------
 ------------------------------------------------------------------------------
 Atomic radii for non-electrostatic terms: SMD-CDS.
 ------------------------------------------------------------------------------
 Nuclear repulsion after PCM non-electrostatic terms =      257.9323368284 Hartrees.
 One-electron integrals computed using PRISM.
 NBasis=   196 RedAO= T EigKep=  4.12D-06  NBF=   196
 NBsUse=   196 1.00D-06 EigRej= -1.00D+00 NBFU=   196
 Initial guess from the checkpoint file:  "4-Me-ph-anion-opt-freq-thf.chk"
 B after Tr=    -0.126556   -0.065617    0.244642
         Rot=    0.999967    0.007197   -0.002217    0.003148 Ang=   0.94 deg.
 ExpMin= 4.38D-02 ExpMax= 4.56D+03 ExpMxC= 6.82D+02 IAcc=3 IRadAn=         5 AccDes= 0.00D+00
[...]
 ! A21   A(12,11,14)           107.975          -DE/DX =    0.0                 !
 ! A22   A(13,11,14)           107.7232         -DE/DX =    0.0                 !
 ! D1    D(9,1,2,3)            179.8798         -DE/DX =    0.0                 !
 ! D2    D(9,1,2,4)             -0.0863         -DE/DX =    0.0                 !
 ! D3    D(2,1,9,7)              0.0886         -DE/DX =    0.0                 !
 ! D4    D(2,1,9,10)          -179.8945         -DE/DX =    0.0                 !
 ! D5    D(1,2,4,5)            179.9126         -DE/DX =    0.0                 !
 ! D6    D(1,2,4,6)             -0.004          -DE/DX =    0.0                 !
 ! D7    D(3,2,4,5)             -0.0544         -DE/DX =    0.0                 !
 ! D8    D(3,2,4,6)           -179.9711         -DE/DX =    0.0                 !
 ! D9    D(2,4,6,7)              0.0977         -DE/DX =    0.0                 !
 ! D10   D(2,4,6,11)          -179.3499         -DE/DX =    0.0                 !
 ! D11   D(5,4,6,7)           -179.8199         -DE/DX =    0.0                 !
 ! D12   D(5,4,6,11)             0.7325         -DE/DX =    0.0                 !
 ! D13   D(4,6,7,8)            179.8275         -DE/DX =    0.0                 !
 ! D14   D(4,6,7,9)             -0.0955         -DE/DX =    0.0                 !
 ! D15   D(11,6,7,8)            -0.7292         -DE/DX =    0.0                 !
 ! D16   D(11,6,7,9)           179.3478         -DE/DX =    0.0                 !
 ! D17   D(4,6,11,12)          -52.3678         -DE/DX =    0.0                 !
 ! D18   D(4,6,11,13)           67.2            -DE/DX =    0.0                 !
 ! D19   D(4,6,11,14)         -172.7596         -DE/DX =    0.0                 !
 ! D20   D(7,6,11,12)          128.2124         -DE/DX =    0.0                 !
 ! D21   D(7,6,11,13)         -112.2198         -DE/DX =    0.0                 !
 ! D22   D(7,6,11,14)            7.8206         -DE/DX =    0.0                 !
 ! D23   D(6,7,9,1)             -0.0007         -DE/DX =    0.0                 !
 ! D24   D(6,7,9,10)           179.9829         -DE/DX =    0.0                 !
 ! D25   D(8,7,9,1)           -179.9229         -DE/DX =    0.0                 !
 ! D26   D(8,7,9,10)             0.0607         -DE/DX =    0.0                 !
 --------------------------------------------------------------------------------
 GradGradGradGradGradGradGradGradGradGradGradGradGradGradGradGradGradGrad


 ----------------------------------------------------------------------

 Electric dipole moment (input orientation):
 (Debye = 10**-18 statcoulomb cm , SI units = C m)
                  (au)            (Debye)         (10**-30 SI)
   Tot        0.205189D+02      0.521538D+02      0.173966D+03
   x         -0.122068D+02     -0.310266D+02     -0.103494D+03
   y         -0.131355D+02     -0.333871D+02     -0.111367D+03
   z         -0.997385D+01     -0.253510D+02     -0.845618D+02

 Dipole polarizability, Alpha (input orientation).
 (esu units = cm**3 , SI units = C**2 m**2 J**-1)
 Alpha(0;0):
               (au)            (10**-24 esu)      (10**-40 SI)
   iso        0.129482D+03      0.191872D+02      0.213486D+02
   aniso      0.717197D+02      0.106278D+02      0.118250D+02
   xx         0.156544D+03      0.231974D+02      0.258106D+02
   yx        -0.625371D+00     -0.926705D-01     -0.103110D+00
   yy         0.130690D+03      0.193662D+02      0.215478D+02
   zx         0.226769D+02      0.336037D+01      0.373892D+01
   zy        -0.208190D+02     -0.308506D+01     -0.343259D+01
   zz         0.101211D+03      0.149980D+02      0.166875D+02

 ----------------------------------------------------------------------

 Dipole orientation:
     6         -0.16065046         -0.18220031        -20.34537826
     6         -1.42720923          0.39186070        -18.05854508
     1         -1.39346921          2.32712541        -17.34388546
     6         -2.75593208         -1.36227227        -16.59389719
     1         -3.67890102         -0.76735296        -14.85211345
     6         -2.92028055         -3.89353842        -17.33078934
     6         -1.70269438         -4.56621701        -19.56960210
     1         -1.78425120         -6.52295930        -20.20239193
     6         -0.38591698         -2.76239684        -20.99505547
     1          0.51114797         -3.45300218        -22.72014841
     6         -4.37283947         -5.79212364        -15.77606211
     1         -3.77118009         -5.76390435        -13.79896008
     1         -6.40172739         -5.39155357        -15.80393990
     1         -4.10039912         -7.70673155        -16.49752793

 Electric dipole moment (dipole orientation):
 (Debye = 10**-18 statcoulomb cm , SI units = C m)
                  (au)            (Debye)         (10**-30 SI)
   Tot        0.205189D+02      0.521538D+02      0.173966D+03
   x          0.000000D+00      0.000000D+00      0.000000D+00
   y          0.000000D+00      0.000000D+00      0.000000D+00
   z          0.205189D+02      0.521538D+02      0.173966D+03

 Dipole polarizability, Alpha (dipole orientation).
 (esu units = cm**3 , SI units = C**2 m**2 J**-1)
 Alpha(0;0):
               (au)            (10**-24 esu)      (10**-40 SI)
   iso        0.129482D+03      0.191872D+02      0.213486D+02
   aniso      0.717197D+02      0.106278D+02      0.118250D+02
   xx         0.108604D+03      0.160934D+02      0.179063D+02
   yx         0.187083D+02      0.277228D+01      0.308458D+01
   yy         0.147284D+03      0.218253D+02      0.242839D+02
   zx        -0.309266D+02     -0.458284D+01     -0.509910D+01
   zy        -0.519399D+01     -0.769670D+00     -0.856374D+00
   zz         0.132557D+03      0.196429D+02      0.218557D+02

 ----------------------------------------------------------------------
 Unable to Open any file for archive entry.
 1\1\GINC-CN018\Freq\RM062X\6-311+G(d,p)\C7H7(1-)\TAHMINAAFROZ\27-May-2
 025\0\\#N Geom=AllCheck Guess=TCheck SCRF=Check GenChk RM062X/6-311+G(
 d,p) Freq\\4-Me-ph-anion-opt-freq-thf\\-1,1\C,6.3154722821,6.983830242
 9,5.2221538192\C,5.1627857041,6.1608941956,5.2271233632\H,5.2138512041
 ,5.1725338641,5.6882664403\C,3.9281385846,6.5171879257,4.6744470969\H,
 3.0883872468,5.8243043266,4.7185160952\C,3.750591852,7.7592081816,4.05
 82377971\C,4.8550438922,8.6103130601,4.0229256344\H,4.7560147977,9.585
 6549081,3.5485012416\C,6.0792745062,8.2233192036,4.5861127961\H,6.8903
 519326,8.9507329819,4.5134907199\C,2.4180724467,8.157141283,3.47244123
 63\H,2.0420464404,7.3949692382,2.7840355275\H,1.6632198209,8.288209812
 2,4.2540255753\H,2.4953882898,9.0983687766,2.923657657\\Version=AS64L-
 G16RevC.01\HF=-270.9485128\RMSD=1.456e-09\RMSF=7.356e-06\ZeroPoint=0.1
 144492\Thermal=0.1206742\ETot=-270.8278386\HTot=-270.8268944\GTot=-270
 .8654926\Dipole=-3.675846,1.0870664,-1.6431992\DipoleDeriv=-0.4022515,
 -0.1407252,0.1878845,-0.1286499,-0.7995963,-0.041147,0.1812504,-0.0425
 05,-0.7318158,-0.1239498,0.1812434,-0.0469608,0.1923633,0.1879866,-0.1
 249932,-0.0492638,-0.1318486,-0.179609,0.0532022,-0.0152074,-0.010505,
 -0.0635365,-0.2276493,0.1322354,0.0094754,0.1469917,0.0447452,-0.17902
 65,-0.0357655,0.000974,0.1170719,0.0828813,-0.0625054,-0.0623475,-0.11
 13394,-0.0934394,-0.1516042,-0.1623982,-0.0295829,-0.1649577,-0.016249
 4,0.0320453,-0.0316781,0.031396,0.1463249,0.1995685,-0.1221598,0.15207
 8,-0.1208523,-0.2013582,-0.017748,0.1149975,-0.0027709,-0.1300541,-0.0
 587129,0.2080273,-0.0643073,0.0667611,-0.0005705,-0.03602,-0.0041237,0
 .0026592,-0.132332,0.060249,0.0455103,-0.0578668,0.0464731,-0.1577964,
 0.1662665,-0.059391,0.1687157,0.0797509,-0.1187844,0.1832139,-0.052877
 6,0.1652063,0.1929303,-0.1349187,-0.0351764,-0.1296701,-0.1686286,-0.0
 840654,-0.197006,0.029381,-0.1483612,-0.1361553,0.0627948,0.0054766,0.
 0475584,0.0861299,-0.0597466,0.0390608,-0.0724322,-0.0234684,0.1257079
 ,-0.0073984,0.0140118,-0.0033997,0.1268666,-0.027802,0.0021956,-0.0844
 015,-0.0532124,-0.0377562,-0.1147405,-0.1364419,-0.0698685,-0.0213728,
 -0.1447087,0.0648683,0.0338659,0.0703007,0.0922468,0.0136959,0.1018283
 ,-0.0120452,-0.0473713,0.0376322,-0.0508576,0.0147506,0.044862,-0.1046
 213,0.1324331,-0.0486176,0.1061265,0.0208055\Polar=156.5437539,-0.6253
 713,130.6895261,22.6769178,-20.818996,101.2114795\Quadrupole=-9.110523
 2,-30.551077,39.6616002,-158.983193,-122.0751487,-131.9933608\PG=C01 [
 X(C7H7)]\NImag=0\\0.36031375,0.07974077,0.42875894,0.05403802,-0.13615
 355,0.15484664,-0.22323367,-0.08144873,-0.01639455,0.56423485,-0.10161
 227,-0.15843598,0.01379311,0.03855436,0.59425427,-0.00736946,0.0202291
 5,-0.07012130,0.11646592,-0.19138931,0.26823448,0.00143889,-0.02241473
 ,0.01127752,-0.05476474,0.01309262,-0.01052433,0.05939326,-0.00212488,
 -0.01448748,0.00481763,0.01787730,-0.26220969,0.10579294,-0.01157670,0
 .28287012,0.00220559,-0.00163186,-0.00089063,-0.01275165,0.10434238,-0
 .09109073,0.01562943,-0.11928905,0.08504628,-0.04587718,-0.04304318,-0
 .00157395,-0.27124973,0.07208959,-0.09778209,-0.00010462,-0.00192504,-
 0.00060890,0.65064121,0.00383050,0.05357773,-0.01380343,0.00271471,-0.
 13021490,0.03021144,0.02664388,-0.00721623,0.01368665,0.08500934,0.601
 46339,-0.02285779,-0.02898788,0.02608315,-0.06621045,0.05231429,-0.109
 37908,-0.01348345,0.00469878,-0.00172912,0.12605113,-0.18321476,0.2559
 4671,-0.00366929,0.00168134,-0.00408972,-0.01548911,-0.02049639,0.0031
 2316,0.00063731,0.00081151,0.00110837,-0.21449728,-0.13401604,0.003647
 19,0.22557696,0.00053850,0.00184643,0.00231669,0.00745544,0.00808647,0
 .00055069,-0.00001019,0.00006468,-0.00181181,-0.13283599,-0.16402449,0
 .01466195,0.14677838,0.17082185,-0.00354105,0.00269568,0.00430174,-0.0
 0953777,-0.00834603,0.00477715,0.00147241,-0.00157132,-0.00280788,0.00
 310928,0.01410977,-0.04262672,-0.00194507,-0.01884188,0.03268300,-0.00
 838007,-0.02553419,0.01159568,0.02477377,0.03001358,-0.00804843,-0.003
 70178,0.00151508,-0.00451040,-0.12248345,0.04690289,-0.03857723,0.0040
 6672,-0.02340034,0.01046902,0.62798709,-0.02663377,-0.06078288,0.01514
 731,0.08401315,0.00111601,0.02959354,0.00010548,0.00307062,0.00246097,
 -0.01977049,-0.27215255,0.08530752,0.00299477,-0.01298523,0.00849762,0
 .06079694,0.58735825,0.01201619,0.01545077,-0.01171303,-0.03286017,0.0
 1226313,-0.00808421,-0.00378035,0.00282639,0.00569371,-0.00823647,0.10
 676551,-0.11913287,-0.00122143,-0.00006006,0.00299587,0.11536257,-0.17
 004730,0.28142393,0.02599315,0.07347721,-0.03160812,-0.06927846,-0.008
 77542,-0.01510049,-0.00140827,-0.00029102,0.00007069,0.04164230,-0.062
 01728,0.03891629,0.00243239,0.00141189,-0.00224855,-0.24789051,-0.0707
 9158,-0.02431133,0.61660253,0.02650794,0.00446867,0.01595540,-0.015338
 29,-0.00629069,-0.00618794,-0.00053596,0.00033509,-0.00090408,-0.01407
 518,-0.04214702,0.01831554,0.00053535,-0.00294411,0.00502150,-0.139963
 13,-0.19303673,0.01319167,0.05958470,0.62570852,-0.01030562,0.03108906
 ,0.00374692,-0.01245462,-0.00415393,-0.01127913,0.00018929,-0.00084395
 ,-0.00086457,0.01726074,0.00301326,0.01264369,-0.00193827,0.00522387,0
 .00471803,0.00684577,0.03560872,-0.08114257,0.12480110,-0.20426941,0.2
 6650463,-0.00364890,0.00063394,-0.00354310,-0.00133425,-0.00027443,-0.
 00017615,0.00010068,0.00028902,0.00050686,-0.00292436,-0.00401960,-0.0
 0149997,0.00022433,-0.00127706,0.00051059,0.00485113,-0.02103620,0.009
 92035,-0.05766782,0.01987007,-0.01585908,0.05590763,0.00172574,0.00187
 619,0.00270531,-0.00011952,0.00046467,-0.00042213,0.00026958,-0.000419
 35,-0.00059791,-0.00479741,0.00068965,0.00163076,0.00019106,-0.0008211
 0,0.00062298,0.00469871,-0.01449167,0.00973805,0.01778559,-0.27046390,
 0.11179991,-0.01926285,0.28666529,-0.00401725,0.00231290,0.00418569,-0
 .00026367,-0.00045250,-0.00023452,0.00051758,-0.00057953,-0.00148348,-
 0.00114673,0.00175100,0.00637287,-0.00014377,0.00017794,0.00033629,-0.
 00204048,0.00158043,0.00223356,-0.01478279,0.11265216,-0.09261375,0.01
 870358,-0.12498250,0.08768406,-0.10856604,0.01356268,-0.02202823,0.040
 42034,-0.02135725,0.02286391,-0.00147616,-0.00481582,-0.00157124,-0.02
 740574,0.03168327,-0.02053143,-0.00019088,0.00079408,-0.00032504,-0.05
 279022,-0.04798942,0.00230464,-0.26391073,0.07158530,-0.09480734,0.002
 94016,-0.00241380,0.00087385,0.61391904,0.03356138,-0.23994730,0.09526
 865,-0.04741303,-0.03939689,0.00236021,-0.00579104,-0.00044140,0.00300
 335,0.02445346,-0.03477005,0.01975840,0.00101746,-0.00024788,0.0003008
 5,0.00518646,0.05454712,-0.01913665,0.00244202,-0.13064957,0.02953990,
 0.02529583,-0.00441091,0.01167665,0.09127870,0.55789324,-0.03097791,0.
 08906607,-0.10508727,0.03458080,0.01059346,0.00500971,-0.00112737,0.00
 334712,0.00845466,-0.01705856,0.02189767,-0.02391377,-0.00040323,0.000
 22618,-0.00054602,-0.02136633,-0.03656264,0.01685800,-0.06374333,0.051
 61569,-0.10920818,-0.01165609,0.00286924,-0.00126168,0.10745674,-0.161
 22280,0.24768185,0.00716179,0.00340253,0.00162980,0.00326536,-0.000289
 72,-0.00224084,0.00004516,0.00015219,-0.00004115,0.00012187,0.00119670
 ,-0.00005709,-0.00014573,0.00003819,0.00056023,-0.00290200,0.00240427,
 -0.00443983,-0.02002080,-0.02146343,0.00196475,0.00068685,0.00084584,0
 .00103475,-0.20177322,-0.12644792,0.00578028,0.21491417,-0.01694245,-0
 .01856641,0.00182817,-0.00126219,-0.00355969,0.00608992,-0.00111310,-0
 .00091472,0.00004237,0.00093192,-0.00073857,0.00000707,0.00002234,-0.0
 0024701,-0.00078200,0.00094350,0.00244365,0.00267937,0.00708234,0.0064
 3756,0.00139194,0.00001042,0.00001345,-0.00171975,-0.13104373,-0.16045
 340,0.01390822,0.14117254,0.17546981,0.01081672,0.00817495,-0.00303875
 ,-0.00178801,0.00638853,0.00730671,0.00053611,0.00045617,-0.00005828,0
 .00003667,0.00009175,-0.00143520,0.00057925,-0.00076421,-0.00145365,-0
 .00392580,0.00311415,0.00515101,-0.01093539,-0.00761539,0.00455234,0.0
 0140829,-0.00146420,-0.00267447,0.00789472,0.01546809,-0.04361463,-0.0
 0413088,-0.02357752,0.03509634,-0.00174927,-0.00035923,0.00067943,0.00
 441538,-0.00182269,-0.00007099,0.00025217,-0.00028552,0.00019194,-0.00
 522217,0.00536693,-0.00518971,0.00049516,-0.00032726,0.00146922,-0.192
 18224,0.02758612,-0.05005495,-0.02450276,0.00736168,-0.01211830,0.0010
 1266,0.00171874,0.00091982,0.00040075,-0.00335267,-0.00099737,-0.00069
 164,0.00024629,-0.00034747,0.50465850,0.00034030,-0.00002759,-0.001320
 25,-0.00262085,-0.00379200,0.00315342,0.00115359,-0.00046455,0.0006861
 5,0.02961359,-0.00563340,0.01287403,0.00069446,0.00072012,-0.00115157,
 0.03141565,-0.09415149,0.02130523,-0.01614069,0.00877832,-0.00682389,-
 0.00052062,-0.00012399,-0.00240870,-0.00330556,-0.00077613,0.00356256,
 -0.00112382,0.00011556,-0.00032801,0.02285935,0.57195455,0.00046633,-0
 .00146415,-0.00227812,0.00067046,0.00406288,0.00427257,-0.00057307,0.0
 0024129,-0.00000795,-0.01653883,0.00563862,-0.00459724,0.00066750,-0.0
 0178914,-0.00170856,-0.05295224,0.02046156,-0.09349095,-0.00237923,0.0
 0047854,0.00334517,0.00201669,-0.00120795,-0.00291146,-0.00108043,0.00
 271055,0.00646680,0.00017415,0.00015216,0.00024807,-0.01867197,-0.0066
 3786,0.54119017,0.00020433,-0.00007676,-0.00047271,-0.00100171,0.00019
 918,0.00062073,0.00001346,0.00005155,-0.00003454,0.00127713,-0.0013360
 7,0.00157244,0.00050241,0.00018749,-0.00048697,-0.01239764,-0.02096095
 ,-0.01805225,-0.00225265,0.00230305,-0.00239013,0.00017913,-0.00019026
 ,-0.00050030,-0.00124599,0.00022719,0.00116011,-0.00040418,0.00002743,
 -0.00005203,-0.07251573,-0.06216912,-0.05612258,0.08187690,0.00051505,
 0.00061711,-0.00035573,-0.00102664,0.00033097,-0.00001943,-0.00003463,
 -0.00001130,-0.00006684,0.00110833,0.00013616,0.00074130,-0.00004124,-
 0.00022499,-0.00043114,0.00298978,0.00787780,0.00738527,-0.00046045,-0
 .00017099,-0.00008835,0.00011971,0.00016134,-0.00017433,0.00072359,-0.
 00048491,0.00039449,0.00004462,-0.00004202,-0.00005792,-0.06246784,-0.
 17948946,-0.11733584,0.06680737,0.19135690,0.00006791,0.00006160,-0.00
 017965,-0.00051250,0.00005192,0.00014095,-0.00001051,0.00004556,-0.000
 03207,-0.00011308,-0.00033197,0.00132527,0.00016155,0.00024915,-0.0003
 9108,-0.00378007,-0.00702097,-0.00620452,-0.00012863,0.00112717,-0.000
 89737,0.00001683,-0.00013330,0.00007607,-0.00030308,0.00001439,0.00018
 121,-0.00016823,0.00003228,0.00001183,-0.05625834,-0.11772754,-0.15148
 355,0.06300899,0.12936249,0.16044774,0.00000486,0.00055384,0.00044521,
 -0.00102232,-0.00064230,-0.00136300,-0.00003344,0.00009812,-0.00004411
 ,0.00139870,-0.00200422,0.00038299,0.00003028,0.00058855,0.00052101,-0
 .02153262,0.00287105,0.01804955,-0.00134250,0.00229494,-0.00115113,-0.
 00019357,0.00022080,0.00059262,-0.00025329,-0.00064638,-0.00155803,-0.
 00029173,-0.00005602,-0.00014118,-0.16586867,0.02135779,0.13247993,0.0
 0760534,-0.00038890,-0.00796951,0.18324567,0.00041010,0.00076629,-0.00
 019167,-0.00080274,0.00008244,-0.00009153,-0.00001049,-0.00003301,0.00
 002280,0.00100426,0.00017265,0.00084193,-0.00013998,-0.00021681,0.0000
 3604,0.00558220,-0.00085902,-0.00550388,-0.00132149,-0.00064490,-0.000
 47717,-0.00007447,0.00022486,0.00011908,0.00085271,-0.00076615,0.00042
 376,0.00001852,0.00003367,0.00010854,0.02156184,-0.04966349,-0.0221323
 5,0.01638094,-0.00239756,-0.01724676,-0.02418729,0.04844554,-0.0003696
 4,-0.00044812,0.00008037,0.00055853,-0.00024419,0.00010070,0.00004274,
 -0.00000097,-0.00000511,-0.00038938,0.00006762,0.00047507,0.00031571,-
 0.00004412,-0.00014226,-0.01114943,0.00182508,0.01227950,-0.00007099,0
 .00041945,-0.00018105,-0.00006918,-0.00007875,0.00015035,-0.00041578,0
 .00009785,-0.00083602,-0.00006262,-0.00001808,-0.00004974,0.13066234,-
 0.02131796,-0.18461788,0.01305067,-0.00147884,-0.01495386,-0.14133489,
 0.02384122,0.19891804,0.00000766,-0.00017548,0.00004471,0.00026429,0.0
 0132114,-0.00039793,-0.00039190,0.00022421,-0.00015088,-0.00531668,0.0
 0004499,-0.00216293,0.00002674,0.00005832,-0.00002731,0.00258183,0.026
 41063,-0.01469652,0.00160413,0.00133295,-0.00003716,-0.00013366,-0.000
 67225,0.00025280,-0.00006803,0.00018853,-0.00008970,0.00003409,-0.0000
 1927,0.00004900,-0.04850215,-0.02155408,0.01184329,-0.00184079,-0.0078
 8874,0.00598866,-0.00174670,-0.01927411,0.00923192,0.05348117,0.000143
 07,0.00033628,-0.00000765,-0.00058295,-0.00043498,0.00012902,0.0002216
 9,-0.00014281,0.00005688,0.00223679,0.00085765,0.00105106,-0.00003302,
 0.00017208,-0.00016051,-0.00114713,-0.00795389,0.00314249,-0.00198582,
 0.00061976,-0.00100994,0.00024623,0.00063547,0.00004716,0.00044525,-0.
 00009576,-0.00011903,0.00004948,0.00000812,0.00000508,-0.01808575,-0.2
 4744645,0.11682169,-0.00145104,-0.01765906,0.01151597,-0.00005998,0.00
 485549,-0.00262018,0.02000316,0.26624809,-0.00017203,-0.00039461,0.000
 06424,0.00049768,0.00077625,0.00034669,-0.00016600,0.00005895,-0.00022
 485,-0.00300981,0.00011686,-0.00003278,0.00013876,-0.00009525,-0.00013
 592,0.00207737,0.01003400,-0.00686743,0.00152077,0.00019971,0.00067582
 ,-0.00027964,-0.00047953,0.00014046,-0.00033129,0.00016056,-0.00018466
 ,-0.00000333,-0.00003414,-0.00004157,0.00978634,0.11613439,-0.11442708
 ,-0.00130144,-0.01787514,0.01195901,0.00109055,0.02024999,-0.01121813,
 -0.00984795,-0.12885205,0.11994620\\-0.00000143,-0.00000348,-0.0000021
 2,0.00000105,-0.00000667,-0.00000905,0.00000270,-0.00001037,-0.0000188
 7,0.00000101,-0.00000437,-0.00000989,0.00000280,-0.00000640,-0.0000174
 9,0.00000053,0.00000209,-0.00000069,-0.00000205,0.00000356,0.00000948,
 -0.00000280,0.00000730,0.00001765,-0.00000025,0.00000216,0.00000911,-0
 .00000315,0.00000406,0.00001698,-0.00000062,0.00000175,0.00000077,0.00
 000395,0.00000777,-0.00000640,-0.00000157,-0.00000479,0.00000077,-0.00
 000016,0.00000738,0.00000974\\\@
 The archive entry for this job was punched.


 THE MOST INCOMPREHENSIBLE THING ABOUT THE WORLD
 IS THAT IT IS COMPREHENSIBLE. -- A. EINSTEIN
 Job cpu time:       0 days  0 hours 21 minutes 59.8 seconds.
 Elapsed time:       0 days  0 hours  0 minutes 43.8 seconds.
 File lengths (MBytes):  RWF=     80 Int=      0 D2E=      0 Chk=     11 Scr=      1
 Normal termination of Gaussian 16 at Tue May 27 07:58:48 2025.
