/home/tahminaafroz
cn015.cluster.local
tahminaafroz
Mon Apr 21 11:58:01 CDT 2025
 Entering Gaussian System, Link 0=g16
 Initial command:
 /home/apps/g16/l1.exe "/tmp/4-br-phboh2-opt-freq-thf/Gau-1297292.inp" -scrdir="/tmp/4-br-phboh2-opt-freq-thf/"
 Entering Link 1 = /home/apps/g16/l1.exe PID=   1297293.
  
 Copyright (c) 1988-2019, Gaussian, Inc.  All Rights Reserved.
  
 This is part of the Gaussian(R) 16 program.  It is based on
 the Gaussian(R) 09 system (copyright 2009, Gaussian, Inc.),
 the Gaussian(R) 03 system (copyright 2003, Gaussian, Inc.),
 the Gaussian(R) 98 system (copyright 1998, Gaussian, Inc.),
 the Gaussian(R) 94 system (copyright 1995, Gaussian, Inc.),
 the Gaussian 92(TM) system (copyright 1992, Gaussian, Inc.),
 the Gaussian 90(TM) system (copyright 1990, Gaussian, Inc.),
 the Gaussian 88(TM) system (copyright 1988, Gaussian, Inc.),
 the Gaussian 86(TM) system (copyright 1986, Carnegie Mellon
 University), and the Gaussian 82(TM) system (copyright 1983,
 Carnegie Mellon University). Gaussian is a federally registered
 trademark of Gaussian, Inc.
  
 This software contains proprietary and confidential information,
 including trade secrets, belonging to Gaussian, Inc.
  
 This software is provided under written license and may be
 used, copied, transmitted, or stored only in accord with that
 written license.
  
 The following legend is applicable only to US Government
 contracts under FAR:
  
                    RESTRICTED RIGHTS LEGEND
  
 Use, reproduction and disclosure by the US Government is
 subject to restrictions as set forth in subparagraphs (a)
 and (c) of the Commercial Computer Software - Restricted
 Rights clause in FAR 52.227-19.
  
 Gaussian, Inc.
 340 Quinnipiac St., Bldg. 40, Wallingford CT 06492
  
  
 ---------------------------------------------------------------
 Warning -- This program may not be used in any manner that
 competes with the business of Gaussian, Inc. or will provide
 assistance to any competitor of Gaussian, Inc.  The licensee
 of this program is prohibited from giving any competitor of
 Gaussian, Inc. access to this program.  By using this program,
 the user acknowledges that Gaussian, Inc. is engaged in the
 business of creating and licensing software in the field of
 computational chemistry and represents and warrants to the
 licensee that it is not a competitor of Gaussian, Inc. and that
 it will not use this program in any manner prohibited above.
 ---------------------------------------------------------------
  

 Cite this work as:
 Gaussian 16, Revision C.01,
 M. J. Frisch, G. W. Trucks, H. B. Schlegel, G. E. Scuseria, 
 M. A. Robb, J. R. Cheeseman, G. Scalmani, V. Barone, 
 G. A. Petersson, H. Nakatsuji, X. Li, M. Caricato, A. V. Marenich, 
 J. Bloino, B. G. Janesko, R. Gomperts, B. Mennucci, H. P. Hratchian, 
 J. V. Ortiz, A. F. Izmaylov, J. L. Sonnenberg, D. Williams-Young, 
 F. Ding, F. Lipparini, F. Egidi, J. Goings, B. Peng, A. Petrone, 
 T. Henderson, D. Ranasinghe, V. G. Zakrzewski, J. Gao, N. Rega, 
 G. Zheng, W. Liang, M. Hada, M. Ehara, K. Toyota, R. Fukuda, 
 J. Hasegawa, M. Ishida, T. Nakajima, Y. Honda, O. Kitao, H. Nakai, 
 T. Vreven, K. Throssell, J. A. Montgomery, Jr., J. E. Peralta, 
 F. Ogliaro, M. J. Bearpark, J. J. Heyd, E. N. Brothers, K. N. Kudin, 
 V. N. Staroverov, T. A. Keith, R. Kobayashi, J. Normand, 
 K. Raghavachari, A. P. Rendell, J. C. Burant, S. S. Iyengar, 
 J. Tomasi, M. Cossi, J. M. Millam, M. Klene, C. Adamo, R. Cammi, 
 J. W. Ochterski, R. L. Martin, K. Morokuma, O. Farkas, 
 J. B. Foresman, and D. J. Fox, Gaussian, Inc., Wallingford CT, 2019.
 
 ******************************************
 Gaussian 16:  AS64L-G16RevC.01  3-Jul-2019
                21-Apr-2025 
 ******************************************
 %mem=20GB
 %nprocshared=32
 Will use up to   32 processors via shared memory.
 %chk=4-br-phboh2-opt-freq-thf.chk
 ----------------------------------------------------------------------
 # opt=(calcfc,tight) freq 6-311+g(d,p) scrf=(smd,solvent=thf) nosymm s
 cf=(qc,fermi,xqc) geom=connectivity int=ultrafine m062x
 ----------------------------------------------------------------------
 1/7=10,10=4,18=20,19=15,26=6,38=1,57=2/1,3;
 2/9=110,12=2,15=1,17=6,18=5,40=1/2;
 3/5=4,6=6,7=111,11=2,25=1,30=1,70=32201,71=2,72=20,74=-55,75=-5,140=1/1,2,3;
 4//1;
 5/5=2,22=13,38=5,53=20/2;
 8/6=4,10=90,11=11/1;
 11/6=1,8=1,9=11,15=111,16=1,31=1/1,2,10;
 10/6=1,13=1,31=1/2;
 6/7=2,8=2,9=2,10=2,28=1/1;
 7/10=1,25=1,30=1/1,2,3,16;
 1/7=10,10=4,18=20,19=15,26=6/3(2);
 2/9=110,15=1/2;
 99//99;
 2/9=110,15=1/2;
 3/5=4,6=6,7=111,11=2,25=1,30=1,70=32205,71=1,72=20,74=-55,75=-5/1,2,3;
 4/5=5,16=3,69=1/1;
 5/5=2,22=13,38=5,53=20/2;
 7/30=1/1,2,3,16;
 1/7=10,18=20,19=15,26=6/3(-5);
 2/9=110,15=1/2;
 6/7=2,8=2,9=2,10=2,19=2,28=1/1;
 99/9=1/99;
 ------------------------
 4-br-phboh2-opt-freq-thf
 ------------------------
 Symbolic Z-matrix:
 Charge =  0 Multiplicity = 1
 O                     8.68488   7.45597   5.54071 
 H                     9.49815   7.1495    5.952 
 C                     6.2426    6.99495   5.17236 
 B                     7.63981   6.61429   5.77259 
 O                     7.87677   5.49184   6.51726 
 H                     7.1074    4.94275   6.67491 
 C                     5.11751   6.17311   5.28716 
 H                     5.17717   5.2179    5.80176 
 C                     3.88827   6.53618   4.74914 
 H                     3.02409   5.89163   4.84399 
 C                     3.78655   7.74953   4.08108 
 C                     4.88098   8.59415   3.94235 
 H                     4.77865   9.53465   3.41657 
 C                     6.09859   8.20755   4.48809 
 H                     6.96014   8.8575    4.38492 
 Br                    2.11435   8.26387   3.34218 
 

 GradGradGradGradGradGradGradGradGradGradGradGradGradGradGradGradGradGrad
 Berny optimization.
 Initialization pass.
                           ----------------------------
                           !    Initial Parameters    !
                           ! (Angstroms and Degrees)  !
 --------------------------                            --------------------------
 ! Name  Definition              Value          Derivative Info.                !
 --------------------------------------------------------------------------------
 ! R1    R(1,2)                  0.9615         calculate D2E/DX2 analytically  !
 ! R2    R(1,4)                  1.3617         calculate D2E/DX2 analytically  !
 ! R3    R(3,4)                  1.5676         calculate D2E/DX2 analytically  !
 ! R4    R(3,7)                  1.398          calculate D2E/DX2 analytically  !
 ! R5    R(3,14)                 1.3998         calculate D2E/DX2 analytically  !
 ! R6    R(4,5)                  1.3677         calculate D2E/DX2 analytically  !
 ! R7    R(5,6)                  0.9583         calculate D2E/DX2 analytically  !
 ! R8    R(7,8)                  1.0866         calculate D2E/DX2 analytically  !
 ! R9    R(7,9)                  1.3901         calculate D2E/DX2 analytically  !
 ! R10   R(9,10)                 1.0822         calculate D2E/DX2 analytically  !
 ! R11   R(9,11)                 1.3888         calculate D2E/DX2 analytically  !
 ! R12   R(11,12)                1.3894         calculate D2E/DX2 analytically  !
 ! R13   R(11,16)                1.8991         calculate D2E/DX2 analytically  !
 ! R14   R(12,13)                1.0823         calculate D2E/DX2 analytically  !
 ! R15   R(12,14)                1.3892         calculate D2E/DX2 analytically  !
 ! R16   R(14,15)                1.0841         calculate D2E/DX2 analytically  !
 ! A1    A(2,1,4)              112.2895         calculate D2E/DX2 analytically  !
 ! A2    A(4,3,7)              122.8954         calculate D2E/DX2 analytically  !
 ! A3    A(4,3,14)             119.2901         calculate D2E/DX2 analytically  !
 ! A4    A(7,3,14)             117.8144         calculate D2E/DX2 analytically  !
 ! A5    A(1,4,3)              117.9524         calculate D2E/DX2 analytically  !
 ! A6    A(1,4,5)              117.8401         calculate D2E/DX2 analytically  !
 ! A7    A(3,4,5)              124.2074         calculate D2E/DX2 analytically  !
 ! A8    A(4,5,6)              114.8807         calculate D2E/DX2 analytically  !
 ! A9    A(3,7,8)              120.7618         calculate D2E/DX2 analytically  !
 ! A10   A(3,7,9)              121.7585         calculate D2E/DX2 analytically  !
 ! A11   A(8,7,9)              117.4792         calculate D2E/DX2 analytically  !
 ! A12   A(7,9,10)             121.1077         calculate D2E/DX2 analytically  !
 ! A13   A(7,9,11)             118.6282         calculate D2E/DX2 analytically  !
 ! A14   A(10,9,11)            120.2641         calculate D2E/DX2 analytically  !
 ! A15   A(9,11,12)            121.4285         calculate D2E/DX2 analytically  !
 ! A16   A(9,11,16)            119.2254         calculate D2E/DX2 analytically  !
 ! A17   A(12,11,16)           119.3461         calculate D2E/DX2 analytically  !
 ! A18   A(11,12,13)           120.1511         calculate D2E/DX2 analytically  !
 ! A19   A(11,12,14)           118.817          calculate D2E/DX2 analytically  !
 ! A20   A(13,12,14)           121.0319         calculate D2E/DX2 analytically  !
 ! A21   A(3,14,12)            121.5528         calculate D2E/DX2 analytically  !
 ! A22   A(3,14,15)            118.9546         calculate D2E/DX2 analytically  !
 ! A23   A(12,14,15)           119.4926         calculate D2E/DX2 analytically  !
 ! D1    D(2,1,4,3)            179.4301         calculate D2E/DX2 analytically  !
 ! D2    D(2,1,4,5)             -0.4327         calculate D2E/DX2 analytically  !
 ! D3    D(7,3,4,1)            176.5809         calculate D2E/DX2 analytically  !
 ! D4    D(7,3,4,5)             -3.5658         calculate D2E/DX2 analytically  !
 ! D5    D(14,3,4,1)            -3.4021         calculate D2E/DX2 analytically  !
 ! D6    D(14,3,4,5)           176.4512         calculate D2E/DX2 analytically  !
 ! D7    D(4,3,7,8)             -0.4603         calculate D2E/DX2 analytically  !
 ! D8    D(4,3,7,9)            179.7933         calculate D2E/DX2 analytically  !
 ! D9    D(14,3,7,8)           179.5229         calculate D2E/DX2 analytically  !
 ! D10   D(14,3,7,9)            -0.2235         calculate D2E/DX2 analytically  !
 ! D11   D(4,3,14,12)         -179.7332         calculate D2E/DX2 analytically  !
 ! D12   D(4,3,14,15)            0.2076         calculate D2E/DX2 analytically  !
 ! D13   D(7,3,14,12)            0.283          calculate D2E/DX2 analytically  !
 ! D14   D(7,3,14,15)         -179.7763         calculate D2E/DX2 analytically  !
 ! D15   D(1,4,5,6)            178.364          calculate D2E/DX2 analytically  !
 ! D16   D(3,4,5,6)             -1.4894         calculate D2E/DX2 analytically  !
 ! D17   D(3,7,9,10)           179.9829         calculate D2E/DX2 analytically  !
 ! D18   D(3,7,9,11)             0.0384         calculate D2E/DX2 analytically  !
 ! D19   D(8,7,9,10)             0.2286         calculate D2E/DX2 analytically  !
 ! D20   D(8,7,9,11)          -179.7159         calculate D2E/DX2 analytically  !
 ! D21   D(7,9,11,12)            0.0976         calculate D2E/DX2 analytically  !
 ! D22   D(7,9,11,16)         -179.8882         calculate D2E/DX2 analytically  !
 ! D23   D(10,9,11,12)        -179.8474         calculate D2E/DX2 analytically  !
 ! D24   D(10,9,11,16)           0.1668         calculate D2E/DX2 analytically  !
 ! D25   D(9,11,12,13)         179.9275         calculate D2E/DX2 analytically  !
 ! D26   D(9,11,12,14)          -0.0401         calculate D2E/DX2 analytically  !
 ! D27   D(16,11,12,13)         -0.0866         calculate D2E/DX2 analytically  !
 ! D28   D(16,11,12,14)        179.9457         calculate D2E/DX2 analytically  !
 ! D29   D(11,12,14,3)          -0.1558         calculate D2E/DX2 analytically  !
 ! D30   D(11,12,14,15)        179.9038         calculate D2E/DX2 analytically  !
 ! D31   D(13,12,14,3)         179.8769         calculate D2E/DX2 analytically  !
 ! D32   D(13,12,14,15)         -0.0636         calculate D2E/DX2 analytically  !
 --------------------------------------------------------------------------------
 Trust Radius=3.00D-01 FncErr=5.00D-06 GrdErr=5.00D-06 EigMax=2.50D+02 EigMin=1.00D-04
 Number of steps in this run=     81 maximum allowed number of steps=    100.
 GradGradGradGradGradGradGradGradGradGradGradGradGradGradGradGradGradGrad

                          Input orientation:                          
 ---------------------------------------------------------------------
 Center     Atomic      Atomic             Coordinates (Angstroms)
 Number     Number       Type             X           Y           Z
 ---------------------------------------------------------------------
      1          8           0        8.684881    7.455970    5.540714
      2          1           0        9.498150    7.149504    5.951999
      3          6           0        6.242598    6.994953    5.172357
      4          5           0        7.639813    6.614287    5.772586
      5          8           0        7.876771    5.491844    6.517256
      6          1           0        7.107399    4.942752    6.674912
      7          6           0        5.117512    6.173113    5.287159
      8          1           0        5.177165    5.217898    5.801758
      9          6           0        3.888273    6.536175    4.749139
     10          1           0        3.024094    5.891631    4.843988
     11          6           0        3.786551    7.749526    4.081084
     12          6           0        4.880975    8.594145    3.942349
     13          1           0        4.778652    9.534651    3.416566
     14          6           0        6.098594    8.207551    4.488090
     15          1           0        6.960137    8.857503    4.384917
     16         35           0        2.114354    8.263866    3.342179
 ---------------------------------------------------------------------
                    Distance matrix (angstroms):
                    1          2          3          4          5
     1  O    0.000000
     2  H    0.961501   0.000000
     3  C    2.512562   3.351171   0.000000
     4  B    1.361750   1.942180   1.567607   0.000000
     5  O    2.337620   2.386676   2.595884   1.367684   0.000000
     6  H    3.176652   3.332874   2.686463   1.972736   0.958275
     7  C    3.799491   4.537107   1.398005   2.606200   3.096898
     8  H    4.169074   4.735460   2.165460   2.831146   2.806217
     9  C    4.947733   5.770075   2.435659   3.889421   4.486088
    10  H    5.914143   6.687551   3.418174   4.763338   5.148605
    11  C    5.119603   6.040092   2.791491   4.358621   5.268962
    12  C    4.280177   5.238701   2.433999   3.857563   5.022869
    13  H    4.908314   5.864385   3.417017   4.718644   5.962961
    14  C    2.891673   3.849607   1.399769   2.561987   3.828119
    15  H    2.504976   3.437225   2.145697   2.723895   4.088367
    16  Br   6.975534   7.910335   4.690639   6.257690   7.139375
                    6          7          8          9         10
     6  H    0.000000
     7  C    2.720165   0.000000
     8  H    2.136330   1.086649   0.000000
     9  C    4.075582   1.390075   2.122994   0.000000
    10  H    4.574498   2.158247   2.450909   1.082238   0.000000
    11  C    5.062999   2.389802   3.362093   1.388836   2.148287
    12  C    5.075090   2.779543   3.865770   2.423140   3.400668
    13  H    6.093063   3.861850   4.947960   3.399909   4.288077
    14  C    4.056943   2.395824   3.393049   2.783373   3.865579
    15  H    4.537735   3.378647   4.293385   3.867502   4.949705
    16  Br   6.860569   4.144050   4.970741   2.848024   2.951365
                   11         12         13         14         15
    11  C    0.000000
    12  C    1.389386   0.000000
    13  H    2.147678   1.082344   0.000000
    14  C    2.391858   1.389203   2.156758   0.000000
    15  H    3.375141   2.141994   2.480949   1.084130   0.000000
    16  Br   1.899150   2.850172   2.952780   4.146137   4.992126
                   16
    16  Br   0.000000
 Symmetry turned off by external request.
 Stoichiometry    C6H6BBrO2
 Framework group  C1[X(C6H6BBrO2)]
 Deg. of freedom    42
 Full point group                 C1      NOp   1
 Rotational constants (GHZ):           3.6910650           0.3515133           0.3209989
 Standard basis: 6-311+G(d,p) (5D, 7F)
   282 basis functions,   466 primitive gaussians,   294 cartesian basis functions
    49 alpha electrons       49 beta electrons
       nuclear repulsion energy       678.8817829664 Hartrees.
 NAtoms=   16 NActive=   16 NUniq=   16 SFac= 1.00D+00 NAtFMM=   60 NAOKFM=F Big=F
 Integral buffers will be    131072 words long.
 Raffenetti 2 integral format.
 Two-electron integral symmetry is turned off.
 Force inversion solution in PCM.
 ------------------------------------------------------------------------------
 Polarizable Continuum Model (PCM)
 =================================
 Model                : PCM.
 Atomic radii         : SMD-Coulomb.
 Polarization charges : Total charges.
 Charge compensation  : None.
 Solution method      : Matrix inversion.
 Cavity type          : VdW (van der Waals Surface) (Alpha=1.000).
 Cavity algorithm     : GePol (No added spheres)
                        Default sphere list used, NSphG=   16.
                        Lebedev-Laikov grids with approx.  5.0 points / Ang**2.
                        Smoothing algorithm: York/Karplus (Gamma=1.0000).
                        Polarization charges: spherical gaussians, with
                                              point-specific exponents (IZeta= 3).
                        Self-potential: point-specific (ISelfS= 7).
                        Self-field    : sphere-specific E.n sum rule (ISelfD= 2).
 1st derivatives      : Analytical E(r).r(x)/FMM algorithm (CHGder, D1EAlg=3).
                        Cavity 1st derivative terms included.
 2nd derivatives      : Analytical E(r).r(xy)/FMM algorithm (CHGder, D2EAlg=3).
                        Cavity 2nd derivative terms included.
 Solvent              : TetraHydroFuran, Eps=   7.425700 Eps(inf)=   1.974025
 ------------------------------------------------------------------------------
 Spheres list:
 ISph  on   Nord     Re0    Alpha      Xe            Ye            Ze
    1   O      1    2.2940  1.000      8.684881      7.455970      5.540714
    2   H      2    1.2000  1.000      9.498150      7.149504      5.951999
    3   C      3    1.8500  1.000      6.242598      6.994953      5.172357
    4   B      4    1.8000  1.000      7.639813      6.614287      5.772586
    5   O      5    2.2940  1.000      7.876771      5.491844      6.517256
    6   H      6    1.2000  1.000      7.107399      4.942752      6.674912
    7   C      7    1.8500  1.000      5.117512      6.173113      5.287159
    8   H      8    1.2000  1.000      5.177165      5.217898      5.801758
    9   C      9    1.8500  1.000      3.888273      6.536175      4.749139
   10   H     10    1.2000  1.000      3.024094      5.891631      4.843988
   11   C     11    1.8500  1.000      3.786551      7.749526      4.081084
   12   C     12    1.8500  1.000      4.880975      8.594145      3.942349
   13   H     13    1.2000  1.000      4.778652      9.534651      3.416566
   14   C     14    1.8500  1.000      6.098594      8.207551      4.488090
   15   H     15    1.2000  1.000      6.960137      8.857503      4.384917
   16  Br     16    3.0600  1.000      2.114354      8.263866      3.342179
 ------------------------------------------------------------------------------
 ------------------------------------------------------------------------------
 Atomic radii for non-electrostatic terms: SMD-CDS.
 ------------------------------------------------------------------------------
 Nuclear repulsion after PCM non-electrostatic terms =      678.8757892420 Hartrees.
 One-electron integrals computed using PRISM.
 NBasis=   282 RedAO= T EigKep=  2.32D-06  NBF=   282
 NBsUse=   282 1.00D-06 EigRej= -1.00D+00 NBFU=   282
 ExpMin= 3.15D-02 ExpMax= 4.40D+05 ExpMxC= 1.51D+04 IAcc=3 IRadAn=         5 AccDes= 0.00D+00
 Harris functional with IExCor= 1009 and IRadAn=       5 diagonalized for initial guess.
 HarFok:  IExCor= 1009 AccDes= 0.00D+00 IRadAn=         5 IDoV= 1 UseB2=F ITyADJ=14
 ICtDFT=  3500011 ScaDFX=  1.000000  1.000000  1.000000  1.000000
 FoFCou: FMM=F IPFlag=           0 FMFlag=      100000 FMFlg1=           0
         NFxFlg=           0 DoJE=T BraDBF=F KetDBF=T FulRan=T
         wScrn=  0.000000 ICntrl=       500 IOpCl=  0 I1Cent=   200000004 NGrid=           0
         NMat0=    1 NMatS0=      1 NMatT0=    0 NMatD0=    1 NMtDS0=    0 NMtDT0=    0
 Symmetry not used in FoFCou.
 Requested convergence on RMS density matrix=1.00D-08 within 128 cycles.
 Requested convergence on MAX density matrix=1.00D-06.
 Requested convergence on             energy=1.00D-06.
 Level shift goal  0.100 maximum shift  0.100.
 No special actions if energy rises.
 Dynamic level shift is on during FON iterations.
 Inv3:  Mode=1 IEnd=     8457123.
 Iteration    1 A*A^-1 deviation from unit magnitude is 4.55D-15 for   1674.
 Iteration    1 A*A^-1 deviation from orthogonality  is 2.23D-15 for   1674   1553.
 Iteration    1 A^-1*A deviation from unit magnitude is 4.11D-15 for   1674.
 Iteration    1 A^-1*A deviation from orthogonality  is 2.51D-15 for   1670    484.
 Error on total polarization charges =  0.01346
 SCF Done:  E(RM062X) =  -2981.81245981     A.U. after   14 cycles
            NFock= 14  Conv=0.49D-08     -V/T= 2.0015
 SMD-CDS (non-electrostatic) energy       (kcal/mol) =      -3.76
 (included in total energy above)
 DoSCS=F DFT=T ScalE2(SS,OS)=  1.000000  1.000000
 Range of M.O.s used for correlation:     1   282
 NBasis=   282 NAE=    49 NBE=    49 NFC=     0 NFV=     0
 NROrb=    282 NOA=    49 NOB=    49 NVA=   233 NVB=   233

 **** Warning!!: The largest alpha MO coefficient is  0.16320983D+03

 Symmetrizing basis deriv contribution to polar:
 IMax=3 JMax=2 DiffMx= 0.00D+00
 G2DrvN: will do    17 centers at a time, making    1 passes.
 Calling FoFCou, ICntrl=  3107 FMM=F I1Cent=   0 AccDes= 0.00D+00.
 NEqPCM:  Using equilibrium solvation (IEInf=0, Eps=   7.4257, EpsInf=   1.9740)
 G2PCM: DoFxE=T DoFxN=T DoGrad=T DoDP/DQ/DG/TGxP=FFFF NFrqRd=   0 IEInf=0 SqF1=F DoCFld=F IF1Alg=4.
 End of G2Drv F.D. properties file   721 does not exist.
 End of G2Drv F.D. properties file   722 does not exist.
 End of G2Drv F.D. properties file   788 does not exist.
          IDoAtm=1111111111111111
 NEqPCM:  Using equilibrium solvation (IEInf=0, Eps=   7.4257, EpsInf=   1.9740)
          Differentiating once with respect to nuclear coordinates.
 Keep R1 ints in memory in canonical form, NReq=832100182.
          There are    51 degrees of freedom in the 1st order CPHF.  IDoFFX=6 NUNeed=     0.
     45 vectors produced by pass  0 Test12= 2.24D-14 1.96D-09 XBig12= 1.51D-01 1.05D-01.
 AX will form    45 AO Fock derivatives at one time.
     45 vectors produced by pass  1 Test12= 2.24D-14 1.96D-09 XBig12= 8.81D-03 3.11D-02.
     45 vectors produced by pass  2 Test12= 2.24D-14 1.96D-09 XBig12= 2.81D-04 2.68D-03.
     45 vectors produced by pass  3 Test12= 2.24D-14 1.96D-09 XBig12= 2.07D-06 2.05D-04.
     45 vectors produced by pass  4 Test12= 2.24D-14 1.96D-09 XBig12= 1.81D-08 2.45D-05.
     45 vectors produced by pass  5 Test12= 2.24D-14 1.96D-09 XBig12= 9.04D-11 1.71D-06.
     45 vectors produced by pass  6 Test12= 2.24D-14 1.96D-09 XBig12= 3.96D-13 8.37D-08.
     12 vectors produced by pass  7 Test12= 2.24D-14 1.96D-09 XBig12= 1.62D-15 3.97D-09.
 InvSVY:  IOpt=1 It=  1 EMax= 4.44D-16
 Solved reduced A of dimension   327 with    51 vectors.
 End of Minotr F.D. properties file   721 does not exist.
 End of Minotr F.D. properties file   722 does not exist.
 End of Minotr F.D. properties file   788 does not exist.

 **********************************************************************

            Population analysis using the SCF Density.

 **********************************************************************

 Alpha  occ. eigenvalues -- -485.33975 -63.33168 -57.15912 -57.15661 -57.15653
 Alpha  occ. eigenvalues --  -19.63808 -19.63291 -10.61065 -10.55974 -10.55868
 Alpha  occ. eigenvalues --  -10.55761 -10.55478 -10.53764  -9.01888  -7.08694
 Alpha  occ. eigenvalues --   -6.84675  -6.83663  -6.83643  -2.87833  -2.87481
 Alpha  occ. eigenvalues --   -2.87458  -2.86562  -2.86562  -1.16969  -1.13302
 Alpha  occ. eigenvalues --   -0.98630  -0.90582  -0.85940  -0.82149  -0.70745
 Alpha  occ. eigenvalues --   -0.68817  -0.65414  -0.63303  -0.58624  -0.53861
 Alpha  occ. eigenvalues --   -0.53143  -0.50584  -0.50074  -0.48469  -0.46179
 Alpha  occ. eigenvalues --   -0.45877  -0.44741  -0.41563  -0.40706  -0.38983
 Alpha  occ. eigenvalues --   -0.38150  -0.35428  -0.32309  -0.30295
 Alpha virt. eigenvalues --   -0.01389  -0.00133   0.00570   0.01425   0.01942
 Alpha virt. eigenvalues --    0.02113   0.03029   0.03844   0.04165   0.05104
 Alpha virt. eigenvalues --    0.05559   0.06900   0.07616   0.08485   0.09159
 Alpha virt. eigenvalues --    0.10144   0.10222   0.11703   0.12376   0.13351
 Alpha virt. eigenvalues --    0.13646   0.14100   0.14904   0.15048   0.15346
 Alpha virt. eigenvalues --    0.16127   0.16837   0.17678   0.18441   0.19033
 Alpha virt. eigenvalues --    0.19334   0.20402   0.21558   0.22069   0.22596
 Alpha virt. eigenvalues --    0.23037   0.23490   0.24316   0.24322   0.24511
 Alpha virt. eigenvalues --    0.24923   0.25181   0.26079   0.27073   0.28217
 Alpha virt. eigenvalues --    0.28604   0.29861   0.31913   0.32968   0.33250
 Alpha virt. eigenvalues --    0.34166   0.35977   0.37677   0.39337   0.40029
 Alpha virt. eigenvalues --    0.44209   0.44657   0.45248   0.47265   0.49302
 Alpha virt. eigenvalues --    0.49930   0.50352   0.51938   0.52618   0.54763
 Alpha virt. eigenvalues --    0.55697   0.56852   0.57319   0.59283   0.59730
 Alpha virt. eigenvalues --    0.60002   0.62502   0.63189   0.63585   0.65669
 Alpha virt. eigenvalues --    0.66513   0.68521   0.68866   0.70106   0.70433
 Alpha virt. eigenvalues --    0.70785   0.71300   0.74197   0.74828   0.77196
 Alpha virt. eigenvalues --    0.78057   0.78600   0.80947   0.84227   0.85874
 Alpha virt. eigenvalues --    0.87612   0.87938   0.90090   0.90771   0.91760
 Alpha virt. eigenvalues --    0.92371   0.93982   0.95175   0.99913   1.01755
 Alpha virt. eigenvalues --    1.02701   1.06052   1.06627   1.08105   1.08599
 Alpha virt. eigenvalues --    1.10067   1.10900   1.11439   1.13041   1.13248
 Alpha virt. eigenvalues --    1.17223   1.20158   1.20336   1.26542   1.30817
 Alpha virt. eigenvalues --    1.32733   1.33621   1.35342   1.38826   1.45927
 Alpha virt. eigenvalues --    1.48259   1.49975   1.51119   1.53531   1.54089
 Alpha virt. eigenvalues --    1.58179   1.60624   1.61083   1.65114   1.66079
 Alpha virt. eigenvalues --    1.68595   1.70619   1.71451   1.75195   1.77702
 Alpha virt. eigenvalues --    1.79972   1.80605   1.85066   1.86777   1.91518
 Alpha virt. eigenvalues --    1.95313   1.95624   1.96131   1.97959   2.00472
 Alpha virt. eigenvalues --    2.00853   2.01535   2.05853   2.07324   2.10418
 Alpha virt. eigenvalues --    2.12313   2.14526   2.16297   2.17159   2.21811
 Alpha virt. eigenvalues --    2.28869   2.31533   2.35986   2.38701   2.42839
 Alpha virt. eigenvalues --    2.44241   2.48752   2.57416   2.59021   2.61916
 Alpha virt. eigenvalues --    2.64157   2.65501   2.68861   2.71896   2.73304
 Alpha virt. eigenvalues --    2.75271   2.77313   2.78670   2.79672   2.80417
 Alpha virt. eigenvalues --    2.84158   2.85533   2.94129   2.94956   2.97847
 Alpha virt. eigenvalues --    3.07149   3.09697   3.11176   3.13510   3.24107
 Alpha virt. eigenvalues --    3.25852   3.26659   3.31409   3.40034   3.41951
 Alpha virt. eigenvalues --    3.47853   3.53830   3.55365   3.60789   3.63624
 Alpha virt. eigenvalues --    3.66369   3.76683   3.92501   3.95221   4.03651
 Alpha virt. eigenvalues --    4.10957   4.18000   4.19399   4.28316   4.33620
 Alpha virt. eigenvalues --    4.37043   4.52814   4.71112   4.85109   5.08157
 Alpha virt. eigenvalues --    5.09093   5.39250   5.49780   5.69005   5.76862
 Alpha virt. eigenvalues --    6.89984   7.63855   7.76469   7.80983  14.79617
 Alpha virt. eigenvalues --   23.62239  24.00263  24.02853  24.12770  24.17423
 Alpha virt. eigenvalues --   24.25261  48.41650  50.00241  50.05620 290.78465
 Alpha virt. eigenvalues --  290.92059 290.992451020.98656
          Condensed to atoms (all electrons):
               1          2          3          4          5          6
     1  O    7.787952   0.283523   0.062759   0.436583  -0.122423   0.017668
     2  H    0.283523   0.416196   0.039098  -0.006051  -0.031481   0.002856
     3  C    0.062759   0.039098   9.075772   0.237134  -0.161102   0.017499
     4  B    0.436583  -0.006051   0.237134   3.328797   0.376086   0.013775
     5  O   -0.122423  -0.031481  -0.161102   0.376086   7.977095   0.272614
     6  H    0.017668   0.002856   0.017499   0.013775   0.272614   0.394003
     7  C    0.044799  -0.005267  -1.179219   0.131298   0.021043  -0.051445
     8  H    0.001932  -0.000020   0.019776   0.009062  -0.004425   0.008462
     9  C    0.047131   0.004896  -0.118672   0.039726  -0.004428   0.044913
    10  H   -0.000036  -0.000001  -0.000697   0.000138   0.000277  -0.000025
    11  C   -0.009079  -0.001019  -1.269113   0.014595   0.007924  -0.003282
    12  C   -0.007913  -0.015145  -0.505697  -0.017169   0.045894  -0.011049
    13  H    0.000413   0.000001   0.010444   0.000437  -0.000026   0.000002
    14  C   -0.149232  -0.017786   0.158196  -0.058870   0.015969   0.011772
    15  H    0.003696  -0.000323   0.043790  -0.009775   0.001949  -0.000064
    16  Br  -0.000033  -0.000016   0.086225  -0.004263   0.000016  -0.000039
               7          8          9         10         11         12
     1  O    0.044799   0.001932   0.047131  -0.000036  -0.009079  -0.007913
     2  H   -0.005267  -0.000020   0.004896  -0.000001  -0.001019  -0.015145
     3  C   -1.179219   0.019776  -0.118672  -0.000697  -1.269113  -0.505697
     4  B    0.131298   0.009062   0.039726   0.000138   0.014595  -0.017169
     5  O    0.021043  -0.004425  -0.004428   0.000277   0.007924   0.045894
     6  H   -0.051445   0.008462   0.044913  -0.000025  -0.003282  -0.011049
     7  C   10.994379   0.357292  -1.667179   0.060804   0.044618  -0.192712
     8  H    0.357292   0.476494  -0.002747  -0.005491  -0.014165  -0.010926
     9  C   -1.667179  -0.002747   9.501287   0.293940  -0.157855  -1.114639
    10  H    0.060804  -0.005491   0.293940   0.450494   0.014005  -0.006946
    11  C    0.044618  -0.014165  -0.157855   0.014005   7.223346   0.035194
    12  C   -0.192712  -0.010926  -1.114639  -0.006946   0.035194   9.216525
    13  H   -0.002152   0.000050  -0.005318  -0.000083  -0.000846   0.285782
    14  C   -2.409192  -0.014875  -0.712373   0.000469  -0.089022  -1.574579
    15  H   -0.007471  -0.000084  -0.006238   0.000040  -0.012207  -0.016297
    16  Br   0.010927  -0.000264   0.280756  -0.011913  -0.564375   0.295871
              13         14         15         16
     1  O    0.000413  -0.149232   0.003696  -0.000033
     2  H    0.000001  -0.017786  -0.000323  -0.000016
     3  C    0.010444   0.158196   0.043790   0.086225
     4  B    0.000437  -0.058870  -0.009775  -0.004263
     5  O   -0.000026   0.015969   0.001949   0.000016
     6  H    0.000002   0.011772  -0.000064  -0.000039
     7  C   -0.002152  -2.409192  -0.007471   0.010927
     8  H    0.000050  -0.014875  -0.000084  -0.000264
     9  C   -0.005318  -0.712373  -0.006238   0.280756
    10  H   -0.000083   0.000469   0.000040  -0.011913
    11  C   -0.000846  -0.089022  -0.012207  -0.564375
    12  C    0.285782  -1.574579  -0.016297   0.295871
    13  H    0.449809   0.073479  -0.005320  -0.012381
    14  C    0.073479  10.670504   0.352227  -0.016595
    15  H   -0.005320   0.352227   0.450060   0.000160
    16  Br  -0.012381  -0.016595   0.000160  35.106168
 Mulliken charges:
               1
     1  O   -0.397742
     2  H    0.330539
     3  C   -0.516193
     4  B    0.508497
     5  O   -0.394985
     6  H    0.282340
     7  C   -0.150524
     8  H    0.179929
     9  C   -0.423201
    10  H    0.205026
    11  C    0.781281
    12  C   -0.406194
    13  H    0.205709
    14  C   -0.240092
    15  H    0.205856
    16  Br  -0.170244
 Sum of Mulliken charges =   0.00000
 Mulliken charges with hydrogens summed into heavy atoms:
               1
     1  O   -0.067204
     3  C   -0.516193
     4  B    0.508497
     5  O   -0.112646
     7  C    0.029405
     9  C   -0.218176
    11  C    0.781281
    12  C   -0.200486
    14  C   -0.034236
    16  Br  -0.170244
 APT charges:
               1
     1  O   -0.518924
     2  H    2.069108
     3  C   -1.510700
     4  B   -0.323690
     5  O    1.269420
     6  H   -1.194804
     7  C   -0.195717
     8  H   -0.165108
     9  C    0.913303
    10  H   -0.799409
    11  C   -0.834227
    12  C   -1.073072
    13  H    1.229235
    14  C   -0.660970
    15  H    1.914144
    16  Br  -0.118589
 Sum of APT charges =   0.00000
 APT charges with hydrogens summed into heavy atoms:
               1
     1  O    1.550184
     3  C   -1.510700
     4  B   -0.323690
     5  O    0.074616
     7  C   -0.360825
     9  C    0.113894
    11  C   -0.834227
    12  C    0.156163
    14  C    1.253174
    16  Br  -0.118589
 Electronic spatial extent (au):  <R**2>=          37320.3976
 Charge=              0.0000 electrons
 Dipole moment (field-independent basis, Debye):
    X=              0.8602    Y=             -1.8459    Z=              1.3985  Tot=              2.4705
 Quadrupole moment (field-independent basis, Debye-Ang):
   XX=            -62.6653   YY=            -91.7161   ZZ=            -58.6342
   XY=             -0.6263   XZ=             10.9500   YZ=             -3.0526
 Traceless Quadrupole moment (field-independent basis, Debye-Ang):
   XX=              8.3399   YY=            -20.7109   ZZ=             12.3710
   XY=             -0.6263   XZ=             10.9500   YZ=             -3.0526
 Octapole moment (field-independent basis, Debye-Ang**2):
  XXX=           -971.6014  YYY=          -1741.9839  ZZZ=           -897.1351  XYY=           -381.7063
  XXY=           -488.0090  XXZ=           -245.0921  XZZ=           -272.3593  YZZ=           -520.7181
  YYZ=           -413.4523  XYZ=             26.5705
 Hexadecapole moment (field-independent basis, Debye-Ang**3):
 XXXX=         -11581.5381 YYYY=         -24893.2898 ZZZZ=          -9060.9234 XXXY=          -7004.0065
 XXXZ=          -4529.5182 YYYX=          -7808.8834 YYYZ=          -8000.6225 ZZZX=          -4808.8199
 ZZZY=          -6980.0955 XXYY=          -5924.6015 XXZZ=          -3148.9286 YYZZ=          -5975.6388
 XXYZ=          -1948.7139 YYXZ=          -1834.8428 ZZXY=          -2291.9499
 N-N= 6.788757892420D+02 E-N=-8.463581924807D+03  KE= 2.977289106707D+03
  Exact polarizability:       0.000       0.000       0.000       0.000       0.000       0.000
 Approx polarizability:     160.520      -0.919     128.491      22.533     -25.610     101.552
 D2PCM: PCM CHGder 2nd derivatives, FixD1E=F FixD2E=F DoIter=F DoCFld=F I1PDM=0
 Calling FoFJK, ICntrl=    100127 FMM=F ISym2X=0 I1Cent= 0 IOpClX= 0 NMat=1 NMatS=1 NMatT=0.
 -------------------------------------------------------------------
 Center     Atomic                   Forces (Hartrees/Bohr)
 Number     Number              X              Y              Z
 -------------------------------------------------------------------
      1        8          -0.001045669    0.001679445   -0.001391789
      2        1           0.002519927   -0.000704790    0.001116683
      3        6          -0.000841948    0.000691170   -0.000659427
      4        5          -0.000269879   -0.002008035    0.001223413
      5        8           0.002713061    0.002634600   -0.000974019
      6        1          -0.002967139   -0.002166636    0.000515675
      7        6           0.000191480   -0.001829284    0.000900361
      8        1          -0.000276059    0.000061073    0.000104855
      9        6          -0.001098297    0.000620972   -0.000659353
     10        1           0.000193513   -0.000909639    0.000518205
     11        6           0.002624531   -0.000850003    0.001217968
     12        6          -0.001018011    0.001075444   -0.000873223
     13        1           0.000759930    0.000567469   -0.000105363
     14        6           0.000560003   -0.000325879    0.000318970
     15        1          -0.000504226    0.000845468   -0.000530231
     16       35          -0.001541217    0.000618624   -0.000722725
 -------------------------------------------------------------------
 Cartesian Forces:  Max     0.002967139 RMS     0.001255318
 FormGI is forming the generalized inverse of G from B-inverse, IUseBI=4.

 GradGradGradGradGradGradGradGradGradGradGradGradGradGradGradGradGradGrad
 Berny optimization.
 Internal  Forces:  Max     0.003714524 RMS     0.000787995
 Search for a local minimum.
 Step number   1 out of a maximum of   81
 All quantities printed in internal units (Hartrees-Bohrs-Radians)
 Mixed Optimization -- En-DIIS/RFO-DIIS
 Second derivative matrix not updated -- analytic derivatives used.
 ITU=  0
     Eigenvalues ---    0.00128   0.00999   0.01273   0.01457   0.01723
     Eigenvalues ---    0.01761   0.02150   0.02344   0.02614   0.02782
     Eigenvalues ---    0.02868   0.02970   0.03871   0.10545   0.11227
     Eigenvalues ---    0.11254   0.11553   0.12014   0.12685   0.15189
     Eigenvalues ---    0.15941   0.17825   0.18557   0.18759   0.19438
     Eigenvalues ---    0.19701   0.24372   0.27922   0.29477   0.35822
     Eigenvalues ---    0.36518   0.36735   0.36921   0.38850   0.42393
     Eigenvalues ---    0.42756   0.47799   0.47835   0.49241   0.51987
     Eigenvalues ---    0.54629   0.55716
 RFO step:  Lambda=-1.60490097D-04 EMin= 1.28288894D-03
 Linear search not attempted -- first point.
 Iteration  1 RMS(Cart)=  0.02454337 RMS(Int)=  0.00026550
 Iteration  2 RMS(Cart)=  0.00038309 RMS(Int)=  0.00000207
 Iteration  3 RMS(Cart)=  0.00000008 RMS(Int)=  0.00000207
 Variable       Old X    -DE/DX   Delta X   Delta X   Delta X     New X
                                 (Linear)    (Quad)   (Total)
    R1        1.81697   0.00284   0.00000   0.00509   0.00509   1.82206
    R2        2.57333   0.00177   0.00000   0.00403   0.00403   2.57737
    R3        2.96235   0.00117   0.00000   0.00548   0.00548   2.96783
    R4        2.64185   0.00095   0.00000   0.00218   0.00218   2.64402
    R5        2.64518   0.00112   0.00000   0.00115   0.00115   2.64633
    R6        2.58455  -0.00067   0.00000  -0.00226  -0.00226   2.58229
    R7        1.81088   0.00371   0.00000   0.00669   0.00669   1.81757
    R8        2.05347  -0.00002   0.00000  -0.00061  -0.00061   2.05286
    R9        2.62686   0.00047   0.00000   0.00189   0.00189   2.62875
   R10        2.04513   0.00043   0.00000   0.00098   0.00098   2.04612
   R11        2.62452   0.00084   0.00000  -0.00010  -0.00009   2.62443
   R12        2.62556   0.00046   0.00000  -0.00031  -0.00031   2.62525
   R13        3.58887   0.00181   0.00000   0.01073   0.01073   3.59960
   R14        2.04533   0.00047   0.00000   0.00093   0.00093   2.04627
   R15        2.62521   0.00015   0.00000   0.00166   0.00166   2.62688
   R16        2.04871   0.00016   0.00000   0.00047   0.00047   2.04918
    A1        1.95982   0.00045   0.00000   0.00201   0.00201   1.96184
    A2        2.14493  -0.00091   0.00000  -0.00342  -0.00342   2.14151
    A3        2.08201   0.00049   0.00000   0.00239   0.00239   2.08440
    A4        2.05625   0.00041   0.00000   0.00103   0.00102   2.05727
    A5        2.05866   0.00015   0.00000  -0.00181  -0.00181   2.05685
    A6        2.05670   0.00017   0.00000   0.00111   0.00111   2.05780
    A7        2.16783  -0.00032   0.00000   0.00071   0.00071   2.16853
    A8        2.00505  -0.00003   0.00000  -0.00036  -0.00036   2.00469
    A9        2.10769   0.00056   0.00000   0.00451   0.00451   2.11220
   A10        2.12509  -0.00062   0.00000  -0.00205  -0.00205   2.12304
   A11        2.05040   0.00006   0.00000  -0.00245  -0.00245   2.04795
   A12        2.11373  -0.00094   0.00000  -0.00747  -0.00747   2.10626
   A13        2.07045  -0.00011   0.00000  -0.00090  -0.00089   2.06956
   A14        2.09900   0.00104   0.00000   0.00837   0.00837   2.10737
   A15        2.11933   0.00084   0.00000   0.00446   0.00446   2.12378
   A16        2.08088  -0.00016   0.00000  -0.00150  -0.00150   2.07938
   A17        2.08298  -0.00068   0.00000  -0.00296  -0.00296   2.08003
   A18        2.09703   0.00120   0.00000   0.00912   0.00912   2.10615
   A19        2.07375  -0.00069   0.00000  -0.00397  -0.00397   2.06978
   A20        2.11240  -0.00051   0.00000  -0.00514  -0.00514   2.10726
   A21        2.12150   0.00015   0.00000   0.00145   0.00144   2.12294
   A22        2.07615   0.00105   0.00000   0.00798   0.00798   2.08413
   A23        2.08554  -0.00121   0.00000  -0.00943  -0.00943   2.07611
    D1        3.13165   0.00003   0.00000   0.00665   0.00665   3.13829
    D2       -0.00755  -0.00004   0.00000   0.00464   0.00464  -0.00291
    D3        3.08192   0.00003   0.00000   0.04003   0.04003   3.12195
    D4       -0.06224   0.00010   0.00000   0.04218   0.04218  -0.02006
    D5       -0.05938   0.00002   0.00000   0.03985   0.03985  -0.01953
    D6        3.07965   0.00009   0.00000   0.04199   0.04199   3.12165
    D7       -0.00803   0.00008   0.00000   0.00604   0.00604  -0.00199
    D8        3.13799   0.00002   0.00000   0.00132   0.00132   3.13931
    D9        3.13327   0.00010   0.00000   0.00622   0.00623   3.13949
   D10       -0.00390   0.00003   0.00000   0.00151   0.00150  -0.00240
   D11       -3.13694  -0.00002   0.00000  -0.00247  -0.00247  -3.13940
   D12        0.00362  -0.00003   0.00000  -0.00227  -0.00226   0.00136
   D13        0.00494  -0.00003   0.00000  -0.00264  -0.00264   0.00230
   D14       -3.13769  -0.00004   0.00000  -0.00244  -0.00244  -3.14013
   D15        3.11304   0.00012   0.00000   0.01633   0.01633   3.12937
   D16       -0.02600   0.00005   0.00000   0.01419   0.01418  -0.01181
   D17        3.14129   0.00000   0.00000   0.00119   0.00119  -3.14070
   D18        0.00067  -0.00002   0.00000   0.00007   0.00007   0.00074
   D19        0.00399  -0.00006   0.00000  -0.00339  -0.00339   0.00060
   D20       -3.13664  -0.00008   0.00000  -0.00451  -0.00451  -3.14114
   D21        0.00170   0.00000   0.00000  -0.00058  -0.00058   0.00113
   D22       -3.13964   0.00002   0.00000   0.00039   0.00040  -3.13925
   D23       -3.13893  -0.00002   0.00000  -0.00169  -0.00169  -3.14062
   D24        0.00291   0.00000   0.00000  -0.00071  -0.00072   0.00219
   D25        3.14033   0.00001   0.00000   0.00011   0.00012   3.14044
   D26       -0.00070   0.00000   0.00000  -0.00052  -0.00052  -0.00122
   D27       -0.00151  -0.00001   0.00000  -0.00086  -0.00086  -0.00237
   D28        3.14065  -0.00002   0.00000  -0.00150  -0.00150   3.13915
   D29       -0.00272   0.00002   0.00000   0.00218   0.00218  -0.00054
   D30        3.13991   0.00002   0.00000   0.00197   0.00197  -3.14131
   D31        3.13944   0.00001   0.00000   0.00153   0.00154   3.14098
   D32       -0.00111   0.00002   0.00000   0.00132   0.00132   0.00021
         Item               Value     Threshold  Converged?
 Maximum Force            0.003715     0.000015     NO 
 RMS     Force            0.000788     0.000010     NO 
 Maximum Displacement     0.110293     0.000060     NO 
 RMS     Displacement     0.024591     0.000040     NO 
 Predicted change in Energy=-8.090066D-05
 GradGradGradGradGradGradGradGradGradGradGradGradGradGradGradGradGradGrad

                          Input orientation:                          
 ---------------------------------------------------------------------
 Center     Atomic      Atomic             Coordinates (Angstroms)
 Number     Number       Type             X           Y           Z
 ---------------------------------------------------------------------
      1          8           0        8.678537    7.475439    5.576279
      2          1           0        9.496916    7.165437    5.981027
      3          6           0        6.241540    6.997863    5.175229
      4          5           0        7.640161    6.614478    5.778026
      5          8           0        7.883753    5.474855    6.491617
      6          1           0        7.119205    4.904810    6.616548
      7          6           0        5.114026    6.179033    5.301193
      8          1           0        5.166923    5.230712    5.828443
      9          6           0        3.884678    6.541714    4.760585
     10          1           0        3.021895    5.896408    4.868059
     11          6           0        3.788103    7.748798    4.080624
     12          6           0        4.882562    8.591084    3.930123
     13          1           0        4.789031    9.528247    3.395785
     14          6           0        6.099535    8.205151    4.479997
     15          1           0        6.957652    8.858283    4.366257
     16         35           0        2.111403    8.263057    3.337260
 ---------------------------------------------------------------------
                    Distance matrix (angstroms):
                    1          2          3          4          5
     1  O    0.000000
     2  H    0.964192   0.000000
     3  C    2.515526   3.357807   0.000000
     4  B    1.363884   1.947384   1.570506   0.000000
     5  O    2.339201   2.391876   2.597941   1.366489   0.000000
     6  H    3.181479   3.341831   2.688600   1.974204   0.961817
     7  C    3.802904   4.543666   1.399157   2.607363   3.095862
     8  H    4.175382   4.745028   2.168944   2.834477   2.807235
     9  C    4.951594   5.777173   2.436145   3.891546   4.486341
    10  H    5.915447   6.691415   3.416676   4.761517   5.143083
    11  C    5.121334   6.045031   2.789520   4.359611   5.268592
    12  C    4.285315   5.246994   2.436281   3.863427   5.027851
    13  H    4.908852   5.867753   3.417462   4.721659   5.965859
    14  C    2.895784   3.856980   1.400377   2.566836   3.832045
    15  H    2.517510   3.452690   2.151374   2.737438   4.101512
    16  Br   6.982893   7.920863   4.694345   6.264368   7.144513
                    6          7          8          9         10
     6  H    0.000000
     7  C    2.715611   0.000000
     8  H    2.130429   1.086325   0.000000
     9  C    4.072618   1.391075   2.122074   0.000000
    10  H    4.563817   2.155108   2.442669   1.082758   0.000000
    11  C    5.061168   2.389984   3.361067   1.388786   2.153712
    12  C    5.080164   2.784134   3.869959   2.425976   3.406330
    13  H    6.097474   3.866967   4.952720   3.405864   4.298908
    14  C    4.061629   2.398071   3.396374   2.784123   3.866879
    15  H    4.551907   3.383998   4.301624   3.868482   4.951231
    16  Br   6.863645   4.149209   4.973661   2.851908   2.961987
                   11         12         13         14         15
    11  C    0.000000
    12  C    1.389222   0.000000
    13  H    2.153439   1.082838   0.000000
    14  C    2.389660   1.390083   2.154882   0.000000
    15  H    3.370250   2.137196   2.468519   1.084381   0.000000
    16  Br   1.904829   2.852789   2.962064   4.149023   4.989915
                   16
    16  Br   0.000000
 Symmetry turned off by external request.
 Stoichiometry    C6H6BBrO2
 Framework group  C1[X(C6H6BBrO2)]
 Deg. of freedom    42
 Full point group                 C1      NOp   1
 Rotational constants (GHZ):           3.6826461           0.3509326           0.3204063
 Standard basis: 6-311+G(d,p) (5D, 7F)
   282 basis functions,   466 primitive gaussians,   294 cartesian basis functions
    49 alpha electrons       49 beta electrons
       nuclear repulsion energy       678.1840663742 Hartrees.
 NAtoms=   16 NActive=   16 NUniq=   16 SFac= 1.00D+00 NAtFMM=   60 NAOKFM=F Big=F
 Integral buffers will be    131072 words long.
 Raffenetti 2 integral format.
 Two-electron integral symmetry is turned off.
 ------------------------------------------------------------------------------
 Polarizable Continuum Model (PCM)
 =================================
 Model                : PCM.
 Atomic radii         : SMD-Coulomb.
 Polarization charges : Total charges.
 Charge compensation  : None.
 Solution method      : Matrix inversion.
 Cavity type          : VdW (van der Waals Surface) (Alpha=1.000).
 Cavity algorithm     : GePol (No added spheres)
                        Default sphere list used, NSphG=   16.
                        Lebedev-Laikov grids with approx.  5.0 points / Ang**2.
                        Smoothing algorithm: York/Karplus (Gamma=1.0000).
                        Polarization charges: spherical gaussians, with
                                              point-specific exponents (IZeta= 3).
                        Self-potential: point-specific (ISelfS= 7).
                        Self-field    : sphere-specific E.n sum rule (ISelfD= 2).
 1st derivatives      : Analytical E(r).r(x)/FMM algorithm (CHGder, D1EAlg=3).
                        Cavity 1st derivative terms included.
 Solvent              : TetraHydroFuran, Eps=   7.425700 Eps(inf)=   1.974025
 ------------------------------------------------------------------------------
 Spheres list:
 ISph  on   Nord     Re0    Alpha      Xe            Ye            Ze
    1   O      1    2.2940  1.000      8.678537      7.475439      5.576279
    2   H      2    1.2000  1.000      9.496916      7.165437      5.981027
    3   C      3    1.8500  1.000      6.241540      6.997863      5.175229
    4   B      4    1.8000  1.000      7.640161      6.614478      5.778026
    5   O      5    2.2940  1.000      7.883753      5.474855      6.491617
    6   H      6    1.2000  1.000      7.119205      4.904810      6.616548
    7   C      7    1.8500  1.000      5.114026      6.179033      5.301193
    8   H      8    1.2000  1.000      5.166923      5.230712      5.828443
    9   C      9    1.8500  1.000      3.884678      6.541714      4.760585
   10   H     10    1.2000  1.000      3.021895      5.896408      4.868059
   11   C     11    1.8500  1.000      3.788103      7.748798      4.080624
   12   C     12    1.8500  1.000      4.882562      8.591084      3.930123
   13   H     13    1.2000  1.000      4.789031      9.528247      3.395785
   14   C     14    1.8500  1.000      6.099535      8.205151      4.479997
   15   H     15    1.2000  1.000      6.957652      8.858283      4.366257
   16  Br     16    3.0600  1.000      2.111403      8.263057      3.337260
 ------------------------------------------------------------------------------
 ------------------------------------------------------------------------------
 Atomic radii for non-electrostatic terms: SMD-CDS.
 ------------------------------------------------------------------------------
 Nuclear repulsion after PCM non-electrostatic terms =      678.1780695150 Hartrees.
 One-electron integrals computed using PRISM.
 NBasis=   282 RedAO= T EigKep=  2.32D-06  NBF=   282
 NBsUse=   282 1.00D-06 EigRej= -1.00D+00 NBFU=   282
 Initial guess from the checkpoint file:  "4-br-phboh2-opt-freq-thf.chk"
 B after Tr=     0.038956    0.008879   -0.057424
         Rot=    0.999998   -0.001414    0.000942   -0.000890 Ang=  -0.22 deg.
 ExpMin= 3.15D-02 ExpMax= 4.40D+05 ExpMxC= 1.51D+04 IAcc=3 IRadAn=         5 AccDes= 0.00D+00
 Harris functional with IExCor= 1009 and IRadAn=       5 diagonalized for initial guess.
 HarFok:  IExCor= 1009 AccDes= 0.00D+00 IRadAn=         5 IDoV= 1 UseB2=F ITyADJ=14
 ICtDFT=  3500011 ScaDFX=  1.000000  1.000000  1.000000  1.000000
 FoFCou: FMM=F IPFlag=           0 FMFlag=      100000 FMFlg1=           0
         NFxFlg=           0 DoJE=T BraDBF=F KetDBF=T FulRan=T
         wScrn=  0.000000 ICntrl=       500 IOpCl=  0 I1Cent=   200000004 NGrid=           0
         NMat0=    1 NMatS0=      1 NMatT0=    0 NMatD0=    1 NMtDS0=    0 NMtDT0=    0
 Symmetry not used in FoFCou.
 Requested convergence on RMS density matrix=1.00D-08 within 128 cycles.
 Requested convergence on MAX density matrix=1.00D-06.
 Requested convergence on             energy=1.00D-06.
 Level shift goal  0.100 maximum shift  0.100.
 No special actions if energy rises.
 Dynamic level shift is on during FON iterations.
 Inv3:  Mode=1 IEnd=     8517675.
 Iteration    1 A*A^-1 deviation from unit magnitude is 2.89D-15 for   1668.
 Iteration    1 A*A^-1 deviation from orthogonality  is 2.26D-15 for   1675   1410.
 Iteration    1 A^-1*A deviation from unit magnitude is 2.89D-15 for   1668.
 Iteration    1 A^-1*A deviation from orthogonality  is 2.48D-15 for   1669    515.
 Error on total polarization charges =  0.01349
 SCF Done:  E(RM062X) =  -2981.81254055     A.U. after   11 cycles
            NFock= 11  Conv=0.88D-08     -V/T= 2.0015
 SMD-CDS (non-electrostatic) energy       (kcal/mol) =      -3.76
 (included in total energy above)
 D1PCM: PCM CHGder 1st derivatives, ID1Alg=3 FixD1E=F DoIter=F DoCFld=F I1PDM=0.
 Calling FoFJK, ICntrl=      2127 FMM=F ISym2X=0 I1Cent= 0 IOpClX= 0 NMat=1 NMatS=1 NMatT=0.
 -------------------------------------------------------------------
 Center     Atomic                   Forces (Hartrees/Bohr)
 Number     Number              X              Y              Z
 -------------------------------------------------------------------
      1        8          -0.000015436    0.000018021   -0.000018821
      2        1           0.000023794   -0.000017423    0.000012431
      3        6          -0.000001596   -0.000008186   -0.000019311
      4        5           0.000007472   -0.000009739   -0.000014183
      5        8           0.000049177    0.000041794    0.000043293
      6        1          -0.000053657   -0.000051917   -0.000021834
      7        6          -0.000006963   -0.000001590    0.000015238
      8        1          -0.000003982   -0.000001883   -0.000000803
      9        6          -0.000009369    0.000006622   -0.000013845
     10        1          -0.000002020   -0.000001964   -0.000002937
     11        6           0.000028912   -0.000008520    0.000018251
     12        6          -0.000011788    0.000005650   -0.000003636
     13        1           0.000007007    0.000007296    0.000004399
     14        6           0.000014158   -0.000000047    0.000005122
     15        1          -0.000003663    0.000002722    0.000003975
     16       35          -0.000022046    0.000019164   -0.000007340
 -------------------------------------------------------------------
 Cartesian Forces:  Max     0.000053657 RMS     0.000019465

 GradGradGradGradGradGradGradGradGradGradGradGradGradGradGradGradGradGrad
 Berny optimization.
 Using GEDIIS/GDIIS optimizer.
 FormGI is forming the generalized inverse of G from B-inverse, IUseBI=4.
 Internal  Forces:  Max     0.000066519 RMS     0.000011757
 Search for a local minimum.
 Step number   2 out of a maximum of   81
 All quantities printed in internal units (Hartrees-Bohrs-Radians)
 Mixed Optimization -- En-DIIS/RFO-DIIS
 Swapping is turned off.
 Update second derivatives using D2CorX and points    1    2
 DE= -8.07D-05 DEPred=-8.09D-05 R= 9.98D-01
 TightC=F SS=  1.41D+00  RLast= 9.04D-02 DXNew= 5.0454D-01 2.7118D-01
 Trust test= 9.98D-01 RLast= 9.04D-02 DXMaxT set to 3.00D-01
 ITU=  1  0
     Eigenvalues ---    0.00130   0.00996   0.01274   0.01457   0.01723
     Eigenvalues ---    0.01761   0.02150   0.02344   0.02613   0.02781
     Eigenvalues ---    0.02868   0.02969   0.03872   0.10539   0.11223
     Eigenvalues ---    0.11242   0.11567   0.12014   0.12685   0.15134
     Eigenvalues ---    0.15945   0.17832   0.18557   0.18750   0.19431
     Eigenvalues ---    0.19698   0.24368   0.27924   0.29472   0.35822
     Eigenvalues ---    0.36519   0.36734   0.36919   0.38859   0.42385
     Eigenvalues ---    0.42756   0.47793   0.47835   0.49236   0.51949
     Eigenvalues ---    0.54472   0.55495
 En-DIIS/RFO-DIIS/Sim-DIIS IScMMF=       -3 using points:     2    1
 RFO step:  Lambda=-1.87325045D-07.
 DidBck=F Rises=F RFO-DIIS coefs:    1.00525   -0.00525
 Iteration  1 RMS(Cart)=  0.00045385 RMS(Int)=  0.00000060
 Iteration  2 RMS(Cart)=  0.00000066 RMS(Int)=  0.00000002
 Variable       Old X    -DE/DX   Delta X   Delta X   Delta X     New X
                                 (Linear)    (Quad)   (Total)
    R1        1.82206   0.00003   0.00003   0.00004   0.00006   1.82212
    R2        2.57737   0.00001   0.00002   0.00001   0.00003   2.57740
    R3        2.96783   0.00002   0.00003   0.00003   0.00006   2.96789
    R4        2.64402   0.00002   0.00001   0.00002   0.00003   2.64405
    R5        2.64633   0.00000   0.00001   0.00000   0.00000   2.64633
    R6        2.58229   0.00002  -0.00001   0.00003   0.00002   2.58231
    R7        1.81757   0.00007   0.00004   0.00010   0.00013   1.81770
    R8        2.05286   0.00000   0.00000   0.00002   0.00001   2.05287
    R9        2.62875   0.00001   0.00001   0.00002   0.00003   2.62878
   R10        2.04612   0.00000   0.00001   0.00000   0.00001   2.04613
   R11        2.62443   0.00000   0.00000  -0.00001  -0.00001   2.62442
   R12        2.62525   0.00000   0.00000  -0.00001  -0.00002   2.62523
   R13        3.59960   0.00003   0.00006   0.00010   0.00016   3.59976
   R14        2.04627   0.00000   0.00000   0.00000   0.00001   2.04627
   R15        2.62688   0.00001   0.00001   0.00001   0.00002   2.62690
   R16        2.04918   0.00000   0.00000  -0.00001  -0.00001   2.04918
    A1        1.96184   0.00000   0.00001  -0.00005  -0.00004   1.96179
    A2        2.14151   0.00001  -0.00002   0.00009   0.00007   2.14159
    A3        2.08440  -0.00001   0.00001  -0.00009  -0.00008   2.08432
    A4        2.05727   0.00000   0.00001   0.00000   0.00001   2.05728
    A5        2.05685   0.00000  -0.00001  -0.00001  -0.00002   2.05683
    A6        2.05780   0.00001   0.00001   0.00003   0.00003   2.05784
    A7        2.16853   0.00000   0.00000  -0.00002  -0.00002   2.16852
    A8        2.00469  -0.00001   0.00000  -0.00015  -0.00015   2.00454
    A9        2.11220   0.00000   0.00002  -0.00001   0.00002   2.11222
   A10        2.12304   0.00000  -0.00001   0.00000  -0.00002   2.12302
   A11        2.04795   0.00000  -0.00001   0.00001   0.00000   2.04795
   A12        2.10626   0.00000  -0.00004   0.00001  -0.00002   2.10623
   A13        2.06956   0.00000   0.00000  -0.00001  -0.00001   2.06954
   A14        2.10737   0.00000   0.00004   0.00000   0.00004   2.10741
   A15        2.12378   0.00000   0.00002   0.00002   0.00004   2.12383
   A16        2.07938   0.00000  -0.00001   0.00002   0.00001   2.07939
   A17        2.08003  -0.00001  -0.00002  -0.00004  -0.00006   2.07997
   A18        2.10615   0.00000   0.00005   0.00002   0.00007   2.10622
   A19        2.06978   0.00000  -0.00002  -0.00001  -0.00003   2.06975
   A20        2.10726   0.00000  -0.00003  -0.00002  -0.00004   2.10722
   A21        2.12294   0.00000   0.00001   0.00000   0.00001   2.12295
   A22        2.08413   0.00000   0.00004   0.00000   0.00004   2.08418
   A23        2.07611  -0.00001  -0.00005   0.00000  -0.00005   2.07606
    D1        3.13829   0.00000   0.00003  -0.00006  -0.00002   3.13827
    D2       -0.00291   0.00001   0.00002   0.00046   0.00048  -0.00243
    D3        3.12195   0.00001   0.00021   0.00025   0.00046   3.12241
    D4       -0.02006   0.00000   0.00022  -0.00030  -0.00008  -0.02014
    D5       -0.01953   0.00000   0.00021  -0.00054  -0.00033  -0.01986
    D6        3.12165  -0.00001   0.00022  -0.00109  -0.00087   3.12077
    D7       -0.00199  -0.00001   0.00003  -0.00060  -0.00057  -0.00256
    D8        3.13931  -0.00001   0.00001  -0.00059  -0.00058   3.13872
    D9        3.13949   0.00000   0.00003   0.00018   0.00021   3.13970
   D10       -0.00240   0.00000   0.00001   0.00019   0.00020  -0.00220
   D11       -3.13940   0.00001  -0.00001   0.00075   0.00073  -3.13867
   D12        0.00136   0.00000  -0.00001   0.00055   0.00054   0.00190
   D13        0.00230   0.00000  -0.00001  -0.00001  -0.00002   0.00228
   D14       -3.14013  -0.00001  -0.00001  -0.00020  -0.00022  -3.14034
   D15        3.12937   0.00002   0.00009   0.00207   0.00215   3.13152
   D16       -0.01181   0.00003   0.00007   0.00262   0.00269  -0.00912
   D17       -3.14070   0.00000   0.00001  -0.00013  -0.00012  -3.14082
   D18        0.00074  -0.00001   0.00000  -0.00028  -0.00028   0.00046
   D19        0.00060   0.00000  -0.00002  -0.00011  -0.00013   0.00047
   D20       -3.14114  -0.00001  -0.00002  -0.00027  -0.00029  -3.14144
   D21        0.00113   0.00000   0.00000   0.00020   0.00019   0.00132
   D22       -3.13925   0.00001   0.00000   0.00029   0.00029  -3.13896
   D23       -3.14062   0.00000  -0.00001   0.00004   0.00003  -3.14059
   D24        0.00219   0.00000   0.00000   0.00013   0.00013   0.00232
   D25        3.14044   0.00000   0.00000   0.00008   0.00008   3.14053
   D26       -0.00122   0.00000   0.00000  -0.00002  -0.00002  -0.00125
   D27       -0.00237   0.00000   0.00000  -0.00001  -0.00001  -0.00238
   D28        3.13915   0.00000  -0.00001  -0.00011  -0.00012   3.13903
   D29       -0.00054   0.00000   0.00001  -0.00008  -0.00006  -0.00060
   D30       -3.14131   0.00000   0.00001   0.00012   0.00013  -3.14117
   D31        3.14098   0.00000   0.00001  -0.00018  -0.00017   3.14081
   D32        0.00021   0.00000   0.00001   0.00002   0.00002   0.00024
         Item               Value     Threshold  Converged?
 Maximum Force            0.000067     0.000015     NO 
 RMS     Force            0.000012     0.000010     NO 
 Maximum Displacement     0.001737     0.000060     NO 
 RMS     Displacement     0.000454     0.000040     NO 
 Predicted change in Energy=-9.366291D-08
 GradGradGradGradGradGradGradGradGradGradGradGradGradGradGradGradGradGrad

                          Input orientation:                          
 ---------------------------------------------------------------------
 Center     Atomic      Atomic             Coordinates (Angstroms)
 Number     Number       Type             X           Y           Z
 ---------------------------------------------------------------------
      1          8           0        8.678485    7.475621    5.576420
      2          1           0        9.496812    7.165823    5.981510
      3          6           0        6.241649    6.997551    5.174797
      4          5           0        7.640190    6.614519    5.778091
      5          8           0        7.883597    5.475377    6.492536
      6          1           0        7.119379    4.904386    6.615694
      7          6           0        5.114028    6.178884    5.301045
      8          1           0        5.166847    5.230633    5.828444
      9          6           0        3.884648    6.541671    4.760537
     10          1           0        3.021821    5.896438    4.868139
     11          6           0        3.788101    7.748826    4.080707
     12          6           0        4.882610    8.590999    3.930013
     13          1           0        4.789108    9.528267    3.395849
     14          6           0        6.099659    8.204868    4.479608
     15          1           0        6.957772    8.857988    4.365807
     16         35           0        2.111212    8.263516    3.337854
 ---------------------------------------------------------------------
                    Distance matrix (angstroms):
                    1          2          3          4          5
     1  O    0.000000
     2  H    0.964225   0.000000
     3  C    2.515556   3.357854   0.000000
     4  B    1.363900   1.947398   1.570539   0.000000
     5  O    2.339250   2.391907   2.597969   1.366501   0.000000
     6  H    3.181533   3.341927   2.688482   1.974178   0.961887
     7  C    3.802988   4.543774   1.399173   2.607460   3.095979
     8  H    4.175535   4.745207   2.168975   2.834626   2.807428
     9  C    4.951646   5.777259   2.436163   3.891634   4.486468
    10  H    5.915517   6.691520   3.416692   4.761616   5.143231
    11  C    5.121295   6.045025   2.789506   4.359628   5.268641
    12  C    4.285253   5.246963   2.436298   3.863432   5.027877
    13  H    4.908717   5.867645   3.417463   4.721617   5.965840
    14  C    2.895711   3.856938   1.400380   2.566808   3.832028
    15  H    2.517415   3.452629   2.151400   2.737406   4.101486
    16  Br   6.982910   7.920917   4.694416   6.264467   7.144660
                    6          7          8          9         10
     6  H    0.000000
     7  C    2.715526   0.000000
     8  H    2.130395   1.086333   0.000000
     9  C    4.072566   1.391092   2.122093   0.000000
    10  H    4.563782   2.155113   2.442666   1.082763   0.000000
    11  C    5.061069   2.389984   3.361074   1.388781   2.153736
    12  C    5.080073   2.784166   3.869998   2.425993   3.406358
    13  H    6.097364   3.867003   4.952763   3.405903   4.298968
    14  C    4.061512   2.398091   3.396406   2.784137   3.866898
    15  H    4.551822   3.384030   4.301677   3.868491   4.951245
    16  Br   6.863653   4.149303   4.973764   2.851991   2.962101
                   11         12         13         14         15
    11  C    0.000000
    12  C    1.389213   0.000000
    13  H    2.153475   1.082841   0.000000
    14  C    2.389644   1.390094   2.154869   0.000000
    15  H    3.370213   2.137170   2.468439   1.084377   0.000000
    16  Br   1.904913   2.852813   2.962108   4.149067   4.989912
                   16
    16  Br   0.000000
 Symmetry turned off by external request.
 Stoichiometry    C6H6BBrO2
 Framework group  C1[X(C6H6BBrO2)]
 Deg. of freedom    42
 Full point group                 C1      NOp   1
 Rotational constants (GHZ):           3.6825370           0.3509240           0.3203985
 Standard basis: 6-311+G(d,p) (5D, 7F)
   282 basis functions,   466 primitive gaussians,   294 cartesian basis functions
    49 alpha electrons       49 beta electrons
       nuclear repulsion energy       678.1746800020 Hartrees.
 NAtoms=   16 NActive=   16 NUniq=   16 SFac= 1.00D+00 NAtFMM=   60 NAOKFM=F Big=F
 Integral buffers will be    131072 words long.
 Raffenetti 2 integral format.
 Two-electron integral symmetry is turned off.
 ------------------------------------------------------------------------------
 Polarizable Continuum Model (PCM)
 =================================
 Model                : PCM.
 Atomic radii         : SMD-Coulomb.
 Polarization charges : Total charges.
 Charge compensation  : None.
 Solution method      : Matrix inversion.
 Cavity type          : VdW (van der Waals Surface) (Alpha=1.000).
 Cavity algorithm     : GePol (No added spheres)
                        Default sphere list used, NSphG=   16.
                        Lebedev-Laikov grids with approx.  5.0 points / Ang**2.
                        Smoothing algorithm: York/Karplus (Gamma=1.0000).
                        Polarization charges: spherical gaussians, with
                                              point-specific exponents (IZeta= 3).
                        Self-potential: point-specific (ISelfS= 7).
                        Self-field    : sphere-specific E.n sum rule (ISelfD= 2).
 1st derivatives      : Analytical E(r).r(x)/FMM algorithm (CHGder, D1EAlg=3).
                        Cavity 1st derivative terms included.
 Solvent              : TetraHydroFuran, Eps=   7.425700 Eps(inf)=   1.974025
 ------------------------------------------------------------------------------
 Spheres list:
 ISph  on   Nord     Re0    Alpha      Xe            Ye            Ze
    1   O      1    2.2940  1.000      8.678485      7.475621      5.576420
    2   H      2    1.2000  1.000      9.496812      7.165823      5.981510
    3   C      3    1.8500  1.000      6.241649      6.997551      5.174797
    4   B      4    1.8000  1.000      7.640190      6.614519      5.778091
    5   O      5    2.2940  1.000      7.883597      5.475377      6.492536
    6   H      6    1.2000  1.000      7.119379      4.904386      6.615694
    7   C      7    1.8500  1.000      5.114028      6.178884      5.301045
    8   H      8    1.2000  1.000      5.166847      5.230633      5.828444
    9   C      9    1.8500  1.000      3.884648      6.541671      4.760537
   10   H     10    1.2000  1.000      3.021821      5.896438      4.868139
   11   C     11    1.8500  1.000      3.788101      7.748826      4.080707
   12   C     12    1.8500  1.000      4.882610      8.590999      3.930013
   13   H     13    1.2000  1.000      4.789108      9.528267      3.395849
   14   C     14    1.8500  1.000      6.099659      8.204868      4.479608
   15   H     15    1.2000  1.000      6.957772      8.857988      4.365807
   16  Br     16    3.0600  1.000      2.111212      8.263516      3.337854
 ------------------------------------------------------------------------------
 ------------------------------------------------------------------------------
 Atomic radii for non-electrostatic terms: SMD-CDS.
 ------------------------------------------------------------------------------
 Nuclear repulsion after PCM non-electrostatic terms =      678.1686831022 Hartrees.
 One-electron integrals computed using PRISM.
 NBasis=   282 RedAO= T EigKep=  2.32D-06  NBF=   282
 NBsUse=   282 1.00D-06 EigRej= -1.00D+00 NBFU=   282
 Initial guess from the checkpoint file:  "4-br-phboh2-opt-freq-thf.chk"
 B after Tr=    -0.001819    0.000430    0.002025
         Rot=    1.000000    0.000031   -0.000040    0.000036 Ang=   0.01 deg.
 Requested convergence on RMS density matrix=1.00D-08 within 128 cycles.
 Requested convergence on MAX density matrix=1.00D-06.
 Requested convergence on             energy=1.00D-06.
 Level shift goal  0.100 maximum shift  0.100.
 No special actions if energy rises.
 Dynamic level shift is on during FON iterations.
 Inv3:  Mode=1 IEnd=     8517675.
 Iteration    1 A*A^-1 deviation from unit magnitude is 4.44D-15 for   1685.
 Iteration    1 A*A^-1 deviation from orthogonality  is 2.07D-15 for   1677   1556.
 Iteration    1 A^-1*A deviation from unit magnitude is 5.11D-15 for   1685.
 Iteration    1 A^-1*A deviation from orthogonality  is 2.35D-15 for   1677   1556.
 Error on total polarization charges =  0.01349
 SCF Done:  E(RM062X) =  -2981.81254065     A.U. after    8 cycles
            NFock=  8  Conv=0.42D-08     -V/T= 2.0015
 SMD-CDS (non-electrostatic) energy       (kcal/mol) =      -3.76
 (included in total energy above)
 D1PCM: PCM CHGder 1st derivatives, ID1Alg=3 FixD1E=F DoIter=F DoCFld=F I1PDM=0.
 Calling FoFJK, ICntrl=      2127 FMM=F ISym2X=0 I1Cent= 0 IOpClX= 0 NMat=1 NMatS=1 NMatT=0.
 -------------------------------------------------------------------
 Center     Atomic                   Forces (Hartrees/Bohr)
 Number     Number              X              Y              Z
 -------------------------------------------------------------------
      1        8           0.000001062   -0.000004945    0.000002723
      2        1          -0.000002719   -0.000004698   -0.000000440
      3        6           0.000001366   -0.000000736    0.000000035
      4        5          -0.000000845   -0.000000410   -0.000001644
      5        8          -0.000003297   -0.000006134   -0.000000193
      6        1          -0.000001623   -0.000003654   -0.000004550
      7        6          -0.000001358    0.000001182   -0.000001039
      8        1          -0.000000494    0.000000339   -0.000002149
      9        6           0.000000629    0.000001849   -0.000000898
     10        1          -0.000001407    0.000004287   -0.000002436
     11        6          -0.000001892    0.000003951   -0.000000420
     12        6           0.000003276    0.000001403    0.000002524
     13        1           0.000001964    0.000002499    0.000003098
     14        6           0.000000105    0.000000914    0.000000886
     15        1           0.000002509   -0.000001387    0.000003067
     16       35           0.000002724    0.000005541    0.000001437
 -------------------------------------------------------------------
 Cartesian Forces:  Max     0.000006134 RMS     0.000002548

 GradGradGradGradGradGradGradGradGradGradGradGradGradGradGradGradGradGrad
 Berny optimization.
 Using GEDIIS/GDIIS optimizer.
 FormGI is forming the generalized inverse of G from B-inverse, IUseBI=4.
 Internal  Forces:  Max     0.000002860 RMS     0.000001074
 Search for a local minimum.
 Step number   3 out of a maximum of   81
 All quantities printed in internal units (Hartrees-Bohrs-Radians)
 Mixed Optimization -- En-DIIS/RFO-DIIS
 Swapping is turned off.
 Update second derivatives using D2CorX and points    1    2    3
 DE= -9.55D-08 DEPred=-9.37D-08 R= 1.02D+00
 Trust test= 1.02D+00 RLast= 3.92D-03 DXMaxT set to 3.00D-01
 ITU=  0  1  0
     Eigenvalues ---    0.00128   0.00961   0.01276   0.01459   0.01724
     Eigenvalues ---    0.01761   0.02151   0.02345   0.02613   0.02783
     Eigenvalues ---    0.02872   0.02970   0.03875   0.10550   0.11229
     Eigenvalues ---    0.11267   0.11568   0.12012   0.12683   0.15199
     Eigenvalues ---    0.15954   0.17858   0.18554   0.18809   0.19440
     Eigenvalues ---    0.19690   0.24370   0.27934   0.29507   0.35822
     Eigenvalues ---    0.36518   0.36736   0.36923   0.38862   0.42417
     Eigenvalues ---    0.42758   0.47805   0.47838   0.49241   0.51996
     Eigenvalues ---    0.54657   0.55547
 En-DIIS/RFO-DIIS/Sim-DIIS IScMMF=       -3 using points:     3    2    1
 RFO step:  Lambda=-4.93963921D-10.
 DidBck=F Rises=F RFO-DIIS coefs:    1.00531    0.01684   -0.02215
 Iteration  1 RMS(Cart)=  0.00058477 RMS(Int)=  0.00000016
 Iteration  2 RMS(Cart)=  0.00000022 RMS(Int)=  0.00000005
 Variable       Old X    -DE/DX   Delta X   Delta X   Delta X     New X
                                 (Linear)    (Quad)   (Total)
    R1        1.82212   0.00000   0.00011  -0.00012   0.00000   1.82212
    R2        2.57740   0.00000   0.00009  -0.00009   0.00000   2.57740
    R3        2.96789   0.00000   0.00012  -0.00011   0.00001   2.96790
    R4        2.64405   0.00000   0.00005  -0.00005   0.00000   2.64405
    R5        2.64633   0.00000   0.00003  -0.00002   0.00000   2.64634
    R6        2.58231   0.00000  -0.00005   0.00006   0.00001   2.58232
    R7        1.81770   0.00000   0.00015  -0.00015   0.00000   1.81770
    R8        2.05287   0.00000  -0.00001   0.00001  -0.00001   2.05286
    R9        2.62878   0.00000   0.00004  -0.00004   0.00000   2.62878
   R10        2.04613   0.00000   0.00002  -0.00002   0.00000   2.04612
   R11        2.62442   0.00000   0.00000   0.00000   0.00000   2.62441
   R12        2.62523   0.00000  -0.00001   0.00001   0.00000   2.62523
   R13        3.59976   0.00000   0.00024  -0.00024  -0.00001   3.59976
   R14        2.04627   0.00000   0.00002  -0.00002   0.00000   2.04627
   R15        2.62690   0.00000   0.00004  -0.00004   0.00000   2.62690
   R16        2.04918   0.00000   0.00001  -0.00001   0.00000   2.04918
    A1        1.96179   0.00000   0.00004  -0.00005   0.00000   1.96179
    A2        2.14159   0.00000  -0.00008   0.00010   0.00002   2.14161
    A3        2.08432   0.00000   0.00005  -0.00006  -0.00001   2.08430
    A4        2.05728   0.00000   0.00002  -0.00003  -0.00001   2.05727
    A5        2.05683   0.00000  -0.00004   0.00002  -0.00002   2.05681
    A6        2.05784   0.00000   0.00002  -0.00004  -0.00001   2.05783
    A7        2.16852   0.00000   0.00002   0.00001   0.00003   2.16855
    A8        2.00454   0.00000  -0.00001   0.00001   0.00000   2.00454
    A9        2.11222   0.00000   0.00010  -0.00009   0.00001   2.11223
   A10        2.12302   0.00000  -0.00005   0.00005   0.00001   2.12303
   A11        2.04795   0.00000  -0.00005   0.00003  -0.00002   2.04792
   A12        2.10623   0.00000  -0.00017   0.00017   0.00000   2.10623
   A13        2.06954   0.00000  -0.00002   0.00002   0.00000   2.06955
   A14        2.10741   0.00000   0.00019  -0.00019   0.00000   2.10740
   A15        2.12383   0.00000   0.00010  -0.00011  -0.00001   2.12382
   A16        2.07939   0.00000  -0.00003   0.00003   0.00000   2.07939
   A17        2.07997   0.00000  -0.00007   0.00008   0.00001   2.07998
   A18        2.10622   0.00000   0.00020  -0.00021  -0.00001   2.10621
   A19        2.06975   0.00000  -0.00009   0.00009   0.00000   2.06975
   A20        2.10722   0.00000  -0.00011   0.00012   0.00000   2.10722
   A21        2.12295   0.00000   0.00003  -0.00003   0.00000   2.12295
   A22        2.08418   0.00000   0.00018  -0.00019  -0.00001   2.08417
   A23        2.07606   0.00000  -0.00021   0.00021   0.00000   2.07606
    D1        3.13827   0.00000   0.00015   0.00000   0.00015   3.13842
    D2       -0.00243   0.00000   0.00011   0.00004   0.00015  -0.00228
    D3        3.12241   0.00000   0.00089   0.00012   0.00101   3.12342
    D4       -0.02014   0.00000   0.00093   0.00008   0.00102  -0.01912
    D5       -0.01986   0.00000   0.00088   0.00010   0.00098  -0.01889
    D6        3.12077   0.00000   0.00093   0.00005   0.00098   3.12175
    D7       -0.00256   0.00000   0.00013  -0.00011   0.00003  -0.00254
    D8        3.13872   0.00000   0.00003  -0.00005  -0.00002   3.13870
    D9        3.13970   0.00000   0.00014  -0.00008   0.00006   3.13976
   D10       -0.00220   0.00000   0.00003  -0.00002   0.00001  -0.00219
   D11       -3.13867   0.00000  -0.00005   0.00004  -0.00001  -3.13868
   D12        0.00190   0.00000  -0.00005   0.00006   0.00001   0.00191
   D13        0.00228   0.00000  -0.00006   0.00001  -0.00005   0.00223
   D14       -3.14034   0.00000  -0.00006   0.00003  -0.00002  -3.14037
   D15        3.13152   0.00000   0.00037  -0.00001   0.00036   3.13188
   D16       -0.00912   0.00000   0.00033   0.00003   0.00036  -0.00876
   D17       -3.14082   0.00000   0.00003   0.00001   0.00004  -3.14078
   D18        0.00046   0.00000   0.00000   0.00002   0.00002   0.00047
   D19        0.00047   0.00000  -0.00008   0.00007  -0.00001   0.00046
   D20       -3.14144   0.00000  -0.00010   0.00007  -0.00003  -3.14147
   D21        0.00132   0.00000  -0.00001   0.00000  -0.00001   0.00131
   D22       -3.13896   0.00000   0.00001  -0.00001   0.00000  -3.13896
   D23       -3.14059   0.00000  -0.00004   0.00000  -0.00003  -3.14062
   D24        0.00232   0.00000  -0.00002  -0.00001  -0.00003   0.00230
   D25        3.14053   0.00000   0.00000  -0.00001   0.00000   3.14052
   D26       -0.00125   0.00000  -0.00001  -0.00001  -0.00002  -0.00127
   D27       -0.00238   0.00000  -0.00002   0.00001  -0.00001  -0.00240
   D28        3.13903   0.00000  -0.00003   0.00001  -0.00003   3.13900
   D29       -0.00060   0.00000   0.00005   0.00000   0.00005  -0.00055
   D30       -3.14117   0.00000   0.00004  -0.00002   0.00003  -3.14115
   D31        3.14081   0.00000   0.00003   0.00000   0.00003   3.14084
   D32        0.00024   0.00000   0.00003  -0.00002   0.00001   0.00025
         Item               Value     Threshold  Converged?
 Maximum Force            0.000003     0.000015     YES
 RMS     Force            0.000001     0.000010     YES
 Maximum Displacement     0.002611     0.000060     NO 
 RMS     Displacement     0.000585     0.000040     NO 
 Predicted change in Energy=-4.328829D-09
 GradGradGradGradGradGradGradGradGradGradGradGradGradGradGradGradGradGrad

                          Input orientation:                          
 ---------------------------------------------------------------------
[...]
     1         14.74745649         20.26391737          2.26918619
     6          9.61730467         17.79977286         -0.53681755
     5         11.49165892         18.69103038          1.58471491
     8         11.03811976         18.45842889          4.11623804
     1          9.44049582         17.70194321          4.53976451
     6          7.30398920         16.63600531         -0.00274188
     1          6.71231871         16.29699847          1.93355357
     6          5.67220936         15.86865575         -1.91558104
     1          3.88817594         14.97193514         -1.46865989
     6          6.38041348         16.27823902         -4.40921817
     6          8.66119947         17.42328473         -5.02463111
     1          9.18335571         17.72591487         -6.97988013
     6         10.25748513         18.17214353         -3.07741103
     1         12.04022121         19.06777016         -3.54519444
    35          4.16520348         15.24684666         -7.05256924

 Electric dipole moment (dipole orientation):
 (Debye = 10**-18 statcoulomb cm , SI units = C m)
                  (au)            (Debye)         (10**-30 SI)
   Tot        0.988546D+00      0.251263D+01      0.838124D+01
   x          0.000000D+00      0.000000D+00      0.000000D+00
   y          0.000000D+00      0.000000D+00      0.000000D+00
   z          0.988546D+00      0.251263D+01      0.838124D+01

 Dipole polarizability, Alpha (dipole orientation).
 (esu units = cm**3 , SI units = C**2 m**2 J**-1)
 Alpha(0;0):
               (au)            (10**-24 esu)      (10**-40 SI)
   iso        0.133201D+03      0.197384D+02      0.219619D+02
   aniso      0.946919D+02      0.140319D+02      0.156126D+02
   xx         0.143958D+03      0.213324D+02      0.237355D+02
   yx         0.327423D+02      0.485191D+01      0.539848D+01
   yy         0.927941D+02      0.137507D+02      0.152997D+02
   zx         0.226626D+02      0.335825D+01      0.373656D+01
   zy         0.945681D+01      0.140135D+01      0.155922D+01
   zz         0.162851D+03      0.241320D+02      0.268504D+02

 ----------------------------------------------------------------------
 Unable to Open any file for archive entry.
 1\1\GINC-CN015\Freq\RM062X\6-311+G(d,p)\C6H6B1Br1O2\TAHMINAAFROZ\21-Ap
 r-2025\0\\#N Geom=AllCheck Guess=TCheck SCRF=Check GenChk RM062X/6-311
 +G(d,p) Freq\\4-br-phboh2-opt-freq-thf\\0,1\O,8.6781223153,7.476325386
 1,5.5776040452\H,9.496519568,7.166437228,5.9824745577\C,6.2416173995,6
 .9975697108,5.1748865603\B,7.6401588035,6.6145798692,5.7782241118\O,7.
 8839047954,5.4749023185,6.4917142117\H,7.1200328075,4.9032024703,6.613
 7240459\C,5.1138787894,6.1791153537,5.3014691091\H,5.1665509774,5.2310
 59144,5.8292212874\C,3.8845175577,6.5419016767,4.7609232864\H,3.021595
 3254,5.8968471469,4.8688275463\C,3.7880948201,7.7488385516,4.080693164
 8\C,4.8827178339,8.5908029846,3.929662676\H,4.7893134462,9.5279037123,
 3.3951891852\C,6.0997358836,8.2046991958,4.4793454073\H,6.9579266488,8
 .8576752078,4.365313527\Br,2.1112320282,8.2635090437,3.3377802777\\Ver
 sion=AS64L-G16RevC.01\HF=-2981.8125407\RMSD=5.730e-09\RMSF=2.400e-06\Z
 eroPoint=0.1152602\Thermal=0.1245888\ETot=-2981.6879518\HTot=-2981.687
 0077\GTot=-2981.733732\Dipole=0.3581471,-0.7526406,0.5314937\DipoleDer
 iv=-1.6296248,-0.3575037,-0.071598,-0.4585769,-0.8704741,0.0068174,-0.
 0135398,0.0333183,-0.6556107,0.4489707,0.0437266,-0.009061,0.0509575,0
 .3396089,0.0438652,-0.0155008,0.0428613,0.3631047,-0.7824137,0.1744733
 ,-0.2527097,0.1626489,-0.2828411,0.0811053,-0.2431847,0.0874516,-0.336
 0347,2.3667023,-0.0268221,0.4797418,0.0991372,1.7018302,-0.5509496,0.4
 098859,-0.5853167,1.1269994,-0.8445358,0.1819788,-0.1649809,0.2135427,
 -1.3724131,0.4826115,-0.1858553,0.4718515,-0.9432098,0.3035075,-0.0405
 496,0.0025851,-0.0833696,0.4629145,-0.0702994,0.0303907,-0.0575272,0.4
 207933,0.1447898,-0.1271182,0.1483952,0.1075266,0.028886,-0.0599358,0.
 0154461,-0.128399,-0.0661938,0.0804835,0.0518076,-0.0508705,0.028747,-
 0.0361218,0.1150636,-0.0389958,0.1206295,0.0860909,-0.3115342,0.232229
 1,-0.1762266,0.1632453,-0.213827,0.0879639,-0.1348249,0.1107217,-0.231
 8813,0.0221018,-0.0667224,-0.0071056,-0.039891,0.1083163,0.0271272,-0.
 0203082,0.019781,0.1613256,1.1443262,-0.2736418,0.480603,-0.2972878,0.
 2212791,-0.2268322,0.4881466,-0.220371,0.2107517,-0.5146334,-0.0528916
 ,-0.0759036,0.0600974,-0.0668961,-0.0205444,-0.1362755,-0.0519976,-0.1
 461523,0.1112137,0.0378876,-0.0392353,0.01108,0.0532463,0.069791,-0.02
 4,0.0756014,0.1301717,0.1357531,0.1265323,0.0029381,-0.1432868,0.01410
 34,-0.1170878,0.149643,-0.0411833,-0.0625141,0.0238894,-0.0811237,0.00
 59824,-0.0528809,0.0709794,0.0345415,-0.0098625,0.0266849,0.1430964,-0
 .698996,0.1777378,-0.2725543,0.1783105,-0.1585909,0.0967627,-0.2711648
 ,0.0958937,-0.2007369\Polar=171.7847329,-4.6838339,127.2070579,29.0552
 025,-28.7983916,100.6112425\Quadrupole=6.7767894,-15.7858154,9.009026,
 -0.4913082,7.9857698,-2.8296614\PG=C01 [X(C6H6B1Br1O2)]\NImag=0\\0.638
 42332,0.02754239,0.28659783,0.15322669,-0.13690010,0.15360490,-0.37602
 069,0.11744886,-0.16833462,0.40396392,0.14819148,-0.08094819,0.0808369
 7,-0.12534805,0.07450130,-0.18584990,0.07226582,-0.10504994,0.18132138
 ,-0.07220814,0.10126666,-0.02998261,-0.00208188,-0.00944088,0.00005088
 ,-0.00219780,0.00007839,0.61101031,-0.01822597,0.00722583,-0.00435292,
 -0.00320384,-0.00086971,0.00202261,0.06815671,0.53712683,-0.00033673,0
 .00011855,0.00838045,0.00062811,0.00231292,0.00313817,0.09773375,-0.20
 145869,0.26854585,-0.22998226,-0.11232891,0.01282451,-0.03291141,-0.02
 270415,0.00316847,-0.16815930,0.02675052,-0.04429215,0.52528194,-0.135
 96485,-0.16525037,0.02928425,0.00472304,0.00793432,-0.00208146,0.02603
 544,-0.07734644,0.01538744,0.07328037,0.49503545,0.02630099,0.03592879
 ,-0.06015411,-0.01240422,-0.00968893,0.00405595,-0.04402144,0.01558044
 ,-0.08336717,0.06410166,-0.17873698,0.26230404,0.00363742,-0.03484073,
 0.01747342,0.00477779,0.00194098,0.00098281,0.00133390,0.02123352,-0.0
 1617772,-0.09050437,0.02630337,-0.02797584,0.43292117,-0.02477630,-0.0
 4762076,0.02674998,0.00594428,-0.00041197,0.00036963,0.00483636,-0.007
 29373,0.01478832,0.05742252,-0.23798734,0.12685479,0.20512839,0.489933
 07,0.01186170,0.02393685,0.00109367,-0.00132872,-0.00077579,-0.0025807
 0,-0.00679195,0.01932046,0.00355843,-0.04574724,0.11870434,-0.12194433
 ,-0.00671171,-0.21065029,0.14632439,0.00304084,0.00269148,-0.00239460,
 -0.00004902,0.00036284,0.00001747,-0.00132469,0.00113603,-0.00029647,0
 .00417307,0.00168906,0.00100034,-0.34791096,-0.25080841,0.05258739,0.3
 4430666,0.00105456,-0.00007406,0.00390744,0.00035015,-0.00050762,-0.00
 010534,0.00036073,0.00147785,-0.00220371,-0.02416178,-0.02158581,0.004
 03293,-0.22119908,-0.19633869,0.04847142,0.24405538,0.21565651,-0.0015
 2369,0.00429320,0.00348622,0.00004081,-0.00008822,-0.00080956,0.000095
 95,-0.00199054,-0.00135915,0.01578675,0.01082859,-0.00504718,0.0355989
 1,0.04083503,-0.02212319,-0.04925874,-0.05394539,0.02493255,-0.0010293
 6,0.00103532,-0.00111442,-0.00060575,-0.00039287,-0.00000839,-0.251603
 73,-0.07603231,-0.01218609,-0.01881711,-0.00875317,-0.00110267,0.00143
 578,-0.00281190,0.00223776,0.00095902,0.00031115,-0.00004236,0.6330623
 9,0.00522492,0.00014274,0.00178570,0.00035931,0.00041848,0.00004975,-0
 .12481374,-0.18042353,0.02878620,-0.00088856,0.01054632,-0.00498734,0.
 00059349,-0.00348023,0.00166718,0.00284736,0.00012521,0.00113572,0.052
 04988,0.60357489,-0.00336442,0.00064861,-0.00048982,-0.00045309,-0.000
 15033,0.00033710,0.01433904,0.04236988,-0.08174668,-0.00527921,-0.0071
 9062,0.00431425,0.00033239,0.00051125,-0.00177741,-0.00152432,0.000393
 78,-0.00004504,0.11034513,-0.23620139,0.29922714,0.00043910,0.00032585
 ,-0.00011687,-0.00005905,-0.00004877,-0.00004353,0.00701206,-0.0201452
 7,0.01232875,-0.00019004,-0.00066283,0.00118208,0.00072032,-0.00042028
 ,-0.00101413,-0.00259301,0.00067276,-0.00147147,-0.05860538,0.00805187
 ,-0.00990407,0.05974937,-0.00020795,0.00036445,-0.00016718,-0.00010979
 ,0.00000768,0.00006710,0.00229201,-0.01061772,0.00750232,0.00140619,-0
 .00222698,-0.00003980,0.00009531,0.00152599,-0.00021782,-0.00092329,0.
 00081083,-0.00029650,0.01177449,-0.26622498,0.12612232,-0.01013945,0.2
 7789528,0.00020789,0.00000233,0.00023925,-0.00000918,0.00008754,0.0001
 3487,0.00023867,0.00120253,0.00146515,0.00006267,-0.00064948,-0.002730
 76,-0.00121203,-0.00033668,-0.00182581,-0.00061494,0.00026762,0.000617
 91,-0.01208281,0.12494512,-0.11009866,0.01679326,-0.14002328,0.1073334
 7,-0.00298351,0.00009925,-0.00075822,0.00003614,-0.00009716,0.00018793
 ,-0.05279914,-0.03804171,0.00318650,0.00127173,-0.00619887,0.00203258,
 0.00041042,0.00105403,-0.00051790,-0.00030352,0.00018024,-0.00000285,-
 0.29282373,0.07452758,-0.10477320,0.00089597,-0.00169797,-0.00017764,0
 .69806159,0.00046990,0.00062111,-0.00045389,-0.00036586,-0.00014348,-0
 .00023916,0.00856126,0.05151647,-0.02036329,-0.00441268,0.00063128,0.0
 0172440,0.00003889,0.00000232,0.00005363,-0.00064907,0.00006703,-0.000
 60757,0.00508431,-0.12823785,0.03703360,0.02564754,-0.00407380,0.01205
 190,0.11029842,0.58365189,-0.00099774,-0.00052781,-0.00037893,0.000326
 91,-0.00020106,-0.00026335,-0.02217322,-0.03328741,0.02170312,0.000990
 74,0.00121394,0.00569279,0.00006974,0.00033000,-0.00007786,0.00047294,
 -0.00033997,-0.00027943,-0.06707043,0.05641595,-0.11174183,-0.01500267
 ,0.00437188,-0.00169366,0.09906972,-0.21478300,0.27361242,-0.00072195,
 -0.00001665,-0.00015342,-0.00002012,-0.00004006,0.00003127,-0.00286696
 ,0.00170943,-0.00385072,0.00046158,-0.00095811,0.00059873,-0.00015868,
 0.00032537,-0.00023510,-0.00002112,-0.00011226,0.00005939,-0.01556198,
 -0.01677554,0.00365782,0.00074791,0.00054572,0.00113174,-0.24073880,-0
 .14303061,0.02045519,0.25195942,0.00024645,-0.00003761,0.00002019,0.00
 003142,0.00000412,-0.00001963,0.00161884,0.00197987,0.00344728,0.00008
 787,0.00041269,-0.00010006,-0.00000204,-0.00008032,0.00006233,0.000021
 06,0.00002688,-0.00001296,0.00872379,0.00940392,-0.00055610,0.00020843
 ,-0.00041163,-0.00207193,-0.14094545,-0.15672178,0.02561336,0.15061148
 ,0.16110289,-0.00029080,-0.00004919,-0.00017937,-0.00001309,-0.0000383
 4,-0.00002667,-0.00375517,0.00349279,0.00455786,0.00002126,-0.00038927
 ,0.00039740,-0.00005137,0.00015283,-0.00006563,-0.00001796,-0.00005042
 ,0.00001709,-0.01019562,-0.00769549,0.00518325,0.00130537,-0.00197337,
 -0.00290292,0.01932089,0.02498565,-0.04479866,-0.01830877,-0.03158705,
 0.03710233,0.00024702,0.00036836,-0.00008470,0.00000956,0.00001155,-0.
 00002856,-0.01212141,-0.02847724,0.01399400,-0.00205944,-0.00107033,0.
 00012362,0.00074038,-0.00076877,0.00068437,0.00008157,0.00024066,-0.00
 016887,0.02733689,0.02785454,-0.00916772,-0.00273940,0.00043511,-0.003
 16081,-0.10833496,0.02606418,-0.02752946,0.00428891,-0.02117937,0.0120
 8462,0.49210517,-0.00153486,-0.00000920,-0.00047069,0.00013839,-0.0000
 6602,0.00008657,-0.02914307,-0.06003749,0.02090382,-0.00019153,-0.0033
 2443,0.00150540,0.00052139,0.00006745,0.00000842,0.00003980,0.00025090
 ,0.00001489,0.08918263,0.00038129,0.02787601,0.00020892,0.00295873,0.0
 0264784,-0.03870825,-0.27357804,0.10446188,0.00498760,-0.01182487,0.00
 900557,0.10107131,0.53112478,0.00091566,0.00003372,0.00009161,-0.00008
 597,0.00006656,0.00000219,0.01419761,0.02099845,-0.01410130,-0.0003187
 9,0.00126032,-0.00119286,-0.00002433,-0.00033490,0.00001815,-0.0000791
 9,0.00006592,0.00018095,-0.04232696,0.01072664,-0.01169312,-0.00303521
 ,0.00269162,0.00538890,0.00751490,0.12266660,-0.12464599,-0.00210210,0
 .00163182,0.00065947,0.04991027,-0.19628151,0.23554561,-0.00004168,-0.
 00038296,0.00020586,0.00007694,0.00014812,-0.00003499,0.02425256,0.074
 86464,-0.03684469,0.00495282,0.00072150,-0.00067814,-0.00093635,0.0013
 1721,-0.00063723,-0.00003961,-0.00045858,0.00020602,-0.07563823,-0.013
 35482,-0.01273015,-0.00117069,-0.00004484,0.00000167,0.04590713,-0.060
 91224,0.04420642,0.00147525,0.00089585,-0.00190193,-0.23145276,-0.0812
 0719,-0.00384257,0.63025534,-0.00024967,0.00059253,-0.00045935,0.00013
 034,0.00012652,-0.00004925,0.02905015,0.00375752,0.01168767,-0.0017211
 1,-0.00273447,0.00433193,0.00168319,-0.00065677,0.00021791,-0.00009174
 ,0.00034781,-0.00018593,-0.01485668,-0.00435788,-0.00402010,0.00003199
 ,0.00008740,-0.00068055,-0.01307622,-0.03329889,0.01777054,0.00065219,
 -0.00223946,0.00485862,-0.14613635,-0.19545773,0.03217091,0.04808458,0
 .62605785,0.00012724,-0.00048986,0.00020485,-0.00003816,-0.00005092,-0
 .00001871,-0.01187238,0.02463498,-0.00629121,0.00058429,0.00499223,0.0
 0355684,-0.00081425,0.00002675,-0.00148093,0.00002222,-0.00024930,0.00
 025125,-0.01195328,-0.00359640,-0.00556545,-0.00001469,-0.00070805,-0.
 00081427,0.01818614,0.00432455,0.00892063,-0.00174525,0.00493540,0.003
 26376,0.03131684,0.05038362,-0.07915679,0.11338901,-0.25436439,0.30147
 651,-0.00034581,-0.00016689,-0.00000797,0.00002426,0.00000435,-0.00000
 304,-0.00413074,0.00047221,-0.00354310,0.00103310,0.00077958,-0.000155
 48,-0.00056988,0.00042496,-0.00036009,-0.00002763,-0.00013711,0.000068
 17,-0.00126628,-0.00012124,0.00000453,0.00009242,0.00017960,0.00020804
 ,-0.00346187,-0.00343892,-0.00090069,0.00038849,-0.00102550,0.00058760
 ,0.00333665,-0.02197164,0.01225174,-0.05673382,0.02012468,-0.01645406,
 0.05804969,0.00017079,0.00004954,0.00003091,-0.00001754,0.00000626,0.0
 0000497,0.00047486,0.00284732,0.00274191,-0.00046035,-0.00005917,-0.00
 005307,0.00015283,-0.00016770,0.00004564,0.00000299,0.00004349,-0.0000
 1472,-0.00021813,0.00029589,-0.00078707,0.00014412,-0.00027124,-0.0003
 5675,-0.00369109,0.00091297,0.00197946,0.00016495,-0.00040324,0.000402
 45,0.00422886,-0.01129610,0.00846382,0.01787228,-0.27168771,0.13209699
 ,-0.01866790,0.28172593,-0.00018237,-0.00006054,0.00000447,0.00000848,
 0.00001044,0.00002108,-0.00354734,0.00269562,0.00518334,0.00049687,0.0
 0029267,0.00006153,-0.00018675,0.00010868,-0.00028707,-0.00001211,-0.0
 0004725,0.00004336,0.00008175,-0.00074764,-0.00060358,0.00023006,-0.00
 034537,-0.00074943,-0.00077235,0.00205757,0.00511030,-0.00005462,0.000
 07170,0.00020038,-0.00195613,0.00109949,0.00101342,-0.01521520,0.13280
 673,-0.11367190,0.01943139,-0.14416724,0.10897274,-0.00242088,-0.00006
 170,-0.00043875,0.00063870,0.00018257,0.00009244,-0.12399860,-0.014516
 74,-0.00850876,0.00240418,0.01983897,-0.01076540,-0.00533136,0.0024874
 8,-0.00335094,-0.00035873,-0.00085161,0.00039775,0.04714249,-0.0179996
 9,0.02152451,-0.00354055,-0.00404423,-0.00092391,-0.02568071,0.0298701
 8,-0.02223570,0.00003040,0.00100539,-0.00019916,-0.05941122,-0.0476655
 0,0.00755343,-0.28904904,0.08054283,-0.10634423,0.00243006,-0.00121051
 ,0.00012278,0.69247520,-0.00246290,-0.00239329,0.00037618,-0.00033462,
 -0.00038865,0.00006086,0.03571979,-0.25861348,0.11504188,0.01023642,-0
 .00206161,0.00520053,-0.00202032,0.00218588,-0.00107892,-0.00021137,-0
 .00044930,0.00020531,-0.06175963,-0.03762839,0.00589418,-0.00381660,0.
 00103898,0.00243249,0.02905607,-0.03612871,0.02540245,0.00086001,-0.00
 055978,-0.00007011,0.01309334,0.05611832,-0.02336116,0.01097211,-0.134
 69941,0.04098053,0.02431730,-0.00180855,0.01002244,0.09251921,0.573677
 51,0.00086849,0.00095374,-0.00088037,0.00038814,0.00018815,-0.00012552
 ,-0.03581329,0.10101263,-0.12987043,-0.00557816,0.00794539,-0.00359744
 ,-0.00076713,0.00024376,0.00093712,-0.00002203,0.00000818,0.00003869,0
 .04531550,0.01804669,0.00786907,-0.00105005,0.00239400,0.00597142,-0.0
 2177634,0.02563943,-0.02426953,-0.00014454,-0.00001437,-0.00112076,-0.
 02553410,-0.04043473,0.02095903,-0.06866947,0.06052680,-0.11637269,-0.
 01364875,0.00288496,-0.00127491,0.10292729,-0.20661790,0.28591955,-0.0
 0074478,0.00073087,-0.00064526,-0.00007696,-0.00001360,0.00004427,0.00
 661610,0.00249010,-0.00023828,-0.00021680,0.00094170,0.00025790,0.0001
 4868,-0.00040201,0.00013927,0.00001614,0.00002381,0.00000693,0.0016192
 5,0.00072150,-0.00198614,0.00029353,0.00024960,-0.00008077,-0.00017576
 ,0.00080225,-0.00013542,-0.00007212,0.00002952,0.00022608,-0.00168446,
 0.00099818,-0.00323468,-0.01658088,-0.01685083,0.00314337,0.00079485,0
 .00058816,0.00114619,-0.23632381,-0.13892471,0.02060298,0.24762299,0.0
 0001043,0.00056390,-0.00027702,0.00029471,0.00032342,-0.00020483,-0.02
 062213,-0.01121214,0.00173401,-0.00141383,-0.00212182,-0.00083561,0.00
 019288,0.00054243,0.00000796,-0.00008320,0.00004167,-0.00008190,0.0006
 3867,-0.00238452,0.00543633,-0.00108585,-0.00059795,0.00007682,0.00084
 809,-0.00047892,-0.00017445,-0.00000176,-0.00014889,-0.00042583,0.0010
 1618,0.00226418,0.00335390,0.00928510,0.00903454,0.00033531,0.00014390
 ,-0.00049916,-0.00209295,-0.13881189,-0.15828393,0.02499337,0.14881817
 ,0.16293355,-0.00024072,-0.00000380,0.00005596,-0.00011677,-0.00029286
 ,-0.00010024,0.01226232,0.00816476,0.00161318,0.00157204,-0.00020440,-
 0.00244077,-0.00020759,-0.00011605,0.00048958,0.00006098,-0.00005378,-
 0.00000760,-0.00192461,0.00546292,0.00379480,0.00064394,0.00045719,0.0
 0004692,-0.00018017,-0.00016940,-0.00119483,0.00024270,-0.00041540,-0.
 00063817,-0.00324292,0.00332999,0.00522185,-0.01098623,-0.00699017,0.0
 0556314,0.00137469,-0.00197201,-0.00297182,0.02051790,0.02491732,-0.04
 853850,-0.01903505,-0.03200134,0.03933307,-0.00151416,-0.00036268,-0.0
 0024079,0.00016482,0.00000056,0.00004399,-0.00328863,0.00182991,-0.001
 59642,0.00326233,-0.00070486,0.00150528,-0.00071427,0.00104708,-0.0008
 1549,0.00005100,-0.00032902,0.00020729,0.00439574,0.00172315,-0.001021
 09,-0.00105256,0.00018949,-0.00038186,-0.01928097,0.00597245,-0.009546
 34,0.00080979,-0.00032773,0.00118806,-0.11034249,0.02327382,-0.0372938
 2,-0.03527697,0.01268265,-0.01753282,0.00038650,0.00046567,0.00040935,
 0.00099387,-0.00724411,0.00290144,-0.00123597,0.00077054,-0.00074051,0
 .16264195,0.00051159,0.00017555,0.00008954,-0.00004080,0.00001356,-0.0
 0001949,0.00175248,0.00048256,-0.00042662,-0.00090101,0.00013840,-0.00
 071742,0.00017792,-0.00021961,0.00022668,-0.00007891,0.00010730,-0.000
 08900,-0.00397556,-0.00215135,0.00261965,0.00102758,-0.00026506,0.0004
 0449,0.02639303,-0.00474161,0.01175423,0.00107823,-0.00050279,-0.00061
 882,0.02324797,-0.03757177,0.01584730,-0.00780076,0.00512814,-0.003251
 45,-0.00091738,0.00031148,-0.00170435,-0.00128474,-0.00000560,0.002229
 92,-0.00020270,0.00002365,-0.00011297,-0.03898694,0.03907713,-0.000722
 31,-0.00015029,-0.00002885,0.00006998,-0.00000799,0.00001867,-0.001530
 06,-0.00040558,-0.00140959,0.00160628,-0.00065695,0.00009183,-0.000328
 55,0.00046690,-0.00025840,0.00005901,-0.00015212,0.00010314,0.00202750
 ,0.00420637,0.00303598,-0.00083077,0.00016497,-0.00038237,-0.02053998,
 0.00607900,-0.00569518,0.00041769,-0.00100456,-0.00164936,-0.03724045,
 0.01586344,-0.03829112,-0.00646839,0.00237862,0.00013499,0.00114700,-0
 .00130025,-0.00105191,-0.00036925,0.00059391,0.00435527,-0.00021141,0.
 00015622,-0.00022657,0.06291374,-0.02623168,0.04125348\\-0.00000026,0.
 00000393,-0.00000127,0.00000017,0.00000540,-0.00000107,0.00000016,0.00
 000072,0.00000002,0.00000075,0.00000312,0.00000019,0.00000218,0.000004
 39,0.00000179,0.00000279,0.00000372,0.00000281,0.00000114,-0.00000029,
 0.00000150,0.00000227,0.00000050,0.00000282,0.00000054,-0.00000240,0.0
 0000130,0.00000128,-0.00000318,0.00000246,-0.00000090,-0.00000351,-0.0
 0000037,-0.00000192,-0.00000254,-0.00000188,-0.00000306,-0.00000340,-0
 .00000318,-0.00000135,-0.00000043,-0.00000164,-0.00000207,0.00000034,-
 0.00000280,-0.00000172,-0.00000637,-0.00000069\\\@
 The archive entry for this job was punched.


 CONTRAIWISE...CONTINUED TWEEDLEDEE, IF IT WAS SO, IT MIGHT BE,
 AND IF IT WERE SO, IT WOULD BE.....
 BUT AS IT ISN'T, IT AIN'T....
 THAT'S LOGIC.....
 ALICE THROUGH THE LOOKING GLASS
 Job cpu time:       0 days  0 hours 45 minutes 33.3 seconds.
 Elapsed time:       0 days  0 hours  1 minutes 30.4 seconds.
 File lengths (MBytes):  RWF=    197 Int=      0 D2E=      0 Chk=     16 Scr=      1
 Normal termination of Gaussian 16 at Mon Apr 21 12:01:57 2025.
