/home/tahminaafroz
cn015.cluster.local
tahminaafroz
Mon May  5 07:41:52 CDT 2025
 Entering Gaussian System, Link 0=g16
 Initial command:
 /home/apps/g16/l1.exe "/tmp/2-cf3-phboh2-opt-freq-2/Gau-1903809.inp" -scrdir="/tmp/2-cf3-phboh2-opt-freq-2/"
 Entering Link 1 = /home/apps/g16/l1.exe PID=   1903810.
  
 Copyright (c) 1988-2019, Gaussian, Inc.  All Rights Reserved.
  
 This is part of the Gaussian(R) 16 program.  It is based on
 the Gaussian(R) 09 system (copyright 2009, Gaussian, Inc.),
 the Gaussian(R) 03 system (copyright 2003, Gaussian, Inc.),
 the Gaussian(R) 98 system (copyright 1998, Gaussian, Inc.),
 the Gaussian(R) 94 system (copyright 1995, Gaussian, Inc.),
 the Gaussian 92(TM) system (copyright 1992, Gaussian, Inc.),
 the Gaussian 90(TM) system (copyright 1990, Gaussian, Inc.),
 the Gaussian 88(TM) system (copyright 1988, Gaussian, Inc.),
 the Gaussian 86(TM) system (copyright 1986, Carnegie Mellon
 University), and the Gaussian 82(TM) system (copyright 1983,
 Carnegie Mellon University). Gaussian is a federally registered
 trademark of Gaussian, Inc.
  
 This software contains proprietary and confidential information,
 including trade secrets, belonging to Gaussian, Inc.
  
 This software is provided under written license and may be
 used, copied, transmitted, or stored only in accord with that
 written license.
  
 The following legend is applicable only to US Government
 contracts under FAR:
  
                    RESTRICTED RIGHTS LEGEND
  
 Use, reproduction and disclosure by the US Government is
 subject to restrictions as set forth in subparagraphs (a)
 and (c) of the Commercial Computer Software - Restricted
 Rights clause in FAR 52.227-19.
  
 Gaussian, Inc.
 340 Quinnipiac St., Bldg. 40, Wallingford CT 06492
  
  
 ---------------------------------------------------------------
 Warning -- This program may not be used in any manner that
 competes with the business of Gaussian, Inc. or will provide
 assistance to any competitor of Gaussian, Inc.  The licensee
 of this program is prohibited from giving any competitor of
 Gaussian, Inc. access to this program.  By using this program,
 the user acknowledges that Gaussian, Inc. is engaged in the
 business of creating and licensing software in the field of
 computational chemistry and represents and warrants to the
 licensee that it is not a competitor of Gaussian, Inc. and that
 it will not use this program in any manner prohibited above.
 ---------------------------------------------------------------
  

 Cite this work as:
 Gaussian 16, Revision C.01,
 M. J. Frisch, G. W. Trucks, H. B. Schlegel, G. E. Scuseria, 
 M. A. Robb, J. R. Cheeseman, G. Scalmani, V. Barone, 
 G. A. Petersson, H. Nakatsuji, X. Li, M. Caricato, A. V. Marenich, 
 J. Bloino, B. G. Janesko, R. Gomperts, B. Mennucci, H. P. Hratchian, 
 J. V. Ortiz, A. F. Izmaylov, J. L. Sonnenberg, D. Williams-Young, 
 F. Ding, F. Lipparini, F. Egidi, J. Goings, B. Peng, A. Petrone, 
 T. Henderson, D. Ranasinghe, V. G. Zakrzewski, J. Gao, N. Rega, 
 G. Zheng, W. Liang, M. Hada, M. Ehara, K. Toyota, R. Fukuda, 
 J. Hasegawa, M. Ishida, T. Nakajima, Y. Honda, O. Kitao, H. Nakai, 
 T. Vreven, K. Throssell, J. A. Montgomery, Jr., J. E. Peralta, 
 F. Ogliaro, M. J. Bearpark, J. J. Heyd, E. N. Brothers, K. N. Kudin, 
 V. N. Staroverov, T. A. Keith, R. Kobayashi, J. Normand, 
 K. Raghavachari, A. P. Rendell, J. C. Burant, S. S. Iyengar, 
 J. Tomasi, M. Cossi, J. M. Millam, M. Klene, C. Adamo, R. Cammi, 
 J. W. Ochterski, R. L. Martin, K. Morokuma, O. Farkas, 
 J. B. Foresman, and D. J. Fox, Gaussian, Inc., Wallingford CT, 2019.
 
 ******************************************
 Gaussian 16:  AS64L-G16RevC.01  3-Jul-2019
                 5-May-2025 
 ******************************************
 %mem=20GB
 %nprocshared=32
 Will use up to   32 processors via shared memory.
 %chk=2-cf3-phboh2-opt-freq-2.chk
 ----------------------------------------------------------------------
 # opt=(calcfc,tight) freq 6-311+g(d,p) nosymm scf=(qc,fermi,xqc) geom=
 connectivity int=ultrafine m062x
 ----------------------------------------------------------------------
 1/7=10,10=4,18=20,19=15,26=4,38=1,57=2/1,3;
 2/9=110,12=2,15=1,17=6,18=5,40=1/2;
 3/5=4,6=6,7=111,11=2,25=1,30=1,71=2,74=-55,75=-5,140=1/1,2,3;
 4//1;
 5/5=2,22=13,38=5/2;
 8/6=4,10=90,11=11/1;
 11/6=1,8=1,9=11,15=111,16=1,31=1/1,2,10;
 10/6=1,13=1,31=1/2;
 6/7=2,8=2,9=2,10=2,28=1/1;
 7/10=1,25=1,30=1/1,2,3,16;
 1/7=10,10=4,18=20,19=15,26=4/3(2);
 2/9=110,15=1/2;
 99//99;
 2/9=110,15=1/2;
 3/5=4,6=6,7=111,11=2,25=1,30=1,71=1,74=-55,75=-5/1,2,3;
 4/5=5,16=3,69=1/1;
 5/5=2,22=13,38=5/2;
 7/30=1/1,2,3,16;
 1/7=10,18=20,19=15,26=4/3(-5);
 2/9=110,15=1/2;
 6/7=2,8=2,9=2,10=2,19=2,28=1/1;
 99/9=1/99;
 -----------------------
 2-cf3-phboh2-opt-freq-2
 -----------------------
 Symbolic Z-matrix:
 Charge =  0 Multiplicity = 1
 O                     8.70127   6.35732   4.85638 
 H                     9.50948   6.07374   5.29562 
 C                     6.27359   6.99913   5.12206 
 B                     7.66738   6.51841   5.7112 
 O                     7.81202   6.19303   7.02598 
 H                     7.04784   6.38903   7.57218 
 C                     5.19255   6.10714   5.15574 
 H                     5.32834   5.12082   5.58745 
 C                     3.96058   6.46376   4.63134 
 H                     3.13358   5.76165   4.65358 
 C                     3.75399   7.73936   4.06483 
 C                     4.83996   8.63796   4.04672 
 H                     4.67551   9.62278   3.62497 
 C                     6.07105   8.26944   4.56149 
 C                     2.50079   8.19747   3.5099 
 H                     1.78909   7.35508   3.60443 
 C                     7.21456   9.24911   4.50835 
 F                     6.78511   10.51497   4.45616 
 F                     7.99731   9.14124   5.59962 
 F                     7.99862   9.0544    3.44349 
 

 GradGradGradGradGradGradGradGradGradGradGradGradGradGradGradGradGradGrad
 Berny optimization.
 Initialization pass.
                           ----------------------------
                           !    Initial Parameters    !
                           ! (Angstroms and Degrees)  !
 --------------------------                            --------------------------
 ! Name  Definition              Value          Derivative Info.                !
 --------------------------------------------------------------------------------
 ! R1    R(1,2)                  0.9626         calculate D2E/DX2 analytically  !
 ! R2    R(1,4)                  1.3511         calculate D2E/DX2 analytically  !
 ! R3    R(3,4)                  1.5877         calculate D2E/DX2 analytically  !
 ! R4    R(3,7)                  1.4019         calculate D2E/DX2 analytically  !
 ! R5    R(3,14)                 1.4032         calculate D2E/DX2 analytically  !
 ! R6    R(4,5)                  1.3621         calculate D2E/DX2 analytically  !
 ! R7    R(5,6)                  0.9595         calculate D2E/DX2 analytically  !
 ! R8    R(7,8)                  1.0852         calculate D2E/DX2 analytically  !
 ! R9    R(7,9)                  1.3856         calculate D2E/DX2 analytically  !
 ! R10   R(9,10)                 1.0851         calculate D2E/DX2 analytically  !
 ! R11   R(9,11)                 1.4109         calculate D2E/DX2 analytically  !
 ! R12   R(11,12)                1.4097         calculate D2E/DX2 analytically  !
 ! R13   R(11,15)                1.4451         calculate D2E/DX2 analytically  !
 ! R14   R(12,13)                1.0839         calculate D2E/DX2 analytically  !
 ! R15   R(12,14)                1.3843         calculate D2E/DX2 analytically  !
 ! R16   R(14,17)                1.5067         calculate D2E/DX2 analytically  !
 ! R17   R(15,16)                1.1068         calculate D2E/DX2 analytically  !
 ! R18   R(17,18)                1.3377         calculate D2E/DX2 analytically  !
 ! R19   R(17,19)                1.3473         calculate D2E/DX2 analytically  !
 ! R20   R(17,20)                1.3366         calculate D2E/DX2 analytically  !
 ! A1    A(2,1,4)              112.8871         calculate D2E/DX2 analytically  !
 ! A2    A(4,3,7)              118.3827         calculate D2E/DX2 analytically  !
 ! A3    A(4,3,14)             123.302          calculate D2E/DX2 analytically  !
 ! A4    A(7,3,14)             118.3141         calculate D2E/DX2 analytically  !
 ! A5    A(1,4,3)              118.234          calculate D2E/DX2 analytically  !
 ! A6    A(1,4,5)              120.0615         calculate D2E/DX2 analytically  !
 ! A7    A(3,4,5)              121.581          calculate D2E/DX2 analytically  !
 ! A8    A(4,5,6)              114.5866         calculate D2E/DX2 analytically  !
 ! A9    A(3,7,8)              119.4302         calculate D2E/DX2 analytically  !
 ! A10   A(3,7,9)              120.8468         calculate D2E/DX2 analytically  !
 ! A11   A(8,7,9)              119.7186         calculate D2E/DX2 analytically  !
 ! A12   A(7,9,10)             120.2218         calculate D2E/DX2 analytically  !
 ! A13   A(7,9,11)             120.9857         calculate D2E/DX2 analytically  !
 ! A14   A(10,9,11)            118.7922         calculate D2E/DX2 analytically  !
 ! A15   A(9,11,12)            117.9482         calculate D2E/DX2 analytically  !
 ! A16   A(9,11,15)            124.594          calculate D2E/DX2 analytically  !
 ! A17   A(12,11,15)           117.4555         calculate D2E/DX2 analytically  !
 ! A18   A(11,12,13)           117.8602         calculate D2E/DX2 analytically  !
 ! A19   A(11,12,14)           120.7059         calculate D2E/DX2 analytically  !
 ! A20   A(13,12,14)           121.4325         calculate D2E/DX2 analytically  !
 ! A21   A(3,14,12)            121.192          calculate D2E/DX2 analytically  !
 ! A22   A(3,14,17)            119.5493         calculate D2E/DX2 analytically  !
 ! A23   A(12,14,17)           119.2572         calculate D2E/DX2 analytically  !
 ! A24   A(11,15,16)           106.4723         calculate D2E/DX2 analytically  !
 ! A25   A(14,17,18)           111.9009         calculate D2E/DX2 analytically  !
 ! A26   A(14,17,19)           111.1189         calculate D2E/DX2 analytically  !
 ! A27   A(14,17,20)           112.2451         calculate D2E/DX2 analytically  !
 ! A28   A(18,17,19)           107.0902         calculate D2E/DX2 analytically  !
 ! A29   A(18,17,20)           107.1619         calculate D2E/DX2 analytically  !
 ! A30   A(19,17,20)           107.0268         calculate D2E/DX2 analytically  !
 ! D1    D(2,1,4,3)            179.3875         calculate D2E/DX2 analytically  !
 ! D2    D(2,1,4,5)             -4.5875         calculate D2E/DX2 analytically  !
 ! D3    D(7,3,4,1)            113.132          calculate D2E/DX2 analytically  !
 ! D4    D(7,3,4,5)            -62.8296         calculate D2E/DX2 analytically  !
 ! D5    D(14,3,4,1)           -66.4588         calculate D2E/DX2 analytically  !
 ! D6    D(14,3,4,5)           117.5796         calculate D2E/DX2 analytically  !
 ! D7    D(4,3,7,8)              0.5395         calculate D2E/DX2 analytically  !
 ! D8    D(4,3,7,9)           -178.6929         calculate D2E/DX2 analytically  !
 ! D9    D(14,3,7,8)          -179.849          calculate D2E/DX2 analytically  !
 ! D10   D(14,3,7,9)             0.9187         calculate D2E/DX2 analytically  !
 ! D11   D(4,3,14,12)          179.2791         calculate D2E/DX2 analytically  !
 ! D12   D(4,3,14,17)           -0.2813         calculate D2E/DX2 analytically  !
 ! D13   D(7,3,14,12)           -0.312          calculate D2E/DX2 analytically  !
 ! D14   D(7,3,14,17)         -179.8724         calculate D2E/DX2 analytically  !
 ! D15   D(1,4,5,6)            176.3995         calculate D2E/DX2 analytically  !
 ! D16   D(3,4,5,6)             -7.7115         calculate D2E/DX2 analytically  !
 ! D17   D(3,7,9,10)           179.368          calculate D2E/DX2 analytically  !
 ! D18   D(3,7,9,11)            -0.8316         calculate D2E/DX2 analytically  !
 ! D19   D(8,7,9,10)             0.1378         calculate D2E/DX2 analytically  !
 ! D20   D(8,7,9,11)           179.9383         calculate D2E/DX2 analytically  !
 ! D21   D(7,9,11,12)            0.1194         calculate D2E/DX2 analytically  !
 ! D22   D(7,9,11,15)         -179.3097         calculate D2E/DX2 analytically  !
 ! D23   D(10,9,11,12)         179.9227         calculate D2E/DX2 analytically  !
 ! D24   D(10,9,11,15)           0.4935         calculate D2E/DX2 analytically  !
 ! D25   D(9,11,12,13)        -179.0833         calculate D2E/DX2 analytically  !
 ! D26   D(9,11,12,14)           0.4856         calculate D2E/DX2 analytically  !
 ! D27   D(15,11,12,13)          0.3872         calculate D2E/DX2 analytically  !
 ! D28   D(15,11,12,14)        179.9561         calculate D2E/DX2 analytically  !
 ! D29   D(9,11,15,16)          -1.294          calculate D2E/DX2 analytically  !
 ! D30   D(12,11,15,16)        179.2742         calculate D2E/DX2 analytically  !
 ! D31   D(11,12,14,3)          -0.3896         calculate D2E/DX2 analytically  !
 ! D32   D(11,12,14,17)        179.172          calculate D2E/DX2 analytically  !
 ! D33   D(13,12,14,3)         179.1636         calculate D2E/DX2 analytically  !
 ! D34   D(13,12,14,17)         -1.2747         calculate D2E/DX2 analytically  !
 ! D35   D(3,14,17,18)        -155.5258         calculate D2E/DX2 analytically  !
 ! D36   D(3,14,17,19)         -35.868          calculate D2E/DX2 analytically  !
 ! D37   D(3,14,17,20)          83.9418         calculate D2E/DX2 analytically  !
 ! D38   D(12,14,17,18)         24.9053         calculate D2E/DX2 analytically  !
 ! D39   D(12,14,17,19)        144.5631         calculate D2E/DX2 analytically  !
 ! D40   D(12,14,17,20)        -95.6271         calculate D2E/DX2 analytically  !
 --------------------------------------------------------------------------------
 Trust Radius=3.00D-01 FncErr=1.00D-07 GrdErr=1.00D-06 EigMax=2.50D+02 EigMin=1.00D-04
 Number of steps in this run=    100 maximum allowed number of steps=    120.
 GradGradGradGradGradGradGradGradGradGradGradGradGradGradGradGradGradGrad

                          Input orientation:                          
 ---------------------------------------------------------------------
 Center     Atomic      Atomic             Coordinates (Angstroms)
 Number     Number       Type             X           Y           Z
 ---------------------------------------------------------------------
      1          8           0        8.701265    6.357320    4.856382
      2          1           0        9.509480    6.073745    5.295620
      3          6           0        6.273590    6.999133    5.122055
      4          5           0        7.667379    6.518413    5.711199
      5          8           0        7.812020    6.193027    7.025980
      6          1           0        7.047837    6.389033    7.572175
      7          6           0        5.192553    6.107135    5.155743
      8          1           0        5.328342    5.120820    5.587449
      9          6           0        3.960576    6.463762    4.631339
     10          1           0        3.133577    5.761646    4.653579
     11          6           0        3.753991    7.739359    4.064831
     12          6           0        4.839956    8.637956    4.046723
     13          1           0        4.675507    9.622776    3.624967
     14          6           0        6.071053    8.269443    4.561486
     15          6           0        2.500792    8.197472    3.509900
     16          1           0        1.789086    7.355075    3.604428
     17          6           0        7.214558    9.249113    4.508350
     18          9           0        6.785110   10.514968    4.456157
     19          9           0        7.997307    9.141238    5.599616
     20          9           0        7.998618    9.054404    3.443490
 ---------------------------------------------------------------------
                    Distance matrix (angstroms):
                    1          2          3          4          5
     1  O    0.000000
     2  H    0.962578   0.000000
     3  C    2.525096   3.370082   0.000000
     4  B    1.351141   1.940044   1.587712   0.000000
     5  O    2.350512   2.426880   2.577112   1.362148   0.000000
     6  H    3.179679   3.367758   2.640979   1.965656   0.959543
     7  C    3.530336   4.319322   1.401940   2.569522   3.219747
     8  H    3.666061   4.298272   2.153635   2.727577   3.063928
     9  C    4.747221   5.602117   2.424347   3.861279   4.543261
    10  H    5.603134   6.415743   3.407422   4.716632   5.263288
    11  C    5.197317   6.116761   2.830907   4.417674   5.256153
    12  C    4.557034   5.471689   2.428453   3.906055   4.866910
    13  H    5.327881   6.225271   3.417403   4.789648   5.759148
    14  C    3.265148   4.145217   1.403191   2.633667   3.662813
    15  C    6.606439   7.537952   4.274233   5.861619   6.677557
    16  H    7.095148   8.006649   4.747701   6.300223   7.023753
    17  C    3.270151   3.996176   2.514849   3.018048   4.004383
    18  F    4.595418   5.277438   3.614716   4.280886   5.132028
    19  F    2.966168   3.433452   2.790677   2.645848   3.280365
    20  F    3.124778   3.820657   3.165034   3.418110   4.588740
                    6          7          8          9         10
     6  H    0.000000
     7  C    3.059524   0.000000
     8  H    2.916190   1.085185   0.000000
     9  C    4.264420   1.385622   2.142061   0.000000
    10  H    4.922728   2.147304   2.469770   1.085076   0.000000
    11  C    4.997426   2.433866   3.413751   1.410942   2.154736
    12  C    4.728764   2.785553   3.870737   2.417065   3.398994
    13  H    5.627210   3.869153   4.954305   3.391649   4.282980
    14  C    3.681616   2.408418   3.393825   2.778395   3.863456
    15  C    6.359886   3.784691   4.666587   2.528704   2.764356
    16  H    6.658132   3.943034   4.631479   2.562100   2.333964
    17  C    4.194625   3.792051   4.665305   4.285056   5.370095
    18  F    5.177058   4.738634   5.700774   4.941756   5.997228
    19  F    3.516691   4.155653   4.825690   4.939801   5.997708
    20  F    5.005420   4.414998   5.215364   4.942489   5.997933
                   11         12         13         14         15
    11  C    0.000000
    12  C    1.409654   0.000000
    13  H    2.142413   1.083878   0.000000
    14  C    2.428257   1.384335   2.157806   0.000000
    15  C    1.445103   2.440060   2.602713   3.722603   0.000000
    16  H    2.054385   3.339044   3.670738   4.481882   1.106840
    17  C    3.801525   2.495065   2.714179   1.506712   4.931779
    18  F    4.128538   2.733941   2.436659   2.358676   4.962013
    19  F    4.725099   3.554382   3.894287   2.355461   5.955609
    20  F    4.486899   3.242602   3.376248   2.362538   5.564605
                   16         17         18         19         20
    16  H    0.000000
    17  C    5.817233   0.000000
    18  F    5.972489   1.337736   0.000000
    19  F    6.761151   1.347292   2.159642   0.000000
    20  F    6.439869   1.336633   2.152056   2.157874   0.000000
 Symmetry turned off by external request.
 Stoichiometry    C8H6BF3O2
 Framework group  C1[X(C8H6BF3O2)]
 Deg. of freedom    54
 Full point group                 C1      NOp   1
 Rotational constants (GHZ):           0.9023470           0.6304905           0.4232177
 Standard basis: 6-311+G(d,p) (5D, 7F)
   344 basis functions,   552 primitive gaussians,   358 cartesian basis functions
    51 alpha electrons       51 beta electrons
       nuclear repulsion energy       894.2523653196 Hartrees.
 NAtoms=   20 NActive=   20 NUniq=   20 SFac= 1.00D+00 NAtFMM=   60 NAOKFM=F Big=F
 Integral buffers will be    131072 words long.
 Raffenetti 2 integral format.
 Two-electron integral symmetry is turned off.
 One-electron integrals computed using PRISM.
 NBasis=   344 RedAO= T EigKep=  1.83D-06  NBF=   344
 NBsUse=   343 1.00D-06 EigRej=  7.61D-07 NBFU=   343
 ExpMin= 3.15D-02 ExpMax= 1.14D+04 ExpMxC= 1.72D+03 IAcc=3 IRadAn=         5 AccDes= 0.00D+00
 Harris functional with IExCor= 1009 and IRadAn=       5 diagonalized for initial guess.
 HarFok:  IExCor= 1009 AccDes= 0.00D+00 IRadAn=         5 IDoV= 1 UseB2=F ITyADJ=14
 ICtDFT=  3500011 ScaDFX=  1.000000  1.000000  1.000000  1.000000
 FoFCou: FMM=F IPFlag=           0 FMFlag=      100000 FMFlg1=           0
         NFxFlg=           0 DoJE=T BraDBF=F KetDBF=T FulRan=T
         wScrn=  0.000000 ICntrl=       500 IOpCl=  0 I1Cent=   200000004 NGrid=           0
         NMat0=    1 NMatS0=      1 NMatT0=    0 NMatD0=    1 NMtDS0=    0 NMtDT0=    0
 Symmetry not used in FoFCou.
 Requested convergence on RMS density matrix=1.00D-08 within 128 cycles.
 Requested convergence on MAX density matrix=1.00D-06.
 Requested convergence on             energy=1.00D-06.
 Level shift goal  0.100 maximum shift  0.100.
 No special actions if energy rises.
 Dynamic level shift is on during FON iterations.
 SCF Done:  E(RM062X) =  -783.233253261     A.U. after   16 cycles
            NFock= 16  Conv=0.72D-08     -V/T= 2.0031
 DoSCS=F DFT=T ScalE2(SS,OS)=  1.000000  1.000000
 Range of M.O.s used for correlation:     1   343
 NBasis=   344 NAE=    51 NBE=    51 NFC=     0 NFV=     0
 NROrb=    343 NOA=    51 NOB=    51 NVA=   292 NVB=   292

 **** Warning!!: The largest alpha MO coefficient is  0.16731928D+03

 Symmetrizing basis deriv contribution to polar:
 IMax=3 JMax=2 DiffMx= 0.00D+00
 G2DrvN: will do    21 centers at a time, making    1 passes.
 Calling FoFCou, ICntrl=  3107 FMM=F I1Cent=   0 AccDes= 0.00D+00.
 End of G2Drv F.D. properties file   721 does not exist.
 End of G2Drv F.D. properties file   722 does not exist.
 End of G2Drv F.D. properties file   788 does not exist.
          IDoAtm=11111111111111111111
          Differentiating once with respect to nuclear coordinates.
 Keep R1 ints in memory in canonical form, NReq=1797606706.
          There are    63 degrees of freedom in the 1st order CPHF.  IDoFFX=6 NUNeed=     0.
     57 vectors produced by pass  0 Test12= 2.36D-14 1.59D-09 XBig12= 4.62D-01 1.67D-01.
 AX will form    57 AO Fock derivatives at one time.
     57 vectors produced by pass  1 Test12= 2.36D-14 1.59D-09 XBig12= 2.38D-02 3.99D-02.
     57 vectors produced by pass  2 Test12= 2.36D-14 1.59D-09 XBig12= 1.18D-03 5.89D-03.
     57 vectors produced by pass  3 Test12= 2.36D-14 1.59D-09 XBig12= 1.10D-05 3.75D-04.
     57 vectors produced by pass  4 Test12= 2.36D-14 1.59D-09 XBig12= 8.43D-08 3.34D-05.
     57 vectors produced by pass  5 Test12= 2.36D-14 1.59D-09 XBig12= 4.78D-10 2.24D-06.
     57 vectors produced by pass  6 Test12= 2.36D-14 1.59D-09 XBig12= 2.35D-12 2.23D-07.
     19 vectors produced by pass  7 Test12= 2.36D-14 1.59D-09 XBig12= 1.02D-14 1.06D-08.
 InvSVY:  IOpt=1 It=  1 EMax= 7.77D-16
 Solved reduced A of dimension   418 with    63 vectors.
 End of Minotr F.D. properties file   721 does not exist.
 End of Minotr F.D. properties file   722 does not exist.
 End of Minotr F.D. properties file   788 does not exist.

 **********************************************************************

            Population analysis using the SCF Density.

 **********************************************************************

 Alpha  occ. eigenvalues --  -25.28919 -25.28704 -25.28149 -19.66303 -19.65364
 Alpha  occ. eigenvalues --  -10.81324 -10.59764 -10.59297 -10.59043 -10.58831
 Alpha  occ. eigenvalues --  -10.58520 -10.57454 -10.57360  -7.11644  -1.48065
 Alpha  occ. eigenvalues --   -1.38797  -1.38332  -1.19290  -1.15725  -1.01099
 Alpha  occ. eigenvalues --   -0.92054  -0.89740  -0.82575  -0.77940  -0.74612
 Alpha  occ. eigenvalues --   -0.71263  -0.70374  -0.69340  -0.68358  -0.65647
 Alpha  occ. eigenvalues --   -0.63678  -0.59681  -0.58810  -0.58462  -0.56908
 Alpha  occ. eigenvalues --   -0.54850  -0.54400  -0.53581  -0.52264  -0.52089
 Alpha  occ. eigenvalues --   -0.50162  -0.49384  -0.48116  -0.47621  -0.46237
 Alpha  occ. eigenvalues --   -0.43738  -0.42794  -0.41562  -0.36124  -0.35299
 Alpha  occ. eigenvalues --   -0.28435
 Alpha virt. eigenvalues --   -0.09603  -0.02362  -0.01453   0.00732   0.01069
 Alpha virt. eigenvalues --    0.01804   0.02052   0.03242   0.04319   0.04741
 Alpha virt. eigenvalues --    0.05951   0.06497   0.06677   0.07373   0.07869
 Alpha virt. eigenvalues --    0.09011   0.09120   0.09875   0.10308   0.10925
 Alpha virt. eigenvalues --    0.11417   0.12142   0.12850   0.13777   0.14474
 Alpha virt. eigenvalues --    0.14961   0.15201   0.15921   0.16692   0.16811
 Alpha virt. eigenvalues --    0.17579   0.17743   0.17864   0.18565   0.19490
 Alpha virt. eigenvalues --    0.19768   0.20675   0.20923   0.21476   0.22290
 Alpha virt. eigenvalues --    0.22703   0.23409   0.23663   0.24622   0.24911
 Alpha virt. eigenvalues --    0.25475   0.26212   0.26603   0.27412   0.27590
 Alpha virt. eigenvalues --    0.27789   0.28419   0.28738   0.29430   0.30217
 Alpha virt. eigenvalues --    0.32195   0.33071   0.33833   0.34398   0.35095
 Alpha virt. eigenvalues --    0.35434   0.36002   0.36732   0.37586   0.38671
 Alpha virt. eigenvalues --    0.39492   0.40570   0.41327   0.41688   0.42480
 Alpha virt. eigenvalues --    0.42921   0.43648   0.45476   0.46909   0.47695
 Alpha virt. eigenvalues --    0.48073   0.48945   0.50088   0.50965   0.52249
 Alpha virt. eigenvalues --    0.53834   0.54168   0.55163   0.56262   0.57491
 Alpha virt. eigenvalues --    0.57824   0.59644   0.60624   0.61383   0.61912
 Alpha virt. eigenvalues --    0.62656   0.64553   0.65097   0.65335   0.67045
 Alpha virt. eigenvalues --    0.68092   0.69170   0.69711   0.70518   0.71723
 Alpha virt. eigenvalues --    0.71917   0.72720   0.74830   0.75814   0.77360
 Alpha virt. eigenvalues --    0.78250   0.80286   0.80850   0.84089   0.86505
 Alpha virt. eigenvalues --    0.89280   0.90241   0.93897   0.94545   0.95095
 Alpha virt. eigenvalues --    0.96802   0.98271   1.01340   1.01828   1.02091
 Alpha virt. eigenvalues --    1.04339   1.05180   1.07224   1.08499   1.11197
 Alpha virt. eigenvalues --    1.11931   1.13151   1.13599   1.14661   1.16550
 Alpha virt. eigenvalues --    1.17760   1.19319   1.21006   1.22910   1.25159
 Alpha virt. eigenvalues --    1.29945   1.31951   1.33993   1.38598   1.40516
 Alpha virt. eigenvalues --    1.41803   1.44012   1.45216   1.46962   1.48524
 Alpha virt. eigenvalues --    1.48887   1.49823   1.50323   1.51490   1.51859
 Alpha virt. eigenvalues --    1.52796   1.53789   1.55166   1.56546   1.56871
 Alpha virt. eigenvalues --    1.57419   1.58803   1.59110   1.59567   1.60514
 Alpha virt. eigenvalues --    1.62779   1.63860   1.65851   1.71579   1.72900
 Alpha virt. eigenvalues --    1.74052   1.75772   1.77029   1.78554   1.81104
 Alpha virt. eigenvalues --    1.82247   1.82537   1.84691   1.86625   1.88088
 Alpha virt. eigenvalues --    1.91973   1.92264   1.96349   1.97709   1.99188
 Alpha virt. eigenvalues --    2.00137   2.00869   2.02700   2.04904   2.07091
 Alpha virt. eigenvalues --    2.07553   2.09937   2.10948   2.15477   2.16879
 Alpha virt. eigenvalues --    2.18638   2.22212   2.23535   2.25938   2.30875
 Alpha virt. eigenvalues --    2.35345   2.37947   2.41069   2.49092   2.51271
 Alpha virt. eigenvalues --    2.53592   2.56768   2.59106   2.59501   2.63195
 Alpha virt. eigenvalues --    2.65081   2.67149   2.70390   2.71883   2.72275
 Alpha virt. eigenvalues --    2.76144   2.78350   2.79532   2.82732   2.83430
 Alpha virt. eigenvalues --    2.87144   2.93251   2.93350   2.96867   3.02727
 Alpha virt. eigenvalues --    3.05023   3.05579   3.09532   3.11144   3.13709
 Alpha virt. eigenvalues --    3.18271   3.21418   3.22712   3.26066   3.27347
 Alpha virt. eigenvalues --    3.33914   3.37372   3.42238   3.48406   3.50826
 Alpha virt. eigenvalues --    3.55643   3.57757   3.60234   3.63970   3.65926
 Alpha virt. eigenvalues --    3.80398   3.83183   3.84520   3.85340   3.85722
 Alpha virt. eigenvalues --    3.87391   3.89265   3.90197   3.92851   3.99427
 Alpha virt. eigenvalues --    4.01134   4.01940   4.03654   4.12350   4.17566
 Alpha virt. eigenvalues --    4.22380   4.24358   4.28026   4.31211   4.76220
 Alpha virt. eigenvalues --    4.83096   4.99219   5.02478   5.10598   5.17398
 Alpha virt. eigenvalues --    5.32390   5.46521   5.65371   5.72797   6.47391
 Alpha virt. eigenvalues --    6.50669   6.52071   6.53408   6.54302   6.59029
 Alpha virt. eigenvalues --    6.62619   6.88718   6.91427  14.80850  23.55629
 Alpha virt. eigenvalues --   23.67541  23.86773  23.97377  24.02140  24.08573
 Alpha virt. eigenvalues --   24.13915  24.20989  49.99828  50.02039  66.90077
 Alpha virt. eigenvalues --   66.90399  66.95921
          Condensed to atoms (all electrons):
               1          2          3          4          5          6
     1  O    7.751599   0.264263  -0.153058   0.458942  -0.085303   0.012953
     2  H    0.264263   0.446443  -0.034174   0.001128  -0.008484   0.002237
     3  C   -0.153058  -0.034174  41.124315   0.617925   0.184689   0.026879
     4  B    0.458942   0.001128   0.617925   3.507077   0.355118  -0.004158
     5  O   -0.085303  -0.008484   0.184689   0.355118   7.811064   0.284732
     6  H    0.012953   0.002237   0.026879  -0.004158   0.284732   0.422334
     7  C   -0.189337  -0.003466  -6.599472  -0.272659  -0.415876   0.044026
     8  H    0.002457   0.000037   0.047881  -0.004327   0.001905   0.000016
     9  C   -0.000735   0.000368   0.581253   0.016899  -0.003649  -0.000319
    10  H    0.000024  -0.000001  -0.009819  -0.000939   0.000111  -0.000009
    11  C    0.009366  -0.002585  -3.544123  -0.006232   0.026752   0.006497
    12  C   -0.015905   0.005342  -7.335228  -0.051743  -0.016123   0.001288
    13  H    0.000054   0.000001  -0.073543   0.000192   0.000034   0.000004
    14  C    0.265849   0.015917 -15.533383   0.089702   0.246624  -0.065425
    15  C   -0.004883  -0.000128   0.930206  -0.025357  -0.003508   0.000313
    16  H    0.000003   0.000000   0.016869   0.000502   0.000004  -0.000001
    17  C   -0.075376   0.035618  -2.792058  -0.080917  -0.087135  -0.009078
    18  F    0.000900  -0.000033  -0.018005   0.001421  -0.000121  -0.000018
    19  F    0.005723  -0.001847  -0.039071   0.005829  -0.007868  -0.000352
    20  F    0.000870  -0.000237  -0.205402   0.003252   0.001208  -0.000050
               7          8          9         10         11         12
     1  O   -0.189337   0.002457  -0.000735   0.000024   0.009366  -0.015905
     2  H   -0.003466   0.000037   0.000368  -0.000001  -0.002585   0.005342
     3  C   -6.599472   0.047881   0.581253  -0.009819  -3.544123  -7.335228
     4  B   -0.272659  -0.004327   0.016899  -0.000939  -0.006232  -0.051743
     5  O   -0.415876   0.001905  -0.003649   0.000111   0.026752  -0.016123
     6  H    0.044026   0.000016  -0.000319  -0.000009   0.006497   0.001288
     7  C   20.144252   0.214419  -4.428112  -0.004128  -0.812962   1.976566
     8  H    0.214419   0.488485   0.124159  -0.005704  -0.041438  -0.029320
     9  C   -4.428112   0.124159  13.329569   0.265001   0.100027  -2.352944
    10  H   -0.004128  -0.005704   0.265001   0.480192   0.064392   0.016213
    11  C   -0.812962  -0.041438   0.100027   0.064392  16.115657  -0.838836
    12  C    1.976566  -0.029320  -2.352944   0.016213  -0.838836  11.707971
    13  H   -0.014740   0.000033   0.027532  -0.000149   0.039396   0.401445
    14  C   -5.123857   0.022456  -0.485093  -0.004853  -1.157675   1.531003
    15  C    0.612448  -0.003083  -2.072973   0.020041  -1.207338   0.364919
    16  H    0.129145   0.000001   0.112146  -0.000327  -0.240127  -0.005217
    17  C    0.565730   0.010194   0.954554   0.000013  -2.714032   0.503136
    18  F    0.006210   0.000013   0.003818  -0.000003   0.136752   0.077437
    19  F    0.050942   0.000127  -0.012298  -0.000003   0.053844   0.065477
    20  F   -0.024398   0.000013  -0.006896  -0.000002   0.000525  -0.083944
              13         14         15         16         17         18
     1  O    0.000054   0.265849  -0.004883   0.000003  -0.075376   0.000900
     2  H    0.000001   0.015917  -0.000128   0.000000   0.035618  -0.000033
     3  C   -0.073543 -15.533383   0.930206   0.016869  -2.792058  -0.018005
     4  B    0.000192   0.089702  -0.025357   0.000502  -0.080917   0.001421
     5  O    0.000034   0.246624  -0.003508   0.000004  -0.087135  -0.000121
     6  H    0.000004  -0.065425   0.000313  -0.000001  -0.009078  -0.000018
     7  C   -0.014740  -5.123857   0.612448   0.129145   0.565730   0.006210
     8  H    0.000033   0.022456  -0.003083   0.000001   0.010194   0.000013
     9  C    0.027532  -0.485093  -2.072973   0.112146   0.954554   0.003818
    10  H   -0.000149  -0.004853   0.020041  -0.000327   0.000013  -0.000003
    11  C    0.039396  -1.157675  -1.207338  -0.240127  -2.714032   0.136752
    12  C    0.401445   1.531003   0.364919  -0.005217   0.503136   0.077437
    13  H    0.432076  -0.089993  -0.012365   0.000322   0.068464   0.005459
    14  C   -0.089993  32.974659  -1.274531   0.013814  -5.228589  -0.212043
    15  C   -0.012365  -1.274531   9.299711   0.202559  -0.730089   0.009313
    16  H    0.000322   0.013814   0.202559   0.643106   0.002104   0.000021
    17  C    0.068464  -5.228589  -0.730089   0.002104  14.607797   0.141328
    18  F    0.005459  -0.212043   0.009313   0.000021   0.141328   9.024783
    19  F    0.000784  -0.012339   0.004248   0.000001   0.047165  -0.025224
    20  F   -0.000390   0.370102   0.003396  -0.000004   0.127315  -0.048646
              19         20
     1  O    0.005723   0.000870
     2  H   -0.001847  -0.000237
     3  C   -0.039071  -0.205402
     4  B    0.005829   0.003252
     5  O   -0.007868   0.001208
     6  H   -0.000352  -0.000050
     7  C    0.050942  -0.024398
     8  H    0.000127   0.000013
     9  C   -0.012298  -0.006896
    10  H   -0.000003  -0.000002
    11  C    0.053844   0.000525
    12  C    0.065477  -0.083944
    13  H    0.000784  -0.000390
    14  C   -0.012339   0.370102
    15  C    0.004248   0.003396
    16  H    0.000001  -0.000004
    17  C    0.047165   0.127315
    18  F   -0.025224  -0.048646
    19  F    8.968263  -0.036982
    20  F   -0.036982   8.925565
 Mulliken charges:
               1
     1  O   -0.248407
     2  H    0.279601
     3  C   -1.192683
     4  B    0.388346
     5  O   -0.284175
     6  H    0.278129
     7  C    0.145269
     8  H    0.171677
     9  C   -0.152308
    10  H    0.179951
    11  C    0.012140
    12  C    0.078463
    13  H    0.215382
    14  C   -0.342346
    15  C   -0.112898
    16  H    0.125079
    17  C    0.653856
    18  F   -0.103362
    19  F   -0.066419
    20  F   -0.025296
 Sum of Mulliken charges =   0.00000
 Mulliken charges with hydrogens summed into heavy atoms:
               1
     1  O    0.031194
     3  C   -1.192683
     4  B    0.388346
     5  O   -0.006046
     7  C    0.316945
     9  C    0.027643
    11  C    0.012140
    12  C    0.293845
    14  C   -0.342346
    15  C    0.012182
    17  C    0.653856
    18  F   -0.103362
    19  F   -0.066419
    20  F   -0.025296
 APT charges:
               1
     1  O   -1.429453
     2  H    1.938661
     3  C   -5.541079
     4  B   -0.335172
     5  O    0.772395
     6  H    0.347018
     7  C   -1.215435
     8  H   -0.188638
     9  C    1.293039
    10  H   -0.874739
    11  C   -3.531042
    12  C    1.062510
    13  H    1.234696
    14  C    9.760556
    15  C   -0.447772
    16  H   -0.465749
    17  C   -3.167117
    18  F    0.480354
    19  F    0.649239
    20  F   -0.342272
 Sum of APT charges =   0.00000
 APT charges with hydrogens summed into heavy atoms:
               1
     1  O    0.509208
     3  C   -5.541079
     4  B   -0.335172
     5  O    1.119413
     7  C   -1.404073
     9  C    0.418300
    11  C   -3.531042
    12  C    2.297206
    14  C    9.760556
    15  C   -0.913521
    17  C   -3.167117
    18  F    0.480354
    19  F    0.649239
    20  F   -0.342272
 Electronic spatial extent (au):  <R**2>=          48059.1228
 Charge=              0.0000 electrons
 Dipole moment (field-independent basis, Debye):
    X=              0.2461    Y=             -3.9036    Z=              2.9983  Tot=              4.9284
 Quadrupole moment (field-independent basis, Debye-Ang):
   XX=            -81.3720   YY=           -139.4644   ZZ=            -51.8705
   XY=            -15.7207   XZ=             15.4971   YZ=              4.5538
 Traceless Quadrupole moment (field-independent basis, Debye-Ang):
   XX=              9.5303   YY=            -48.5621   ZZ=             39.0317
   XY=            -15.7207   XZ=             15.4971   YZ=              4.5538
 Octapole moment (field-independent basis, Debye-Ang**2):
  XXX=          -1461.3530  YYY=          -2559.3401  ZZZ=           -928.7567  XYY=           -740.1601
  XXY=           -749.2963  XXZ=           -299.7893  XZZ=           -346.4918  YZZ=           -496.9630
  YYZ=           -480.8123  XYZ=             26.0424
 Hexadecapole moment (field-independent basis, Debye-Ang**3):
 XXXX=         -19053.4108 YYYY=         -37308.3413 ZZZZ=          -9801.7763 XXXY=         -12357.5565
 XXXZ=          -6555.2966 YYYX=         -14388.2213 YYYZ=         -10545.5505 ZZZX=          -6129.0696
 ZZZY=          -7545.6479 XXYY=         -10123.0065 XXZZ=          -4433.6199 YYZZ=          -6588.5024
 XXYZ=          -2909.7351 YYXZ=          -2881.5925 ZZXY=          -3190.5419
 N-N= 8.942523653196D+02 E-N=-3.631240904480D+03  KE= 7.808513772933D+02
  Exact polarizability:       0.000       0.000       0.000       0.000       0.000       0.000
 Approx polarizability:     169.152      -3.117     137.707      21.878     -20.345     111.809
 Calling FoFJK, ICntrl=    100127 FMM=F ISym2X=0 I1Cent= 0 IOpClX= 0 NMat=1 NMatS=1 NMatT=0.
 -------------------------------------------------------------------
 Center     Atomic                   Forces (Hartrees/Bohr)
 Number     Number              X              Y              Z
 -------------------------------------------------------------------
      1        8           0.000000823    0.000000228    0.000000998
      2        1          -0.000000504    0.000000758    0.000001727
      3        6           0.000001170    0.000000653    0.000000287
      4        5          -0.000000823    0.000001042    0.000000989
      5        8          -0.000000952   -0.000000502    0.000001163
      6        1          -0.000001712    0.000000041    0.000000826
      7        6           0.000000214   -0.000000066   -0.000000913
      8        1           0.000000249   -0.000000418   -0.000000542
      9        6           0.000000496   -0.000000435   -0.000000876
     10        1           0.000000481   -0.000000568   -0.000001748
     11        6           0.000000432   -0.000000124   -0.000000798
     12        6           0.000000186   -0.000000130   -0.000000478
     13        1           0.000000058   -0.000000352   -0.000000491
     14        6          -0.000000597   -0.000000735   -0.000001022
     15        6           0.000000854   -0.000000500   -0.000001943
     16        1           0.000000651   -0.000000859   -0.000002538
     17        6          -0.000001163    0.000001370    0.000001190
     18        9          -0.000000515    0.000000387    0.000001111
     19        9          -0.000000359    0.000000114    0.000002379
     20        9           0.000001012    0.000000099    0.000000678
 -------------------------------------------------------------------
 Cartesian Forces:  Max     0.000002538 RMS     0.000000930
 FormGI is forming the generalized inverse of G from B-inverse, IUseBI=4.

 GradGradGradGradGradGradGradGradGradGradGradGradGradGradGradGradGradGrad
 Berny optimization.
 Internal  Forces:  Max     0.000001480 RMS     0.000000361
 Search for a local minimum.
 Step number   1 out of a maximum of  100
 All quantities printed in internal units (Hartrees-Bohrs-Radians)
 Mixed Optimization -- En-DIIS/RFO-DIIS
 Second derivative matrix not updated -- analytic derivatives used.
 ITU=  0
     Eigenvalues ---    0.00240   0.00410   0.00685   0.01287   0.01295
     Eigenvalues ---    0.01598   0.01641   0.01766   0.02050   0.02285
     Eigenvalues ---    0.02411   0.02630   0.02765   0.02977   0.03752
     Eigenvalues ---    0.10386   0.11043   0.11236   0.11493   0.11978
     Eigenvalues ---    0.12480   0.13012   0.14042   0.14558   0.17677
     Eigenvalues ---    0.18030   0.18332   0.18895   0.19388   0.20212
     Eigenvalues ---    0.23073   0.24165   0.25780   0.26251   0.26947
     Eigenvalues ---    0.31257   0.31796   0.35149   0.35978   0.36311
     Eigenvalues ---    0.36809   0.38306   0.39134   0.40391   0.40973
     Eigenvalues ---    0.42991   0.44532   0.46740   0.48307   0.50863
     Eigenvalues ---    0.51910   0.54853   0.55803   0.55812
 RFO step:  Lambda= 0.00000000D+00 EMin= 2.40088385D-03
 Linear search not attempted -- first point.
 Iteration  1 RMS(Cart)=  0.00001723 RMS(Int)=  0.00000000
 Iteration  2 RMS(Cart)=  0.00000000 RMS(Int)=  0.00000000
 Variable       Old X    -DE/DX   Delta X   Delta X   Delta X     New X
                                 (Linear)    (Quad)   (Total)
    R1        1.81901   0.00000   0.00000   0.00000   0.00000   1.81901
    R2        2.55329   0.00000   0.00000   0.00000   0.00000   2.55329
    R3        3.00034   0.00000   0.00000   0.00000   0.00000   3.00034
    R4        2.64928   0.00000   0.00000   0.00000   0.00000   2.64928
    R5        2.65165   0.00000   0.00000   0.00000   0.00000   2.65165
    R6        2.57409   0.00000   0.00000   0.00000   0.00000   2.57409
    R7        1.81327   0.00000   0.00000   0.00000   0.00000   1.81327
    R8        2.05070   0.00000   0.00000   0.00000   0.00000   2.05070
    R9        2.61845   0.00000   0.00000   0.00000   0.00000   2.61845
   R10        2.05050   0.00000   0.00000   0.00000   0.00000   2.05050
   R11        2.66629   0.00000   0.00000   0.00000   0.00000   2.66629
   R12        2.66386   0.00000   0.00000   0.00000   0.00000   2.66386
   R13        2.73085   0.00000   0.00000   0.00000   0.00000   2.73085
   R14        2.04823   0.00000   0.00000   0.00000   0.00000   2.04823
   R15        2.61601   0.00000   0.00000   0.00000   0.00000   2.61601
   R16        2.84727   0.00000   0.00000   0.00000   0.00000   2.84727
   R17        2.09162   0.00000   0.00000   0.00000   0.00000   2.09162
   R18        2.52796   0.00000   0.00000   0.00000   0.00000   2.52795
   R19        2.54601   0.00000   0.00000   0.00000   0.00000   2.54602
   R20        2.52587   0.00000   0.00000   0.00000   0.00000   2.52587
    A1        1.97025   0.00000   0.00000   0.00000   0.00000   1.97025
    A2        2.06617   0.00000   0.00000  -0.00001  -0.00001   2.06616
    A3        2.15203   0.00000   0.00000   0.00001   0.00001   2.15204
    A4        2.06497   0.00000   0.00000   0.00000   0.00000   2.06497
    A5        2.06357   0.00000   0.00000   0.00000   0.00000   2.06357
    A6        2.09547   0.00000   0.00000   0.00000   0.00000   2.09547
    A7        2.12199   0.00000   0.00000   0.00000   0.00000   2.12199
    A8        1.99991   0.00000   0.00000   0.00000   0.00000   1.99991
    A9        2.08445   0.00000   0.00000   0.00000   0.00000   2.08445
   A10        2.10917   0.00000   0.00000   0.00000   0.00000   2.10917
   A11        2.08948   0.00000   0.00000   0.00000   0.00000   2.08948
   A12        2.09827   0.00000   0.00000   0.00000   0.00000   2.09827
   A13        2.11160   0.00000   0.00000   0.00000   0.00000   2.11160
   A14        2.07331   0.00000   0.00000   0.00000   0.00000   2.07331
   A15        2.05858   0.00000   0.00000   0.00000   0.00000   2.05858
   A16        2.17458   0.00000   0.00000   0.00000   0.00000   2.17458
   A17        2.04999   0.00000   0.00000   0.00000   0.00000   2.04998
   A18        2.05705   0.00000   0.00000   0.00000   0.00000   2.05705
   A19        2.10671   0.00000   0.00000   0.00000   0.00000   2.10671
   A20        2.11940   0.00000   0.00000   0.00000   0.00000   2.11940
   A21        2.11520   0.00000   0.00000   0.00000   0.00000   2.11520
   A22        2.08653   0.00000   0.00000   0.00000   0.00000   2.08653
   A23        2.08143   0.00000   0.00000   0.00000   0.00000   2.08144
   A24        1.85829   0.00000   0.00000   0.00000   0.00000   1.85829
   A25        1.95304   0.00000   0.00000   0.00000   0.00000   1.95304
   A26        1.93939   0.00000   0.00000   0.00000   0.00000   1.93939
   A27        1.95905   0.00000   0.00000   0.00000   0.00000   1.95905
   A28        1.86908   0.00000   0.00000   0.00000   0.00000   1.86908
   A29        1.87033   0.00000   0.00000   0.00000   0.00000   1.87033
   A30        1.86797   0.00000   0.00000   0.00000   0.00000   1.86797
    D1        3.13090   0.00000   0.00000   0.00002   0.00002   3.13092
    D2       -0.08007   0.00000   0.00000   0.00000   0.00000  -0.08007
    D3        1.97453   0.00000   0.00000   0.00002   0.00002   1.97454
    D4       -1.09658   0.00000   0.00000   0.00003   0.00003  -1.09655
    D5       -1.15993   0.00000   0.00000   0.00002   0.00002  -1.15991
    D6        2.05215   0.00000   0.00000   0.00004   0.00004   2.05219
    D7        0.00942   0.00000   0.00000   0.00000   0.00000   0.00942
    D8       -3.11878   0.00000   0.00000   0.00000   0.00000  -3.11878
    D9       -3.13896   0.00000   0.00000   0.00000   0.00000  -3.13896
   D10        0.01603   0.00000   0.00000  -0.00001  -0.00001   0.01603
   D11        3.12901   0.00000   0.00000   0.00000   0.00000   3.12901
   D12       -0.00491   0.00000   0.00000  -0.00002  -0.00002  -0.00493
   D13       -0.00545   0.00000   0.00000   0.00000   0.00000  -0.00545
   D14       -3.13937   0.00000   0.00000  -0.00002  -0.00002  -3.13938
   D15        3.07875   0.00000   0.00000   0.00000   0.00000   3.07875
   D16       -0.13459   0.00000   0.00000  -0.00002  -0.00002  -0.13461
   D17        3.13056   0.00000   0.00000   0.00001   0.00001   3.13057
   D18       -0.01451   0.00000   0.00000   0.00001   0.00001  -0.01451
   D19        0.00241   0.00000   0.00000   0.00000   0.00000   0.00241
   D20        3.14052   0.00000   0.00000   0.00000   0.00000   3.14052
   D21        0.00208   0.00000   0.00000   0.00000   0.00000   0.00208
   D22       -3.12955   0.00000   0.00000  -0.00001  -0.00001  -3.12956
   D23        3.14024   0.00000   0.00000   0.00000   0.00000   3.14024
   D24        0.00861   0.00000   0.00000  -0.00001  -0.00001   0.00860
   D25       -3.12559   0.00000   0.00000   0.00000   0.00000  -3.12559
   D26        0.00848   0.00000   0.00000   0.00000   0.00000   0.00847
   D27        0.00676   0.00000   0.00000   0.00001   0.00001   0.00677
   D28        3.14083   0.00000   0.00000   0.00001   0.00001   3.14083
   D29       -0.02258   0.00000   0.00000   0.00000   0.00000  -0.02258
   D30        3.12893   0.00000   0.00000   0.00000   0.00000   3.12892
   D31       -0.00680   0.00000   0.00000   0.00000   0.00000  -0.00680
   D32        3.12714   0.00000   0.00000   0.00002   0.00002   3.12716
   D33        3.12700   0.00000   0.00000   0.00000   0.00000   3.12700
   D34       -0.02225   0.00000   0.00000   0.00002   0.00002  -0.02223
   D35       -2.71444   0.00000   0.00000   0.00000   0.00000  -2.71443
   D36       -0.62601   0.00000   0.00000   0.00000   0.00000  -0.62601
   D37        1.46506   0.00000   0.00000   0.00000   0.00000   1.46506
   D38        0.43468   0.00000   0.00000  -0.00002  -0.00002   0.43466
   D39        2.52310   0.00000   0.00000  -0.00002  -0.00002   2.52309
   D40       -1.66901   0.00000   0.00000  -0.00002  -0.00002  -1.66903
         Item               Value     Threshold  Converged?
 Maximum Force            0.000001     0.000015     YES
 RMS     Force            0.000000     0.000010     YES
 Maximum Displacement     0.000061     0.000060     NO 
 RMS     Displacement     0.000017     0.000040     YES
 Predicted change in Energy=-6.280069D-11
 GradGradGradGradGradGradGradGradGradGradGradGradGradGradGradGradGradGrad

                          Input orientation:                          
 ---------------------------------------------------------------------
 Center     Atomic      Atomic             Coordinates (Angstroms)
 Number     Number       Type             X           Y           Z
 ---------------------------------------------------------------------
      1          8           0        8.701270    6.357326    4.856381
      2          1           0        9.509476    6.073728    5.295619
      3          6           0        6.273597    6.999144    5.122051
      4          5           0        7.667380    6.518414    5.711195
      5          8           0        7.812005    6.192995    7.025971
      6          1           0        7.047820    6.389001    7.572164
      7          6           0        5.192561    6.107145    5.155750
      8          1           0        5.328355    5.120833    5.587463
      9          6           0        3.960580    6.463767    4.631354
     10          1           0        3.133580    5.761652    4.653607
     11          6           0        3.753992    7.739359    4.064834
     12          6           0        4.839956    8.637956    4.046712
     13          1           0        4.675502    9.622772    3.624948
     14          6           0        6.071055    8.269449    4.561472
     15          6           0        2.500794    8.197464    3.509895
     16          1           0        1.789087    7.355067    3.604431
     17          6           0        7.214557    9.249124    4.508348
     18          9           0        6.785106   10.514977    4.456148
     19          9           0        7.997291    9.141252    5.599627
     20          9           0        7.998634    9.054414    3.443500
 ---------------------------------------------------------------------
                    Distance matrix (angstroms):
                    1          2          3          4          5
     1  O    0.000000
     2  H    0.962577   0.000000
     3  C    2.525095   3.370080   0.000000
     4  B    1.351142   1.940044   1.587710   0.000000
     5  O    2.350514   2.426881   2.577108   1.362148   0.000000
     6  H    3.179681   3.367760   2.640975   1.965657   0.959544
     7  C    3.530333   4.319310   1.401940   2.569512   3.219718
     8  H    3.666054   4.298251   2.153635   2.727560   3.063879
     9  C    4.747221   5.602110   2.424347   3.861271   4.543235
    10  H    5.603134   6.415732   3.407423   4.716622   5.263252
    11  C    5.197319   6.116761   2.830907   4.417671   5.256143
    12  C    4.557037   5.471696   2.428453   3.906058   4.866918
    13  H    5.327886   6.225284   3.417403   4.789655   5.759164
    14  C    3.265151   4.145226   1.403191   2.633674   3.662829
    15  C    6.606439   7.537951   4.274232   5.861616   6.677548
    16  H    7.095149   8.006644   4.747702   6.300220   7.023737
    17  C    3.270159   3.996198   2.514845   3.018057   4.004409
    18  F    4.595426   5.277462   3.614713   4.280896   5.132060
    19  F    2.966183   3.433487   2.790668   2.645858   3.280397
    20  F    3.124774   3.820665   3.165030   3.418108   4.588752
                    6          7          8          9         10
     6  H    0.000000
     7  C    3.059491   0.000000
     8  H    2.916136   1.085185   0.000000
     9  C    4.264388   1.385622   2.142061   0.000000
    10  H    4.922683   2.147304   2.469771   1.085075   0.000000
    11  C    4.997413   2.433865   3.413751   1.410942   2.154736
    12  C    4.728771   2.785552   3.870737   2.417066   3.398995
    13  H    5.627227   3.869152   4.954304   3.391648   4.282979
    14  C    3.681632   2.408418   3.393824   2.778394   3.863456
    15  C    6.359875   3.784691   4.666588   2.528705   2.764358
    16  H    6.658112   3.943036   4.631483   2.562102   2.333968
    17  C    4.194648   3.792048   4.665301   4.285056   5.370096
    18  F    5.177090   4.738632   5.700771   4.941755   5.997227
    19  F    3.516715   4.155640   4.825675   4.939789   5.997693
    20  F    5.005431   4.415001   5.215364   4.942502   5.997948
                   11         12         13         14         15
    11  C    0.000000
    12  C    1.409654   0.000000
    13  H    2.142411   1.083878   0.000000
    14  C    2.428256   1.384334   2.157807   0.000000
    15  C    1.445103   2.440059   2.602710   3.722602   0.000000
    16  H    2.054386   3.339044   3.670735   4.481883   1.106840
    17  C    3.801527   2.495068   2.714186   1.506712   4.931781
    18  F    4.128539   2.733945   2.436668   2.358678   4.962015
    19  F    4.725090   3.554380   3.894291   2.355459   5.955602
    20  F    4.486915   3.242614   3.376264   2.362539   5.564622
                   16         17         18         19         20
    16  H    0.000000
    17  C    5.817236   0.000000
    18  F    5.972491   1.337736   0.000000
    19  F    6.761143   1.347293   2.159643   0.000000
    20  F    6.439887   1.336634   2.152058   2.157876   0.000000
 Symmetry turned off by external request.
 Stoichiometry    C8H6BF3O2
 Framework group  C1[X(C8H6BF3O2)]
 Deg. of freedom    54
 Full point group                 C1      NOp   1
 Rotational constants (GHZ):           0.9023420           0.6304923           0.4232170
 Standard basis: 6-311+G(d,p) (5D, 7F)
   344 basis functions,   552 primitive gaussians,   358 cartesian basis functions
    51 alpha electrons       51 beta electrons
       nuclear repulsion energy       894.2520235826 Hartrees.
 NAtoms=   20 NActive=   20 NUniq=   20 SFac= 1.00D+00 NAtFMM=   60 NAOKFM=F Big=F
 Integral buffers will be    131072 words long.
 Raffenetti 2 integral format.
 Two-electron integral symmetry is turned off.
 One-electron integrals computed using PRISM.
 NBasis=   344 RedAO= T EigKep=  1.83D-06  NBF=   344
 NBsUse=   343 1.00D-06 EigRej=  7.61D-07 NBFU=   343
 Initial guess from the checkpoint file:  "2-cf3-phboh2-opt-freq-2.chk"
 B after Tr=     0.000025    0.000007   -0.000037
         Rot=    1.000000   -0.000001    0.000001    0.000000 Ang=   0.00 deg.
 Requested convergence on RMS density matrix=1.00D-08 within 128 cycles.
 Requested convergence on MAX density matrix=1.00D-06.
 Requested convergence on             energy=1.00D-06.
 Level shift goal  0.100 maximum shift  0.100.
 No special actions if energy rises.
 Dynamic level shift is on during FON iterations.
 SCF Done:  E(RM062X) =  -783.233253262     A.U. after    6 cycles
            NFock=  6  Conv=0.87D-08     -V/T= 2.0031
 Calling FoFJK, ICntrl=      2127 FMM=F ISym2X=0 I1Cent= 0 IOpClX= 0 NMat=1 NMatS=1 NMatT=0.
 -------------------------------------------------------------------
 Center     Atomic                   Forces (Hartrees/Bohr)
 Number     Number              X              Y              Z
 -------------------------------------------------------------------
      1        8           0.000000251    0.000000623    0.000001481
      2        1           0.000000057    0.000000745    0.000001903
      3        6          -0.000000047    0.000000059    0.000000138
      4        5          -0.000000283    0.000000284    0.000000875
      5        8          -0.000000968    0.000000146    0.000000943
      6        1          -0.000001333   -0.000000095    0.000000520
      7        6           0.000000129   -0.000000201   -0.000000594
      8        1           0.000000102   -0.000000218   -0.000000643
      9        6           0.000000355   -0.000000405   -0.000001261
     10        1           0.000000506   -0.000000591   -0.000001834
     11        6           0.000000396   -0.000000393   -0.000001226
     12        6           0.000000207   -0.000000133   -0.000000478
     13        1           0.000000234   -0.000000119   -0.000000445
     14        6          -0.000000001    0.000000054    0.000000202
     15        6           0.000000620   -0.000000583   -0.000001859
     16        1           0.000000759   -0.000000769   -0.000002425
     17        6          -0.000000197    0.000000334    0.000000990
     18        9          -0.000000450    0.000000247    0.000000889
     19        9          -0.000000805    0.000000372    0.000001420
     20        9           0.000000470    0.000000643    0.000001403
 -------------------------------------------------------------------
 Cartesian Forces:  Max     0.000002425 RMS     0.000000813

 GradGradGradGradGradGradGradGradGradGradGradGradGradGradGradGradGradGrad
 Berny optimization.
 Using GEDIIS/GDIIS optimizer.
 FormGI is forming the generalized inverse of G from B-inverse, IUseBI=4.
 Internal  Forces:  Max     0.000000020 RMS     0.000000005
 Search for a local minimum.
 Step number   2 out of a maximum of  100
 All quantities printed in internal units (Hartrees-Bohrs-Radians)
 Mixed Optimization -- En-DIIS/RFO-DIIS
 Swapping is turned off.
 Update second derivatives using D2CorX and points    1    2
 DE= -1.39D-09 DEPred=-6.28D-11 R= 2.22D+01
 Trust test= 2.22D+01 RLast= 8.51D-05 DXMaxT set to 3.00D-01
 ITU=  0  0
     Eigenvalues ---    0.00240   0.00411   0.00688   0.01285   0.01295
     Eigenvalues ---    0.01597   0.01643   0.01763   0.02049   0.02285
     Eigenvalues ---    0.02410   0.02630   0.02765   0.02975   0.03752
     Eigenvalues ---    0.10385   0.11038   0.11236   0.11492   0.11958
     Eigenvalues ---    0.12480   0.13017   0.14042   0.14566   0.17676
     Eigenvalues ---    0.18031   0.18333   0.18893   0.19388   0.20212
     Eigenvalues ---    0.23068   0.24163   0.25782   0.26251   0.26950
     Eigenvalues ---    0.31261   0.31796   0.35149   0.35982   0.36311
     Eigenvalues ---    0.36810   0.38306   0.39132   0.40391   0.40970
     Eigenvalues ---    0.42992   0.44532   0.46737   0.48305   0.50856
     Eigenvalues ---    0.51909   0.54850   0.55784   0.55812
 En-DIIS/RFO-DIIS/Sim-DIIS IScMMF=       -3 using points:     2    1
 RFO step:  Lambda=-1.95361556D-14.
 DIIS inversion failure, remove point   2.
 Use linear search instead of GDIIS.
 RFO step:  Lambda= 0.00000000D+00 EMin= 2.39826942D-03
 Quartic linear search produced a step of -0.00003.
 Iteration  1 RMS(Cart)=  0.00000055 RMS(Int)=  0.00000000
 Variable       Old X    -DE/DX   Delta X   Delta X   Delta X     New X
                                 (Linear)    (Quad)   (Total)
    R1        1.81901   0.00000   0.00000   0.00000   0.00000   1.81901
    R2        2.55329   0.00000   0.00000   0.00000   0.00000   2.55329
    R3        3.00034   0.00000   0.00000   0.00000   0.00000   3.00034
    R4        2.64928   0.00000   0.00000   0.00000   0.00000   2.64928
    R5        2.65165   0.00000   0.00000   0.00000   0.00000   2.65165
    R6        2.57409   0.00000   0.00000   0.00000   0.00000   2.57409
    R7        1.81327   0.00000   0.00000   0.00000   0.00000   1.81327
    R8        2.05070   0.00000   0.00000   0.00000   0.00000   2.05070
    R9        2.61845   0.00000   0.00000   0.00000   0.00000   2.61845
   R10        2.05050   0.00000   0.00000   0.00000   0.00000   2.05050
   R11        2.66629   0.00000   0.00000   0.00000   0.00000   2.66629
   R12        2.66386   0.00000   0.00000   0.00000   0.00000   2.66386
   R13        2.73085   0.00000   0.00000   0.00000   0.00000   2.73085
   R14        2.04823   0.00000   0.00000   0.00000   0.00000   2.04823
   R15        2.61601   0.00000   0.00000   0.00000   0.00000   2.61601
   R16        2.84727   0.00000   0.00000   0.00000   0.00000   2.84727
   R17        2.09162   0.00000   0.00000   0.00000   0.00000   2.09162
   R18        2.52795   0.00000   0.00000   0.00000   0.00000   2.52795
   R19        2.54602   0.00000   0.00000   0.00000   0.00000   2.54602
   R20        2.52587   0.00000   0.00000   0.00000   0.00000   2.52587
    A1        1.97025   0.00000   0.00000   0.00000   0.00000   1.97025
    A2        2.06616   0.00000   0.00000   0.00000   0.00000   2.06616
    A3        2.15204   0.00000   0.00000   0.00000   0.00000   2.15204
    A4        2.06497   0.00000   0.00000   0.00000   0.00000   2.06497
    A5        2.06357   0.00000   0.00000   0.00000   0.00000   2.06357
    A6        2.09547   0.00000   0.00000   0.00000   0.00000   2.09547
    A7        2.12199   0.00000   0.00000   0.00000   0.00000   2.12199
    A8        1.99991   0.00000   0.00000   0.00000   0.00000   1.99991
    A9        2.08445   0.00000   0.00000   0.00000   0.00000   2.08445
   A10        2.10917   0.00000   0.00000   0.00000   0.00000   2.10917
   A11        2.08948   0.00000   0.00000   0.00000   0.00000   2.08948
   A12        2.09827   0.00000   0.00000   0.00000   0.00000   2.09827
   A13        2.11160   0.00000   0.00000   0.00000   0.00000   2.11160
   A14        2.07331   0.00000   0.00000   0.00000   0.00000   2.07331
   A15        2.05858   0.00000   0.00000   0.00000   0.00000   2.05858
   A16        2.17458   0.00000   0.00000   0.00000   0.00000   2.17458
   A17        2.04998   0.00000   0.00000   0.00000   0.00000   2.04998
   A18        2.05705   0.00000   0.00000   0.00000   0.00000   2.05705
   A19        2.10671   0.00000   0.00000   0.00000   0.00000   2.10671
   A20        2.11940   0.00000   0.00000   0.00000   0.00000   2.11940
   A21        2.11520   0.00000   0.00000   0.00000   0.00000   2.11520
   A22        2.08653   0.00000   0.00000   0.00000   0.00000   2.08653
   A23        2.08144   0.00000   0.00000   0.00000   0.00000   2.08144
   A24        1.85829   0.00000   0.00000   0.00000   0.00000   1.85829
   A25        1.95304   0.00000   0.00000   0.00000   0.00000   1.95304
   A26        1.93939   0.00000   0.00000   0.00000   0.00000   1.93939
   A27        1.95905   0.00000   0.00000   0.00000   0.00000   1.95905
   A28        1.86908   0.00000   0.00000   0.00000   0.00000   1.86908
   A29        1.87033   0.00000   0.00000   0.00000   0.00000   1.87033
   A30        1.86797   0.00000   0.00000   0.00000   0.00000   1.86797
    D1        3.13092   0.00000   0.00000   0.00000   0.00000   3.13092
    D2       -0.08007   0.00000   0.00000   0.00000   0.00000  -0.08007
    D3        1.97454   0.00000   0.00000   0.00000   0.00000   1.97454
    D4       -1.09655   0.00000   0.00000   0.00000   0.00000  -1.09655
    D5       -1.15991   0.00000   0.00000   0.00000   0.00000  -1.15991
    D6        2.05219   0.00000   0.00000   0.00000   0.00000   2.05219
    D7        0.00942   0.00000   0.00000   0.00000   0.00000   0.00942
    D8       -3.11878   0.00000   0.00000   0.00000   0.00000  -3.11878
    D9       -3.13896   0.00000   0.00000   0.00000   0.00000  -3.13896
   D10        0.01603   0.00000   0.00000   0.00000   0.00000   0.01603
   D11        3.12901   0.00000   0.00000   0.00000   0.00000   3.12901
   D12       -0.00493   0.00000   0.00000   0.00000   0.00000  -0.00493
   D13       -0.00545   0.00000   0.00000   0.00000   0.00000  -0.00545
   D14       -3.13938   0.00000   0.00000   0.00000   0.00000  -3.13938
   D15        3.07875   0.00000   0.00000   0.00000   0.00000   3.07875
   D16       -0.13461   0.00000   0.00000   0.00000   0.00000  -0.13461
   D17        3.13057   0.00000   0.00000   0.00000   0.00000   3.13057
   D18       -0.01451   0.00000   0.00000   0.00000   0.00000  -0.01451
   D19        0.00241   0.00000   0.00000   0.00000   0.00000   0.00241
   D20        3.14052   0.00000   0.00000   0.00000   0.00000   3.14052
   D21        0.00208   0.00000   0.00000   0.00000   0.00000   0.00208
   D22       -3.12956   0.00000   0.00000   0.00000   0.00000  -3.12956
   D23        3.14024   0.00000   0.00000   0.00000   0.00000   3.14024
   D24        0.00860   0.00000   0.00000   0.00000   0.00000   0.00860
   D25       -3.12559   0.00000   0.00000   0.00000   0.00000  -3.12559
   D26        0.00847   0.00000   0.00000   0.00000   0.00000   0.00848
   D27        0.00677   0.00000   0.00000   0.00000   0.00000   0.00677
   D28        3.14083   0.00000   0.00000   0.00000   0.00000   3.14083
   D29       -0.02258   0.00000   0.00000   0.00000   0.00000  -0.02258
   D30        3.12892   0.00000   0.00000   0.00000   0.00000   3.12892
   D31       -0.00680   0.00000   0.00000   0.00000   0.00000  -0.00680
   D32        3.12716   0.00000   0.00000   0.00000   0.00000   3.12716
   D33        3.12700   0.00000   0.00000   0.00000   0.00000   3.12700
   D34       -0.02223   0.00000   0.00000   0.00000   0.00000  -0.02223
   D35       -2.71443   0.00000   0.00000   0.00000   0.00000  -2.71443
   D36       -0.62601   0.00000   0.00000   0.00000   0.00000  -0.62601
   D37        1.46506   0.00000   0.00000   0.00000   0.00000   1.46506
   D38        0.43466   0.00000   0.00000   0.00000   0.00000   0.43466
   D39        2.52309   0.00000   0.00000   0.00000   0.00000   2.52309
   D40       -1.66903   0.00000   0.00000   0.00000   0.00000  -1.66903
         Item               Value     Threshold  Converged?
 Maximum Force            0.000000     0.000015     YES
 RMS     Force            0.000000     0.000010     YES
 Maximum Displacement     0.000002     0.000060     YES
 RMS     Displacement     0.000001     0.000040     YES
 Predicted change in Energy=-6.040088D-14
 Optimization completed.
    -- Stationary point found.
                           ----------------------------
                           !   Optimized Parameters   !
                           ! (Angstroms and Degrees)  !
 --------------------------                            --------------------------
 ! Name  Definition              Value          Derivative Info.                !
 --------------------------------------------------------------------------------
 ! R1    R(1,2)                  0.9626         -DE/DX =    0.0                 !
 ! R2    R(1,4)                  1.3511         -DE/DX =    0.0                 !
 ! R3    R(3,4)                  1.5877         -DE/DX =    0.0                 !
 ! R4    R(3,7)                  1.4019         -DE/DX =    0.0                 !
 ! R5    R(3,14)                 1.4032         -DE/DX =    0.0                 !
 ! R6    R(4,5)                  1.3621         -DE/DX =    0.0                 !
 ! R7    R(5,6)                  0.9595         -DE/DX =    0.0                 !
 ! R8    R(7,8)                  1.0852         -DE/DX =    0.0                 !
 ! R9    R(7,9)                  1.3856         -DE/DX =    0.0                 !
 ! R10   R(9,10)                 1.0851         -DE/DX =    0.0                 !
 ! R11   R(9,11)                 1.4109         -DE/DX =    0.0                 !
 ! R12   R(11,12)                1.4097         -DE/DX =    0.0                 !
 ! R13   R(11,15)                1.4451         -DE/DX =    0.0                 !
 ! R14   R(12,13)                1.0839         -DE/DX =    0.0                 !
 ! R15   R(12,14)                1.3843         -DE/DX =    0.0                 !
 ! R16   R(14,17)                1.5067         -DE/DX =    0.0                 !
 ! R17   R(15,16)                1.1068         -DE/DX =    0.0                 !
 ! R18   R(17,18)                1.3377         -DE/DX =    0.0                 !
 ! R19   R(17,19)                1.3473         -DE/DX =    0.0                 !
 ! R20   R(17,20)                1.3366         -DE/DX =    0.0                 !
 ! A1    A(2,1,4)              112.887          -DE/DX =    0.0                 !
 ! A2    A(4,3,7)              118.382          -DE/DX =    0.0                 !
 ! A3    A(4,3,14)             123.3027         -DE/DX =    0.0                 !
 ! A4    A(7,3,14)             118.3141         -DE/DX =    0.0                 !
 ! A5    A(1,4,3)              118.234          -DE/DX =    0.0                 !
 ! A6    A(1,4,5)              120.0616         -DE/DX =    0.0                 !
 ! A7    A(3,4,5)              121.5809         -DE/DX =    0.0                 !
 ! A8    A(4,5,6)              114.5865         -DE/DX =    0.0                 !
 ! A9    A(3,7,8)              119.4301         -DE/DX =    0.0                 !
 ! A10   A(3,7,9)              120.8468         -DE/DX =    0.0                 !
 ! A11   A(8,7,9)              119.7186         -DE/DX =    0.0                 !
 ! A12   A(7,9,10)             120.2218         -DE/DX =    0.0                 !
 ! A13   A(7,9,11)             120.9857         -DE/DX =    0.0                 !
 ! A14   A(10,9,11)            118.7922         -DE/DX =    0.0                 !
 ! A15   A(9,11,12)            117.9482         -DE/DX =    0.0                 !
 ! A16   A(9,11,15)            124.594          -DE/DX =    0.0                 !
 ! A17   A(12,11,15)           117.4554         -DE/DX =    0.0                 !
 ! A18   A(11,12,13)           117.8601         -DE/DX =    0.0                 !
 ! A19   A(11,12,14)           120.7059         -DE/DX =    0.0                 !
 ! A20   A(13,12,14)           121.4326         -DE/DX =    0.0                 !
 ! A21   A(3,14,12)            121.192          -DE/DX =    0.0                 !
 ! A22   A(3,14,17)            119.5491         -DE/DX =    0.0                 !
 ! A23   A(12,14,17)           119.2574         -DE/DX =    0.0                 !
 ! A24   A(11,15,16)           106.4723         -DE/DX =    0.0                 !
 ! A25   A(14,17,18)           111.901          -DE/DX =    0.0                 !
 ! A26   A(14,17,19)           111.1187         -DE/DX =    0.0                 !
 ! A27   A(14,17,20)           112.2451         -DE/DX =    0.0                 !
 ! A28   A(18,17,19)           107.0902         -DE/DX =    0.0                 !
 ! A29   A(18,17,20)           107.162          -DE/DX =    0.0                 !
 ! A30   A(19,17,20)           107.0268         -DE/DX =    0.0                 !
 ! D1    D(2,1,4,3)            179.3886         -DE/DX =    0.0                 !
 ! D2    D(2,1,4,5)             -4.5874         -DE/DX =    0.0                 !
 ! D3    D(7,3,4,1)            113.1329         -DE/DX =    0.0                 !
 ! D4    D(7,3,4,5)            -62.8276         -DE/DX =    0.0                 !
 ! D5    D(14,3,4,1)           -66.4579         -DE/DX =    0.0                 !
 ! D6    D(14,3,4,5)           117.5816         -DE/DX =    0.0                 !
 ! D7    D(4,3,7,8)              0.5395         -DE/DX =    0.0                 !
 ! D8    D(4,3,7,9)           -178.6931         -DE/DX =    0.0                 !
 ! D9    D(14,3,7,8)          -179.849          -DE/DX =    0.0                 !
 ! D10   D(14,3,7,9)             0.9184         -DE/DX =    0.0                 !
 ! D11   D(4,3,14,12)          179.2791         -DE/DX =    0.0                 !
 ! D12   D(4,3,14,17)           -0.2824         -DE/DX =    0.0                 !
 ! D13   D(7,3,14,12)           -0.312          -DE/DX =    0.0                 !
 ! D14   D(7,3,14,17)         -179.8734         -DE/DX =    0.0                 !
 ! D15   D(1,4,5,6)            176.3995         -DE/DX =    0.0                 !
 ! D16   D(3,4,5,6)             -7.7126         -DE/DX =    0.0                 !
 ! D17   D(3,7,9,10)           179.3683         -DE/DX =    0.0                 !
 ! D18   D(3,7,9,11)            -0.8311         -DE/DX =    0.0                 !
 ! D19   D(8,7,9,10)             0.1379         -DE/DX =    0.0                 !
 ! D20   D(8,7,9,11)           179.9385         -DE/DX =    0.0                 !
 ! D21   D(7,9,11,12)            0.1192         -DE/DX =    0.0                 !
 ! D22   D(7,9,11,15)         -179.3105         -DE/DX =    0.0                 !
 ! D23   D(10,9,11,12)         179.9225         -DE/DX =    0.0                 !
 ! D24   D(10,9,11,15)           0.4928         -DE/DX =    0.0                 !
 ! D25   D(9,11,12,13)        -179.0832         -DE/DX =    0.0                 !
 ! D26   D(9,11,12,14)           0.4856         -DE/DX =    0.0                 !
 ! D27   D(15,11,12,13)          0.3878         -DE/DX =    0.0                 !
 ! D28   D(15,11,12,14)        179.9565         -DE/DX =    0.0                 !
 ! D29   D(9,11,15,16)          -1.2938         -DE/DX =    0.0                 !
 ! D30   D(12,11,15,16)        179.274          -DE/DX =    0.0                 !
 ! D31   D(11,12,14,3)          -0.3895         -DE/DX =    0.0                 !
 ! D32   D(11,12,14,17)        179.1732         -DE/DX =    0.0                 !
 ! D33   D(13,12,14,3)         179.1637         -DE/DX =    0.0                 !
 ! D34   D(13,12,14,17)         -1.2736         -DE/DX =    0.0                 !
 ! D35   D(3,14,17,18)        -155.5256         -DE/DX =    0.0                 !
 ! D36   D(3,14,17,19)         -35.8679         -DE/DX =    0.0                 !
 ! D37   D(3,14,17,20)          83.9418         -DE/DX =    0.0                 !
 ! D38   D(12,14,17,18)         24.9045         -DE/DX =    0.0                 !
 ! D39   D(12,14,17,19)        144.5622         -DE/DX =    0.0                 !
 ! D40   D(12,14,17,20)        -95.6282         -DE/DX =    0.0                 !
 --------------------------------------------------------------------------------
 GradGradGradGradGradGradGradGradGradGradGradGradGradGradGradGradGradGrad

                          Input orientation:                          
 ---------------------------------------------------------------------
 Center     Atomic      Atomic             Coordinates (Angstroms)
 Number     Number       Type             X           Y           Z
 ---------------------------------------------------------------------
      1          8           0        8.701270    6.357326    4.856381
      2          1           0        9.509476    6.073728    5.295619
      3          6           0        6.273597    6.999144    5.122051
      4          5           0        7.667380    6.518414    5.711195
      5          8           0        7.812005    6.192995    7.025971
      6          1           0        7.047820    6.389001    7.572164
      7          6           0        5.192561    6.107145    5.155750
      8          1           0        5.328355    5.120833    5.587463
      9          6           0        3.960580    6.463767    4.631354
     10          1           0        3.133580    5.761652    4.653607
     11          6           0        3.753992    7.739359    4.064834
     12          6           0        4.839956    8.637956    4.046712
     13          1           0        4.675502    9.622772    3.624948
     14          6           0        6.071055    8.269449    4.561472
     15          6           0        2.500794    8.197464    3.509895
     16          1           0        1.789087    7.355067    3.604431
     17          6           0        7.214557    9.249124    4.508348
     18          9           0        6.785106   10.514977    4.456148
     19          9           0        7.997291    9.141252    5.599627
     20          9           0        7.998634    9.054414    3.443500
 ---------------------------------------------------------------------
                    Distance matrix (angstroms):
                    1          2          3          4          5
     1  O    0.000000
     2  H    0.962577   0.000000
     3  C    2.525095   3.370080   0.000000
     4  B    1.351142   1.940044   1.587710   0.000000
     5  O    2.350514   2.426881   2.577108   1.362148   0.000000
     6  H    3.179681   3.367760   2.640975   1.965657   0.959544
     7  C    3.530333   4.319310   1.401940   2.569512   3.219718
     8  H    3.666054   4.298251   2.153635   2.727560   3.063879
     9  C    4.747221   5.602110   2.424347   3.861271   4.543235
    10  H    5.603134   6.415732   3.407423   4.716622   5.263252
    11  C    5.197319   6.116761   2.830907   4.417671   5.256143
    12  C    4.557037   5.471696   2.428453   3.906058   4.866918
    13  H    5.327886   6.225284   3.417403   4.789655   5.759164
    14  C    3.265151   4.145226   1.403191   2.633674   3.662829
    15  C    6.606439   7.537951   4.274232   5.861616   6.677548
    16  H    7.095149   8.006644   4.747702   6.300220   7.023737
    17  C    3.270159   3.996198   2.514845   3.018057   4.004409
    18  F    4.595426   5.277462   3.614713   4.280896   5.132060
    19  F    2.966183   3.433487   2.790668   2.645858   3.280397
    20  F    3.124774   3.820665   3.165030   3.418108   4.588752
                    6          7          8          9         10
     6  H    0.000000
     7  C    3.059491   0.000000
     8  H    2.916136   1.085185   0.000000
     9  C    4.264388   1.385622   2.142061   0.000000
    10  H    4.922683   2.147304   2.469771   1.085075   0.000000
    11  C    4.997413   2.433865   3.413751   1.410942   2.154736
    12  C    4.728771   2.785552   3.870737   2.417066   3.398995
    13  H    5.627227   3.869152   4.954304   3.391648   4.282979
    14  C    3.681632   2.408418   3.393824   2.778394   3.863456
    15  C    6.359875   3.784691   4.666588   2.528705   2.764358
    16  H    6.658112   3.943036   4.631483   2.562102   2.333968
    17  C    4.194648   3.792048   4.665301   4.285056   5.370096
    18  F    5.177090   4.738632   5.700771   4.941755   5.997227
    19  F    3.516715   4.155640   4.825675   4.939789   5.997693
    20  F    5.005431   4.415001   5.215364   4.942502   5.997948
                   11         12         13         14         15
    11  C    0.000000
    12  C    1.409654   0.000000
    13  H    2.142411   1.083878   0.000000
    14  C    2.428256   1.384334   2.157807   0.000000
    15  C    1.445103   2.440059   2.602710   3.722602   0.000000
    16  H    2.054386   3.339044   3.670735   4.481883   1.106840
    17  C    3.801527   2.495068   2.714186   1.506712   4.931781
    18  F    4.128539   2.733945   2.436668   2.358678   4.962015
    19  F    4.725090   3.554380   3.894291   2.355459   5.955602
    20  F    4.486915   3.242614   3.376264   2.362539   5.564622
                   16         17         18         19         20
    16  H    0.000000
    17  C    5.817236   0.000000
    18  F    5.972491   1.337736   0.000000
    19  F    6.761143   1.347293   2.159643   0.000000
    20  F    6.439887   1.336634   2.152058   2.157876   0.000000
 Symmetry turned off by external request.
 Stoichiometry    C8H6BF3O2
 Framework group  C1[X(C8H6BF3O2)]
 Deg. of freedom    54
 Full point group                 C1      NOp   1
 Rotational constants (GHZ):           0.9023420           0.6304923           0.4232170

 **********************************************************************

            Population analysis using the SCF Density.

 **********************************************************************

 Alpha  occ. eigenvalues --  -25.28919 -25.28704 -25.28149 -19.66303 -19.65364
 Alpha  occ. eigenvalues --  -10.81324 -10.59764 -10.59297 -10.59043 -10.58831
 Alpha  occ. eigenvalues --  -10.58520 -10.57454 -10.57360  -7.11644  -1.48065
 Alpha  occ. eigenvalues --   -1.38797  -1.38332  -1.19290  -1.15725  -1.01099
 Alpha  occ. eigenvalues --   -0.92054  -0.89740  -0.82575  -0.77940  -0.74612
 Alpha  occ. eigenvalues --   -0.71263  -0.70374  -0.69340  -0.68358  -0.65647
 Alpha  occ. eigenvalues --   -0.63678  -0.59681  -0.58810  -0.58462  -0.56908
 Alpha  occ. eigenvalues --   -0.54850  -0.54400  -0.53581  -0.52264  -0.52089
 Alpha  occ. eigenvalues --   -0.50162  -0.49385  -0.48116  -0.47621  -0.46237
 Alpha  occ. eigenvalues --   -0.43738  -0.42794  -0.41562  -0.36124  -0.35299
 Alpha  occ. eigenvalues --   -0.28435
 Alpha virt. eigenvalues --   -0.09603  -0.02362  -0.01453   0.00732   0.01069
 Alpha virt. eigenvalues --    0.01804   0.02052   0.03242   0.04319   0.04741
 Alpha virt. eigenvalues --    0.05951   0.06497   0.06677   0.07373   0.07869
 Alpha virt. eigenvalues --    0.09011   0.09120   0.09875   0.10308   0.10925
[...]
 ,-0.00015068,-0.00006160,0.00002007,0.00531753,-0.02240660,0.01000303,
 -0.00028061,-0.00194298,0.00168479,0.00034497,0.00077185,0.00016420,0.
 00007175,-0.00033632,-0.00029988,-0.06176299,0.03113325,-0.01914731,0.
 06306108,0.00008227,0.00016326,-0.00027200,-0.00010326,-0.00005253,0.0
 0004031,0.00302908,-0.01288731,0.00672621,0.00041870,-0.00161087,0.000
 38606,0.00029257,0.00103351,-0.00081539,-0.00057506,-0.00051589,-0.000
 28562,0.03124228,-0.28834813,0.10844975,-0.03060888,0.30332300,0.00076
 788,-0.00038294,-0.00011259,0.00008761,0.00003661,0.00002284,0.0003830
 3,-0.00095400,0.00213125,0.00045088,-0.00069470,-0.00154391,0.00005559
 ,0.00075635,-0.00056894,-0.00028244,-0.00043087,-0.00016287,-0.0198427
 3,0.10736696,-0.08767241,0.02306270,-0.11884776,0.08076793,0.00131284,
 0.00033018,-0.00011957,-0.00010985,0.00045039,0.00001746,-0.05306712,-
 0.05019480,0.00264866,-0.00372153,-0.00518559,-0.00056458,0.00155175,0
 .00042399,0.00036206,-0.00037653,-0.00004786,-0.00103695,-0.29571692,0
 .08108287,-0.10329854,0.00099008,-0.00120631,-0.00042233,0.68568584,-0
 .00253805,0.00114364,-0.00006275,-0.00006580,-0.00000719,0.00015827,-0
 .00261341,0.05427892,-0.02083258,0.00098951,-0.00271145,0.00383602,-0.
 00058132,0.00113497,-0.00136338,-0.00005283,-0.00040087,0.00059795,0.0
 1302456,-0.14181930,0.03425424,0.02784274,-0.00326018,0.01183152,0.092
 66313,0.61443192,0.00014666,0.00007323,-0.00076280,-0.00025450,0.00013
 421,0.00005326,-0.01657396,-0.03328169,0.01581222,-0.00423332,0.002077
 63,0.00445679,0.00137924,-0.00185420,0.00154209,0.00019249,0.00030002,
 -0.00060514,-0.07610729,0.05470333,-0.11173513,-0.01191554,0.00247614,
 -0.00041413,0.12987905,-0.15624569,0.24963283,-0.00054283,0.00025228,0
 .00003409,-0.00000807,0.00003814,0.00002864,-0.00381998,0.00109350,-0.
 00407070,0.00036258,-0.00109734,0.00065266,-0.00011425,0.00025623,-0.0
 0034891,-0.00002906,-0.00005201,0.00008121,-0.01363110,-0.01925982,0.0
 0125721,0.00031373,0.00066777,0.00113276,-0.22185693,-0.14242089,0.000
 72896,0.23191080,0.00015492,-0.00009061,-0.00000996,0.00001600,-0.0000
 1233,-0.00001001,0.00172030,0.00122580,0.00304247,0.00013821,0.0002877
 6,-0.00025666,-0.00003990,-0.00005486,0.00001223,-0.00002554,0.0000256
 3,0.00000775,0.00839355,0.00988714,0.00151008,0.00006819,-0.00003463,-
 0.00164120,-0.14225195,-0.17539225,0.00872487,0.15270790,0.18101898,-0
 .00012560,0.00008258,0.00004004,0.00001191,0.00006236,0.00000210,-0.00
 446640,0.00265204,0.00498307,0.00032647,-0.00075057,-0.00011040,-0.000
 13252,0.00022893,-0.00031952,-0.00009417,-0.00002972,0.00006875,-0.009
 64897,-0.00713925,0.00701080,0.00138358,-0.00143405,-0.00321745,0.0005
 0513,0.00882146,-0.04536155,0.00298279,-0.01375910,0.03316076,-0.00433
 503,0.00117384,0.00028873,0.00022814,-0.00030451,-0.00006031,-0.011650
 95,-0.01839050,0.00498788,0.00834481,-0.00332602,0.00338002,-0.0024584
 5,0.00189773,-0.00297942,-0.00009636,-0.00036891,0.00145348,0.00858759
 ,0.02398742,-0.01127367,-0.00355319,0.00057290,-0.00417373,-0.11073959
 ,0.02177336,-0.02165913,0.00398381,-0.02141906,0.00937788,0.60177810,0
 .00201614,-0.00026109,-0.00029461,-0.00011827,0.00028347,-0.00003553,-
 0.01786314,-0.05055965,0.01240011,-0.00451250,-0.00067076,-0.00108599,
 0.00155312,-0.00069839,0.00132701,-0.00006916,0.00010991,-0.00098068,0
 .06858930,0.00794413,0.02338918,-0.00124202,0.00280539,0.00186218,-0.0
 1563299,-0.26779337,0.07443776,0.00399199,-0.01393039,0.00749678,0.060
 79130,0.58897623,-0.00185135,0.00038714,0.00027702,0.00013001,-0.00019
 798,-0.00003836,0.00595708,0.00985730,-0.01166254,0.00481094,-0.001214
 10,0.00032695,-0.00137146,0.00116846,-0.00168938,-0.00005213,-0.000172
 96,0.00080952,-0.02865013,0.01081985,0.00211434,-0.00335900,0.00245283
 ,0.00636730,-0.00757871,0.08608467,-0.10503611,-0.00089893,-0.00037678
 ,0.00174642,0.12329033,-0.16482197,0.22043422,0.00156247,-0.00064179,0
 .00029076,-0.00005644,-0.00006316,0.00009047,0.02424864,0.08326067,-0.
 02877211,-0.00050673,0.00185646,-0.00266901,0.00007740,-0.00028926,0.0
 0087180,0.00007043,0.00022011,0.00002092,-0.07240165,-0.01298019,-0.01
 609047,-0.00146257,-0.00032258,-0.00000580,0.04697430,-0.05370925,0.03
 392427,0.00154503,0.00141525,-0.00207130,-0.20758303,-0.08210524,-0.00
 905331,0.63893762,0.00079432,0.00042748,-0.00059195,-0.00004591,-0.000
 07576,0.00002254,0.03488763,-0.00223538,0.01395566,-0.00398067,-0.0030
 8636,0.00269365,0.00186957,0.00018849,0.00164571,-0.00004002,-0.000308
 53,-0.00034925,-0.01305743,-0.00367118,-0.00422873,-0.00026650,0.00039
 254,-0.00074735,-0.01677505,-0.04027356,0.01290008,0.00128381,-0.00362
 003,0.00441640,-0.12160420,-0.20433643,0.01507171,0.02612770,0.6719792
 2,-0.00104887,-0.00010576,-0.00027756,-0.00025399,-0.00019090,0.000084
 14,-0.00823608,0.03142668,-0.00636239,-0.00024682,0.00423637,0.0047278
 7,0.00059845,-0.00123019,0.00025018,0.00011644,0.00018246,-0.00022493,
 -0.01587980,-0.00448608,-0.00781104,-0.00007574,-0.00066524,-0.0006688
 1,0.01938474,0.00143306,0.01090573,-0.00200734,0.00438667,0.00408173,0
 .00557676,0.02723807,-0.07875645,0.13685538,-0.19090771,0.26612511,-0.
 00047999,-0.00003720,0.00011049,-0.00001647,-0.00001211,-0.00000245,-0
 .00473654,0.00096720,-0.00374815,0.00119055,0.00077093,0.00004732,-0.0
 0044654,-0.00001891,-0.00044869,-0.00001184,0.00003564,0.00010088,-0.0
 0089827,-0.00044193,0.00017138,0.00001122,0.00013918,0.00025816,-0.003
 53789,-0.00381849,-0.00153671,0.00043597,-0.00127609,0.00052014,0.0058
 3438,-0.02109980,0.00877116,-0.06218967,0.03941891,-0.02066251,0.06157
 483,0.00003336,-0.00004054,-0.00000511,0.00001687,-0.00000205,-0.00000
 065,-0.00016616,0.00164019,0.00188290,-0.00012029,0.00003250,-0.000075
 10,0.00001118,-0.00000719,-0.00000654,0.00002226,-0.00000112,0.0000094
 9,-0.00003655,0.00032894,-0.00052424,0.00015661,-0.00016153,-0.0002773
 1,-0.00354901,-0.00005436,0.00132323,0.00011990,-0.00056363,0.00042869
 ,0.00401645,-0.01386971,0.00794649,0.03840362,-0.29566662,0.10772805,-
 0.03871231,0.30958789,-0.00004393,-0.00009096,0.00003659,0.00000392,-0
 .00000147,0.00000654,-0.00347879,0.00252031,0.00502291,0.00042733,0.00
 022266,-0.00023384,-0.00011645,0.00006993,-0.00016823,0.00000260,0.000
 02126,0.00004083,-0.00030106,-0.00068342,-0.00083959,0.00024957,-0.000
 31083,-0.00087311,-0.00133524,0.00114475,0.00553008,-0.00004756,0.0000
 2365,0.00043321,-0.00116335,0.00088483,0.00318632,-0.02001670,0.107247
 83,-0.08936348,0.02458045,-0.11795337,0.08006191,-0.00190521,-0.000784
 40,0.00062972,-0.00018238,-0.00068842,-0.00015118,-0.12752049,-0.00550
 816,-0.01551678,0.00586903,0.01731093,-0.00746874,-0.00411229,-0.00022
 472,-0.00411629,-0.00019889,0.00022367,0.00057099,0.05299442,-0.015790
 12,0.02143444,-0.00298463,-0.00407210,-0.00155954,-0.03080462,0.030988
 38,-0.02007578,-0.00004459,0.00062094,-0.00015839,-0.04416314,-0.03253
 954,-0.00444717,-0.29774995,0.07621761,-0.09784986,0.00217639,-0.00109
 955,-0.00116970,0.65786884,-0.00123792,-0.00026090,0.00028772,-0.00009
 242,0.00009607,0.00008395,0.05053999,-0.26092840,0.09638243,0.00314712
 ,-0.00080153,0.00363938,-0.00069265,-0.00030056,-0.00106935,0.00007059
 ,-0.00006876,0.00020060,-0.05999529,-0.04194821,-0.00029789,-0.0038882
 8,0.00005975,0.00158277,0.02976538,-0.03297438,0.02051999,0.00100331,-
 0.00022449,0.00016284,0.01052326,0.04558690,-0.00930766,0.00897219,-0.
 13959765,0.02994891,0.02325060,-0.00061072,0.00937407,0.02902778,0.598
 79800,-0.00050757,0.00056690,-0.00035800,-0.00007441,-0.00011348,0.000
 00650,-0.03906167,0.07742094,-0.10192871,-0.00239118,0.00664184,0.0008
 0482,-0.00064397,-0.00060911,-0.00028297,-0.00004515,0.00018990,-0.000
 02144,0.03883980,0.01438968,0.01107107,-0.00150590,0.00184317,0.006483
 98,-0.02060013,0.02028229,-0.02021322,-0.00024101,0.00010205,-0.000707
 84,-0.02082010,-0.02494464,0.01454902,-0.07114773,0.05241023,-0.107249
 16,-0.01047464,0.00238367,0.00307961,0.13127860,-0.16229191,0.27308415
 ,0.00295486,-0.00066583,-0.00029754,-0.00016003,0.00020585,0.00003994,
 0.00174982,-0.00432854,0.00326990,-0.00593227,0.00183337,-0.00180946,0
 .00181042,-0.00137210,0.00202578,-0.00004366,0.00026162,-0.00104768,0.
 00963036,0.00632140,0.00151139,-0.00051477,0.00003765,0.00005475,-0.01
 670070,0.01888899,-0.01560310,0.00160987,-0.00193593,0.00131203,-0.217
 15424,0.06497897,-0.08542026,-0.04024663,0.00033040,-0.01186957,0.0020
 7865,0.00242446,0.00126256,-0.00467128,-0.00700242,-0.00102967,0.39992
 523,-0.00058986,0.00024995,0.00003705,0.00002886,-0.00006227,-0.000021
 83,-0.00343769,-0.00589459,0.00107554,0.00122807,-0.00085378,0.0003747
 8,-0.00037303,0.00047294,-0.00052078,-0.00004781,-0.00014421,0.0001709
 1,0.00525517,-0.00643186,0.00318030,0.00173376,-0.00045032,0.00047208,
 0.02639775,-0.00548790,0.01409849,0.00133836,0.00115639,-0.00031622,0.
 02538965,-0.09602060,0.03678464,-0.00902852,0.01147627,-0.00769547,-0.
 00061023,0.00018955,-0.00222422,-0.00887815,0.00418275,-0.00115362,0.0
 7184241,0.29032584,0.00106835,-0.00024934,0.00005772,-0.00002685,0.000
 10494,-0.00000395,0.00181381,0.00103546,0.00015874,-0.00201448,0.00057
 997,-0.00142665,0.00043370,-0.00050955,0.00090843,0.00004124,0.0001063
 0,-0.00033412,0.00196621,0.00252902,-0.00452498,-0.00055030,-0.0000840
 8,-0.00075565,-0.01798904,0.01191896,0.00035105,0.00001154,-0.00109443
 ,0.00029105,-0.07007271,0.04931356,-0.05610356,-0.00877129,-0.00536257
 ,-0.00246945,0.00223173,-0.00108697,-0.00373832,-0.00024353,-0.0006506
 9,0.00838518,0.09048311,-0.07922987,0.07318214,-0.00004667,0.00005200,
 0.00000089,-0.00000135,-0.00001960,-0.00000352,0.00017084,-0.00003061,
 0.00001754,0.00009254,-0.00004741,0.00005347,-0.00004103,0.00005349,-0
 .00005287,-0.00000954,-0.00002473,0.00002574,0.00079407,-0.00035973,-0
 .00111522,0.00007192,-0.00003792,0.00003821,0.00150396,-0.00214448,0.0
 0265815,0.00012318,0.00162599,-0.00024599,-0.02621198,-0.02841076,0.00
 336165,-0.00511262,0.00251316,-0.00455083,0.00007572,0.00003945,-0.000
 42995,-0.00135518,-0.00112472,0.00134622,-0.13308798,-0.10941120,0.001
 54845,0.16348934,-0.00027504,0.00009875,0.00002347,0.00003200,-0.00004
 050,-0.00000321,-0.00006628,0.00021692,-0.00009973,0.00060315,-0.00016
 787,0.00022114,-0.00018491,0.00014346,-0.00030962,0.00000044,-0.000029
 37,0.00012190,-0.00056294,0.00125174,0.00116456,-0.00016505,0.00007487
 ,-0.00008032,0.00252893,-0.00021002,-0.00074314,0.00010411,0.00042291,
 -0.00062320,0.01326483,0.00140592,0.00257149,-0.00110235,0.00109481,0.
 00174103,0.00062637,0.00080533,0.00040606,0.00040750,-0.00011054,-0.00
 128419,-0.15231040,-0.19336855,0.02252534,0.13706543,0.18840830,0.0002
 0042,-0.00007741,-0.00004894,-0.00001484,-0.00000202,0.00001003,0.0001
 8325,-0.00006951,0.00020988,-0.00024494,0.00010146,-0.00004499,0.00014
 691,-0.00002876,0.00003933,-0.00002960,0.00000945,-0.00006919,-0.00114
 091,0.00158710,0.00403958,0.00003519,-0.00002317,0.00002451,0.00061772
 ,-0.00231108,-0.00323507,0.00039638,-0.00017222,-0.00107174,-0.0123502
 2,-0.01016472,-0.00290877,-0.00299423,0.00313925,0.00445101,-0.0005797
 1,0.00019229,0.00118616,0.00060075,-0.00197224,-0.00301203,0.01787717,
 0.03538812,-0.01425313,-0.00251209,-0.02543883,0.01520426,-0.00778485,
 -0.00521238,0.00195385,-0.00058603,0.00141477,-0.00010103,0.00632284,-
 0.00802875,0.00309266,0.01806112,0.00757720,-0.00179476,-0.00504329,-0
 .00119835,-0.00016209,0.00115654,0.00053720,0.00099235,0.00609147,0.00
 505457,-0.00282562,0.00121378,0.00120076,-0.00002119,-0.00079495,0.003
 82000,-0.00166832,-0.00027302,0.00023822,0.00021503,-0.00024056,0.0006
 8344,-0.00327740,-0.02185783,-0.01730811,0.00086108,-0.00116003,0.0004
 3998,0.00034648,-0.16447435,-0.05924021,-0.00234961,-0.00168655,0.0000
 7114,-0.00031467,-0.00006334,0.00069448,-0.00025988,0.58616845,-0.0022
 1113,0.00238247,-0.00081236,0.00097445,0.00013305,-0.00005718,-0.02059
 303,-0.01794896,0.00192271,0.00204973,-0.00762772,0.00642895,-0.001420
 32,0.00093908,-0.00422578,-0.00004100,0.00008946,0.00108679,0.00221962
 ,-0.00306598,0.00422325,-0.00056068,-0.00006849,-0.00003198,0.00194885
 ,0.00019232,0.00037716,0.00019173,-0.00029085,-0.00012973,0.00732903,-
 0.00086737,0.00539477,-0.00451327,0.01495353,-0.00831286,0.00385999,-0
 .00077501,0.00073925,-0.06312075,-0.14417305,0.01224092,-0.00162233,0.
 00191911,-0.00117808,0.00046763,0.00012658,-0.00011169,0.03620473,0.58
 865815,0.00246213,-0.00309081,-0.00521314,-0.00042249,0.00120148,0.000
 45380,0.00868018,0.00144428,-0.00172161,0.00124645,0.01137349,0.004228
 29,-0.00154972,-0.00250794,-0.00243921,0.00066235,0.00133483,-0.000068
 64,-0.00180951,0.00555388,0.00406692,0.00047406,0.00050587,0.00048609,
 -0.00092587,0.00071227,-0.00089144,0.00011700,-0.00027278,-0.00093935,
 -0.00562786,0.00302216,0.00487450,-0.00681837,-0.01010307,0.00451311,-
 0.00035955,-0.00073395,-0.00268852,-0.00499007,0.00927696,-0.07415101,
 0.00040767,-0.00091008,-0.00001401,-0.00015852,0.00000747,-0.00015827,
 -0.00196576,-0.01277774,0.52092405,0.00137690,0.00095306,-0.00030631,0
 .00009976,-0.00031413,0.00001091,-0.00174824,-0.00000978,-0.00142778,-
 0.00315385,-0.00136703,0.00007475,0.00093764,0.00036784,-0.00000460,-0
 .00023806,-0.00013076,-0.00013094,-0.00085025,-0.00115794,0.00091569,-
 0.00027766,-0.00017002,0.00009007,0.00025370,-0.00089815,0.00037256,0.
 00003609,-0.00012029,0.00007665,0.00117261,-0.00022089,0.00046985,-0.0
 0356840,-0.00094271,-0.00222942,-0.00054187,-0.00248728,0.00068836,0.0
 1040438,-0.02117373,0.00218447,0.00024654,0.00003534,-0.00011608,-0.00
 004610,-0.00015040,0.00010757,-0.08917940,0.04323292,-0.00184583,0.120
 98964,0.00076948,-0.00123453,0.00011515,-0.00030969,0.00018245,0.00000
 420,-0.00742241,-0.00297191,-0.00280552,-0.00072485,0.00267008,-0.0021
 3931,0.00037267,-0.00068679,0.00168090,0.00007642,0.00000861,-0.000500
 62,-0.00021177,-0.00145125,0.00166420,-0.00071987,-0.00044821,0.000134
 68,0.00021852,-0.00077906,0.00014273,-0.00008169,0.00006762,-0.0002201
 9,-0.00247747,0.00125484,-0.00053728,0.00396964,-0.00193251,0.00244716
 ,-0.00206156,-0.00087478,-0.00126269,0.01231033,-0.04512297,0.00408494
 ,0.00137657,-0.00051457,0.00071142,-0.00003785,-0.00004657,-0.00001711
 ,0.03439010,-0.27969726,0.00676358,-0.10619226,0.38157397,-0.00034020,
 0.00044543,0.00071112,0.00006303,-0.00015282,-0.00008675,-0.00034646,0
 .00001450,0.00131293,-0.00014829,-0.00136613,-0.00071657,0.00015429,0.
 00040568,0.00027824,-0.00008518,-0.00016736,0.00001817,0.00076475,-0.0
 0036930,-0.00029132,0.00001730,-0.00005309,-0.00013553,-0.00022762,0.0
 0021969,-0.00012208,0.00000232,-0.00004397,0.00005812,0.00045186,-0.00
 054187,0.00014068,-0.00098538,0.00028335,-0.00076608,0.00015023,-0.000
 87307,0.00009011,-0.00033987,0.00415680,0.00905784,-0.00018963,0.00010
 129,0.00011465,0.00000290,-0.00005550,-0.00005618,-0.00290177,0.009419
 15,-0.07384072,0.00476475,-0.01204540,0.08208538,0.00284703,0.00326536
 ,0.00078334,0.00026167,-0.00089043,-0.00009128,0.00025743,0.00204213,-
 0.00042490,-0.00729617,-0.00393414,-0.00110694,0.00212520,0.00106860,0
 .00057110,-0.00057470,-0.00039344,-0.00032495,-0.00058296,0.00007015,0
 .00066954,-0.00013057,-0.00025239,-0.00003972,-0.00061161,-0.00026282,
 -0.00021283,0.00007342,-0.00012479,-0.00006547,-0.00184506,0.00160874,
 0.00127945,-0.00112809,-0.00712824,0.00015005,0.00075293,-0.00002810,-
 0.00038349,-0.02583026,-0.00053872,-0.03747784,-0.00018200,-0.00055654
 ,0.00041606,-0.00019103,-0.00033920,-0.00023166,-0.15862861,-0.0087595
 0,-0.09439529,-0.01787451,0.03137704,-0.02746151,0.18607309,0.00141772
 ,-0.00476643,-0.00119354,-0.00068027,0.00000319,-0.00021631,-0.0011132
 4,-0.00242293,-0.00047481,-0.00011142,0.00171062,-0.00142822,-0.000093
 80,-0.00055291,0.00144356,0.00007563,-0.00017366,-0.00029093,-0.000042
 85,0.00105247,-0.00098955,0.00008514,-0.00000083,0.00000197,-0.0003265
 0,-0.00010839,0.00005560,-0.00010591,0.00006126,-0.00001453,-0.0020877
 8,0.00109686,-0.00050616,-0.00024581,-0.00396951,0.00072444,-0.0004074
 3,-0.00001970,-0.00033999,-0.01754810,0.00831755,-0.01587905,0.0003869
 8,-0.00038545,0.00047667,-0.00008164,-0.00007682,-0.00013858,-0.006208
 47,-0.07784361,-0.00114355,0.04371687,-0.02145636,0.04452739,-0.016335
 10,0.08737221,0.00054974,0.00065674,0.00230982,0.00021796,-0.00078728,
 -0.00039415,0.00137666,0.00435104,0.00064547,-0.00254308,-0.00535652,-
 0.00442726,0.00144832,0.00224458,0.00139874,-0.00058518,-0.00087123,-0
 .00004827,-0.00090774,-0.00090301,0.00066066,-0.00015468,-0.00021433,-
 0.00007103,0.00026991,-0.00049795,0.00015987,0.00010206,-0.00012825,-0
 .00000678,0.00028434,0.00125538,-0.00009967,-0.00277621,-0.00411233,0.
 00039120,0.00063442,-0.00002647,-0.00000384,-0.01462713,0.00234409,-0.
 00993109,-0.00061890,-0.00014769,0.00007233,-0.00016914,-0.00018033,-0
 .00008933,-0.09642738,-0.00504074,-0.18123324,-0.02636113,0.03175885,-
 0.01190275,0.14929837,-0.02078639,0.28962989,0.00332851,0.00122348,-0.
 00216281,-0.00003242,-0.00034481,0.00018892,-0.00154057,0.00186458,0.0
 0010455,-0.00642231,0.00077985,0.00270302,0.00167907,-0.00049006,-0.00
 021512,-0.00020871,0.00009189,-0.00046041,-0.00101479,-0.00163046,-0.0
 0177033,-0.00026967,-0.00033464,-0.00003415,-0.00023425,-0.00088520,0.
 00055913,-0.00007466,0.00009407,0.00029719,0.00010213,-0.00039868,-0.0
 0211062,0.00044773,-0.00229429,0.00136792,-0.00011153,0.00051511,0.000
 92496,-0.02331581,-0.00131386,0.03472151,0.00037436,-0.00038749,0.0000
 8476,-0.00015475,-0.00017064,0.00019271,-0.16724140,0.00436331,0.10681
 899,-0.01803893,0.03537864,0.02665446,0.02248482,-0.00029402,-0.009011
 19,0.19024317,0.00051457,-0.00153129,0.00136095,-0.00025003,-0.0001722
 1,0.00009251,0.00066733,0.00056856,-0.00028928,0.00018331,0.00008873,-
 0.00163047,0.00019922,-0.00005808,0.00102478,-0.00003661,-0.00005967,-
 0.00018674,0.00025412,0.00036780,-0.00070217,0.00002488,-0.00001341,0.
 00004330,-0.00063995,0.00009050,-0.00021977,-0.00003136,0.00006059,0.0
 0006447,-0.00074130,-0.00045588,-0.00140446,0.00077580,-0.00173884,0.0
 0210129,-0.00057277,0.00006257,0.00021235,-0.01685314,0.01008113,0.013
 71947,0.00034888,-0.00035869,0.00014395,-0.00008650,0.00000066,0.00010
 970,0.00486967,-0.07703547,-0.00965636,0.04702933,-0.02854080,-0.04390
 478,0.00011136,0.01216243,-0.00355817,-0.03576680,0.08648137,-0.002100
 84,0.00108228,0.00186648,0.00016813,-0.00014227,-0.00026106,0.00041478
 ,0.00033132,0.00076533,0.00239461,-0.00279730,-0.00269792,-0.00043794,
 0.00094521,0.00060671,-0.00010562,-0.00037537,0.00023696,0.00010651,0.
 00041115,0.00064821,0.00012110,0.00012522,-0.00008747,0.00041388,0.000
 01827,-0.00006726,0.00008681,-0.00004440,-0.00014142,0.00108924,0.0002
 4299,0.00146855,0.00011833,0.00261658,-0.00158073,0.00023606,-0.000332
 02,-0.00076534,0.01819954,-0.00237076,-0.00866671,-0.00035850,0.000536
 57,0.00010253,0.00018490,0.00003562,-0.00021712,0.10660807,-0.00915480
 ,-0.19618758,0.02266646,-0.02997969,-0.00594924,0.00904799,-0.00382803
 ,-0.08706058,-0.15885349,0.04267944,0.29798767\\-0.00000025,-0.0000006
 2,-0.00000148,-0.00000006,-0.00000075,-0.00000190,0.00000005,-0.000000
 06,-0.00000013,0.00000028,-0.00000028,-0.00000088,0.00000096,-0.000000
 15,-0.00000094,0.00000134,0.00000009,-0.00000052,-0.00000013,0.0000002
 2,0.00000059,-0.00000010,0.00000023,0.00000064,-0.00000035,0.00000040,
 0.00000127,-0.00000050,0.00000060,0.00000183,-0.00000040,0.00000035,0.
 00000121,-0.00000020,0.00000013,0.00000048,-0.00000024,0.00000013,0.00
 000044,0.,-0.00000007,-0.00000020,-0.00000063,0.00000060,0.00000190,-0
 .00000075,0.00000076,0.00000240,0.00000020,-0.00000033,-0.00000098,0.0
 0000045,-0.00000024,-0.00000089,0.00000080,-0.00000037,-0.00000142,-0.
 00000047,-0.00000065,-0.00000141\\\@
 The archive entry for this job was punched.


 HE WHO LAUGHS LAST PROBABLY DIDN'T GET THE JOKE.
 Job cpu time:       0 days  1 hours 23 minutes 51.9 seconds.
 Elapsed time:       0 days  0 hours  2 minutes 40.7 seconds.
 File lengths (MBytes):  RWF=    239 Int=      0 D2E=      0 Chk=     11 Scr=      1
 Normal termination of Gaussian 16 at Mon May  5 07:47:41 2025.
