/home/tahminaafroz
cn008.cluster.local
tahminaafroz
Fri May  9 08:01:09 CDT 2025
 Entering Gaussian System, Link 0=g16
 Initial command:
 /home/apps/g16/l1.exe "/tmp/3-cl-ph-opt-freq-thf/Gau-364705.inp" -scrdir="/tmp/3-cl-ph-opt-freq-thf/"
 Entering Link 1 = /home/apps/g16/l1.exe PID=    364706.
  
 Copyright (c) 1988-2019, Gaussian, Inc.  All Rights Reserved.
  
 This is part of the Gaussian(R) 16 program.  It is based on
 the Gaussian(R) 09 system (copyright 2009, Gaussian, Inc.),
 the Gaussian(R) 03 system (copyright 2003, Gaussian, Inc.),
 the Gaussian(R) 98 system (copyright 1998, Gaussian, Inc.),
 the Gaussian(R) 94 system (copyright 1995, Gaussian, Inc.),
 the Gaussian 92(TM) system (copyright 1992, Gaussian, Inc.),
 the Gaussian 90(TM) system (copyright 1990, Gaussian, Inc.),
 the Gaussian 88(TM) system (copyright 1988, Gaussian, Inc.),
 the Gaussian 86(TM) system (copyright 1986, Carnegie Mellon
 University), and the Gaussian 82(TM) system (copyright 1983,
 Carnegie Mellon University). Gaussian is a federally registered
 trademark of Gaussian, Inc.
  
 This software contains proprietary and confidential information,
 including trade secrets, belonging to Gaussian, Inc.
  
 This software is provided under written license and may be
 used, copied, transmitted, or stored only in accord with that
 written license.
  
 The following legend is applicable only to US Government
 contracts under FAR:
  
                    RESTRICTED RIGHTS LEGEND
  
 Use, reproduction and disclosure by the US Government is
 subject to restrictions as set forth in subparagraphs (a)
 and (c) of the Commercial Computer Software - Restricted
 Rights clause in FAR 52.227-19.
  
 Gaussian, Inc.
 340 Quinnipiac St., Bldg. 40, Wallingford CT 06492
  
  
 ---------------------------------------------------------------
 Warning -- This program may not be used in any manner that
 competes with the business of Gaussian, Inc. or will provide
 assistance to any competitor of Gaussian, Inc.  The licensee
 of this program is prohibited from giving any competitor of
 Gaussian, Inc. access to this program.  By using this program,
 the user acknowledges that Gaussian, Inc. is engaged in the
 business of creating and licensing software in the field of
 computational chemistry and represents and warrants to the
 licensee that it is not a competitor of Gaussian, Inc. and that
 it will not use this program in any manner prohibited above.
 ---------------------------------------------------------------
  

 Cite this work as:
 Gaussian 16, Revision C.01,
 M. J. Frisch, G. W. Trucks, H. B. Schlegel, G. E. Scuseria, 
 M. A. Robb, J. R. Cheeseman, G. Scalmani, V. Barone, 
 G. A. Petersson, H. Nakatsuji, X. Li, M. Caricato, A. V. Marenich, 
 J. Bloino, B. G. Janesko, R. Gomperts, B. Mennucci, H. P. Hratchian, 
 J. V. Ortiz, A. F. Izmaylov, J. L. Sonnenberg, D. Williams-Young, 
 F. Ding, F. Lipparini, F. Egidi, J. Goings, B. Peng, A. Petrone, 
 T. Henderson, D. Ranasinghe, V. G. Zakrzewski, J. Gao, N. Rega, 
 G. Zheng, W. Liang, M. Hada, M. Ehara, K. Toyota, R. Fukuda, 
 J. Hasegawa, M. Ishida, T. Nakajima, Y. Honda, O. Kitao, H. Nakai, 
 T. Vreven, K. Throssell, J. A. Montgomery, Jr., J. E. Peralta, 
 F. Ogliaro, M. J. Bearpark, J. J. Heyd, E. N. Brothers, K. N. Kudin, 
 V. N. Staroverov, T. A. Keith, R. Kobayashi, J. Normand, 
 K. Raghavachari, A. P. Rendell, J. C. Burant, S. S. Iyengar, 
 J. Tomasi, M. Cossi, J. M. Millam, M. Klene, C. Adamo, R. Cammi, 
 J. W. Ochterski, R. L. Martin, K. Morokuma, O. Farkas, 
 J. B. Foresman, and D. J. Fox, Gaussian, Inc., Wallingford CT, 2019.
 
 ******************************************
 Gaussian 16:  AS64L-G16RevC.01  3-Jul-2019
                 9-May-2025 
 ******************************************
 %mem=20GB
 %nprocshared=32
 Will use up to   32 processors via shared memory.
 %chk=3-cl-ph-opt-freq-thf.chk
 ----------------------------------------------------------------------
 # opt=(calcfc,tight) freq 6-311+g(d,p) scrf=(smd,solvent=thf) nosymm s
 cf=(qc,fermi,xqc) geom=connectivity int=ultrafine m062x
 ----------------------------------------------------------------------
 1/7=10,10=4,18=20,19=15,26=6,38=1,57=2/1,3;
 2/9=110,12=2,15=1,17=6,18=5,40=1/2;
 3/5=4,6=6,7=111,11=2,25=1,30=1,70=32201,71=2,72=20,74=-55,75=-5,140=1/1,2,3;
 4//1;
 5/5=2,22=13,38=5,53=20/2;
 8/6=4,10=90,11=11/1;
 11/6=1,8=1,9=11,15=111,16=1,31=1/1,2,10;
 10/6=1,13=1,31=1/2;
 6/7=2,8=2,9=2,10=2,28=1/1;
 7/10=1,25=1,30=1/1,2,3,16;
 1/7=10,10=4,18=20,19=15,26=6/3(2);
 2/9=110,15=1/2;
 99//99;
 2/9=110,15=1/2;
 3/5=4,6=6,7=111,11=2,25=1,30=1,70=32205,71=1,72=20,74=-55,75=-5/1,2,3;
 4/5=5,16=3,69=1/1;
 5/5=2,22=13,38=5,53=20/2;
 7/30=1/1,2,3,16;
 1/7=10,18=20,19=15,26=6/3(-5);
 2/9=110,15=1/2;
 6/7=2,8=2,9=2,10=2,19=2,28=1/1;
 99/9=1/99;
 --------------------
 3-cl-ph-opt-freq-thf
 --------------------
 Symbolic Z-matrix:
 Charge =  0 Multiplicity = 2
 C                     6.23996   6.99784   5.17544 
 C                     5.11446   6.17635   5.30046 
 H                     5.17391   5.2278    5.82597 
 C                     3.88956   6.5487    4.75622 
 H                     3.02579   5.90279   4.86048 
 C                     3.76364   7.75337   4.07271 
 C                     4.88227   8.56704   3.94788 
 C                     6.10906   8.20896   4.485 
 H                     6.96369   8.86557   4.37062 
 H                     2.81576   8.05566   3.64444 
 Cl                    4.73553   10.08573   3.08623 
 

 GradGradGradGradGradGradGradGradGradGradGradGradGradGradGradGradGradGrad
 Berny optimization.
 Initialization pass.
                           ----------------------------
                           !    Initial Parameters    !
                           ! (Angstroms and Degrees)  !
 --------------------------                            --------------------------
 ! Name  Definition              Value          Derivative Info.                !
 --------------------------------------------------------------------------------
 ! R1    R(1,2)                  1.399          calculate D2E/DX2 analytically  !
 ! R2    R(1,8)                  1.4002         calculate D2E/DX2 analytically  !
 ! R3    R(2,3)                  1.086          calculate D2E/DX2 analytically  !
 ! R4    R(2,4)                  1.3911         calculate D2E/DX2 analytically  !
 ! R5    R(4,5)                  1.0836         calculate D2E/DX2 analytically  !
 ! R6    R(4,6)                  1.3908         calculate D2E/DX2 analytically  !
 ! R7    R(6,7)                  1.3889         calculate D2E/DX2 analytically  !
 ! R8    R(6,10)                 1.0832         calculate D2E/DX2 analytically  !
 ! R9    R(7,8)                  1.3863         calculate D2E/DX2 analytically  !
 ! R10   R(7,11)                 1.7523         calculate D2E/DX2 analytically  !
 ! R11   R(8,9)                  1.0838         calculate D2E/DX2 analytically  !
 ! A1    A(2,1,8)              118.4732         calculate D2E/DX2 analytically  !
 ! A2    A(1,2,3)              120.8019         calculate D2E/DX2 analytically  !
 ! A3    A(1,2,4)              121.0802         calculate D2E/DX2 analytically  !
 ! A4    A(3,2,4)              118.1179         calculate D2E/DX2 analytically  !
 ! A5    A(2,4,5)              120.3115         calculate D2E/DX2 analytically  !
 ! A6    A(2,4,6)              120.2541         calculate D2E/DX2 analytically  !
 ! A7    A(5,4,6)              119.4344         calculate D2E/DX2 analytically  !
 ! A8    A(4,6,7)              118.6003         calculate D2E/DX2 analytically  !
 ! A9    A(4,6,10)             121.0161         calculate D2E/DX2 analytically  !
 ! A10   A(7,6,10)             120.3836         calculate D2E/DX2 analytically  !
 ! A11   A(6,7,8)              121.777          calculate D2E/DX2 analytically  !
 ! A12   A(6,7,11)             118.9799         calculate D2E/DX2 analytically  !
 ! A13   A(8,7,11)             119.2431         calculate D2E/DX2 analytically  !
 ! A14   A(1,8,7)              119.8151         calculate D2E/DX2 analytically  !
 ! A15   A(1,8,9)              120.155          calculate D2E/DX2 analytically  !
 ! A16   A(7,8,9)              120.0299         calculate D2E/DX2 analytically  !
 ! D1    D(8,1,2,3)            179.8392         calculate D2E/DX2 analytically  !
 ! D2    D(8,1,2,4)             -0.122          calculate D2E/DX2 analytically  !
 ! D3    D(2,1,8,7)              0.1186         calculate D2E/DX2 analytically  !
 ! D4    D(2,1,8,9)           -179.909          calculate D2E/DX2 analytically  !
 ! D5    D(1,2,4,5)           -179.9995         calculate D2E/DX2 analytically  !
 ! D6    D(1,2,4,6)              0.0407         calculate D2E/DX2 analytically  !
 ! D7    D(3,2,4,5)              0.0383         calculate D2E/DX2 analytically  !
 ! D8    D(3,2,4,6)           -179.9215         calculate D2E/DX2 analytically  !
 ! D9    D(2,4,6,7)              0.0444         calculate D2E/DX2 analytically  !
 ! D10   D(2,4,6,10)          -179.9739         calculate D2E/DX2 analytically  !
 ! D11   D(5,4,6,7)           -179.9158         calculate D2E/DX2 analytically  !
 ! D12   D(5,4,6,10)             0.0659         calculate D2E/DX2 analytically  !
 ! D13   D(4,6,7,8)             -0.047          calculate D2E/DX2 analytically  !
 ! D14   D(4,6,7,11)           179.8939         calculate D2E/DX2 analytically  !
 ! D15   D(10,6,7,8)           179.9712         calculate D2E/DX2 analytically  !
 ! D16   D(10,6,7,11)           -0.0878         calculate D2E/DX2 analytically  !
 ! D17   D(6,7,8,1)             -0.0357         calculate D2E/DX2 analytically  !
 ! D18   D(6,7,8,9)            179.9919         calculate D2E/DX2 analytically  !
 ! D19   D(11,7,8,1)          -179.9765         calculate D2E/DX2 analytically  !
 ! D20   D(11,7,8,9)             0.0511         calculate D2E/DX2 analytically  !
 --------------------------------------------------------------------------------
 Trust Radius=3.00D-01 FncErr=5.00D-06 GrdErr=5.00D-06 EigMax=2.50D+02 EigMin=1.00D-04
 Number of steps in this run=     57 maximum allowed number of steps=    100.
 GradGradGradGradGradGradGradGradGradGradGradGradGradGradGradGradGradGrad

                          Input orientation:                          
 ---------------------------------------------------------------------
 Center     Atomic      Atomic             Coordinates (Angstroms)
 Number     Number       Type             X           Y           Z
 ---------------------------------------------------------------------
      1          6           0        6.239962    6.997844    5.175441
      2          6           0        5.114463    6.176346    5.300458
      3          1           0        5.173912    5.227802    5.825968
      4          6           0        3.889558    6.548700    4.756222
      5          1           0        3.025787    5.902789    4.860475
      6          6           0        3.763635    7.753373    4.072707
      7          6           0        4.882274    8.567042    3.947875
      8          6           0        6.109063    8.208960    4.484999
      9          1           0        6.963685    8.865565    4.370621
     10          1           0        2.815764    8.055662    3.644441
     11         17           0        4.735530   10.085734    3.086230
 ---------------------------------------------------------------------
                    Distance matrix (angstroms):
                    1          2          3          4          5
     1  C    0.000000
     2  C    1.399013   0.000000
     3  H    2.166263   1.086016   0.000000
     4  C    2.429377   1.391126   2.130421   0.000000
     5  H    3.410172   2.151973   2.449944   1.083591   0.000000
     6  C    2.814079   2.412286   3.382501   1.390786   2.142349
     7  C    2.410937   2.756596   3.842240   2.390108   3.373074
     8  C    1.400231   2.405353   3.400001   2.785000   3.868591
     9  H    2.158678   3.393541   4.307510   3.868696   4.952276
    10  H    3.897188   3.399741   4.279803   2.158709   2.481473
    11  Cl   4.020346   4.508848   5.594448   4.001893   4.854709
                    6          7          8          9         10
     6  C    0.000000
     7  C    1.388882   0.000000
     8  C    2.424578   1.386267   0.000000
     9  H    3.400889   2.144785   1.083786   0.000000
    10  H    1.083167   2.150359   3.402331   4.288185   0.000000
    11  Cl   2.712494   1.752253   2.713932   2.846603   2.849262
                   11
    11  Cl   0.000000
 Symmetry turned off by external request.
 Stoichiometry    C6H4Cl(2)
 Framework group  C1[X(C6H4Cl)]
 Deg. of freedom    27
 Full point group                 C1      NOp   1
 Rotational constants (GHZ):           5.9825004           1.5972758           1.2606844
 Standard basis: 6-311+G(d,p) (5D, 7F)
   186 basis functions,   301 primitive gaussians,   193 cartesian basis functions
    29 alpha electrons       28 beta electrons
       nuclear repulsion energy       304.4325076755 Hartrees.
 NAtoms=   11 NActive=   11 NUniq=   11 SFac= 1.00D+00 NAtFMM=   60 NAOKFM=F Big=F
 Integral buffers will be    131072 words long.
 Raffenetti 2 integral format.
 Two-electron integral symmetry is turned off.
 Force inversion solution in PCM.
 ------------------------------------------------------------------------------
 Polarizable Continuum Model (PCM)
 =================================
 Model                : PCM.
 Atomic radii         : SMD-Coulomb.
 Polarization charges : Total charges.
 Charge compensation  : None.
 Solution method      : Matrix inversion.
 Cavity type          : VdW (van der Waals Surface) (Alpha=1.000).
 Cavity algorithm     : GePol (No added spheres)
                        Default sphere list used, NSphG=   11.
                        Lebedev-Laikov grids with approx.  5.0 points / Ang**2.
                        Smoothing algorithm: York/Karplus (Gamma=1.0000).
                        Polarization charges: spherical gaussians, with
                                              point-specific exponents (IZeta= 3).
                        Self-potential: point-specific (ISelfS= 7).
                        Self-field    : sphere-specific E.n sum rule (ISelfD= 2).
 1st derivatives      : Analytical E(r).r(x)/FMM algorithm (CHGder, D1EAlg=3).
                        Cavity 1st derivative terms included.
 2nd derivatives      : Analytical E(r).r(xy)/FMM algorithm (CHGder, D2EAlg=3).
                        Cavity 2nd derivative terms included.
 Solvent              : TetraHydroFuran, Eps=   7.425700 Eps(inf)=   1.974025
 ------------------------------------------------------------------------------
 Spheres list:
 ISph  on   Nord     Re0    Alpha      Xe            Ye            Ze
    1   C      1    1.8500  1.000      6.239962      6.997844      5.175441
    2   C      2    1.8500  1.000      5.114463      6.176346      5.300458
    3   H      3    1.2000  1.000      5.173912      5.227802      5.825968
    4   C      4    1.8500  1.000      3.889558      6.548700      4.756222
    5   H      5    1.2000  1.000      3.025787      5.902789      4.860475
    6   C      6    1.8500  1.000      3.763635      7.753373      4.072707
    7   C      7    1.8500  1.000      4.882274      8.567042      3.947875
    8   C      8    1.8500  1.000      6.109063      8.208960      4.484999
    9   H      9    1.2000  1.000      6.963685      8.865565      4.370621
   10   H     10    1.2000  1.000      2.815764      8.055662      3.644441
   11  Cl     11    2.3800  1.000      4.735530     10.085734      3.086230
 ------------------------------------------------------------------------------
 ------------------------------------------------------------------------------
 Atomic radii for non-electrostatic terms: SMD-CDS.
 ------------------------------------------------------------------------------
 Nuclear repulsion after PCM non-electrostatic terms =      304.4290341762 Hartrees.
 One-electron integrals computed using PRISM.
 NBasis=   186 RedAO= T EigKep=  3.73D-06  NBF=   186
 NBsUse=   186 1.00D-06 EigRej= -1.00D+00 NBFU=   186
 ExpMin= 4.38D-02 ExpMax= 1.06D+05 ExpMxC= 3.62D+03 IAcc=3 IRadAn=         5 AccDes= 0.00D+00
 Harris functional with IExCor= 1009 and IRadAn=       5 diagonalized for initial guess.
 HarFok:  IExCor= 1009 AccDes= 0.00D+00 IRadAn=         5 IDoV= 1 UseB2=F ITyADJ=14
 ICtDFT=  3500011 ScaDFX=  1.000000  1.000000  1.000000  1.000000
 FoFCou: FMM=F IPFlag=           0 FMFlag=      100000 FMFlg1=           0
         NFxFlg=           0 DoJE=T BraDBF=F KetDBF=T FulRan=T
         wScrn=  0.000000 ICntrl=       500 IOpCl=  0 I1Cent=   200000004 NGrid=           0
         NMat0=    1 NMatS0=      1 NMatT0=    0 NMatD0=    1 NMtDS0=    0 NMtDT0=    0
 Symmetry not used in FoFCou.
 Initial guess <Sx>= 0.0000 <Sy>= 0.0000 <Sz>= 0.5000 <S**2>= 0.7500 S= 0.5000
 Keep R1 and R2 ints in memory in canonical form, NReq=335193157.
 Requested convergence on RMS density matrix=1.00D-08 within 128 cycles.
 Requested convergence on MAX density matrix=1.00D-06.
 Requested convergence on             energy=1.00D-06.
 Level shift goal  0.100 maximum shift  0.100.
 No special actions if energy rises.
 Dynamic level shift is on during FON iterations.
 Inv3:  Mode=1 IEnd=     4120752.
 Iteration    1 A*A^-1 deviation from unit magnitude is 4.44D-15 for   1169.
 Iteration    1 A*A^-1 deviation from orthogonality  is 1.62D-15 for    751    426.
 Iteration    1 A^-1*A deviation from unit magnitude is 4.44D-15 for   1169.
 Iteration    1 A^-1*A deviation from orthogonality  is 1.41D-15 for    868    493.
 Error on total polarization charges =  0.02732
 SCF Done:  E(UM062X) =  -691.117527803     A.U. after   18 cycles
            NFock= 18  Conv=0.55D-08     -V/T= 2.0029
 <Sx>= 0.0000 <Sy>= 0.0000 <Sz>= 0.5000 <S**2>= 0.7637 S= 0.5068
 <L.S>=  0.00000000000    
 SMD-CDS (non-electrostatic) energy       (kcal/mol) =      -2.18
 (included in total energy above)
 Annihilation of the first spin contaminant:
 S**2 before annihilation     0.7637,   after     0.7501
 DoSCS=F DFT=T ScalE2(SS,OS)=  1.000000  1.000000
 Range of M.O.s used for correlation:     1   186
 NBasis=   186 NAE=    29 NBE=    28 NFC=     0 NFV=     0
 NROrb=    186 NOA=    29 NOB=    28 NVA=   157 NVB=   158

 **** Warning!!: The largest alpha MO coefficient is  0.17057620D+03


 **** Warning!!: The largest beta MO coefficient is  0.16312710D+03

 Symmetrizing basis deriv contribution to polar:
 IMax=3 JMax=2 DiffMx= 0.00D+00
 G2DrvN: will do    12 centers at a time, making    1 passes.
 Calling FoFCou, ICntrl=  3107 FMM=F I1Cent=   0 AccDes= 0.00D+00.
 NEqPCM:  Using equilibrium solvation (IEInf=0, Eps=   7.4257, EpsInf=   1.9740)
 G2PCM: DoFxE=T DoFxN=T DoGrad=T DoDP/DQ/DG/TGxP=FFFF NFrqRd=   0 IEInf=0 SqF1=F DoCFld=F IF1Alg=4.
 End of G2Drv F.D. properties file   721 does not exist.
 End of G2Drv F.D. properties file   722 does not exist.
 End of G2Drv F.D. properties file   788 does not exist.
          IDoAtm=11111111111
 NEqPCM:  Using equilibrium solvation (IEInf=0, Eps=   7.4257, EpsInf=   1.9740)
          Differentiating once with respect to nuclear coordinates.
 Keep R1 and R2 ints in memory in canonical form, NReq=335092193.
          There are    36 degrees of freedom in the 1st order CPHF.  IDoFFX=6 NUNeed=     0.
     30 vectors produced by pass  0 Test12= 2.49D-14 2.78D-09 XBig12= 2.95D-01 1.51D-01.
 AX will form    30 AO Fock derivatives at one time.
     30 vectors produced by pass  1 Test12= 2.49D-14 2.78D-09 XBig12= 2.93D-02 6.04D-02.
     30 vectors produced by pass  2 Test12= 2.49D-14 2.78D-09 XBig12= 8.67D-04 6.78D-03.
     30 vectors produced by pass  3 Test12= 2.49D-14 2.78D-09 XBig12= 1.68D-05 1.56D-03.
     30 vectors produced by pass  4 Test12= 2.49D-14 2.78D-09 XBig12= 3.61D-07 1.32D-04.
     30 vectors produced by pass  5 Test12= 2.49D-14 2.78D-09 XBig12= 5.37D-09 1.30D-05.
     30 vectors produced by pass  6 Test12= 2.49D-14 2.78D-09 XBig12= 5.78D-11 1.17D-06.
     23 vectors produced by pass  7 Test12= 2.49D-14 2.78D-09 XBig12= 3.81D-13 8.83D-08.
      3 vectors produced by pass  8 Test12= 2.49D-14 2.78D-09 XBig12= 2.32D-15 3.94D-09.
 InvSVY:  IOpt=1 It=  1 EMax= 2.22D-15
 Solved reduced A of dimension   236 with    30 vectors.
 End of Minotr F.D. properties file   721 does not exist.
 End of Minotr F.D. properties file   722 does not exist.
 End of Minotr F.D. properties file   788 does not exist.

 **********************************************************************

            Population analysis using the SCF Density.

 **********************************************************************

 Alpha  occ. eigenvalues -- -102.68279 -10.61825 -10.59256 -10.56643 -10.56109
 Alpha  occ. eigenvalues --  -10.55984 -10.55927  -9.82535  -7.55051  -7.54379
 Alpha  occ. eigenvalues --   -7.54368  -1.00729  -0.94672  -0.86226  -0.83666
 Alpha  occ. eigenvalues --   -0.70521  -0.68486  -0.60109  -0.54844  -0.52982
 Alpha  occ. eigenvalues --   -0.50323  -0.47998  -0.47282  -0.42707  -0.41106
 Alpha  occ. eigenvalues --   -0.39057  -0.33576  -0.33038  -0.31032
 Alpha virt. eigenvalues --   -0.00054   0.00499   0.01943   0.02796   0.03873
 Alpha virt. eigenvalues --    0.04556   0.05993   0.06159   0.06682   0.07417
 Alpha virt. eigenvalues --    0.08799   0.09503   0.09651   0.10150   0.12622
 Alpha virt. eigenvalues --    0.13867   0.13994   0.14401   0.14727   0.15206
 Alpha virt. eigenvalues --    0.15796   0.15986   0.18740   0.18993   0.20432
 Alpha virt. eigenvalues --    0.21146   0.21194   0.21672   0.22213   0.23336
 Alpha virt. eigenvalues --    0.24327   0.25016   0.25606   0.26361   0.27122
 Alpha virt. eigenvalues --    0.28543   0.33091   0.34262   0.34915   0.36172
 Alpha virt. eigenvalues --    0.45244   0.47932   0.48218   0.48934   0.50727
 Alpha virt. eigenvalues --    0.54320   0.55224   0.57513   0.57696   0.59384
 Alpha virt. eigenvalues --    0.60174   0.60669   0.63532   0.64205   0.64295
 Alpha virt. eigenvalues --    0.65041   0.67901   0.70702   0.70811   0.73953
 Alpha virt. eigenvalues --    0.75704   0.77674   0.80992   0.84945   0.86263
 Alpha virt. eigenvalues --    0.86978   0.87155   0.87628   0.89558   0.89990
 Alpha virt. eigenvalues --    0.92799   0.93470   0.96829   0.98888   0.99965
 Alpha virt. eigenvalues --    1.04335   1.05395   1.06784   1.13961   1.16143
 Alpha virt. eigenvalues --    1.17941   1.21373   1.22669   1.25309   1.35168
 Alpha virt. eigenvalues --    1.40820   1.50640   1.52672   1.53615   1.59611
 Alpha virt. eigenvalues --    1.60431   1.65276   1.66570   1.68214   1.71305
 Alpha virt. eigenvalues --    1.71885   1.78376   1.78902   1.86413   1.91534
 Alpha virt. eigenvalues --    1.93563   1.94699   1.94744   1.98302   2.00269
 Alpha virt. eigenvalues --    2.01191   2.04384   2.04453   2.07076   2.24069
 Alpha virt. eigenvalues --    2.25223   2.32209   2.34880   2.36351   2.41682
 Alpha virt. eigenvalues --    2.43482   2.51018   2.54135   2.54947   2.57201
 Alpha virt. eigenvalues --    2.68543   2.69606   2.72432   2.73112   2.75882
 Alpha virt. eigenvalues --    2.77465   2.79873   2.82308   2.83636   2.86143
 Alpha virt. eigenvalues --    2.92916   2.93537   3.05616   3.11567   3.17847
 Alpha virt. eigenvalues --    3.24519   3.38287   3.40601   3.53427   3.60586
 Alpha virt. eigenvalues --    3.72331   3.83927   4.04331   4.12653   4.15012
 Alpha virt. eigenvalues --    4.82141   9.95851  23.55301  23.93930  23.99857
 Alpha virt. eigenvalues --   24.12387  24.13516  24.22476  25.92792  26.21313
 Alpha virt. eigenvalues --   26.68086 216.05753
  Beta  occ. eigenvalues -- -102.68267 -10.61739 -10.58182 -10.56642 -10.56052
  Beta  occ. eigenvalues --  -10.55984 -10.55937  -9.82530  -7.55026  -7.54370
  Beta  occ. eigenvalues --   -7.54362  -1.00374  -0.94061  -0.85226  -0.83069
  Beta  occ. eigenvalues --   -0.69659  -0.67063  -0.59485  -0.53974  -0.52325
  Beta  occ. eigenvalues --   -0.49987  -0.47656  -0.45728  -0.42092  -0.40610
  Beta  occ. eigenvalues --   -0.38773  -0.32101  -0.30765
  Beta virt. eigenvalues --   -0.07310   0.00433   0.01240   0.01944   0.02784
  Beta virt. eigenvalues --    0.04003   0.04645   0.06149   0.06354   0.06838
  Beta virt. eigenvalues --    0.08740   0.08828   0.09339   0.09585   0.10251
  Beta virt. eigenvalues --    0.12670   0.13984   0.14102   0.14348   0.14847
  Beta virt. eigenvalues --    0.15092   0.15959   0.16055   0.18977   0.19184
  Beta virt. eigenvalues --    0.20426   0.21280   0.21630   0.21937   0.22067
  Beta virt. eigenvalues --    0.23313   0.24454   0.25535   0.25666   0.25894
  Beta virt. eigenvalues --    0.27082   0.28290   0.33354   0.34440   0.35572
  Beta virt. eigenvalues --    0.37168   0.45715   0.46100   0.48214   0.48620
  Beta virt. eigenvalues --    0.50835   0.53241   0.55405   0.57576   0.57741
  Beta virt. eigenvalues --    0.58495   0.59521   0.60735   0.63472   0.64236
  Beta virt. eigenvalues --    0.64332   0.64530   0.69332   0.70475   0.71135
  Beta virt. eigenvalues --    0.73527   0.75437   0.77883   0.81009   0.84660
  Beta virt. eigenvalues --    0.85550   0.86553   0.87662   0.87710   0.89738
  Beta virt. eigenvalues --    0.90098   0.92589   0.92829   0.97567   0.98922
  Beta virt. eigenvalues --    0.99978   1.04851   1.05870   1.06693   1.14417
  Beta virt. eigenvalues --    1.16375   1.18455   1.22334   1.22979   1.24870
  Beta virt. eigenvalues --    1.35660   1.41354   1.51404   1.53909   1.54417
  Beta virt. eigenvalues --    1.59692   1.60662   1.65362   1.67416   1.68585
  Beta virt. eigenvalues --    1.71545   1.72186   1.78926   1.79102   1.87352
  Beta virt. eigenvalues --    1.91618   1.94241   1.94743   1.95077   1.98231
  Beta virt. eigenvalues --    2.00465   2.01652   2.04631   2.04721   2.07159
  Beta virt. eigenvalues --    2.24220   2.25770   2.32259   2.35148   2.36939
  Beta virt. eigenvalues --    2.41941   2.43617   2.51422   2.54273   2.54921
  Beta virt. eigenvalues --    2.57287   2.68816   2.69805   2.72728   2.73301
  Beta virt. eigenvalues --    2.75848   2.77442   2.80290   2.82770   2.83551
  Beta virt. eigenvalues --    2.86312   2.92898   2.93510   3.07696   3.11636
  Beta virt. eigenvalues --    3.18269   3.24873   3.38743   3.40921   3.53525
  Beta virt. eigenvalues --    3.61241   3.72623   3.84132   4.04403   4.12612
  Beta virt. eigenvalues --    4.15381   4.82421   9.95856  23.55513  23.94401
  Beta virt. eigenvalues --   24.00069  24.12515  24.13575  24.22528  25.92823
  Beta virt. eigenvalues --   26.21337  26.68151 216.05773
          Condensed to atoms (all electrons):
               1          2          3          4          5          6
     1  C    5.945759   0.506316   0.005052   0.014460   0.001941  -1.142960
     2  C    0.506316   5.880505   0.363713   0.504520   0.004500   0.126807
     3  H    0.005052   0.363713   0.452959  -0.003060  -0.005660  -0.024489
     4  C    0.014460   0.504520  -0.003060   5.981595   0.403920   1.543923
     5  H    0.001941   0.004500  -0.005660   0.403920   0.445195  -0.033441
     6  C   -1.142960   0.126807  -0.024489   1.543923  -0.033441  11.862505
     7  C   -0.893119  -1.351966   0.019945  -0.863957   0.001179  -0.820788
     8  C    1.316195   0.421701  -0.016996  -1.423124  -0.020654  -5.387431
     9  H    0.011677  -0.026306  -0.000035   0.011478   0.000038   0.017254
    10  H    0.014691  -0.032778  -0.000068  -0.003912  -0.005334   0.246689
    11  Cl   0.128520   0.008437   0.000392   0.150021   0.001455   0.115497
               7          8          9         10         11
     1  C   -0.893119   1.316195   0.011677   0.014691   0.128520
     2  C   -1.351966   0.421701  -0.026306  -0.032778   0.008437
     3  H    0.019945  -0.016996  -0.000035  -0.000068   0.000392
     4  C   -0.863957  -1.423124   0.011478  -0.003912   0.150021
     5  H    0.001179  -0.020654   0.000038  -0.005334   0.001455
     6  C   -0.820788  -5.387431   0.017254   0.246689   0.115497
     7  C   11.452757  -1.627722   0.068555   0.095208  -0.919261
     8  C   -1.627722  13.145931   0.256373   0.033510   0.084554
     9  H    0.068555   0.256373   0.436128  -0.000180  -0.000959
    10  H    0.095208   0.033510  -0.000180   0.436033  -0.004535
    11  Cl  -0.919261   0.084554  -0.000959  -0.004535  17.221069
          Atomic-Atomic Spin Densities.
               1          2          3          4          5          6
     1  C    1.140035  -0.241409   0.011854   0.085451   0.005040   0.003763
     2  C   -0.241409   0.246679  -0.012386  -0.129866  -0.009533   0.037630
     3  H    0.011854  -0.012386   0.022292   0.004681   0.001122  -0.003427
     4  C    0.085451  -0.129866   0.004681   0.151263   0.003491  -0.018130
     5  H    0.005040  -0.009533   0.001122   0.003491   0.005133  -0.000504
     6  C    0.003763   0.037630  -0.003427  -0.018130  -0.000504  -0.041232
     7  C    0.057685  -0.061003   0.001095   0.032622   0.001912   0.011394
     8  C   -0.209940   0.223284  -0.010584  -0.097423  -0.001617  -0.017115
     9  H    0.011886  -0.014928   0.000135   0.005194   0.000014  -0.003245
    10  H    0.001220  -0.001409   0.000005   0.000645  -0.000306   0.006685
    11  Cl  -0.024471   0.020266  -0.000341  -0.016598  -0.000194  -0.010826
               7          8          9         10         11
     1  C    0.057685  -0.209940   0.011886   0.001220  -0.024471
     2  C   -0.061003   0.223284  -0.014928  -0.001409   0.020266
     3  H    0.001095  -0.010584   0.000135   0.000005  -0.000341
     4  C    0.032622  -0.097423   0.005194   0.000645  -0.016598
     5  H    0.001912  -0.001617   0.000014  -0.000306  -0.000194
     6  C    0.011394  -0.017115  -0.003245   0.006685  -0.010826
     7  C    0.172499  -0.161127   0.000495  -0.003438  -0.038000
     8  C   -0.161127   0.277399  -0.005364  -0.003203   0.058680
     9  H    0.000495  -0.005364   0.024060   0.000008  -0.002783
    10  H   -0.003438  -0.003203   0.000008   0.003920  -0.000553
    11  Cl  -0.038000   0.058680  -0.002783  -0.000553   0.024883
 Mulliken charges and spin densities:
               1          2
     1  C    0.091470   0.841115
     2  C   -0.405449   0.057325
     3  H    0.208246   0.014447
     4  C   -0.315864   0.021330
     5  H    0.206861   0.004559
     6  C   -0.503565  -0.035007
     7  C    0.839170   0.014132
     8  C   -0.782335   0.052990
     9  H    0.225977   0.015472
    10  H    0.220677   0.003576
    11  Cl   0.214812   0.010063
 Sum of Mulliken charges =   0.00000   1.00000
 Mulliken charges and spin densities with hydrogens summed into heavy atoms:
               1          2
     1  C    0.091470   0.841115
     2  C   -0.197202   0.071772
     4  C   -0.109004   0.025889
     6  C   -0.282888  -0.031431
     7  C    0.839170   0.014132
     8  C   -0.556358   0.068462
    11  Cl   0.214812   0.010063
 APT charges:
               1
     1  C    0.858332
     2  C   -1.356973
     3  H   -0.105395
     4  C   -0.425138
     5  H   -0.796540
     6  C    0.226774
     7  C    2.615974
     8  C   -2.594396
     9  H    1.990721
    10  H   -0.101873
    11  Cl  -0.311486
 Sum of APT charges =   0.00000
 APT charges with hydrogens summed into heavy atoms:
               1
     1  C    0.858332
     2  C   -1.462369
     4  C   -1.221678
     6  C    0.124901
     7  C    2.615974
     8  C   -0.603674
    11  Cl  -0.311486
 Electronic spatial extent (au):  <R**2>=          22831.6867
 Charge=              0.0000 electrons
 Dipole moment (field-independent basis, Debye):
    X=             -0.8914    Y=             -1.7781    Z=              0.7047  Tot=              2.1102
 Quadrupole moment (field-independent basis, Debye-Ang):
   XX=            -52.1678   YY=            -75.0156   ZZ=            -44.4517
   XY=            -12.4968   XZ=              0.1137   YZ=             -3.6367
 Traceless Quadrupole moment (field-independent basis, Debye-Ang):
   XX=              5.0439   YY=            -17.8039   ZZ=             12.7600
   XY=            -12.4968   XZ=              0.1137   YZ=             -3.6367
 Octapole moment (field-independent basis, Debye-Ang**2):
  XXX=           -709.7010  YYY=          -1484.2092  ZZZ=           -601.1058  XYY=           -374.9824
  XXY=           -431.4986  XXZ=           -200.1148  XZZ=           -231.3137  YZZ=           -409.0562
  YYZ=           -291.1484  XYZ=            -29.1254
 Hexadecapole moment (field-independent basis, Debye-Ang**3):
 XXXX=          -7077.3244 YYYY=         -22957.2452 ZZZZ=          -5447.3881 XXXY=          -5688.8648
 XXXZ=          -2928.2640 YYYX=          -7170.0062 YYYZ=          -5902.3261 ZZZX=          -3039.1774
 ZZZY=          -4962.1385 XXYY=          -4873.4328 XXZZ=          -2075.6555 YYZZ=          -4596.6164
 XXYZ=          -1637.3475 YYXZ=          -1422.5942 ZZXY=          -2043.0695
 N-N= 3.044290341762D+02 E-N=-2.238346083092D+03  KE= 6.891375925345D+02
  Exact polarizability:       0.000       0.000       0.000       0.000       0.000       0.000
 Approx polarizability:     105.090       4.121     110.859      11.040     -27.385      75.781
                          Isotropic Fermi Contact Couplings
        Atom                 a.u.       MegaHertz       Gauss      10(-4) cm-1
     1  C(13)              0.55567     624.67730     222.90040     208.36992
     2  C(13)              0.02038      22.90783       8.17408       7.64123
     3  H(1)               0.00927      41.43117      14.78367      13.81995
     4  C(13)              0.04338      48.77086      17.40265      16.26821
     5  H(1)               0.00248      11.07120       3.95048       3.69295
     6  C(13)             -0.00916     -10.30020      -3.67537      -3.43578
     7  C(13)              0.05305      59.63511      21.27929      19.89213
     8  C(13)              0.02479      27.87118       9.94513       9.29682
     9  H(1)               0.00999      44.67557      15.94136      14.90217
    10  H(1)               0.00112       5.01207       1.78843       1.67185
    11  Cl(35)             0.00118       0.51886       0.18514       0.17307
 --------------------------------------------------------
       Center         ----  Spin Dipole Couplings  ----
                      3XX-RR        3YY-RR        3ZZ-RR
 --------------------------------------------------------
     1   Atom        0.596034     -0.404674     -0.191360
     2   Atom        0.093598     -0.013265     -0.080333
     3   Atom        0.002058      0.008462     -0.010519
     4   Atom        0.037879     -0.031322     -0.006557
     5   Atom        0.006761     -0.001867     -0.004894
     6   Atom        0.027168      0.006376     -0.033543
     7   Atom        0.028363     -0.025446     -0.002917
     8   Atom       -0.002826      0.047239     -0.044413
     9   Atom       -0.010165      0.016132     -0.005967
    10   Atom        0.000580      0.000790     -0.001370
    11   Atom       -0.018197      0.014209      0.003988
 --------------------------------------------------------
                        XY            XZ            YZ
 --------------------------------------------------------
     1   Atom       -0.351717      0.457627     -0.074592
     2   Atom        0.056180      0.026076     -0.033890
     3   Atom        0.016431     -0.004623     -0.006820
     4   Atom       -0.016572      0.021920      0.007556
     5   Atom        0.005676      0.000261     -0.000097
     6   Atom        0.006000      0.020218     -0.032212
     7   Atom       -0.012700      0.015568      0.008806
     8   Atom       -0.020451      0.038999     -0.086468
     9   Atom        0.005842     -0.002410     -0.014012
    10   Atom        0.000625      0.000480     -0.001498
    11   Atom       -0.039597      0.021138     -0.028141
 --------------------------------------------------------


 ---------------------------------------------------------------------------------
              Anisotropic Spin Dipole Couplings in Principal Axis System
 ---------------------------------------------------------------------------------

       Atom             a.u.   MegaHertz   Gauss  10(-4) cm-1        Axes

              Baa    -0.5407   -72.556   -25.890   -24.202  0.4013  0.8487 -0.3444
     1 C(13)  Bbb    -0.3599   -48.299   -17.234   -16.111 -0.2398  0.4603  0.8548
              Bcc     0.9006   120.855    43.124    40.313  0.8840 -0.2604  0.3883
 
              Baa    -0.1059   -14.208    -5.070    -4.739 -0.2411  0.4591  0.8550
     2 C(13)  Bbb    -0.0124    -1.666    -0.594    -0.556 -0.2988  0.8031 -0.5155
              Bcc     0.1183    15.874     5.664     5.295  0.9234  0.3798  0.0564
 
              Baa    -0.0129    -6.868    -2.451    -2.291 -0.2370  0.4566  0.8575
     3 H(1)   Bbb    -0.0111    -5.912    -2.109    -1.972  0.7523 -0.4722  0.4594
              Bcc     0.0240    12.780     4.560     4.263  0.6147  0.7540 -0.2316
 
              Baa    -0.0402    -5.401    -1.927    -1.801  0.2940  0.8738 -0.3873
     4 C(13)  Bbb    -0.0086    -1.158    -0.413    -0.386 -0.2393  0.4596  0.8553
              Bcc     0.0489     6.559     2.340     2.188  0.9254 -0.1588  0.3443
 
              Baa    -0.0050    -2.678    -0.955    -0.893 -0.2395  0.4576  0.8563
     5 H(1)   Bbb    -0.0046    -2.433    -0.868    -0.812 -0.3743  0.7703 -0.5163
              Bcc     0.0096     5.111     1.824     1.705  0.8958  0.4442  0.0132
 
              Baa    -0.0566    -7.589    -2.708    -2.531 -0.2394  0.4604  0.8548
     6 C(13)  Bbb     0.0223     2.995     1.069     0.999  0.3955  0.8503 -0.3472
              Bcc     0.0342     4.594     1.639     1.532  0.8867 -0.2549  0.3857
 
              Baa    -0.0335    -4.491    -1.602    -1.498  0.2792  0.8754 -0.3946
     7 C(13)  Bbb    -0.0025    -0.341    -0.122    -0.114 -0.2405  0.4616  0.8539
              Bcc     0.0360     4.832     1.724     1.612  0.9296 -0.1435  0.3394
 
              Baa    -0.1021   -13.703    -4.890    -4.571 -0.2404  0.4615  0.8540
     8 C(13)  Bbb    -0.0098    -1.312    -0.468    -0.438  0.9172  0.3960  0.0442
              Bcc     0.1119    15.015     5.358     5.009 -0.3178  0.7939 -0.5184
 
              Baa    -0.0129    -6.858    -2.447    -2.288 -0.2344  0.4610  0.8559
     9 H(1)   Bbb    -0.0112    -5.994    -2.139    -1.999  0.9551 -0.0548  0.2911
              Bcc     0.0241    12.852     4.586     4.287  0.1811  0.8857 -0.4274
 
              Baa    -0.0023    -1.235    -0.441    -0.412 -0.2413  0.4607  0.8541
    10 H(1)   Bbb     0.0006     0.341     0.122     0.114  0.9126 -0.1915  0.3611
              Bcc     0.0017     0.894     0.319     0.298  0.3299  0.8666 -0.3743
 
              Baa    -0.0449    -2.349    -0.838    -0.783  0.8412  0.5380 -0.0541
    11 Cl(35) Bbb    -0.0172    -0.900    -0.321    -0.300 -0.2405  0.4619  0.8537
              Bcc     0.0621     3.249     1.159     1.084 -0.4843  0.7052 -0.5179
 

 ---------------------------------------------------------------------------------

 D2PCM: PCM CHGder 2nd derivatives, FixD1E=F FixD2E=F DoIter=F DoCFld=F I1PDM=0
 Calling FoFJK, ICntrl=    100127 FMM=F ISym2X=0 I1Cent= 0 IOpClX= 1 NMat=1 NMatS=1 NMatT=0.
 -------------------------------------------------------------------
 Center     Atomic                   Forces (Hartrees/Bohr)
 Number     Number              X              Y              Z
 -------------------------------------------------------------------
      1        6          -0.046170329    0.013520817   -0.020443066
      2        6           0.021807692   -0.010624036    0.011826172
      3        1           0.001403819    0.000467070    0.000221333
      4        6           0.001050682    0.007425494   -0.003708101
      5        1           0.001084187   -0.000917628    0.000803289
      6        6          -0.000554169    0.000306373   -0.000288676
      7        6          -0.005261186   -0.002577423   -0.000137757
      8        6           0.025257928   -0.008274200    0.011701829
      9        1          -0.000016941    0.001689504   -0.000890108
     10        1           0.000282766   -0.000002186    0.000067993
     11       17           0.001115550   -0.001013784    0.000847092
 -------------------------------------------------------------------
 Cartesian Forces:  Max     0.046170329 RMS     0.011573917
 FormGI is forming the generalized inverse of G from B-inverse, IUseBI=4.

 GradGradGradGradGradGradGradGradGradGradGradGradGradGradGradGradGradGrad
 Berny optimization.
 Internal  Forces:  Max     0.028626605 RMS     0.006879399
 Search for a local minimum.
 Step number   1 out of a maximum of   57
 All quantities printed in internal units (Hartrees-Bohrs-Radians)
 Mixed Optimization -- RFO/linear search
 Second derivative matrix not updated -- analytic derivatives used.
 ITU=  0
     Eigenvalues ---    0.01772   0.01853   0.02001   0.02428   0.02749
     Eigenvalues ---    0.02845   0.03112   0.03350   0.10600   0.11103
     Eigenvalues ---    0.11380   0.12043   0.15469   0.17794   0.19092
     Eigenvalues ---    0.20324   0.25689   0.26532   0.35762   0.36287
     Eigenvalues ---    0.36570   0.36777   0.39816   0.42104   0.46319
     Eigenvalues ---    0.48115   0.51536
 RFO step:  Lambda=-9.12534611D-03 EMin= 1.77191997D-02
 Linear search not attempted -- first point.
 Iteration  1 RMS(Cart)=  0.02829048 RMS(Int)=  0.00124897
 Iteration  2 RMS(Cart)=  0.00181302 RMS(Int)=  0.00043531
 Iteration  3 RMS(Cart)=  0.00000071 RMS(Int)=  0.00043531
 Variable       Old X    -DE/DX   Delta X   Delta X   Delta X     New X
                                 (Linear)    (Quad)   (Total)
    R1        2.64375  -0.01939   0.00000  -0.05188  -0.05125   2.59250
    R2        2.64605  -0.01879   0.00000  -0.05420  -0.05359   2.59247
    R3        2.05227  -0.00022   0.00000  -0.00457  -0.00457   2.04770
    R4        2.62885   0.00175   0.00000   0.01093   0.01094   2.63979
    R5        2.04769  -0.00024   0.00000   0.00076   0.00076   2.04845
    R6        2.62821   0.00274   0.00000   0.00264   0.00205   2.63026
    R7        2.62461   0.00197   0.00000   0.00197   0.00137   2.62597
    R8        2.04689  -0.00028   0.00000  -0.00085  -0.00085   2.04603
    R9        2.61966   0.00215   0.00000   0.01413   0.01410   2.63376
   R10        3.31128  -0.00139   0.00000  -0.00394  -0.00394   3.30734
   R11        2.04806   0.00110   0.00000  -0.00028  -0.00028   2.04778
    A1        2.06775   0.02863   0.00000   0.12755   0.12916   2.19691
    A2        2.10839   0.00603   0.00000   0.02692   0.02664   2.13503
    A3        2.11325  -0.01510   0.00000  -0.07708  -0.07652   2.03672
    A4        2.06155   0.00907   0.00000   0.05016   0.04988   2.11143
    A5        2.09983  -0.00190   0.00000  -0.00774  -0.00741   2.09242
    A6        2.09883   0.00049   0.00000   0.00681   0.00614   2.10497
    A7        2.08452   0.00141   0.00000   0.00094   0.00127   2.08579
    A8        2.06997   0.00072   0.00000   0.01346   0.01216   2.08212
    A9        2.11213  -0.00027   0.00000  -0.00649  -0.00584   2.10629
   A10        2.10109  -0.00045   0.00000  -0.00697  -0.00632   2.09477
   A11        2.12541  -0.00088   0.00000   0.00230   0.00158   2.12699
   A12        2.07659   0.00214   0.00000   0.00300   0.00336   2.07995
   A13        2.08118  -0.00126   0.00000  -0.00530  -0.00494   2.07624
   A14        2.09117  -0.01386   0.00000  -0.07303  -0.07252   2.01865
   A15        2.09710   0.00853   0.00000   0.04849   0.04824   2.14534
   A16        2.09492   0.00533   0.00000   0.02453   0.02428   2.11920
    D1        3.13879   0.00004   0.00000   0.00175   0.00179   3.14057
    D2       -0.00213   0.00002   0.00000   0.00115   0.00117  -0.00096
    D3        0.00207  -0.00004   0.00000  -0.00164  -0.00165   0.00042
    D4       -3.14000  -0.00001   0.00000  -0.00084  -0.00088  -3.14089
    D5       -3.14158  -0.00001   0.00000   0.00010   0.00013  -3.14145
    D6        0.00071  -0.00002   0.00000  -0.00023  -0.00018   0.00053
    D7        0.00067  -0.00003   0.00000  -0.00047  -0.00047   0.00020
    D8       -3.14022  -0.00004   0.00000  -0.00081  -0.00078  -3.14101
    D9        0.00078  -0.00002   0.00000  -0.00042  -0.00040   0.00037
   D10       -3.14114  -0.00001   0.00000  -0.00025  -0.00027  -3.14141
   D11       -3.14012  -0.00003   0.00000  -0.00075  -0.00071  -3.14084
   D12        0.00115  -0.00001   0.00000  -0.00058  -0.00058   0.00057
   D13       -0.00082   0.00000   0.00000  -0.00010  -0.00013  -0.00095
   D14        3.13974   0.00002   0.00000   0.00020   0.00016   3.13990
   D15        3.14109  -0.00001   0.00000  -0.00026  -0.00027   3.14082
   D16       -0.00153   0.00000   0.00000   0.00004   0.00003  -0.00151
   D17       -0.00062   0.00005   0.00000   0.00125   0.00120   0.00057
   D18        3.14145   0.00002   0.00000   0.00045   0.00043  -3.14131
   D19       -3.14118   0.00004   0.00000   0.00094   0.00090  -3.14028
   D20        0.00089   0.00001   0.00000   0.00014   0.00013   0.00102
         Item               Value     Threshold  Converged?
 Maximum Force            0.028627     0.000015     NO 
 RMS     Force            0.006879     0.000010     NO 
 Maximum Displacement     0.143481     0.000060     NO 
 RMS     Displacement     0.028168     0.000040     NO 
 Predicted change in Energy=-4.745780D-03
 GradGradGradGradGradGradGradGradGradGradGradGradGradGradGradGradGradGrad

                          Input orientation:                          
 ---------------------------------------------------------------------
 Center     Atomic      Atomic             Coordinates (Angstroms)
 Number     Number       Type             X           Y           Z
 ---------------------------------------------------------------------
      1          6           0        6.164035    7.017410    5.142415
      2          6           0        5.109733    6.155713    5.309778
      3          1           0        5.207533    5.216820    5.841852
      4          6           0        3.887182    6.545109    4.757410
      5          1           0        3.019597    5.903245    4.859150
      6          6           0        3.770414    7.752512    4.074875
      7          6           0        4.885612    8.571534    3.946271
      8          6           0        6.122727    8.219825    4.483227
      9          1           0        6.987674    8.864217    4.378852
     10          1           0        2.823401    8.055603    3.646419
     11         17           0        4.735725   10.087831    3.085188
 ---------------------------------------------------------------------
                    Distance matrix (angstroms):
                    1          2          3          4          5
     1  C    0.000000
     2  C    1.371891   0.000000
     3  H    2.155512   1.083599   0.000000
     4  C    2.356981   1.396915   2.164183   0.000000
     5  H    3.347999   2.153015   2.494784   1.083994   0.000000
     6  C    2.722029   2.422504   3.408408   1.391873   2.144434
     7  C    2.341032   2.783087   3.866647   2.400252   3.381586
     8  C    1.371874   2.443338   3.420742   2.806691   3.890665
     9  H    2.161506   3.424804   4.314252   3.890324   4.974301
    10  H    3.804693   3.406414   4.308444   2.155811   2.478276
    11  Cl   3.962290   4.533236   5.616808   4.008395   4.858270
                    6          7          8          9         10
     6  C    0.000000
     7  C    1.389606   0.000000
     8  C    2.432799   1.393727   0.000000
     9  H    3.417463   2.165976   1.083637   0.000000
    10  H    1.082715   2.146814   3.407751   4.304820   0.000000
    11  Cl   2.713857   1.750167   2.714357   2.870900   2.846386
                   11
    11  Cl   0.000000
 Symmetry turned off by external request.
 Stoichiometry    C6H4Cl(2)
 Framework group  C1[X(C6H4Cl)]
 Deg. of freedom    27
 Full point group                 C1      NOp   1
 Rotational constants (GHZ):           6.1174091           1.5952279           1.2652824
 Standard basis: 6-311+G(d,p) (5D, 7F)
   186 basis functions,   301 primitive gaussians,   193 cartesian basis functions
    29 alpha electrons       28 beta electrons
       nuclear repulsion energy       305.2704524220 Hartrees.
 NAtoms=   11 NActive=   11 NUniq=   11 SFac= 1.00D+00 NAtFMM=   60 NAOKFM=F Big=F
 Integral buffers will be    131072 words long.
 Raffenetti 2 integral format.
 Two-electron integral symmetry is turned off.
 ------------------------------------------------------------------------------
 Polarizable Continuum Model (PCM)
 =================================
 Model                : PCM.
 Atomic radii         : SMD-Coulomb.
 Polarization charges : Total charges.
 Charge compensation  : None.
 Solution method      : Matrix inversion.
 Cavity type          : VdW (van der Waals Surface) (Alpha=1.000).
 Cavity algorithm     : GePol (No added spheres)
                        Default sphere list used, NSphG=   11.
                        Lebedev-Laikov grids with approx.  5.0 points / Ang**2.
                        Smoothing algorithm: York/Karplus (Gamma=1.0000).
                        Polarization charges: spherical gaussians, with
                                              point-specific exponents (IZeta= 3).
                        Self-potential: point-specific (ISelfS= 7).
                        Self-field    : sphere-specific E.n sum rule (ISelfD= 2).
 1st derivatives      : Analytical E(r).r(x)/FMM algorithm (CHGder, D1EAlg=3).
                        Cavity 1st derivative terms included.
 Solvent              : TetraHydroFuran, Eps=   7.425700 Eps(inf)=   1.974025
 ------------------------------------------------------------------------------
 Spheres list:
 ISph  on   Nord     Re0    Alpha      Xe            Ye            Ze
    1   C      1    1.8500  1.000      6.164035      7.017410      5.142415
    2   C      2    1.8500  1.000      5.109733      6.155713      5.309778
    3   H      3    1.2000  1.000      5.207533      5.216820      5.841852
    4   C      4    1.8500  1.000      3.887182      6.545109      4.757410
    5   H      5    1.2000  1.000      3.019597      5.903245      4.859150
    6   C      6    1.8500  1.000      3.770414      7.752512      4.074875
    7   C      7    1.8500  1.000      4.885612      8.571534      3.946271
    8   C      8    1.8500  1.000      6.122727      8.219825      4.483227
    9   H      9    1.2000  1.000      6.987674      8.864217      4.378852
   10   H     10    1.2000  1.000      2.823401      8.055603      3.646419
   11  Cl     11    2.3800  1.000      4.735725     10.087831      3.085188
 ------------------------------------------------------------------------------
 ------------------------------------------------------------------------------
 Atomic radii for non-electrostatic terms: SMD-CDS.
 ------------------------------------------------------------------------------
 Nuclear repulsion after PCM non-electrostatic terms =      305.2669069185 Hartrees.
 One-electron integrals computed using PRISM.
 NBasis=   186 RedAO= T EigKep=  3.93D-06  NBF=   186
 NBsUse=   186 1.00D-06 EigRej= -1.00D+00 NBFU=   186
 Initial guess from the checkpoint file:  "3-cl-ph-opt-freq-thf.chk"
 B after Tr=    -0.027340    0.020617   -0.018763
         Rot=    1.000000   -0.000247    0.000360    0.000756 Ang=  -0.10 deg.
 Initial guess <Sx>= 0.0000 <Sy>= 0.0000 <Sz>= 0.5000 <S**2>= 0.7633 S= 0.5066
 ExpMin= 4.38D-02 ExpMax= 1.06D+05 ExpMxC= 3.62D+03 IAcc=3 IRadAn=         5 AccDes= 0.00D+00
 Harris functional with IExCor= 1009 and IRadAn=       5 diagonalized for initial guess.
 HarFok:  IExCor= 1009 AccDes= 0.00D+00 IRadAn=         5 IDoV= 1 UseB2=F ITyADJ=14
 ICtDFT=  3500011 ScaDFX=  1.000000  1.000000  1.000000  1.000000
 FoFCou: FMM=F IPFlag=           0 FMFlag=      100000 FMFlg1=           0
         NFxFlg=           0 DoJE=T BraDBF=F KetDBF=T FulRan=T
         wScrn=  0.000000 ICntrl=       500 IOpCl=  0 I1Cent=   200000004 NGrid=           0
         NMat0=    1 NMatS0=      1 NMatT0=    0 NMatD0=    1 NMtDS0=    0 NMtDT0=    0
 Symmetry not used in FoFCou.
 Keep R1 and R2 ints in memory in canonical form, NReq=335193157.
 Requested convergence on RMS density matrix=1.00D-08 within 128 cycles.
 Requested convergence on MAX density matrix=1.00D-06.
 Requested convergence on             energy=1.00D-06.
 Level shift goal  0.100 maximum shift  0.100.
 No special actions if energy rises.
 Dynamic level shift is on during FON iterations.
 Inv3:  Mode=1 IEnd=     4127787.
 Iteration    1 A*A^-1 deviation from unit magnitude is 5.11D-15 for   1171.
 Iteration    1 A*A^-1 deviation from orthogonality  is 1.68D-15 for   1171    875.
 Iteration    1 A^-1*A deviation from unit magnitude is 5.33D-15 for   1171.
 Iteration    1 A^-1*A deviation from orthogonality  is 1.32D-15 for   1155    927.
 Error on total polarization charges =  0.02738
 SCF Done:  E(UM062X) =  -691.122278411     A.U. after   15 cycles
            NFock= 15  Conv=0.66D-08     -V/T= 2.0027
 <Sx>= 0.0000 <Sy>= 0.0000 <Sz>= 0.5000 <S**2>= 0.7620 S= 0.5060
 <L.S>=  0.00000000000    
 SMD-CDS (non-electrostatic) energy       (kcal/mol) =      -2.22
 (included in total energy above)
 Annihilation of the first spin contaminant:
 S**2 before annihilation     0.7620,   after     0.7501
 D1PCM: PCM CHGder 1st derivatives, ID1Alg=3 FixD1E=F DoIter=F DoCFld=F I1PDM=0.
 Calling FoFJK, ICntrl=      2127 FMM=F ISym2X=0 I1Cent= 0 IOpClX= 1 NMat=1 NMatS=1 NMatT=0.
 -------------------------------------------------------------------
 Center     Atomic                   Forces (Hartrees/Bohr)
 Number     Number              X              Y              Z
 -------------------------------------------------------------------
      1        6          -0.001249503    0.000309674   -0.000525351
      2        6           0.000312738   -0.002152798    0.001248663
      3        1           0.000057771   -0.000108295    0.000084283
      4        6          -0.000560655    0.000150076   -0.000248715
      5        1          -0.000035046   -0.000060535    0.000019134
      6        6          -0.000342668    0.000122546   -0.000155001
      7        6          -0.000402720    0.000297991   -0.000280056
      8        6           0.002263490    0.001050515    0.000073962
      9        1          -0.000045478    0.000307041   -0.000157867
     10        1           0.000022795   -0.000014921    0.000003037
     11       17          -0.000020723    0.000098705   -0.000062089
 -------------------------------------------------------------------
 Cartesian Forces:  Max     0.002263490 RMS     0.000685458

 GradGradGradGradGradGradGradGradGradGradGradGradGradGradGradGradGradGrad
 Berny optimization.
 Using GEDIIS/GDIIS optimizer.
 FormGI is forming the generalized inverse of G from B-inverse, IUseBI=4.
 Internal  Forces:  Max     0.001594216 RMS     0.000498562
 Search for a local minimum.
 Step number   2 out of a maximum of   57
 All quantities printed in internal units (Hartrees-Bohrs-Radians)
 Mixed Optimization -- En-DIIS/RFO-DIIS
 Update second derivatives using D2CorX and points    1    2
 DE= -4.75D-03 DEPred=-4.75D-03 R= 1.00D+00
 TightC=F SS=  1.41D+00  RLast= 2.00D-01 DXNew= 5.0454D-01 6.0106D-01
 Trust test= 1.00D+00 RLast= 2.00D-01 DXMaxT set to 5.05D-01
 ITU=  1  0
 Use linear search instead of GDIIS.
     Eigenvalues ---    0.01771   0.01853   0.01999   0.02426   0.02749
     Eigenvalues ---    0.02842   0.03110   0.03347   0.10595   0.11101
     Eigenvalues ---    0.11379   0.12044   0.15460   0.17793   0.18856
     Eigenvalues ---    0.19979   0.25686   0.26533   0.35776   0.36312
     Eigenvalues ---    0.36570   0.36777   0.40596   0.42107   0.46315
     Eigenvalues ---    0.48130   0.51890
 RFO step:  Lambda=-2.70326121D-05 EMin= 1.77148118D-02
 Quartic linear search produced a step of  0.04440.
 Iteration  1 RMS(Cart)=  0.00245622 RMS(Int)=  0.00002135
 Iteration  2 RMS(Cart)=  0.00000600 RMS(Int)=  0.00002081
 Iteration  3 RMS(Cart)=  0.00000000 RMS(Int)=  0.00002081
 Variable       Old X    -DE/DX   Delta X   Delta X   Delta X     New X
                                 (Linear)    (Quad)   (Total)
    R1        2.59250   0.00102  -0.00228   0.00420   0.00195   2.59445
    R2        2.59247   0.00105  -0.00238   0.00411   0.00176   2.59423
    R3        2.04770   0.00014  -0.00020   0.00017  -0.00003   2.04767
    R4        2.63979   0.00083   0.00049   0.00155   0.00204   2.64183
    R5        2.04845   0.00007   0.00003   0.00023   0.00026   2.04871
    R6        2.63026   0.00080   0.00009   0.00100   0.00107   2.63133
    R7        2.62597   0.00079   0.00006   0.00110   0.00113   2.62710
    R8        2.04603  -0.00003  -0.00004  -0.00002  -0.00006   2.04597
    R9        2.63376   0.00081   0.00063   0.00156   0.00219   2.63595
   R10        3.30734   0.00012  -0.00018   0.00065   0.00048   3.30781
   R11        2.04778   0.00016  -0.00001   0.00008   0.00007   2.04785
    A1        2.19691   0.00159   0.00573   0.00239   0.00820   2.20511
    A2        2.13503   0.00052   0.00118   0.00048   0.00165   2.13668
    A3        2.03672  -0.00113  -0.00340  -0.00222  -0.00559   2.03113
    A4        2.11143   0.00062   0.00221   0.00174   0.00394   2.11537
    A5        2.09242  -0.00007  -0.00033   0.00041   0.00010   2.09251
    A6        2.10497   0.00008   0.00027   0.00020   0.00044   2.10542
    A7        2.08579  -0.00001   0.00006  -0.00061  -0.00054   2.08525
    A8        2.08212   0.00050   0.00054   0.00163   0.00210   2.08423
    A9        2.10629  -0.00026  -0.00026  -0.00092  -0.00114   2.10515
   A10        2.09477  -0.00025  -0.00028  -0.00071  -0.00096   2.09381
   A11        2.12699   0.00004   0.00007   0.00052   0.00056   2.12755
   A12        2.07995  -0.00004   0.00015  -0.00080  -0.00064   2.07931
   A13        2.07624   0.00000  -0.00022   0.00028   0.00007   2.07632
   A14        2.01865  -0.00109  -0.00322  -0.00252  -0.00572   2.01293
   A15        2.14534   0.00086   0.00214   0.00285   0.00498   2.15031
   A16        2.11920   0.00023   0.00108  -0.00032   0.00074   2.11994
    D1        3.14057   0.00000   0.00008   0.00012   0.00021   3.14078
    D2       -0.00096   0.00000   0.00005   0.00007   0.00012  -0.00083
    D3        0.00042   0.00000  -0.00007  -0.00010  -0.00017   0.00025
    D4       -3.14089  -0.00001  -0.00004  -0.00028  -0.00033  -3.14121
    D5       -3.14145   0.00000   0.00001   0.00006   0.00007  -3.14139
    D6        0.00053   0.00000  -0.00001  -0.00003  -0.00003   0.00049
    D7        0.00020   0.00000  -0.00002   0.00001  -0.00001   0.00019
    D8       -3.14101   0.00000  -0.00003  -0.00008  -0.00011  -3.14112
    D9        0.00037   0.00000  -0.00002   0.00001   0.00000   0.00037
   D10       -3.14141   0.00000  -0.00001  -0.00004  -0.00005  -3.14146
   D11       -3.14084   0.00000  -0.00003  -0.00007  -0.00010  -3.14094
   D12        0.00057   0.00000  -0.00003  -0.00012  -0.00015   0.00042
   D13       -0.00095   0.00000  -0.00001  -0.00004  -0.00005  -0.00101
   D14        3.13990   0.00000   0.00001   0.00000   0.00000   3.13990
   D15        3.14082   0.00000  -0.00001   0.00001   0.00000   3.14082
   D16       -0.00151   0.00000   0.00000   0.00005   0.00005  -0.00146
   D17        0.00057   0.00000   0.00005   0.00008   0.00013   0.00070
   D18       -3.14131   0.00001   0.00002   0.00026   0.00028  -3.14102
   D19       -3.14028   0.00000   0.00004   0.00004   0.00008  -3.14021
   D20        0.00102   0.00000   0.00001   0.00022   0.00023   0.00125
         Item               Value     Threshold  Converged?
 Maximum Force            0.001594     0.000015     NO 
 RMS     Force            0.000499     0.000010     NO 
 Maximum Displacement     0.006450     0.000060     NO 
 RMS     Displacement     0.002454     0.000040     NO 
 Predicted change in Energy=-2.207955D-05
 GradGradGradGradGradGradGradGradGradGradGradGradGradGradGradGradGradGrad

                          Input orientation:                          
 ---------------------------------------------------------------------
 Center     Atomic      Atomic             Coordinates (Angstroms)
 Number     Number       Type             X           Y           Z
 ---------------------------------------------------------------------
      1          6           0        6.160770    7.017855    5.141092
      2          6           0        5.108737    6.152300    5.311260
      3          1           0        5.208741    5.213918    5.843793
      4          6           0        3.886296    6.544157    4.757660
      5          1           0        3.017433    5.903642    4.858466
      6          6           0        3.771325    7.752414    4.075179
      7          6           0        4.886456    8.572445    3.945965
      8          6           0        6.125303    8.221983    4.482748
      9          1           0        6.989896    8.866896    4.378260
     10          1           0        2.824446    8.055701    3.646648
     11         17           0        4.734230   10.088507    3.084367
 ---------------------------------------------------------------------
                    Distance matrix (angstroms):
                    1          2          3          4          5
     1  C    0.000000
     2  C    1.372923   0.000000
     3  H    2.157391   1.083583   0.000000
     4  C    2.354707   1.397994   2.167506   0.000000
     5  H    3.346926   2.154160   2.499684   1.084133   0.000000
     6  C    2.717571   2.424239   3.411469   1.392438   2.144726
     7  C    2.338580   2.787569   3.871088   2.402732   3.383550
     8  C    1.372807   2.450190   3.426512   2.811375   3.895475
     9  H    2.165252   3.431950   4.320248   3.895047   4.979149
    10  H    3.800204   3.407617   4.311385   2.155606   2.477318
    11  Cl   3.961570   4.537955   5.621495   4.010152   4.858797
                    6          7          8          9         10
     6  C    0.000000
     7  C    1.390203   0.000000
     8  C    2.434711   1.394884   0.000000
     9  H    3.419521   2.167496   1.083675   0.000000
    10  H    1.082683   2.146742   3.409160   4.306305   0.000000
    11  Cl   2.714079   1.750419   2.715597   2.873068   2.845301
                   11
    11  Cl   0.000000
 Symmetry turned off by external request.
 Stoichiometry    C6H4Cl(2)
 Framework group  C1[X(C6H4Cl)]
 Deg. of freedom    27
 Full point group                 C1      NOp   1
 Rotational constants (GHZ):           6.1171328           1.5933063           1.2640614
 Standard basis: 6-311+G(d,p) (5D, 7F)
   186 basis functions,   301 primitive gaussians,   193 cartesian basis functions
    29 alpha electrons       28 beta electrons
       nuclear repulsion energy       305.1305788129 Hartrees.
 NAtoms=   11 NActive=   11 NUniq=   11 SFac= 1.00D+00 NAtFMM=   60 NAOKFM=F Big=F
 Integral buffers will be    131072 words long.
 Raffenetti 2 integral format.
 Two-electron integral symmetry is turned off.
 ------------------------------------------------------------------------------
 Polarizable Continuum Model (PCM)
 =================================
 Model                : PCM.
 Atomic radii         : SMD-Coulomb.
 Polarization charges : Total charges.
 Charge compensation  : None.
 Solution method      : Matrix inversion.
 Cavity type          : VdW (van der Waals Surface) (Alpha=1.000).
 Cavity algorithm     : GePol (No added spheres)
                        Default sphere list used, NSphG=   11.
                        Lebedev-Laikov grids with approx.  5.0 points / Ang**2.
                        Smoothing algorithm: York/Karplus (Gamma=1.0000).
                        Polarization charges: spherical gaussians, with
                                              point-specific exponents (IZeta= 3).
                        Self-potential: point-specific (ISelfS= 7).
                        Self-field    : sphere-specific E.n sum rule (ISelfD= 2).
 1st derivatives      : Analytical E(r).r(x)/FMM algorithm (CHGder, D1EAlg=3).
                        Cavity 1st derivative terms included.
 Solvent              : TetraHydroFuran, Eps=   7.425700 Eps(inf)=   1.974025
 ------------------------------------------------------------------------------
 Spheres list:
 ISph  on   Nord     Re0    Alpha      Xe            Ye            Ze
    1   C      1    1.8500  1.000      6.160770      7.017855      5.141092
    2   C      2    1.8500  1.000      5.108737      6.152300      5.311260
    3   H      3    1.2000  1.000      5.208741      5.213918      5.843793
    4   C      4    1.8500  1.000      3.886296      6.544157      4.757660
    5   H      5    1.2000  1.000      3.017433      5.903642      4.858466
    6   C      6    1.8500  1.000      3.771325      7.752414      4.075179
    7   C      7    1.8500  1.000      4.886456      8.572445      3.945965
    8   C      8    1.8500  1.000      6.125303      8.221983      4.482748
    9   H      9    1.2000  1.000      6.989896      8.866896      4.378260
   10   H     10    1.2000  1.000      2.824446      8.055701      3.646648
   11  Cl     11    2.3800  1.000      4.734230     10.088507      3.084367
 ------------------------------------------------------------------------------
 ------------------------------------------------------------------------------
 Atomic radii for non-electrostatic terms: SMD-CDS.
 ------------------------------------------------------------------------------
 Nuclear repulsion after PCM non-electrostatic terms =      305.1270386403 Hartrees.
 One-electron integrals computed using PRISM.
 NBasis=   186 RedAO= T EigKep=  3.98D-06  NBF=   186
 NBsUse=   186 1.00D-06 EigRej= -1.00D+00 NBFU=   186
 Initial guess from the checkpoint file:  "3-cl-ph-opt-freq-thf.chk"
 B after Tr=     0.000133   -0.001085    0.000830
         Rot=    1.000000    0.000016   -0.000043   -0.000056 Ang=   0.01 deg.
 Initial guess <Sx>= 0.0000 <Sy>= 0.0000 <Sz>= 0.5000 <S**2>= 0.7620 S= 0.5060
 Keep R1 and R2 ints in memory in canonical form, NReq=335193157.
 Requested convergence on RMS density matrix=1.00D-08 within 128 cycles.
 Requested convergence on MAX density matrix=1.00D-06.
 Requested convergence on             energy=1.00D-06.
 Level shift goal  0.100 maximum shift  0.100.
 No special actions if energy rises.
 Dynamic level shift is on during FON iterations.
 Inv3:  Mode=1 IEnd=     4134828.
 Iteration    1 A*A^-1 deviation from unit magnitude is 3.11D-15 for   1152.
 Iteration    1 A*A^-1 deviation from orthogonality  is 1.98D-15 for   1161    177.
 Iteration    1 A^-1*A deviation from unit magnitude is 2.89D-15 for   1152.
 Iteration    1 A^-1*A deviation from orthogonality  is 1.21D-15 for   1168   1167.
 Error on total polarization charges =  0.02741
 SCF Done:  E(UM062X) =  -691.122300636     A.U. after   11 cycles
            NFock= 11  Conv=0.99D-08     -V/T= 2.0028
 <Sx>= 0.0000 <Sy>= 0.0000 <Sz>= 0.5000 <S**2>= 0.7620 S= 0.5060
 <L.S>=  0.00000000000    
 SMD-CDS (non-electrostatic) energy       (kcal/mol) =      -2.22
 (included in total energy above)
 Annihilation of the first spin contaminant:
 S**2 before annihilation     0.7620,   after     0.7501
 D1PCM: PCM CHGder 1st derivatives, ID1Alg=3 FixD1E=F DoIter=F DoCFld=F I1PDM=0.
 Calling FoFJK, ICntrl=      2127 FMM=F ISym2X=0 I1Cent= 0 IOpClX= 1 NMat=1 NMatS=1 NMatT=0.
 -------------------------------------------------------------------
 Center     Atomic                   Forces (Hartrees/Bohr)
 Number     Number              X              Y              Z
 -------------------------------------------------------------------
      1        6          -0.000163605    0.000047088   -0.000065806
      2        6           0.000201607    0.000097788    0.000006519
      3        1          -0.000001507   -0.000017755    0.000012386
      4        6          -0.000067847   -0.000038584   -0.000000717
      5        1          -0.000005475   -0.000000317   -0.000008609
      6        6          -0.000029540    0.000011437   -0.000019474
      7        6          -0.000014024    0.000054852   -0.000033942
      8        6           0.000081358   -0.000191183    0.000132010
      9        1           0.000000650    0.000027167   -0.000004849
     10        1           0.000002438   -0.000004302   -0.000006734
     11       17          -0.000004056    0.000013808   -0.000010783
 -------------------------------------------------------------------
 Cartesian Forces:  Max     0.000201607 RMS     0.000069134

 GradGradGradGradGradGradGradGradGradGradGradGradGradGradGradGradGradGrad
 Berny optimization.
 Using GEDIIS/GDIIS optimizer.
 FormGI is forming the generalized inverse of G from B-inverse, IUseBI=4.
 Internal  Forces:  Max     0.000148179 RMS     0.000037990
 Search for a local minimum.
 Step number   3 out of a maximum of   57
 All quantities printed in internal units (Hartrees-Bohrs-Radians)
 Mixed Optimization -- En-DIIS/RFO-DIIS
 Swapping is turned off.
 Update second derivatives using D2CorX and points    1    2    3
 DE= -2.22D-05 DEPred=-2.21D-05 R= 1.01D+00
 TightC=F SS=  1.41D+00  RLast= 1.42D-02 DXNew= 8.4853D-01 4.2594D-02
 Trust test= 1.01D+00 RLast= 1.42D-02 DXMaxT set to 5.05D-01
 ITU=  1  1  0
     Eigenvalues ---    0.01771   0.01853   0.01999   0.02426   0.02749
     Eigenvalues ---    0.02842   0.03110   0.03347   0.10578   0.11076
     Eigenvalues ---    0.11389   0.12039   0.15472   0.17818   0.18462
     Eigenvalues ---    0.19758   0.25691   0.26533   0.35746   0.36295
     Eigenvalues ---    0.36570   0.36778   0.41311   0.42124   0.46318
     Eigenvalues ---    0.48365   0.51935
 En-DIIS/RFO-DIIS/Sim-DIIS IScMMF=       -3 using points:     3    2
 RFO step:  Lambda=-1.96940316D-07.
 DidBck=F Rises=F RFO-DIIS coefs:    1.01900   -0.01900
 Iteration  1 RMS(Cart)=  0.00009360 RMS(Int)=  0.00000003
 Iteration  2 RMS(Cart)=  0.00000002 RMS(Int)=  0.00000003
 Variable       Old X    -DE/DX   Delta X   Delta X   Delta X     New X
                                 (Linear)    (Quad)   (Total)
    R1        2.59445  -0.00015   0.00004  -0.00042  -0.00038   2.59407
    R2        2.59423  -0.00015   0.00003  -0.00042  -0.00039   2.59384
    R3        2.04767   0.00002   0.00000   0.00007   0.00007   2.04774
    R4        2.64183   0.00007   0.00004   0.00015   0.00019   2.64202
    R5        2.04871   0.00000   0.00000   0.00000   0.00000   2.04872
    R6        2.63133   0.00004   0.00002   0.00009   0.00011   2.63144
    R7        2.62710   0.00004   0.00002   0.00008   0.00010   2.62721
    R8        2.04597   0.00000   0.00000   0.00000   0.00000   2.04597
    R9        2.63595   0.00007   0.00004   0.00016   0.00020   2.63615
   R10        3.30781   0.00002   0.00001   0.00001   0.00002   3.30784
   R11        2.04785   0.00002   0.00000   0.00005   0.00006   2.04790
    A1        2.20511   0.00007   0.00016   0.00015   0.00030   2.20541
    A2        2.13668   0.00000   0.00003   0.00005   0.00008   2.13676
    A3        2.03113   0.00001  -0.00011   0.00007  -0.00003   2.03110
    A4        2.11537  -0.00001   0.00007  -0.00013  -0.00005   2.11532
    A5        2.09251   0.00002   0.00000   0.00013   0.00013   2.09265
    A6        2.10542  -0.00003   0.00001  -0.00014  -0.00013   2.10529
    A7        2.08525   0.00001  -0.00001   0.00001   0.00000   2.08525
    A8        2.08423  -0.00002   0.00004  -0.00001   0.00003   2.08425
    A9        2.10515   0.00001  -0.00002   0.00000  -0.00002   2.10512
   A10        2.09381   0.00001  -0.00002   0.00002   0.00000   2.09381
   A11        2.12755  -0.00003   0.00001  -0.00012  -0.00011   2.12744
   A12        2.07931   0.00001  -0.00001   0.00003   0.00001   2.07933
   A13        2.07632   0.00002   0.00000   0.00010   0.00010   2.07642
   A14        2.01293   0.00001  -0.00011   0.00005  -0.00005   2.01287
   A15        2.15031   0.00002   0.00009   0.00020   0.00029   2.15061
   A16        2.11994  -0.00002   0.00001  -0.00025  -0.00024   2.11971
    D1        3.14078   0.00000   0.00000   0.00000   0.00000   3.14078
    D2       -0.00083   0.00000   0.00000   0.00000   0.00001  -0.00083
    D3        0.00025   0.00000   0.00000  -0.00002  -0.00002   0.00023
    D4       -3.14121   0.00000  -0.00001  -0.00001  -0.00002  -3.14123
    D5       -3.14139   0.00000   0.00000   0.00000   0.00000  -3.14139
    D6        0.00049   0.00000   0.00000   0.00001   0.00001   0.00050
    D7        0.00019   0.00000   0.00000   0.00000   0.00000   0.00019
    D8       -3.14112   0.00000   0.00000   0.00001   0.00001  -3.14111
    D9        0.00037   0.00000   0.00000  -0.00001  -0.00001   0.00036
   D10       -3.14146   0.00000   0.00000  -0.00001  -0.00001  -3.14147
   D11       -3.14094   0.00000   0.00000   0.00000   0.00000  -3.14094
   D12        0.00042   0.00000   0.00000   0.00000   0.00000   0.00042
   D13       -0.00101   0.00000   0.00000   0.00000   0.00000  -0.00101
   D14        3.13990   0.00000   0.00000   0.00000   0.00000   3.13990
   D15        3.14082   0.00000   0.00000   0.00000   0.00000   3.14082
   D16       -0.00146   0.00000   0.00000   0.00000   0.00000  -0.00146
   D17        0.00070   0.00000   0.00000   0.00001   0.00001   0.00072
   D18       -3.14102   0.00000   0.00001   0.00001   0.00001  -3.14101
   D19       -3.14021   0.00000   0.00000   0.00001   0.00001  -3.14019
   D20        0.00125   0.00000   0.00000   0.00001   0.00001   0.00126
         Item               Value     Threshold  Converged?
 Maximum Force            0.000148     0.000015     NO 
 RMS     Force            0.000038     0.000010     NO 
 Maximum Displacement     0.000326     0.000060     NO 
 RMS     Displacement     0.000094     0.000040     NO 
 Predicted change in Energy=-9.847030D-08
 GradGradGradGradGradGradGradGradGradGradGradGradGradGradGradGradGradGrad

                          Input orientation:                          
 ---------------------------------------------------------------------
 Center     Atomic      Atomic             Coordinates (Angstroms)
 Number     Number       Type             X           Y           Z
 ---------------------------------------------------------------------
      1          6           0        6.160597    7.017882    5.141019
      2          6           0        5.108829    6.152340    5.311261
      3          1           0        5.208893    5.213936    5.843815
      4          6           0        3.886236    6.544111    4.757677
      5          1           0        3.017354    5.903616    4.858469
      6          6           0        3.771301    7.752423    4.075168
      7          6           0        4.886477    8.572485    3.945948
      8          6           0        6.125354    8.221866    4.482829
      9          1           0        6.989893    8.866890    4.378278
     10          1           0        2.824424    8.055711    3.646631
     11         17           0        4.734275   10.088558    3.084341
 ---------------------------------------------------------------------
                    Distance matrix (angstroms):
                    1          2          3          4          5
     1  C    0.000000
     2  C    1.372721   0.000000
     3  H    2.157287   1.083619   0.000000
     4  C    2.354598   1.398097   2.167599   0.000000
     5  H    3.346850   2.154334   2.499882   1.084135   0.000000
     6  C    2.717412   2.424289   3.411554   1.392497   2.144781
     7  C    2.338454   2.787583   3.871137   2.402850   3.383663
     8  C    1.372601   2.450013   3.426344   2.811415   3.895517
     9  H    2.165257   3.431857   4.320166   3.895117   4.979221
    10  H    3.800044   3.407685   4.311496   2.155644   2.477355
    11  Cl   3.961486   4.537981   5.621557   4.010278   4.858918
                    6          7          8          9         10
     6  C    0.000000
     7  C    1.390258   0.000000
     8  C    2.434776   1.394988   0.000000
     9  H    3.419539   2.167474   1.083704   0.000000
    10  H    1.082683   2.146790   3.409248   4.306327   0.000000
    11  Cl   2.714145   1.750431   2.715770   2.873075   2.845376
                   11
    11  Cl   0.000000
 Symmetry turned off by external request.
 Stoichiometry    C6H4Cl(2)
 Framework group  C1[X(C6H4Cl)]
 Deg. of freedom    27
 Full point group                 C1      NOp   1
 Rotational constants (GHZ):           6.1171951           1.5932714           1.2640421
 Standard basis: 6-311+G(d,p) (5D, 7F)
   186 basis functions,   301 primitive gaussians,   193 cartesian basis functions
    29 alpha electrons       28 beta electrons
       nuclear repulsion energy       305.1297320534 Hartrees.
 NAtoms=   11 NActive=   11 NUniq=   11 SFac= 1.00D+00 NAtFMM=   60 NAOKFM=F Big=F
 Integral buffers will be    131072 words long.
 Raffenetti 2 integral format.
 Two-electron integral symmetry is turned off.
 ------------------------------------------------------------------------------
 Polarizable Continuum Model (PCM)
 =================================
 Model                : PCM.
 Atomic radii         : SMD-Coulomb.
 Polarization charges : Total charges.
 Charge compensation  : None.
 Solution method      : Matrix inversion.
 Cavity type          : VdW (van der Waals Surface) (Alpha=1.000).
 Cavity algorithm     : GePol (No added spheres)
                        Default sphere list used, NSphG=   11.
                        Lebedev-Laikov grids with approx.  5.0 points / Ang**2.
                        Smoothing algorithm: York/Karplus (Gamma=1.0000).
                        Polarization charges: spherical gaussians, with
                                              point-specific exponents (IZeta= 3).
                        Self-potential: point-specific (ISelfS= 7).
                        Self-field    : sphere-specific E.n sum rule (ISelfD= 2).
 1st derivatives      : Analytical E(r).r(x)/FMM algorithm (CHGder, D1EAlg=3).
                        Cavity 1st derivative terms included.
 Solvent              : TetraHydroFuran, Eps=   7.425700 Eps(inf)=   1.974025
 ------------------------------------------------------------------------------
 Spheres list:
 ISph  on   Nord     Re0    Alpha      Xe            Ye            Ze
    1   C      1    1.8500  1.000      6.160597      7.017882      5.141019
    2   C      2    1.8500  1.000      5.108829      6.152340      5.311261
    3   H      3    1.2000  1.000      5.208893      5.213936      5.843815
    4   C      4    1.8500  1.000      3.886236      6.544111      4.757677
    5   H      5    1.2000  1.000      3.017354      5.903616      4.858469
    6   C      6    1.8500  1.000      3.771301      7.752423      4.075168
    7   C      7    1.8500  1.000      4.886477      8.572485      3.945948
    8   C      8    1.8500  1.000      6.125354      8.221866      4.482829
    9   H      9    1.2000  1.000      6.989893      8.866890      4.378278
   10   H     10    1.2000  1.000      2.824424      8.055711      3.646631
   11  Cl     11    2.3800  1.000      4.734275     10.088558      3.084341
 ------------------------------------------------------------------------------
 ------------------------------------------------------------------------------
 Atomic radii for non-electrostatic terms: SMD-CDS.
 ------------------------------------------------------------------------------
 Nuclear repulsion after PCM non-electrostatic terms =      305.1261915949 Hartrees.
 One-electron integrals computed using PRISM.
 NBasis=   186 RedAO= T EigKep=  3.98D-06  NBF=   186
 NBsUse=   186 1.00D-06 EigRej= -1.00D+00 NBFU=   186
 Initial guess from the checkpoint file:  "3-cl-ph-opt-freq-thf.chk"
 B after Tr=    -0.000141    0.000142   -0.000080
         Rot=    1.000000   -0.000001    0.000003    0.000006 Ang=   0.00 deg.
 Initial guess <Sx>= 0.0000 <Sy>= 0.0000 <Sz>= 0.5000 <S**2>= 0.7620 S= 0.5060
 Keep R1 and R2 ints in memory in canonical form, NReq=335193157.
[...]
    A4        2.11532   0.00000   0.00000  -0.00001  -0.00001   2.11531
    A5        2.09265   0.00000   0.00000  -0.00001  -0.00001   2.09264
    A6        2.10529   0.00000   0.00000   0.00001   0.00001   2.10529
    A7        2.08525   0.00000   0.00000   0.00000   0.00000   2.08525
    A8        2.08425   0.00000   0.00000   0.00000   0.00000   2.08425
    A9        2.10512   0.00000   0.00000   0.00000   0.00000   2.10512
   A10        2.09381   0.00000   0.00000   0.00000   0.00000   2.09381
   A11        2.12744   0.00000   0.00000   0.00000   0.00000   2.12745
   A12        2.07933   0.00000   0.00000   0.00000   0.00000   2.07933
   A13        2.07642   0.00000   0.00000   0.00000   0.00000   2.07641
   A14        2.01287   0.00000   0.00000   0.00001   0.00001   2.01288
   A15        2.15061   0.00000   0.00000  -0.00001  -0.00001   2.15060
   A16        2.11971   0.00000   0.00000   0.00000   0.00000   2.11971
    D1        3.14078   0.00000   0.00000   0.00000   0.00000   3.14078
    D2       -0.00083   0.00000   0.00000   0.00000   0.00000  -0.00083
    D3        0.00023   0.00000   0.00000   0.00000   0.00000   0.00023
    D4       -3.14123   0.00000   0.00000   0.00000   0.00000  -3.14123
    D5       -3.14139   0.00000   0.00000   0.00000   0.00000  -3.14139
    D6        0.00050   0.00000   0.00000   0.00000   0.00000   0.00050
    D7        0.00019   0.00000   0.00000   0.00000   0.00000   0.00019
    D8       -3.14111   0.00000   0.00000   0.00000   0.00000  -3.14111
    D9        0.00036   0.00000   0.00000   0.00000   0.00000   0.00036
   D10       -3.14147   0.00000   0.00000   0.00000   0.00000  -3.14147
   D11       -3.14094   0.00000   0.00000   0.00000   0.00000  -3.14094
   D12        0.00042   0.00000   0.00000   0.00000   0.00000   0.00042
   D13       -0.00101   0.00000   0.00000   0.00000   0.00000  -0.00101
   D14        3.13990   0.00000   0.00000   0.00000   0.00000   3.13990
   D15        3.14082   0.00000   0.00000   0.00000   0.00000   3.14082
   D16       -0.00146   0.00000   0.00000   0.00000   0.00000  -0.00146
   D17        0.00072   0.00000   0.00000   0.00000   0.00000   0.00071
   D18       -3.14101   0.00000   0.00000   0.00000   0.00000  -3.14101
   D19       -3.14019   0.00000   0.00000   0.00000   0.00000  -3.14019
   D20        0.00126   0.00000   0.00000   0.00000   0.00000   0.00126
         Item               Value     Threshold  Converged?
 Maximum Force            0.000013     0.000015     YES
 RMS     Force            0.000003     0.000010     YES
 Maximum Displacement     0.000033     0.000060     YES
 RMS     Displacement     0.000009     0.000040     YES
 Predicted change in Energy=-4.889540D-10
 Optimization completed.
    -- Stationary point found.
                           ----------------------------
                           !   Optimized Parameters   !
                           ! (Angstroms and Degrees)  !
 --------------------------                            --------------------------
 ! Name  Definition              Value          Derivative Info.                !
 --------------------------------------------------------------------------------
 ! R1    R(1,2)                  1.3727         -DE/DX =    0.0                 !
 ! R2    R(1,8)                  1.3726         -DE/DX =    0.0                 !
 ! R3    R(2,3)                  1.0836         -DE/DX =    0.0                 !
 ! R4    R(2,4)                  1.3981         -DE/DX =    0.0                 !
 ! R5    R(4,5)                  1.0841         -DE/DX =    0.0                 !
 ! R6    R(4,6)                  1.3925         -DE/DX =    0.0                 !
 ! R7    R(6,7)                  1.3903         -DE/DX =    0.0                 !
 ! R8    R(6,10)                 1.0827         -DE/DX =    0.0                 !
 ! R9    R(7,8)                  1.395          -DE/DX =    0.0                 !
 ! R10   R(7,11)                 1.7504         -DE/DX =    0.0                 !
 ! R11   R(8,9)                  1.0837         -DE/DX =    0.0                 !
 ! A1    A(2,1,8)              126.3609         -DE/DX =    0.0                 !
 ! A2    A(1,2,3)              122.4275         -DE/DX =    0.0                 !
 ! A3    A(1,2,4)              116.3735         -DE/DX =    0.0                 !
 ! A4    A(3,2,4)              121.199          -DE/DX =    0.0                 !
 ! A5    A(2,4,5)              119.8998         -DE/DX =    0.0                 !
 ! A6    A(2,4,6)              120.624          -DE/DX =    0.0                 !
 ! A7    A(5,4,6)              119.4762         -DE/DX =    0.0                 !
 ! A8    A(4,6,7)              119.4189         -DE/DX =    0.0                 !
 ! A9    A(4,6,10)             120.6145         -DE/DX =    0.0                 !
 ! A10   A(7,6,10)             119.9666         -DE/DX =    0.0                 !
 ! A11   A(6,7,8)              121.8935         -DE/DX =    0.0                 !
 ! A12   A(6,7,11)             119.1366         -DE/DX =    0.0                 !
 ! A13   A(8,7,11)             118.97           -DE/DX =    0.0                 !
 ! A14   A(1,8,7)              115.3292         -DE/DX =    0.0                 !
 ! A15   A(1,8,9)              123.2206         -DE/DX =    0.0                 !
 ! A16   A(7,8,9)              121.4502         -DE/DX =    0.0                 !
 ! D1    D(8,1,2,3)            179.9536         -DE/DX =    0.0                 !
 ! D2    D(8,1,2,4)             -0.0473         -DE/DX =    0.0                 !
 ! D3    D(2,1,8,7)              0.013          -DE/DX =    0.0                 !
 ! D4    D(2,1,8,9)           -179.979          -DE/DX =    0.0                 !
 ! D5    D(1,2,4,5)           -179.9882         -DE/DX =    0.0                 !
 ! D6    D(1,2,4,6)              0.0287         -DE/DX =    0.0                 !
 ! D7    D(3,2,4,5)              0.0109         -DE/DX =    0.0                 !
 ! D8    D(3,2,4,6)           -179.9721         -DE/DX =    0.0                 !
 ! D9    D(2,4,6,7)              0.0206         -DE/DX =    0.0                 !
 ! D10   D(2,4,6,10)          -179.993          -DE/DX =    0.0                 !
 ! D11   D(5,4,6,7)           -179.9625         -DE/DX =    0.0                 !
 ! D12   D(5,4,6,10)             0.0239         -DE/DX =    0.0                 !
 ! D13   D(4,6,7,8)             -0.0576         -DE/DX =    0.0                 !
 ! D14   D(4,6,7,11)           179.9031         -DE/DX =    0.0                 !
 ! D15   D(10,6,7,8)           179.9559         -DE/DX =    0.0                 !
 ! D16   D(10,6,7,11)           -0.0834         -DE/DX =    0.0                 !
 ! D17   D(6,7,8,1)              0.041          -DE/DX =    0.0                 !
 ! D18   D(6,7,8,9)           -179.9667         -DE/DX =    0.0                 !
 ! D19   D(11,7,8,1)          -179.9198         -DE/DX =    0.0                 !
 ! D20   D(11,7,8,9)             0.0724         -DE/DX =    0.0                 !
 --------------------------------------------------------------------------------
 GradGradGradGradGradGradGradGradGradGradGradGradGradGradGradGradGradGrad


 ----------------------------------------------------------------------

 Electric dipole moment (input orientation):
 (Debye = 10**-18 statcoulomb cm , SI units = C m)
                  (au)            (Debye)         (10**-30 SI)
   Tot        0.827922D+00      0.210437D+01      0.701941D+01
   x         -0.331210D+00     -0.841851D+00     -0.280811D+01
   y         -0.702970D+00     -0.178677D+01     -0.596003D+01
   z          0.285636D+00      0.726014D+00      0.242172D+01

 Dipole polarizability, Alpha (input orientation).
 (esu units = cm**3 , SI units = C**2 m**2 J**-1)
 Alpha(0;0):
               (au)            (10**-24 esu)      (10**-40 SI)
   iso        0.100491D+03      0.148912D+02      0.165687D+02
   aniso      0.686054D+02      0.101663D+02      0.113115D+02
   xx         0.104520D+03      0.154883D+02      0.172331D+02
   yx         0.546497D+01      0.809825D+00      0.901052D+00
   yy         0.119240D+03      0.176696D+02      0.196600D+02
   zx         0.101375D+02      0.150222D+01      0.167145D+01
   zy        -0.315111D+02     -0.466946D+01     -0.519547D+01
   zz         0.777122D+02      0.115158D+02      0.128130D+02

 ----------------------------------------------------------------------

 Dipole orientation:
     6         10.79391528         11.46220897        -12.56592625
     6          9.58462820         11.47839009        -10.27103153
     1         10.60166810         11.46232177         -8.49378064
     6          6.94369894         11.51713158        -10.33629185
     1          5.87898903         11.53192372         -8.58602938
     6          5.65972599         11.53635066        -12.63313979
     6          7.02729549         11.51585085        -14.87625031
     6          9.66306963         11.47861958        -14.90021971
     1         10.71554510         11.46384088        -16.65691731
     1          3.61459078         11.56656779        -12.68333879
    17          5.39900767         11.53533739        -17.75549919

 Electric dipole moment (dipole orientation):
 (Debye = 10**-18 statcoulomb cm , SI units = C m)
                  (au)            (Debye)         (10**-30 SI)
   Tot        0.827922D+00      0.210437D+01      0.701941D+01
   x          0.000000D+00      0.000000D+00      0.000000D+00
   y          0.000000D+00      0.000000D+00      0.000000D+00
   z          0.827922D+00      0.210437D+01      0.701941D+01

 Dipole polarizability, Alpha (dipole orientation).
 (esu units = cm**3 , SI units = C**2 m**2 J**-1)
 Alpha(0;0):
               (au)            (10**-24 esu)      (10**-40 SI)
   iso        0.100491D+03      0.148912D+02      0.165687D+02
   aniso      0.686054D+02      0.101663D+02      0.113115D+02
   xx         0.112250D+03      0.166337D+02      0.185075D+02
   yx        -0.781322D+00     -0.115780D+00     -0.128823D+00
   yy         0.579056D+02      0.858072D+01      0.954734D+01
   zx         0.108283D+02      0.160459D+01      0.178535D+01
   zy        -0.148239D+00     -0.219668D-01     -0.244413D-01
   zz         0.131317D+03      0.194592D+02      0.216513D+02

 ----------------------------------------------------------------------
 Unable to Open any file for archive entry.
 1\1\GINC-CN008\Freq\UM062X\6-311+G(d,p)\C6H4Cl1(2)\TAHMINAAFROZ\09-May
 -2025\0\\#N Geom=AllCheck Guess=TCheck SCRF=Check GenChk UM062X/6-311+
 G(d,p) Freq\\3-cl-ph-opt-freq-thf\\0,2\C,6.1605974063,7.0178821409,5.1
 410193238\C,5.1088290872,6.1523401035,5.3112614519\H,5.2088931871,5.21
 39356119,5.8438152328\C,3.8862358842,6.544110501,4.7576770432\H,3.0173
 537616,5.9036161444,4.8584692431\C,3.771300674,7.7524232326,4.07516821
 01\C,4.8864766405,8.5724846139,3.9459476962\C,6.1253543127,8.221865996
 2,4.4828288554\H,6.9898931,8.8668900553,4.3782778521\H,2.824424182,8.0
 557110107,3.6466312682\Cl,4.7342747645,10.0885575895,3.0843408231\\Ver
 sion=AS64L-G16RevC.01\HF=-691.1223007\S2=0.762028\S2-1=0.\S2A=0.750068
 \RMSD=1.543e-09\RMSF=5.293e-06\ZeroPoint=0.0783804\Thermal=0.0838213\E
 Tot=-691.0384795\HTot=-691.0375353\GTot=-691.0742669\Dipole=-0.3312097
 ,-0.7029699,0.2856359\DipoleDeriv=-0.0533319,0.1272632,-0.0570971,0.04
 91027,0.0591279,-0.0663354,-0.017147,-0.0429537,-0.0731668,-0.195594,-
 0.0103132,-0.0101751,0.0312493,-0.087966,-0.0186502,-0.0313421,-0.0341
 053,-0.1293955,0.1440021,-0.0021609,-0.0164322,0.0042214,0.0522899,0.0
 837523,-0.0200724,0.0826135,0.1566924,0.0885559,-0.0567891,0.09826,0.0
 031412,0.0821047,-0.1286114,0.0671099,-0.1443212,-0.0612681,0.0114302,
 -0.0784936,-0.0040536,-0.0620696,0.0607184,0.0461743,-0.012854,0.04141
 88,0.1518362,-0.0980765,-0.0777555,0.0627553,-0.0659627,-0.4067439,0.1
 086239,0.0551948,0.1061408,-0.2113734,0.2645638,-0.0697257,0.1184842,-
 0.0723178,1.1637592,-0.6612647,0.1201019,-0.6621705,0.3696266,-0.17451
 34,0.1199849,-0.0818084,0.0757386,-0.290957,0.1144295,-0.0552557,0.129
 152,-0.2049692,0.1148939,-0.0452788,-0.0016041,-0.0591866,0.1082491,0.
 037555,0.0061789,0.0411535,0.1872826,0.0527899,0.0224095,-0.0535132,0.
 0339156,0.1176722,0.0541239,-0.0611914,0.0517853,0.1549344,-0.15472,0.
 0708592,-0.0548157,0.0621679,-0.8582545,0.4302028,-0.0507228,0.4312868
 ,-0.3401991\Polar=104.5202616,5.464968,119.2400664,10.1374965,-31.5110
 777,77.7121885\Quadrupole=3.7940044,-13.2908915,9.496887,-8.9165045,0.
 2092878,-2.6753697\PG=C01 [X(C6H4Cl1)]\NImag=0\\0.38873663,0.14929615,
 0.53136920,0.00753345,-0.20323449,0.18766968,-0.24315236,-0.11426123,0
 .00808979,0.58621155,-0.14689657,-0.19994929,0.03781762,0.06727126,0.6
 2392620,0.02565317,0.04695977,-0.07101282,0.09326042,-0.24908313,0.285
 79716,0.00499314,-0.01940416,0.01216172,-0.05446199,0.01901012,-0.0158
 4217,0.05416905,-0.00023977,-0.01323652,0.00641314,0.02380484,-0.26745
 053,0.13145890,-0.02032327,0.28024565,0.00188280,0.00102578,-0.0012146
 2,-0.01842655,0.13011339,-0.11057358,0.01979254,-0.14374144,0.10643162
 ,-0.06470813,-0.05309703,0.00691022,-0.27039709,0.08150534,-0.10220306
 ,0.00220032,-0.00183477,0.00006472,0.67638308,0.00498163,0.05372518,-0
 .02068134,0.00750709,-0.12591839,0.03631093,0.02439027,-0.00191199,0.0
 1080592,0.10073245,0.57769432,-0.02448311,-0.03697196,0.02586852,-0.06
 236680,0.05705362,-0.11050303,-0.01402148,0.00344424,-0.00034540,0.097
 70490,-0.21004650,0.27489922,-0.00430054,0.00041513,-0.00335728,-0.015
 73564,-0.01608168,0.00286138,0.00096913,0.00051569,0.00117313,-0.24169
 349,-0.13964707,0.01820333,0.25183385,0.00149940,0.00247172,0.00275611
 ,0.00944204,0.00846114,0.00074985,-0.00018141,-0.00046923,-0.00205471,
 -0.13879345,-0.15414142,0.02324086,0.14897137,0.15739674,-0.00390572,0
 .00247076,0.00440337,-0.01087639,-0.00640987,0.00531506,0.00153849,-0.
 00185934,-0.00275576,0.01771678,0.02297050,-0.04592355,-0.01678442,-0.
 02900199,0.03667226,-0.01875812,-0.02920344,0.01189298,0.02707214,0.02
 938535,-0.01007067,-0.00376321,0.00060972,-0.00330920,-0.12726476,0.04
 052179,-0.03998024,0.00622699,-0.02184179,0.01238157,0.70746457,-0.028
 61421,-0.06096842,0.02205119,0.07865058,0.00291772,0.02401775,0.000328
 38,0.00267806,0.00236159,-0.02525365,-0.27408621,0.10669299,0.00405970
 ,-0.01083924,0.00915157,0.02985253,0.56037431,0.01158963,0.02186334,-0
 .01368010,-0.03663536,0.01021596,-0.00910104,-0.00315835,0.00243230,0.
 00468051,-0.00458106,0.12521341,-0.13102023,-0.00156563,0.00185229,0.0
 0255080,0.14499481,-0.22211488,0.29253568,0.03311165,0.09254830,-0.044
 12250,-0.08101424,-0.01631626,-0.01290205,-0.00159960,-0.00059869,-0.0
 0017673,0.04753808,-0.06943384,0.04971888,0.00177012,0.00039502,-0.001
 77611,-0.26183995,-0.07117597,-0.01704810,0.61696173,0.02511148,-0.005
 47850,0.01677459,-0.01789300,-0.00082968,-0.00647113,-0.00010951,0.000
 43484,-0.00017684,-0.01038953,-0.04069506,0.02105171,0.00025933,-0.000
 91596,0.00449064,-0.13601948,-0.16592606,0.01641237,0.07373458,0.43046
 758,-0.00776383,0.03568844,-0.00866294,-0.01206070,-0.00609706,-0.0037
 9565,-0.00043187,-0.00031700,0.00020390,0.01784207,0.00451014,0.006419
 26,-0.00170106,0.00452375,0.00439095,0.01792609,0.03465565,-0.07834578
 ,0.09845782,-0.14425965,0.22861843,-0.09882770,-0.02438700,-0.00013732
 ,0.04567091,-0.01892332,0.02151329,-0.00303262,-0.00220450,-0.00128091
 ,-0.02212374,0.03168618,-0.02285113,0.00060101,0.00046384,0.00029684,-
 0.05078304,-0.03808015,0.00395276,-0.28224070,0.06552421,-0.09670890,0
 .65123027,0.00943923,-0.29452782,0.13345224,-0.05408368,-0.03479233,0.
 00640255,-0.00425704,0.00049782,0.00161855,0.02881033,-0.03422367,0.02
 565129,0.00096229,-0.00073479,-0.00005534,0.01098746,0.05114841,-0.019
 96785,-0.00735288,-0.10249996,0.01908264,0.13184046,0.58918444,-0.0183
 6945,0.12397461,-0.12400082,0.04049150,0.01627147,0.00781804,-0.000166
 50,0.00220087,0.00450551,-0.02127948,0.02643438,-0.02184129,0.00002500
 ,-0.00018109,-0.00120961,-0.02256419,-0.03375625,0.02020875,-0.0574411
 8,0.03960390,-0.10058363,0.07747462,-0.21453108,0.25980095,0.00658945,
 -0.00003531,0.00212524,0.00143488,0.00176070,-0.00222037,0.00029269,0.
 00022032,0.00001384,-0.00012706,0.00066066,-0.00026974,-0.00005945,0.0
 0000085,0.00014341,-0.00250274,0.00188117,-0.00328402,-0.01655552,-0.0
 1653543,0.00286382,-0.23884624,-0.13793961,0.01676785,0.24929931,-0.01
 807829,-0.01337523,0.00162162,-0.00038214,-0.00196123,0.00414775,-0.00
 070177,-0.00033259,-0.00011068,0.00093816,-0.00053360,0.00031775,-0.00
 003974,-0.00007099,-0.00027856,0.00159267,0.00141517,0.00266266,0.0085
 2890,0.00753989,0.00103180,-0.14446915,-0.15059974,0.02233313,0.151239
 27,0.15718726,0.01185530,0.00667859,-0.00120213,-0.00105500,0.00476494
 ,0.00310025,0.00050855,0.00014747,-0.00010814,-0.00042751,0.00024714,-
 0.00068633,0.00016428,-0.00026664,-0.00037897,-0.00310690,0.00274342,0
 .00318905,-0.01061445,-0.00601539,0.00527941,0.02023724,0.02412510,-0.
 04123208,-0.01759349,-0.03046614,0.03343546,0.00031604,-0.00075413,0.0
 0080613,0.00216697,-0.00091467,-0.00081726,0.00006060,-0.00011279,0.00
 011076,0.00327874,-0.00137529,0.00056669,0.00020072,0.00071564,0.00087
 149,-0.28105335,0.06834932,-0.10534031,-0.01621894,0.00853761,-0.00997
 149,-0.00193603,-0.00365629,-0.00008800,-0.00061690,0.00038769,-0.0004
 1044,0.29363378,-0.00055985,-0.00139098,-0.00000138,-0.00052838,-0.002
 53287,0.00489176,0.00110016,-0.00023221,0.00036837,0.02365787,-0.00242
 560,0.01002846,0.00022502,0.00001228,-0.00224301,0.07047665,-0.0740394
 6,0.04036849,-0.01724650,0.00651866,-0.00676935,-0.00379475,-0.0006945
 3,0.00221704,-0.00073849,0.00044402,-0.00039133,-0.07183747,0.07389547
 ,0.00070617,-0.00003456,-0.00089144,-0.00104507,0.00479150,0.00397196,
 -0.00054340,0.00002898,-0.00028729,-0.01291954,0.00297624,-0.00136252,
 0.00114283,-0.00209861,-0.00282570,-0.10642078,0.03986725,-0.08712058,
 0.00388823,0.00044501,0.00378677,-0.00000335,0.00224057,0.00418622,0.0
 0019461,-0.00007496,0.00019929,0.11400200,-0.04662295,0.08195104,-0.00
 400006,-0.00111728,-0.00190241,0.00220487,0.00019973,0.00076732,0.0001
 7249,0.00016321,0.00015560,-0.00308596,-0.00002388,-0.00222131,0.00018
 731,-0.00067154,0.00039408,0.00520146,-0.01999772,0.01107562,-0.039912
 64,0.00777973,-0.00845195,0.00028787,0.02524973,-0.01485016,0.00109158
 ,0.00098439,0.00044244,0.00016838,-0.00075427,0.00099830,0.03768469,0.
 00406081,0.00136066,0.00303069,0.00047261,-0.00187073,0.00061499,0.000
 14823,-0.00022329,-0.00020995,-0.00627574,0.00251645,-0.00046246,0.000
 35994,-0.00117024,0.00076464,0.00363853,-0.03267426,0.02106191,0.00691
 733,-0.12861575,0.05795064,0.00234417,-0.02275783,0.01543301,-0.000514
 13,0.00028706,-0.00156716,0.00066038,0.00044523,-0.00151848,-0.0118121
 2,0.18270271,-0.00469842,0.00157970,0.00272331,0.00062416,0.00056154,-
 0.00101635,0.00016248,-0.00020812,-0.00053674,0.00117197,0.00125917,0.
 00449536,-0.00016157,0.00048018,-0.00023885,-0.00174346,0.01432972,-0.
 00389705,-0.00798380,0.05814478,-0.05731072,-0.00249314,0.02198134,-0.
 00765204,0.00125886,-0.00118438,-0.00159581,0.00027046,-0.00184609,-0.
 00160775,0.01359247,-0.09509783,0.06663664\\-0.00001226,0.00000198,-0.
 00001140,0.00001207,0.00000764,-0.00000306,0.00000270,-0.00000195,-0.0
 0000163,-0.00000038,0.00000073,0.00000301,-0.00000134,0.00000216,0.000
 00559,-0.00000213,0.00000193,0.00000332,0.00000094,-0.00000021,0.00000
 062,0.00000221,-0.00001407,0.00000278,0.00000209,-0.00000246,-0.000007
 29,-0.00000226,0.00000296,0.00000721,-0.00000167,0.00000130,0.00000086
 \\\@
 The archive entry for this job was punched.


 OLD AGE AND TREACHERY WILL ALWAYS PREVAIL OVER YOUTH AND SKILL.
 Job cpu time:       0 days  0 hours 28 minutes 20.6 seconds.
 Elapsed time:       0 days  0 hours  0 minutes 56.0 seconds.
 File lengths (MBytes):  RWF=    108 Int=      0 D2E=      0 Chk=     11 Scr=      1
 Normal termination of Gaussian 16 at Fri May  9 08:03:36 2025.
