/home/tahminaafroz
cn013.cluster.local
tahminaafroz
Tue May  6 17:09:32 CDT 2025
 Entering Gaussian System, Link 0=g16
 Initial command:
 /home/apps/g16/l1.exe "/tmp/3-5-diMe-phboh2-opt-freq-2/Gau-680321.inp" -scrdir="/tmp/3-5-diMe-phboh2-opt-freq-2/"
 Entering Link 1 = /home/apps/g16/l1.exe PID=    680322.
  
 Copyright (c) 1988-2019, Gaussian, Inc.  All Rights Reserved.
  
 This is part of the Gaussian(R) 16 program.  It is based on
 the Gaussian(R) 09 system (copyright 2009, Gaussian, Inc.),
 the Gaussian(R) 03 system (copyright 2003, Gaussian, Inc.),
 the Gaussian(R) 98 system (copyright 1998, Gaussian, Inc.),
 the Gaussian(R) 94 system (copyright 1995, Gaussian, Inc.),
 the Gaussian 92(TM) system (copyright 1992, Gaussian, Inc.),
 the Gaussian 90(TM) system (copyright 1990, Gaussian, Inc.),
 the Gaussian 88(TM) system (copyright 1988, Gaussian, Inc.),
 the Gaussian 86(TM) system (copyright 1986, Carnegie Mellon
 University), and the Gaussian 82(TM) system (copyright 1983,
 Carnegie Mellon University). Gaussian is a federally registered
 trademark of Gaussian, Inc.
  
 This software contains proprietary and confidential information,
 including trade secrets, belonging to Gaussian, Inc.
  
 This software is provided under written license and may be
 used, copied, transmitted, or stored only in accord with that
 written license.
  
 The following legend is applicable only to US Government
 contracts under FAR:
  
                    RESTRICTED RIGHTS LEGEND
  
 Use, reproduction and disclosure by the US Government is
 subject to restrictions as set forth in subparagraphs (a)
 and (c) of the Commercial Computer Software - Restricted
 Rights clause in FAR 52.227-19.
  
 Gaussian, Inc.
 340 Quinnipiac St., Bldg. 40, Wallingford CT 06492
  
  
 ---------------------------------------------------------------
 Warning -- This program may not be used in any manner that
 competes with the business of Gaussian, Inc. or will provide
 assistance to any competitor of Gaussian, Inc.  The licensee
 of this program is prohibited from giving any competitor of
 Gaussian, Inc. access to this program.  By using this program,
 the user acknowledges that Gaussian, Inc. is engaged in the
 business of creating and licensing software in the field of
 computational chemistry and represents and warrants to the
 licensee that it is not a competitor of Gaussian, Inc. and that
 it will not use this program in any manner prohibited above.
 ---------------------------------------------------------------
  

 Cite this work as:
 Gaussian 16, Revision C.01,
 M. J. Frisch, G. W. Trucks, H. B. Schlegel, G. E. Scuseria, 
 M. A. Robb, J. R. Cheeseman, G. Scalmani, V. Barone, 
 G. A. Petersson, H. Nakatsuji, X. Li, M. Caricato, A. V. Marenich, 
 J. Bloino, B. G. Janesko, R. Gomperts, B. Mennucci, H. P. Hratchian, 
 J. V. Ortiz, A. F. Izmaylov, J. L. Sonnenberg, D. Williams-Young, 
 F. Ding, F. Lipparini, F. Egidi, J. Goings, B. Peng, A. Petrone, 
 T. Henderson, D. Ranasinghe, V. G. Zakrzewski, J. Gao, N. Rega, 
 G. Zheng, W. Liang, M. Hada, M. Ehara, K. Toyota, R. Fukuda, 
 J. Hasegawa, M. Ishida, T. Nakajima, Y. Honda, O. Kitao, H. Nakai, 
 T. Vreven, K. Throssell, J. A. Montgomery, Jr., J. E. Peralta, 
 F. Ogliaro, M. J. Bearpark, J. J. Heyd, E. N. Brothers, K. N. Kudin, 
 V. N. Staroverov, T. A. Keith, R. Kobayashi, J. Normand, 
 K. Raghavachari, A. P. Rendell, J. C. Burant, S. S. Iyengar, 
 J. Tomasi, M. Cossi, J. M. Millam, M. Klene, C. Adamo, R. Cammi, 
 J. W. Ochterski, R. L. Martin, K. Morokuma, O. Farkas, 
 J. B. Foresman, and D. J. Fox, Gaussian, Inc., Wallingford CT, 2019.
 
 ******************************************
 Gaussian 16:  AS64L-G16RevC.01  3-Jul-2019
                 6-May-2025 
 ******************************************
 %mem=20GB
 %nprocshared=32
 Will use up to   32 processors via shared memory.
 %chk=3-5-diMe-phboh2-opt-freq-2.chk
 ----------------------------------------------------------------------
 # opt=(calcfc,tight) freq 6-311+g(d,p) nosymm scf=(qc,fermi,xqc) geom=
 connectivity int=ultrafine m062x
 ----------------------------------------------------------------------
 1/7=10,10=4,18=20,19=15,26=4,38=1,57=2/1,3;
 2/9=110,12=2,15=1,17=6,18=5,40=1/2;
 3/5=4,6=6,7=111,11=2,25=1,30=1,71=2,74=-55,75=-5,140=1/1,2,3;
 4//1;
 5/5=2,22=13,38=5/2;
 8/6=4,10=90,11=11/1;
 11/6=1,8=1,9=11,15=111,16=1,31=1/1,2,10;
 10/6=1,13=1,31=1/2;
 6/7=2,8=2,9=2,10=2,28=1/1;
 7/10=1,25=1,30=1/1,2,3,16;
 1/7=10,10=4,18=20,19=15,26=4/3(2);
 2/9=110,15=1/2;
 99//99;
 2/9=110,15=1/2;
 3/5=4,6=6,7=111,11=2,25=1,30=1,71=1,74=-55,75=-5/1,2,3;
 4/5=5,16=3,69=1/1;
 5/5=2,22=13,38=5/2;
 7/30=1/1,2,3,16;
 1/7=10,18=20,19=15,26=4/3(-5);
 2/9=110,15=1/2;
 6/7=2,8=2,9=2,10=2,19=2,28=1/1;
 99/9=1/99;
 --------------------------
 3-5-diMe-phboh2-opt-freq-2
 --------------------------
 Symbolic Z-matrix:
 Charge =  0 Multiplicity = 1
 O                     8.69322   7.4646    5.57236 
 H                     9.49641   7.1484    5.99566 
 C                     6.25079   6.99434   5.16357 
 B                     7.6437    6.6177    5.77286 
 O                     7.87802   5.48378   6.50476 
 H                     7.10219   4.93818   6.64285 
 C                     5.14405   6.144     5.24211 
 H                     5.22462   5.17326   5.72784 
 C                     3.90811   6.49722   4.70387 
 C                     3.79607   7.73221   4.06623 
 C                     4.87756   8.60682   3.96024 
 C                     6.09655   8.22385   4.51576 
 H                     6.95104   8.88976   4.44726 
 H                     2.8387    8.02031   3.63914 
 C                     4.73259   9.91979   3.23446 
 H                     5.47794   10.63997   3.57416 
 H                     4.86908   9.78159   2.15831 
 H                     3.74172   10.35006   3.39023 
 C                     2.7139    5.58596   4.82857 
 H                     3.02189   4.54643   4.95125 
 H                     2.10851   5.85919   5.69728 
 H                     2.07479   5.65085   3.94641 
 

 GradGradGradGradGradGradGradGradGradGradGradGradGradGradGradGradGradGrad
 Berny optimization.
 Initialization pass.
                           ----------------------------
                           !    Initial Parameters    !
                           ! (Angstroms and Degrees)  !
 --------------------------                            --------------------------
 ! Name  Definition              Value          Derivative Info.                !
 --------------------------------------------------------------------------------
 ! R1    R(1,2)                  0.9614         calculate D2E/DX2 analytically  !
 ! R2    R(1,4)                  1.3634         calculate D2E/DX2 analytically  !
 ! R3    R(3,4)                  1.5663         calculate D2E/DX2 analytically  !
 ! R4    R(3,7)                  1.3979         calculate D2E/DX2 analytically  !
 ! R5    R(3,12)                 1.3983         calculate D2E/DX2 analytically  !
 ! R6    R(4,5)                  1.3698         calculate D2E/DX2 analytically  !
 ! R7    R(5,6)                  0.9585         calculate D2E/DX2 analytically  !
 ! R8    R(7,8)                  1.0885         calculate D2E/DX2 analytically  !
 ! R9    R(7,9)                  1.3936         calculate D2E/DX2 analytically  !
 ! R10   R(9,10)                 1.3944         calculate D2E/DX2 analytically  !
 ! R11   R(9,19)                 1.5073         calculate D2E/DX2 analytically  !
 ! R12   R(10,11)                1.3949         calculate D2E/DX2 analytically  !
 ! R13   R(10,14)                1.0872         calculate D2E/DX2 analytically  !
 ! R14   R(11,12)                1.3933         calculate D2E/DX2 analytically  !
 ! R15   R(11,15)                1.5072         calculate D2E/DX2 analytically  !
 ! R16   R(12,13)                1.0855         calculate D2E/DX2 analytically  !
 ! R17   R(15,16)                1.0907         calculate D2E/DX2 analytically  !
 ! R18   R(15,17)                1.0935         calculate D2E/DX2 analytically  !
 ! R19   R(15,18)                1.0914         calculate D2E/DX2 analytically  !
 ! R20   R(19,20)                1.0911         calculate D2E/DX2 analytically  !
 ! R21   R(19,21)                1.0935         calculate D2E/DX2 analytically  !
 ! R22   R(19,22)                1.0913         calculate D2E/DX2 analytically  !
 ! A1    A(2,1,4)              111.966          calculate D2E/DX2 analytically  !
 ! A2    A(4,3,7)              122.4082         calculate D2E/DX2 analytically  !
 ! A3    A(4,3,12)             119.3245         calculate D2E/DX2 analytically  !
 ! A4    A(7,3,12)             118.2672         calculate D2E/DX2 analytically  !
 ! A5    A(1,4,3)              118.554          calculate D2E/DX2 analytically  !
 ! A6    A(1,4,5)              117.4574         calculate D2E/DX2 analytically  !
 ! A7    A(3,4,5)              123.9883         calculate D2E/DX2 analytically  !
 ! A8    A(4,5,6)              114.1879         calculate D2E/DX2 analytically  !
 ! A9    A(3,7,8)              120.5957         calculate D2E/DX2 analytically  !
 ! A10   A(3,7,9)              121.7549         calculate D2E/DX2 analytically  !
 ! A11   A(8,7,9)              117.649          calculate D2E/DX2 analytically  !
 ! A12   A(7,9,10)             118.188          calculate D2E/DX2 analytically  !
 ! A13   A(7,9,19)             121.1626         calculate D2E/DX2 analytically  !
 ! A14   A(10,9,19)            120.638          calculate D2E/DX2 analytically  !
 ! A15   A(9,10,11)            121.8552         calculate D2E/DX2 analytically  !
 ! A16   A(9,10,14)            119.0186         calculate D2E/DX2 analytically  !
 ! A17   A(11,10,14)           119.1262         calculate D2E/DX2 analytically  !
 ! A18   A(10,11,12)           118.4041         calculate D2E/DX2 analytically  !
 ! A19   A(10,11,15)           120.5449         calculate D2E/DX2 analytically  !
 ! A20   A(12,11,15)           121.0374         calculate D2E/DX2 analytically  !
 ! A21   A(3,12,11)            121.5287         calculate D2E/DX2 analytically  !
 ! A22   A(3,12,13)            118.805          calculate D2E/DX2 analytically  !
 ! A23   A(11,12,13)           119.6663         calculate D2E/DX2 analytically  !
 ! A24   A(11,15,16)           111.0694         calculate D2E/DX2 analytically  !
 ! A25   A(11,15,17)           110.5963         calculate D2E/DX2 analytically  !
 ! A26   A(11,15,18)           111.2247         calculate D2E/DX2 analytically  !
 ! A27   A(16,15,17)           107.7372         calculate D2E/DX2 analytically  !
 ! A28   A(16,15,18)           108.4007         calculate D2E/DX2 analytically  !
 ! A29   A(17,15,18)           107.6727         calculate D2E/DX2 analytically  !
 ! A30   A(9,19,20)            111.2005         calculate D2E/DX2 analytically  !
 ! A31   A(9,19,21)            110.6875         calculate D2E/DX2 analytically  !
 ! A32   A(9,19,22)            111.1722         calculate D2E/DX2 analytically  !
 ! A33   A(20,19,21)           107.7578         calculate D2E/DX2 analytically  !
 ! A34   A(20,19,22)           108.2316         calculate D2E/DX2 analytically  !
 ! A35   A(21,19,22)           107.6438         calculate D2E/DX2 analytically  !
 ! D1    D(2,1,4,3)            179.2337         calculate D2E/DX2 analytically  !
 ! D2    D(2,1,4,5)             -0.5735         calculate D2E/DX2 analytically  !
 ! D3    D(7,3,4,1)            175.5949         calculate D2E/DX2 analytically  !
 ! D4    D(7,3,4,5)             -4.6115         calculate D2E/DX2 analytically  !
 ! D5    D(12,3,4,1)            -4.4472         calculate D2E/DX2 analytically  !
 ! D6    D(12,3,4,5)           175.3465         calculate D2E/DX2 analytically  !
 ! D7    D(4,3,7,8)             -0.7408         calculate D2E/DX2 analytically  !
 ! D8    D(4,3,7,9)            179.5098         calculate D2E/DX2 analytically  !
 ! D9    D(12,3,7,8)           179.3009         calculate D2E/DX2 analytically  !
 ! D10   D(12,3,7,9)            -0.4486         calculate D2E/DX2 analytically  !
 ! D11   D(4,3,12,11)         -179.8425         calculate D2E/DX2 analytically  !
 ! D12   D(4,3,12,13)            0.2108         calculate D2E/DX2 analytically  !
 ! D13   D(7,3,12,11)            0.1172         calculate D2E/DX2 analytically  !
 ! D14   D(7,3,12,13)         -179.8295         calculate D2E/DX2 analytically  !
 ! D15   D(1,4,5,6)            177.9633         calculate D2E/DX2 analytically  !
 ! D16   D(3,4,5,6)             -1.8325         calculate D2E/DX2 analytically  !
 ! D17   D(3,7,9,10)             0.4409         calculate D2E/DX2 analytically  !
 ! D18   D(3,7,9,19)          -178.3388         calculate D2E/DX2 analytically  !
 ! D19   D(8,7,9,10)          -179.3157         calculate D2E/DX2 analytically  !
 ! D20   D(8,7,9,19)             1.9047         calculate D2E/DX2 analytically  !
 ! D21   D(7,9,10,11)           -0.1024         calculate D2E/DX2 analytically  !
 ! D22   D(7,9,10,14)          179.8395         calculate D2E/DX2 analytically  !
 ! D23   D(19,9,10,11)         178.684          calculate D2E/DX2 analytically  !
 ! D24   D(19,9,10,14)          -1.3741         calculate D2E/DX2 analytically  !
 ! D25   D(7,9,19,20)          -25.111          calculate D2E/DX2 analytically  !
 ! D26   D(7,9,19,21)           94.6349         calculate D2E/DX2 analytically  !
 ! D27   D(7,9,19,22)         -145.7811         calculate D2E/DX2 analytically  !
 ! D28   D(10,9,19,20)         156.1391         calculate D2E/DX2 analytically  !
 ! D29   D(10,9,19,21)         -84.115          calculate D2E/DX2 analytically  !
 ! D30   D(10,9,19,22)          35.469          calculate D2E/DX2 analytically  !
 ! D31   D(9,10,11,12)          -0.2126         calculate D2E/DX2 analytically  !
 ! D32   D(9,10,11,15)         178.4614         calculate D2E/DX2 analytically  !
 ! D33   D(14,10,11,12)        179.8456         calculate D2E/DX2 analytically  !
 ! D34   D(14,10,11,15)         -1.4804         calculate D2E/DX2 analytically  !
 ! D35   D(10,11,12,3)           0.2041         calculate D2E/DX2 analytically  !
 ! D36   D(10,11,12,13)       -179.8497         calculate D2E/DX2 analytically  !
 ! D37   D(15,11,12,3)        -178.4631         calculate D2E/DX2 analytically  !
 ! D38   D(15,11,12,13)          1.4831         calculate D2E/DX2 analytically  !
 ! D39   D(10,11,15,16)        156.5832         calculate D2E/DX2 analytically  !
 ! D40   D(10,11,15,17)        -83.8427         calculate D2E/DX2 analytically  !
 ! D41   D(10,11,15,18)         35.7519         calculate D2E/DX2 analytically  !
 ! D42   D(12,11,15,16)        -24.7781         calculate D2E/DX2 analytically  !
 ! D43   D(12,11,15,17)         94.7961         calculate D2E/DX2 analytically  !
 ! D44   D(12,11,15,18)       -145.6094         calculate D2E/DX2 analytically  !
 --------------------------------------------------------------------------------
 Trust Radius=3.00D-01 FncErr=1.00D-07 GrdErr=1.00D-06 EigMax=2.50D+02 EigMin=1.00D-04
 Number of steps in this run=    111 maximum allowed number of steps=    132.
 GradGradGradGradGradGradGradGradGradGradGradGradGradGradGradGradGradGrad

                          Input orientation:                          
 ---------------------------------------------------------------------
 Center     Atomic      Atomic             Coordinates (Angstroms)
 Number     Number       Type             X           Y           Z
 ---------------------------------------------------------------------
      1          8           0        8.693219    7.464595    5.572357
      2          1           0        9.496414    7.148401    5.995661
      3          6           0        6.250785    6.994337    5.163565
      4          5           0        7.643702    6.617705    5.772864
      5          8           0        7.878021    5.483781    6.504764
      6          1           0        7.102187    4.938177    6.642848
      7          6           0        5.144048    6.144005    5.242113
      8          1           0        5.224617    5.173257    5.727843
      9          6           0        3.908106    6.497222    4.703869
     10          6           0        3.796073    7.732209    4.066228
     11          6           0        4.877560    8.606817    3.960235
     12          6           0        6.096549    8.223852    4.515756
     13          1           0        6.951036    8.889755    4.447260
     14          1           0        2.838697    8.020306    3.639137
     15          6           0        4.732587    9.919791    3.234464
     16          1           0        5.477937   10.639967    3.574163
     17          1           0        4.869078    9.781593    2.158310
     18          1           0        3.741716   10.350060    3.390225
     19          6           0        2.713895    5.585960    4.828565
     20          1           0        3.021890    4.546427    4.951248
     21          1           0        2.108505    5.859189    5.697277
     22          1           0        2.074788    5.650849    3.946412
 ---------------------------------------------------------------------
                    Distance matrix (angstroms):
                    1          2          3          4          5
     1  O    0.000000
     2  H    0.961399   0.000000
     3  C    2.520662   3.354136   0.000000
     4  B    1.363419   1.940056   1.566306   0.000000
     5  O    2.336141   2.376834   2.593934   1.369805   0.000000
     6  H    3.171769   3.322087   2.672257   1.967467   0.958472
     7  C    3.801267   4.529871   1.397892   2.598915   3.082984
     8  H    4.160001   4.713934   2.165124   2.817877   2.782191
     9  C    4.958567   5.772517   2.438563   3.887408   4.475546
    10  C    5.130505   6.046274   2.788228   4.354190   5.259675
    11  C    4.296843   5.253927   2.435948   3.859240   5.023022
    12  C    2.904406   3.860802   1.398268   2.560022   3.825936
    13  H    2.516372   3.450914   2.143841   2.720151   4.085741
    14  H    6.190443   7.116082   3.875415   5.441337   6.327761
    15  C    5.213476   6.164321   3.818984   5.081519   6.345613
    16  H    4.941033   5.848320   4.051433   5.069854   6.398053
    17  H    5.625678   6.562865   4.325444   5.547407   6.812972
    18  H    6.132291   7.082052   4.549839   5.901944   7.105635
    19  C    6.311483   7.057329   3.821694   5.124373   5.430311
    20  H    6.408233   7.055532   4.057475   5.130925   5.184019
    21  H    6.778746   7.505485   4.328036   5.587438   5.837832
    22  H    7.052446   7.843635   4.552513   5.939995   6.344335
                    6          7          8          9         10
     6  H    0.000000
     7  C    2.692654   0.000000
     8  H    2.101848   1.088474   0.000000
     9  C    4.048755   1.393564   2.129462   0.000000
    10  C    5.037457   2.392098   3.368967   1.394392   0.000000
    11  C    5.060069   2.789206   3.877399   2.437873   1.394915
    12  C    4.041224   2.400128   3.396403   2.793908   2.394990
    13  H    4.523099   3.381736   4.293341   3.879367   3.382143
    14  H    6.057982   3.377082   4.261572   2.144079   1.087187
    15  C    6.484486   4.296105   5.384108   3.814826   2.520794
    16  H    6.675734   4.806996   5.881108   4.571973   3.394974
    17  H    6.968252   4.776766   5.839926   4.265024   2.998577
    18  H    7.152678   4.804885   5.870498   4.074028   2.704270
    19  C    4.792531   2.527465   2.698657   1.507344   2.521637
    20  H    4.434389   2.672155   2.418268   2.156890   3.395854
    21  H    5.165194   3.082664   3.190861   2.152326   3.002734
    22  H    5.749209   3.367848   3.650070   2.156651   2.703560
                   11         12         13         14         15
    11  C    0.000000
    12  C    1.393270   0.000000
    13  H    2.148616   1.085480   0.000000
    14  H    2.145708   3.379866   4.280226   0.000000
    15  C    1.507203   2.525532   2.730085   2.712678   0.000000
    16  H    2.154809   2.665875   2.448583   3.719198   1.090686
    17  H    2.151071   3.080713   3.220127   3.068783   1.093543
    18  H    2.157301   3.366425   3.680971   2.511007   1.091429
    19  C    3.815890   4.301008   5.386448   2.712260   5.039679
    20  H    4.573006   4.813173   5.878494   3.717934   5.894648
    21  H    4.270180   4.784571   5.847818   3.072385   5.425840
    22  H    4.073508   4.808228   5.875300   2.508446   5.078842
                   16         17         18         19         20
    16  H    0.000000
    17  H    1.764130   0.000000
    18  H    1.769843   1.764005   0.000000
    19  C    5.895459   5.420186   5.081524   0.000000
    20  H    6.712657   6.214465   6.052859   1.091119   0.000000
    21  H    6.222260   5.960730   5.306391   1.093532   1.764703
    22  H    6.050726   5.297963   5.017029   1.091266   1.768176
                   21         22
    21  H    0.000000
    22  H    1.763539   0.000000
 Symmetry turned off by external request.
 Stoichiometry    C8H11BO2
 Framework group  C1[X(C8H11BO2)]
 Deg. of freedom    60
 Full point group                 C1      NOp   1
 Rotational constants (GHZ):           1.5143248           0.8016122           0.5278054
 Standard basis: 6-311+G(d,p) (5D, 7F)
   308 basis functions,   484 primitive gaussians,   319 cartesian basis functions
    40 alpha electrons       40 beta electrons
       nuclear repulsion energy       563.7855157507 Hartrees.
 NAtoms=   22 NActive=   22 NUniq=   22 SFac= 1.00D+00 NAtFMM=   60 NAOKFM=F Big=F
 Integral buffers will be    131072 words long.
 Raffenetti 2 integral format.
 Two-electron integral symmetry is turned off.
 One-electron integrals computed using PRISM.
 NBasis=   308 RedAO= T EigKep=  1.61D-06  NBF=   308
 NBsUse=   308 1.00D-06 EigRej= -1.00D+00 NBFU=   308
 ExpMin= 3.15D-02 ExpMax= 8.59D+03 ExpMxC= 1.30D+03 IAcc=3 IRadAn=         5 AccDes= 0.00D+00
 Harris functional with IExCor= 1009 and IRadAn=       5 diagonalized for initial guess.
 HarFok:  IExCor= 1009 AccDes= 0.00D+00 IRadAn=         5 IDoV= 1 UseB2=F ITyADJ=14
 ICtDFT=  3500011 ScaDFX=  1.000000  1.000000  1.000000  1.000000
 FoFCou: FMM=F IPFlag=           0 FMFlag=      100000 FMFlg1=           0
         NFxFlg=           0 DoJE=T BraDBF=F KetDBF=T FulRan=T
         wScrn=  0.000000 ICntrl=       500 IOpCl=  0 I1Cent=   200000004 NGrid=           0
         NMat0=    1 NMatS0=      1 NMatT0=    0 NMatD0=    1 NMtDS0=    0 NMtDT0=    0
 Symmetry not used in FoFCou.
 Requested convergence on RMS density matrix=1.00D-08 within 128 cycles.
 Requested convergence on MAX density matrix=1.00D-06.
 Requested convergence on             energy=1.00D-06.
 Level shift goal  0.100 maximum shift  0.100.
 No special actions if energy rises.
 Dynamic level shift is on during FON iterations.
 SCF Done:  E(RM062X) =  -486.838224951     A.U. after   14 cycles
            NFock= 14  Conv=0.87D-08     -V/T= 2.0039
 DoSCS=F DFT=T ScalE2(SS,OS)=  1.000000  1.000000
 Range of M.O.s used for correlation:     1   308
 NBasis=   308 NAE=    40 NBE=    40 NFC=     0 NFV=     0
 NROrb=    308 NOA=    40 NOB=    40 NVA=   268 NVB=   268

 **** Warning!!: The largest alpha MO coefficient is  0.24385671D+03

 Symmetrizing basis deriv contribution to polar:
 IMax=3 JMax=2 DiffMx= 0.00D+00
 G2DrvN: will do    23 centers at a time, making    1 passes.
 Calling FoFCou, ICntrl=  3107 FMM=F I1Cent=   0 AccDes= 0.00D+00.
 End of G2Drv F.D. properties file   721 does not exist.
 End of G2Drv F.D. properties file   722 does not exist.
 End of G2Drv F.D. properties file   788 does not exist.
          IDoAtm=1111111111111111111111
          Differentiating once with respect to nuclear coordinates.
 Keep R1 ints in memory in canonical form, NReq=1169003791.
          There are    69 degrees of freedom in the 1st order CPHF.  IDoFFX=6 NUNeed=     0.
     63 vectors produced by pass  0 Test12= 1.55D-14 1.45D-09 XBig12= 2.60D-01 1.09D-01.
 AX will form    63 AO Fock derivatives at one time.
     63 vectors produced by pass  1 Test12= 1.55D-14 1.45D-09 XBig12= 1.40D-02 3.63D-02.
     63 vectors produced by pass  2 Test12= 1.55D-14 1.45D-09 XBig12= 4.43D-04 2.90D-03.
     63 vectors produced by pass  3 Test12= 1.55D-14 1.45D-09 XBig12= 2.93D-06 2.03D-04.
     63 vectors produced by pass  4 Test12= 1.55D-14 1.45D-09 XBig12= 1.75D-08 1.41D-05.
     63 vectors produced by pass  5 Test12= 1.55D-14 1.45D-09 XBig12= 7.61D-11 1.11D-06.
     51 vectors produced by pass  6 Test12= 1.55D-14 1.45D-09 XBig12= 2.79D-13 4.94D-08.
      7 vectors produced by pass  7 Test12= 1.55D-14 1.45D-09 XBig12= 1.13D-15 3.10D-09.
 InvSVY:  IOpt=1 It=  1 EMax= 6.66D-16
 Solved reduced A of dimension   436 with    69 vectors.
 End of Minotr F.D. properties file   721 does not exist.
 End of Minotr F.D. properties file   722 does not exist.
 End of Minotr F.D. properties file   788 does not exist.

 **********************************************************************

            Population analysis using the SCF Density.

 **********************************************************************

 Alpha  occ. eigenvalues --  -19.63629 -19.62848 -10.55244 -10.54977 -10.54388
 Alpha  occ. eigenvalues --  -10.54014 -10.53653 -10.53556 -10.53222 -10.52624
 Alpha  occ. eigenvalues --   -7.08117  -1.16667  -1.12942  -0.96622  -0.88331
 Alpha  occ. eigenvalues --   -0.85674  -0.78566  -0.77221  -0.68979  -0.65614
 Alpha  occ. eigenvalues --   -0.64723  -0.62012  -0.57592  -0.54274  -0.51575
 Alpha  occ. eigenvalues --   -0.49803  -0.48770  -0.48242  -0.47540  -0.47150
 Alpha  occ. eigenvalues --   -0.46469  -0.45068  -0.44474  -0.43679  -0.41166
 Alpha  occ. eigenvalues --   -0.40281  -0.39424  -0.37472  -0.30239  -0.29278
 Alpha virt. eigenvalues --   -0.00338  -0.00195   0.01529   0.01789   0.02033
 Alpha virt. eigenvalues --    0.03196   0.03318   0.03705   0.04425   0.05224
 Alpha virt. eigenvalues --    0.06054   0.06450   0.06712   0.08176   0.08457
 Alpha virt. eigenvalues --    0.09912   0.10585   0.10982   0.11803   0.12164
 Alpha virt. eigenvalues --    0.12564   0.13785   0.13983   0.14417   0.15262
 Alpha virt. eigenvalues --    0.15664   0.16844   0.17245   0.17749   0.18093
 Alpha virt. eigenvalues --    0.18349   0.19099   0.19362   0.20260   0.20635
 Alpha virt. eigenvalues --    0.21291   0.22544   0.22778   0.23057   0.23452
 Alpha virt. eigenvalues --    0.23948   0.24258   0.25170   0.25510   0.25714
 Alpha virt. eigenvalues --    0.26076   0.26292   0.26887   0.27600   0.28685
 Alpha virt. eigenvalues --    0.28796   0.29894   0.30242   0.30697   0.30870
 Alpha virt. eigenvalues --    0.32292   0.34583   0.34943   0.35454   0.36411
 Alpha virt. eigenvalues --    0.36934   0.39596   0.40069   0.41887   0.43553
 Alpha virt. eigenvalues --    0.44896   0.45667   0.46965   0.48706   0.49440
 Alpha virt. eigenvalues --    0.50473   0.52128   0.52433   0.52864   0.54922
 Alpha virt. eigenvalues --    0.56257   0.58388   0.59468   0.60054   0.60921
 Alpha virt. eigenvalues --    0.61933   0.62926   0.64114   0.64701   0.64943
 Alpha virt. eigenvalues --    0.67218   0.67728   0.68397   0.69071   0.69584
 Alpha virt. eigenvalues --    0.70189   0.71405   0.72123   0.72825   0.73351
 Alpha virt. eigenvalues --    0.74860   0.75133   0.76055   0.77556   0.79047
 Alpha virt. eigenvalues --    0.81398   0.82037   0.84534   0.85802   0.90777
 Alpha virt. eigenvalues --    0.93031   0.93586   0.95457   0.96027   0.96984
 Alpha virt. eigenvalues --    0.97937   0.98731   1.00529   1.01844   1.03189
 Alpha virt. eigenvalues --    1.04460   1.06882   1.07244   1.08474   1.10164
 Alpha virt. eigenvalues --    1.11685   1.12527   1.12958   1.13479   1.15084
 Alpha virt. eigenvalues --    1.18417   1.20252   1.21590   1.28081   1.32839
 Alpha virt. eigenvalues --    1.34389   1.35358   1.35979   1.42221   1.42334
 Alpha virt. eigenvalues --    1.42831   1.45050   1.46487   1.50475   1.51744
 Alpha virt. eigenvalues --    1.52045   1.52969   1.54052   1.54622   1.57542
 Alpha virt. eigenvalues --    1.58379   1.59130   1.61973   1.63334   1.64378
 Alpha virt. eigenvalues --    1.64678   1.65524   1.65848   1.67006   1.67439
 Alpha virt. eigenvalues --    1.70105   1.71463   1.74577   1.75283   1.77610
 Alpha virt. eigenvalues --    1.79775   1.80770   1.84215   1.86193   1.87977
 Alpha virt. eigenvalues --    1.88933   1.92342   1.94270   1.94911   1.96680
 Alpha virt. eigenvalues --    1.98528   2.02740   2.04200   2.05076   2.06872
 Alpha virt. eigenvalues --    2.07651   2.09813   2.11133   2.15296   2.16955
 Alpha virt. eigenvalues --    2.18697   2.21045   2.21517   2.22637   2.25761
 Alpha virt. eigenvalues --    2.26559   2.34162   2.35555   2.40819   2.44137
 Alpha virt. eigenvalues --    2.46305   2.48208   2.49681   2.55938   2.56913
 Alpha virt. eigenvalues --    2.58459   2.59240   2.59639   2.60595   2.61176
 Alpha virt. eigenvalues --    2.62003   2.63356   2.64400   2.66872   2.67468
 Alpha virt. eigenvalues --    2.69918   2.70863   2.76485   2.76971   2.79981
 Alpha virt. eigenvalues --    2.80181   2.84313   2.84708   2.86231   2.89773
 Alpha virt. eigenvalues --    2.90512   2.93395   2.94439   2.95942   3.00369
 Alpha virt. eigenvalues --    3.02071   3.07818   3.11676   3.17373   3.24408
 Alpha virt. eigenvalues --    3.24862   3.26853   3.27876   3.31059   3.32939
 Alpha virt. eigenvalues --    3.41324   3.45976   3.47318   3.54051   3.60032
 Alpha virt. eigenvalues --    3.62829   3.66322   3.73279   3.74201   3.84998
 Alpha virt. eigenvalues --    3.85437   3.86512   3.88297   3.92214   3.96067
 Alpha virt. eigenvalues --    4.09079   4.18624   4.21695   4.37677   4.38545
 Alpha virt. eigenvalues --    4.87000   5.08842   5.09758   5.40498   5.50921
 Alpha virt. eigenvalues --    5.69347   5.77120  14.80516  23.68582  24.00719
 Alpha virt. eigenvalues --   24.02695  24.06438  24.06855  24.16574  24.17658
 Alpha virt. eigenvalues --   24.25992  50.01199  50.06037
          Condensed to atoms (all electrons):
               1          2          3          4          5          6
     1  O    7.737738   0.275269   0.082814   0.445754  -0.140317   0.021287
     2  H    0.275269   0.456629   0.054487  -0.004936  -0.034317   0.003035
     3  C    0.082814   0.054487  11.761003   0.231671  -0.256825   0.030875
     4  B    0.445754  -0.004936   0.231671   3.365178   0.366761   0.014771
     5  O   -0.140317  -0.034317  -0.256825   0.366761   7.977686   0.246676
     6  H    0.021287   0.003035   0.030875   0.014771   0.246676   0.434610
     7  C   -0.043969  -0.012513  -4.001259   0.164715   0.182100  -0.143495
     8  H    0.002330  -0.000051   0.091095   0.013080  -0.006806   0.012390
     9  C    0.107870   0.011897   1.398100   0.020501  -0.083200   0.119917
    10  C    0.000459   0.000684  -1.627752   0.020895  -0.026295   0.010575
    11  C   -0.037550  -0.032017  -0.070594  -0.035461   0.105524  -0.028510
    12  C   -0.105409  -0.015918  -0.112186  -0.022699  -0.011626   0.027044
    13  H    0.004658  -0.000562   0.139613  -0.009201   0.002263  -0.000122
    14  H    0.000007   0.000000  -0.007837  -0.000366   0.000006  -0.000003
    15  C   -0.005272  -0.001037  -0.841234  -0.015488   0.001413  -0.000505
    16  H    0.000212   0.000000   0.030894   0.000778  -0.000013   0.000000
    17  H   -0.000053   0.000000   0.020418  -0.000546   0.000005   0.000000
    18  H    0.000001   0.000000   0.007467  -0.000088   0.000002   0.000000
    19  C   -0.000825   0.000068  -0.621068   0.001990   0.006641  -0.000311
    20  H   -0.000013   0.000000   0.042075   0.001105   0.000144   0.000044
    21  H    0.000000   0.000000   0.015527  -0.000523  -0.000028  -0.000003
    22  H    0.000005   0.000000   0.005740  -0.000113  -0.000024   0.000007
               7          8          9         10         11         12
     1  O   -0.043969   0.002330   0.107870   0.000459  -0.037550  -0.105409
     2  H   -0.012513  -0.000051   0.011897   0.000684  -0.032017  -0.015918
     3  C   -4.001259   0.091095   1.398100  -1.627752  -0.070594  -0.112186
     4  B    0.164715   0.013080   0.020501   0.020895  -0.035461  -0.022699
     5  O    0.182100  -0.006806  -0.083200  -0.026295   0.105524  -0.011626
     6  H   -0.143495   0.012390   0.119917   0.010575  -0.028510   0.027044
     7  C   26.884902   0.021178  -8.437588  -2.918106   1.678018  -7.593554
     8  H    0.021178   0.565877   0.151708   0.012146  -0.027821   0.010850
     9  C   -8.437588   0.151708  16.171912  -2.517833   0.698394  -0.353003
    10  C   -2.918106   0.012146  -2.517833  16.536176  -3.656609  -0.496795
    11  C    1.678018  -0.027821   0.698394  -3.656609  15.206697  -6.876478
    12  C   -7.593554   0.010850  -0.353003  -0.496795  -6.876478  22.048741
    13  H    0.016194  -0.000162  -0.013624   0.012693   0.046448   0.122018
    14  H    0.023838  -0.000395   0.106449   0.047914   0.106358   0.014835
    15  C    0.834048  -0.005149  -0.670365   0.726079  -1.354202  -0.266062
    16  H    0.008270  -0.000001  -0.000374  -0.175352  -0.263376   0.310629
    17  H   -0.008291   0.000002   0.020206  -0.075720   0.196053  -0.107532
    18  H    0.011692  -0.000004   0.022838   0.241204  -0.194866  -0.163875
    19  C   -0.007425   0.047412  -1.493240   0.717195  -0.544321   0.379661
    20  H    0.324426   0.000671  -0.274460  -0.190006  -0.000277   0.007122
    21  H   -0.103489   0.000289   0.184929  -0.065437   0.022472  -0.007073
    22  H   -0.176339   0.000181  -0.184771   0.241725   0.022638   0.014597
              13         14         15         16         17         18
     1  O    0.004658   0.000007  -0.005272   0.000212  -0.000053   0.000001
     2  H   -0.000562   0.000000  -0.001037   0.000000   0.000000   0.000000
     3  C    0.139613  -0.007837  -0.841234   0.030894   0.020418   0.007467
     4  B   -0.009201  -0.000366  -0.015488   0.000778  -0.000546  -0.000088
     5  O    0.002263   0.000006   0.001413  -0.000013   0.000005   0.000002
     6  H   -0.000122  -0.000003  -0.000505   0.000000   0.000000   0.000000
     7  C    0.016194   0.023838   0.834048   0.008270  -0.008291   0.011692
     8  H   -0.000162  -0.000395  -0.005149  -0.000001   0.000002  -0.000004
     9  C   -0.013624   0.106449  -0.670365  -0.000374   0.020206   0.022838
    10  C    0.012693   0.047914   0.726079  -0.175352  -0.075720   0.241204
    11  C    0.046448   0.106358  -1.354202  -0.263376   0.196053  -0.194866
    12  C    0.122018   0.014835  -0.266062   0.310629  -0.107532  -0.163875
    13  H    0.486652  -0.000289   0.021005  -0.000034   0.000461   0.000204
    14  H   -0.000289   0.509774   0.025417   0.000317   0.000384  -0.000487
    15  C    0.021005   0.025417   6.967417   0.457805   0.311362   0.437332
    16  H   -0.000034   0.000317   0.457805   0.513451  -0.022497  -0.029987
    17  H    0.000461   0.000384   0.311362  -0.022497   0.490886  -0.026875
    18  H    0.000204  -0.000487   0.437332  -0.029987  -0.026875   0.529718
    19  C   -0.003081   0.019277  -0.033333  -0.001128   0.000319   0.000042
    20  H   -0.000001   0.000326  -0.001067   0.000000   0.000000   0.000000
    21  H    0.000001   0.000376   0.000466   0.000000   0.000002  -0.000021
    22  H   -0.000004  -0.000397  -0.000255   0.000000  -0.000021   0.000036
              19         20         21         22
     1  O   -0.000825  -0.000013   0.000000   0.000005
     2  H    0.000068   0.000000   0.000000   0.000000
     3  C   -0.621068   0.042075   0.015527   0.005740
     4  B    0.001990   0.001105  -0.000523  -0.000113
     5  O    0.006641   0.000144  -0.000028  -0.000024
     6  H   -0.000311   0.000044  -0.000003   0.000007
     7  C   -0.007425   0.324426  -0.103489  -0.176339
     8  H    0.047412   0.000671   0.000289   0.000181
     9  C   -1.493240  -0.274460   0.184929  -0.184771
    10  C    0.717195  -0.190006  -0.065437   0.241725
    11  C   -0.544321  -0.000277   0.022472   0.022638
    12  C    0.379661   0.007122  -0.007073   0.014597
    13  H   -0.003081  -0.000001   0.000001  -0.000004
    14  H    0.019277   0.000326   0.000376  -0.000397
    15  C   -0.033333  -0.001067   0.000466  -0.000255
    16  H   -0.001128   0.000000   0.000000   0.000000
    17  H    0.000319   0.000000   0.000002  -0.000021
    18  H    0.000042   0.000000  -0.000021   0.000036
    19  C    6.926106   0.455991   0.309128   0.439987
    20  H    0.455991   0.522751  -0.023751  -0.029728
    21  H    0.309128  -0.023751   0.491751  -0.026458
    22  H    0.439987  -0.029728  -0.026458   0.524439
 Mulliken charges:
               1
     1  O   -0.344996
     2  H    0.299280
     3  C   -0.373023
     4  B    0.442221
     5  O   -0.329768
     6  H    0.251717
     7  C   -0.703353
     8  H    0.111179
     9  C    1.013735
    10  C   -0.817840
    11  C    1.039478
    12  C   -0.803287
    13  H    0.174867
    14  H    0.154496
    15  C   -0.588377
    16  H    0.170407
    17  H    0.201438
    18  H    0.165667
    19  C   -0.599085
    20  H    0.164646
    21  H    0.201843
    22  H    0.168755
 Sum of Mulliken charges =   0.00000
 Mulliken charges with hydrogens summed into heavy atoms:
               1
     1  O   -0.045716
     3  C   -0.373023
     4  B    0.442221
     5  O   -0.078052
     7  C   -0.592173
     9  C    1.013735
    10  C   -0.663343
    11  C    1.039478
    12  C   -0.628420
    15  C   -0.050865
    19  C   -0.063842
 APT charges:
               1
     1  O   -0.348971
     2  H    2.030304
     3  C   -1.438859
     4  B   -0.454781
     5  O    1.306721
     6  H   -1.229551
     7  C    2.356780
     8  H   -0.181908
     9  C   -4.379354
    10  C   -0.180388
    11  C    2.910047
    12  C   -2.215562
    13  H    1.869913
    14  H   -0.167293
    15  C   -2.612197
    16  H    1.855177
    17  H   -0.282744
    18  H    0.353170
    19  C    0.571186
    20  H   -0.279136
    21  H    0.929692
    22  H   -0.412244
 Sum of APT charges =   0.00000
 APT charges with hydrogens summed into heavy atoms:
               1
     1  O    1.681333
     3  C   -1.438859
     4  B   -0.454781
     5  O    0.077170
     7  C    2.174871
     9  C   -4.379354
    10  C   -0.347681
    11  C    2.910047
    12  C   -0.345649
    15  C   -0.686594
    19  C    0.809498
 Electronic spatial extent (au):  <R**2>=          32689.2118
 Charge=              0.0000 electrons
 Dipole moment (field-independent basis, Debye):
    X=             -1.4204    Y=             -0.7008    Z=              0.1005  Tot=              1.5871
 Quadrupole moment (field-independent basis, Debye-Ang):
   XX=            -77.2465   YY=            -71.5099   ZZ=            -65.3320
   XY=            -13.1553   XZ=             -4.3817   YZ=             -6.5610
 Traceless Quadrupole moment (field-independent basis, Debye-Ang):
   XX=             -5.8837   YY=             -0.1471   ZZ=              6.0308
   XY=            -13.1553   XZ=             -4.3817   YZ=             -6.5610
 Octapole moment (field-independent basis, Debye-Ang**2):
  XXX=          -1137.7540  YYY=          -1444.4359  ZZZ=           -955.5993  XYY=           -462.5517
  XXY=           -566.2210  XXZ=           -346.3336  XZZ=           -377.2394  YZZ=           -524.8654
  YYZ=           -396.1909  XYZ=            -61.7068
 Hexadecapole moment (field-independent basis, Debye-Ang**3):
 XXXX=         -13223.6598 YYYY=         -21242.8175 ZZZZ=          -9700.2728 XXXY=          -8185.2095
 XXXZ=          -5417.8134 YYYX=          -8499.3121 YYYZ=          -7359.5848 ZZZX=          -5549.3823
 ZZZY=          -7034.7247 XXYY=          -6521.2862 XXZZ=          -3896.4883 YYZZ=          -5812.9574
 XXYZ=          -2515.9742 YYXZ=          -2414.1889 ZZXY=          -2928.4341
 N-N= 5.637855157507D+02 E-N=-2.263160165455D+03  KE= 4.849688549596D+02
  Exact polarizability:       0.000       0.000       0.000       0.000       0.000       0.000
 Approx polarizability:     153.786       6.824     142.773      14.645     -24.738     108.672
 Calling FoFJK, ICntrl=    100127 FMM=F ISym2X=0 I1Cent= 0 IOpClX= 0 NMat=1 NMatS=1 NMatT=0.
 -------------------------------------------------------------------
 Center     Atomic                   Forces (Hartrees/Bohr)
 Number     Number              X              Y              Z
 -------------------------------------------------------------------
      1        8           0.000000675   -0.000002581    0.000002022
      2        1          -0.000001430   -0.000002213    0.000001323
      3        6          -0.000000168   -0.000000917    0.000000467
      4        5          -0.000001236   -0.000001366    0.000000818
      5        8          -0.000001801   -0.000001669    0.000001033
      6        1          -0.000002180   -0.000001216    0.000000676
      7        6          -0.000000613    0.000000232   -0.000000021
      8        1          -0.000001664   -0.000000205    0.000000021
      9        6          -0.000001209    0.000001109   -0.000000908
     10        6           0.000000674    0.000000231   -0.000000250
     11        6           0.000001121    0.000000692   -0.000000301
     12        6           0.000001000   -0.000000339    0.000000540
     13        1           0.000000722   -0.000001310    0.000000844
     14        1           0.000000721    0.000001504   -0.000001010
     15        6           0.000002090    0.000000121    0.000000439
     16        1           0.000002495   -0.000000127    0.000000215
     17        1           0.000002681    0.000000353   -0.000000427
     18        1           0.000002310    0.000000995   -0.000000434
     19        6          -0.000000072    0.000001616   -0.000001587
     20        1          -0.000001829    0.000001271   -0.000000996
     21        1          -0.000001492    0.000001925   -0.000000913
     22        1          -0.000000795    0.000001895   -0.000001550
 -------------------------------------------------------------------
 Cartesian Forces:  Max     0.000002681 RMS     0.000001264
 FormGI is forming the generalized inverse of G from B-inverse, IUseBI=4.

 GradGradGradGradGradGradGradGradGradGradGradGradGradGradGradGradGradGrad
 Berny optimization.
 Internal  Forces:  Max     0.000001017 RMS     0.000000168
 Search for a local minimum.
 Step number   1 out of a maximum of  111
 All quantities printed in internal units (Hartrees-Bohrs-Radians)
 Mixed Optimization -- En-DIIS/RFO-DIIS
 Second derivative matrix not updated -- analytic derivatives used.
 ITU=  0
     Eigenvalues ---    0.00010   0.00024   0.00093   0.01084   0.01227
     Eigenvalues ---    0.01487   0.01619   0.01638   0.01969   0.01984
     Eigenvalues ---    0.02253   0.02503   0.02536   0.02632   0.03956
     Eigenvalues ---    0.05652   0.05659   0.05851   0.05857   0.10433
     Eigenvalues ---    0.11269   0.11605   0.12021   0.12136   0.12435
     Eigenvalues ---    0.12536   0.14049   0.14194   0.14581   0.14604
     Eigenvalues ---    0.16014   0.17701   0.18389   0.18665   0.19091
     Eigenvalues ---    0.19386   0.19841   0.20517   0.28227   0.29377
     Eigenvalues ---    0.32173   0.32487   0.33918   0.33935   0.34456
     Eigenvalues ---    0.34491   0.35061   0.35107   0.35278   0.35711
     Eigenvalues ---    0.36205   0.38929   0.42205   0.42952   0.47460
     Eigenvalues ---    0.47553   0.48815   0.51468   0.55214   0.56227
 RFO step:  Lambda= 0.00000000D+00 EMin= 1.03644732D-04
 Linear search not attempted -- first point.
 Iteration  1 RMS(Cart)=  0.00002307 RMS(Int)=  0.00000000
 Iteration  2 RMS(Cart)=  0.00000000 RMS(Int)=  0.00000000
 Variable       Old X    -DE/DX   Delta X   Delta X   Delta X     New X
                                 (Linear)    (Quad)   (Total)
    R1        1.81678   0.00000   0.00000   0.00000   0.00000   1.81678
    R2        2.57649   0.00000   0.00000   0.00000   0.00000   2.57649
    R3        2.95989   0.00000   0.00000   0.00000   0.00000   2.95989
    R4        2.64163   0.00000   0.00000   0.00000   0.00000   2.64163
    R5        2.64234   0.00000   0.00000   0.00000   0.00000   2.64234
    R6        2.58856   0.00000   0.00000   0.00000   0.00000   2.58856
    R7        1.81125   0.00000   0.00000   0.00000   0.00000   1.81125
    R8        2.05692   0.00000   0.00000   0.00000   0.00000   2.05692
    R9        2.63345   0.00000   0.00000   0.00000   0.00000   2.63346
   R10        2.63502   0.00000   0.00000   0.00000   0.00000   2.63502
   R11        2.84847   0.00000   0.00000   0.00000   0.00000   2.84847
   R12        2.63601   0.00000   0.00000   0.00000   0.00000   2.63601
   R13        2.05449   0.00000   0.00000   0.00000   0.00000   2.05449
   R14        2.63290   0.00000   0.00000   0.00000   0.00000   2.63290
   R15        2.84820   0.00000   0.00000   0.00000   0.00000   2.84820
   R16        2.05126   0.00000   0.00000   0.00000   0.00000   2.05126
   R17        2.06110   0.00000   0.00000   0.00000   0.00000   2.06110
   R18        2.06650   0.00000   0.00000   0.00000   0.00000   2.06650
   R19        2.06250   0.00000   0.00000   0.00000   0.00000   2.06250
   R20        2.06192   0.00000   0.00000   0.00000   0.00000   2.06192
   R21        2.06648   0.00000   0.00000   0.00000   0.00000   2.06648
   R22        2.06219   0.00000   0.00000   0.00000   0.00000   2.06219
    A1        1.95418   0.00000   0.00000   0.00000   0.00000   1.95418
    A2        2.13643   0.00000   0.00000   0.00000   0.00000   2.13643
    A3        2.08261   0.00000   0.00000   0.00000   0.00000   2.08261
    A4        2.06415   0.00000   0.00000   0.00000   0.00000   2.06415
    A5        2.06916   0.00000   0.00000   0.00000   0.00000   2.06916
    A6        2.05002   0.00000   0.00000   0.00000   0.00000   2.05002
    A7        2.16400   0.00000   0.00000   0.00000   0.00000   2.16400
    A8        1.99296   0.00000   0.00000   0.00000   0.00000   1.99296
    A9        2.10479   0.00000   0.00000   0.00000   0.00000   2.10479
   A10        2.12502   0.00000   0.00000   0.00000   0.00000   2.12502
   A11        2.05336   0.00000   0.00000   0.00000   0.00000   2.05336
   A12        2.06277   0.00000   0.00000   0.00000   0.00000   2.06277
   A13        2.11469   0.00000   0.00000   0.00000   0.00000   2.11468
   A14        2.10553   0.00000   0.00000   0.00000   0.00000   2.10553
   A15        2.12677   0.00000   0.00000   0.00000   0.00000   2.12678
   A16        2.07727   0.00000   0.00000   0.00000   0.00000   2.07727
   A17        2.07914   0.00000   0.00000   0.00000   0.00000   2.07914
   A18        2.06654   0.00000   0.00000   0.00000   0.00000   2.06654
   A19        2.10391   0.00000   0.00000   0.00000   0.00000   2.10390
   A20        2.11250   0.00000   0.00000   0.00000   0.00000   2.11250
   A21        2.12108   0.00000   0.00000   0.00000   0.00000   2.12108
   A22        2.07354   0.00000   0.00000   0.00000   0.00000   2.07354
   A23        2.08857   0.00000   0.00000   0.00000   0.00000   2.08857
   A24        1.93853   0.00000   0.00000   0.00000   0.00000   1.93853
   A25        1.93027   0.00000   0.00000   0.00000   0.00000   1.93027
   A26        1.94124   0.00000   0.00000   0.00000   0.00000   1.94124
   A27        1.88037   0.00000   0.00000   0.00000   0.00000   1.88037
   A28        1.89195   0.00000   0.00000   0.00000   0.00000   1.89195
   A29        1.87924   0.00000   0.00000   0.00000   0.00000   1.87924
   A30        1.94081   0.00000   0.00000   0.00000   0.00000   1.94082
   A31        1.93186   0.00000   0.00000   0.00000   0.00000   1.93186
   A32        1.94032   0.00000   0.00000   0.00000   0.00000   1.94032
   A33        1.88073   0.00000   0.00000   0.00000   0.00000   1.88073
   A34        1.88900   0.00000   0.00000   0.00000   0.00000   1.88900
   A35        1.87874   0.00000   0.00000   0.00000   0.00000   1.87874
    D1        3.12822   0.00000   0.00000   0.00000   0.00000   3.12822
    D2       -0.01001   0.00000   0.00000   0.00000   0.00000  -0.01001
    D3        3.06471   0.00000   0.00000   0.00001   0.00001   3.06472
    D4       -0.08049   0.00000   0.00000   0.00001   0.00001  -0.08047
    D5       -0.07762   0.00000   0.00000   0.00001   0.00001  -0.07761
    D6        3.06037   0.00000   0.00000   0.00001   0.00001   3.06038
    D7       -0.01293   0.00000   0.00000   0.00000   0.00000  -0.01293
    D8        3.13304   0.00000   0.00000   0.00000   0.00000   3.13304
    D9        3.12939   0.00000   0.00000   0.00000   0.00000   3.12939
   D10       -0.00783   0.00000   0.00000   0.00000   0.00000  -0.00783
   D11       -3.13884   0.00000   0.00000   0.00000   0.00000  -3.13884
   D12        0.00368   0.00000   0.00000   0.00000   0.00000   0.00368
   D13        0.00205   0.00000   0.00000   0.00000   0.00000   0.00204
   D14       -3.13862   0.00000   0.00000   0.00000   0.00000  -3.13862
   D15        3.10605   0.00000   0.00000   0.00000   0.00000   3.10605
   D16       -0.03198   0.00000   0.00000   0.00000   0.00000  -0.03198
   D17        0.00769   0.00000   0.00000   0.00000   0.00000   0.00769
   D18       -3.11260   0.00000   0.00000   0.00000   0.00000  -3.11260
   D19       -3.12965   0.00000   0.00000   0.00000   0.00000  -3.12965
   D20        0.03324   0.00000   0.00000   0.00000   0.00000   0.03324
   D21       -0.00179   0.00000   0.00000   0.00000   0.00000  -0.00179
   D22        3.13879   0.00000   0.00000   0.00000   0.00000   3.13879
   D23        3.11862   0.00000   0.00000   0.00000   0.00000   3.11862
   D24       -0.02398   0.00000   0.00000   0.00000   0.00000  -0.02399
   D25       -0.43827   0.00000   0.00000  -0.00006  -0.00006  -0.43833
   D26        1.65169   0.00000   0.00000  -0.00006  -0.00006   1.65163
   D27       -2.54436   0.00000   0.00000  -0.00006  -0.00006  -2.54442
   D28        2.72514   0.00000   0.00000  -0.00006  -0.00006   2.72509
   D29       -1.46808   0.00000   0.00000  -0.00006  -0.00006  -1.46814
   D30        0.61905   0.00000   0.00000  -0.00006  -0.00006   0.61899
   D31       -0.00371   0.00000   0.00000   0.00000   0.00000  -0.00371
   D32        3.11474   0.00000   0.00000   0.00000   0.00000   3.11474
   D33        3.13890   0.00000   0.00000   0.00000   0.00000   3.13890
   D34       -0.02584   0.00000   0.00000   0.00000   0.00000  -0.02584
   D35        0.00356   0.00000   0.00000   0.00000   0.00000   0.00356
   D36       -3.13897   0.00000   0.00000   0.00000   0.00000  -3.13897
   D37       -3.11477   0.00000   0.00000   0.00000   0.00000  -3.11477
   D38        0.02589   0.00000   0.00000   0.00000   0.00000   0.02588
   D39        2.73289   0.00000   0.00000   0.00004   0.00004   2.73293
   D40       -1.46333   0.00000   0.00000   0.00004   0.00004  -1.46329
   D41        0.62399   0.00000   0.00000   0.00004   0.00004   0.62403
   D42       -0.43246   0.00000   0.00000   0.00004   0.00004  -0.43242
   D43        1.65450   0.00000   0.00000   0.00004   0.00004   1.65454
   D44       -2.54136   0.00000   0.00000   0.00004   0.00004  -2.54132
         Item               Value     Threshold  Converged?
 Maximum Force            0.000001     0.000015     YES
 RMS     Force            0.000000     0.000010     YES
 Maximum Displacement     0.000100     0.000060     NO 
 RMS     Displacement     0.000023     0.000040     YES
 Predicted change in Energy=-6.386714D-12
 GradGradGradGradGradGradGradGradGradGradGradGradGradGradGradGradGradGrad

                          Input orientation:                          
 ---------------------------------------------------------------------
 Center     Atomic      Atomic             Coordinates (Angstroms)
 Number     Number       Type             X           Y           Z
 ---------------------------------------------------------------------
      1          8           0        8.693214    7.464603    5.572375
      2          1           0        9.496408    7.148410    5.995679
      3          6           0        6.250784    6.994338    5.163568
      4          5           0        7.643699    6.617708    5.772871
      5          8           0        7.878020    5.483779    6.504764
      6          1           0        7.102189    4.938169    6.642838
      7          6           0        5.144047    6.144007    5.242115
      8          1           0        5.224614    5.173260    5.727849
      9          6           0        3.908106    6.497223    4.703866
     10          6           0        3.796075    7.732207    4.066222
     11          6           0        4.877562    8.606816    3.960231
     12          6           0        6.096549    8.223853    4.515756
     13          1           0        6.951036    8.889755    4.447262
     14          1           0        2.838700    8.020303    3.639127
     15          6           0        4.732588    9.919788    3.234458
     16          1           0        5.477962   10.639953    3.574129
     17          1           0        4.869041    9.781583    2.158299
     18          1           0        3.741730   10.350076    3.390250
     19          6           0        2.713897    5.585960    4.828564
     20          1           0        3.021891    4.546421    4.951195
     21          1           0        2.108538    5.859156    5.697310
     22          1           0        2.074759    5.650887    3.946436
 ---------------------------------------------------------------------
                    Distance matrix (angstroms):
                    1          2          3          4          5
     1  O    0.000000
     2  H    0.961398   0.000000
     3  C    2.520662   3.354135   0.000000
     4  B    1.363419   1.940056   1.566306   0.000000
     5  O    2.336140   2.376835   2.593933   1.369805   0.000000
     6  H    3.171769   3.322088   2.672258   1.967467   0.958472
     7  C    3.801267   4.529871   1.397891   2.598914   3.082984
     8  H    4.160001   4.713934   2.165124   2.817876   2.782190
     9  C    4.958567   5.772516   2.438563   3.887408   4.475546
    10  C    5.130505   6.046273   2.788228   4.354190   5.259675
    11  C    4.296843   5.253926   2.435948   3.859239   5.023022
    12  C    2.904405   3.860802   1.398268   2.560022   3.825936
    13  H    2.516371   3.450913   2.143841   2.720151   4.085742
    14  H    6.190443   7.116081   3.875415   5.441337   6.327762
    15  C    5.213477   6.164321   3.818985   5.081520   6.345614
    16  H    4.941020   5.848306   4.051429   5.069846   6.398049
    17  H    5.625709   6.562896   4.325458   5.547428   6.812989
    18  H    6.132277   7.082037   4.549834   5.901933   7.105627
    19  C    6.311480   7.057327   3.821691   5.124370   5.430309
    20  H    6.408241   7.055541   4.057481   5.130935   5.184033
    21  H    6.778719   7.505453   4.328016   5.587407   5.837792
    22  H    7.052460   7.843650   4.552522   5.940008   6.344352
                    6          7          8          9         10
     6  H    0.000000
     7  C    2.692654   0.000000
     8  H    2.101846   1.088475   0.000000
     9  C    4.048756   1.393565   2.129463   0.000000
    10  C    5.037458   2.392098   3.368967   1.394391   0.000000
    11  C    5.060071   2.789206   3.877399   2.437873   1.394916
    12  C    4.041225   2.400128   3.396403   2.793908   2.394990
    13  H    4.523100   3.381735   4.293340   3.879366   3.382142
    14  H    6.057983   3.377082   4.261572   2.144078   1.087187
    15  C    6.484488   4.296104   5.384108   3.814825   2.520794
    16  H    6.675734   4.806996   5.881107   4.571977   3.394980
    17  H    6.968263   4.776768   5.839928   4.265013   2.998561
    18  H    7.152674   4.804885   5.870497   4.074033   2.704280
    19  C    4.792528   2.527463   2.698654   1.507343   2.521636
    20  H    4.434405   2.672165   2.418286   2.156891   3.395846
    21  H    5.165151   3.082638   3.190817   2.152325   3.002757
    22  H    5.749226   3.367860   3.650089   2.156651   2.703547
                   11         12         13         14         15
    11  C    0.000000
    12  C    1.393269   0.000000
    13  H    2.148615   1.085479   0.000000
    14  H    2.145708   3.379866   4.280226   0.000000
    15  C    1.507203   2.525532   2.730086   2.712677   0.000000
    16  H    2.154809   2.665868   2.448571   3.719207   1.090686
    17  H    2.151071   3.080731   3.220157   3.068753   1.093543
    18  H    2.157301   3.366417   3.680958   2.511025   1.091430
    19  C    3.815891   4.301007   5.386446   2.712261   5.039678
    20  H    4.573001   4.813173   5.878493   3.717921   5.894638
    21  H    4.270196   4.784568   5.847815   3.072427   5.425866
    22  H    4.073501   4.808229   5.875301   2.508420   5.078827
                   16         17         18         19         20
    16  H    0.000000
    17  H    1.764130   0.000000
    18  H    1.769843   1.764006   0.000000
    19  C    5.895465   5.420168   5.081534   0.000000
    20  H    6.712655   6.214432   6.052862   1.091119   0.000000
    21  H    6.222294   5.960739   5.306431   1.093533   1.764702
    22  H    6.050717   5.297933   5.017022   1.091267   1.768176
                   21         22
    21  H    0.000000
    22  H    1.763540   0.000000
 Symmetry turned off by external request.
 Stoichiometry    C8H11BO2
 Framework group  C1[X(C8H11BO2)]
 Deg. of freedom    60
 Full point group                 C1      NOp   1
 Rotational constants (GHZ):           1.5143251           0.8016124           0.5278054
 Standard basis: 6-311+G(d,p) (5D, 7F)
   308 basis functions,   484 primitive gaussians,   319 cartesian basis functions
    40 alpha electrons       40 beta electrons
       nuclear repulsion energy       563.7855613105 Hartrees.
 NAtoms=   22 NActive=   22 NUniq=   22 SFac= 1.00D+00 NAtFMM=   60 NAOKFM=F Big=F
 Integral buffers will be    131072 words long.
 Raffenetti 2 integral format.
 Two-electron integral symmetry is turned off.
 One-electron integrals computed using PRISM.
 NBasis=   308 RedAO= T EigKep=  1.61D-06  NBF=   308
 NBsUse=   308 1.00D-06 EigRej= -1.00D+00 NBFU=   308
 Initial guess from the checkpoint file:  "3-5-diMe-phboh2-opt-freq-2.chk"
 B after Tr=     0.000025   -0.000009   -0.000013
         Rot=    1.000000    0.000000    0.000001    0.000000 Ang=   0.00 deg.
 Requested convergence on RMS density matrix=1.00D-08 within 128 cycles.
 Requested convergence on MAX density matrix=1.00D-06.
 Requested convergence on             energy=1.00D-06.
 Level shift goal  0.100 maximum shift  0.100.
 No special actions if energy rises.
 Dynamic level shift is on during FON iterations.
 SCF Done:  E(RM062X) =  -486.838224951     A.U. after    5 cycles
            NFock=  5  Conv=0.34D-08     -V/T= 2.0039
 Calling FoFJK, ICntrl=      2127 FMM=F ISym2X=0 I1Cent= 0 IOpClX= 0 NMat=1 NMatS=1 NMatT=0.
 -------------------------------------------------------------------
 Center     Atomic                   Forces (Hartrees/Bohr)
 Number     Number              X              Y              Z
 -------------------------------------------------------------------
      1        8          -0.000000255   -0.000002120    0.000001477
      2        1          -0.000000623   -0.000002613    0.000001795
      3        6          -0.000000368   -0.000000616    0.000000409
      4        5          -0.000000834   -0.000001493    0.000000988
      5        8          -0.000001825   -0.000001675    0.000001032
      6        1          -0.000002209   -0.000001222    0.000000681
      7        6          -0.000000910    0.000000018   -0.000000089
      8        1          -0.000001683   -0.000000059   -0.000000099
      9        6          -0.000000440    0.000000755   -0.000000572
     10        6           0.000000546    0.000000901   -0.000000581
     11        6           0.000001064    0.000000231   -0.000000082
     12        6           0.000000670   -0.000000551    0.000000441
     13        1           0.000001069   -0.000001020    0.000000811
     14        1           0.000000889    0.000001466   -0.000000962
     15        6           0.000002190    0.000000363   -0.000000073
     16        1           0.000002476   -0.000000103    0.000000279
     17        1           0.000002563    0.000000329   -0.000000018
     18        1           0.000002385    0.000000939   -0.000000468
     19        6          -0.000001069    0.000001478   -0.000001138
     20        1          -0.000001726    0.000001291   -0.000001058
     21        1          -0.000001263    0.000001797   -0.000001377
     22        1          -0.000000645    0.000001904   -0.000001395
 -------------------------------------------------------------------
 Cartesian Forces:  Max     0.000002613 RMS     0.000001222

 GradGradGradGradGradGradGradGradGradGradGradGradGradGradGradGradGradGrad
 Berny optimization.
 Using GEDIIS/GDIIS optimizer.
 FormGI is forming the generalized inverse of G from B-inverse, IUseBI=4.
 Internal  Forces:  Max     0.000000029 RMS     0.000000005
 Search for a local minimum.
 Step number   2 out of a maximum of  111
 All quantities printed in internal units (Hartrees-Bohrs-Radians)
 Mixed Optimization -- En-DIIS/RFO-DIIS
 Swapping is turned off.
 Update second derivatives using D2CorX and points    1    2
 DE=  1.41D-11 DEPred=-6.39D-12 R=-2.21D+00
 Trust test=-2.21D+00 RLast= 1.75D-04 DXMaxT set to 1.50D-01
 ITU= -1  0
     Eigenvalues ---    0.00011   0.00024   0.00094   0.01084   0.01227
     Eigenvalues ---    0.01487   0.01619   0.01640   0.01969   0.01983
     Eigenvalues ---    0.02253   0.02504   0.02536   0.02632   0.03956
     Eigenvalues ---    0.05649   0.05660   0.05848   0.05856   0.10434
     Eigenvalues ---    0.11266   0.11609   0.12021   0.12122   0.12437
     Eigenvalues ---    0.12540   0.14051   0.14198   0.14580   0.14606
     Eigenvalues ---    0.16017   0.17734   0.18390   0.18669   0.19072
     Eigenvalues ---    0.19377   0.19870   0.20500   0.28342   0.29393
     Eigenvalues ---    0.32181   0.32403   0.33872   0.33920   0.34464
     Eigenvalues ---    0.34490   0.35046   0.35106   0.35266   0.35682
     Eigenvalues ---    0.36178   0.38929   0.42219   0.42928   0.47422
     Eigenvalues ---    0.47469   0.48813   0.51464   0.54898   0.56224
 En-DIIS/RFO-DIIS/Sim-DIIS IScMMF=       -3 using points:     2    1
 RFO step:  Lambda=-1.00974849D-14.
 DIIS inversion failure, remove point   2.
 Use linear search instead of GDIIS.
 RFO step:  Lambda= 0.00000000D+00 EMin= 1.06923918D-04
 Skip linear search -- no minimum in search direction.
 Iteration  1 RMS(Cart)=  0.00000209 RMS(Int)=  0.00000000
 Iteration  2 RMS(Cart)=  0.00000000 RMS(Int)=  0.00000000
 Variable       Old X    -DE/DX   Delta X   Delta X   Delta X     New X
                                 (Linear)    (Quad)   (Total)
    R1        1.81678   0.00000   0.00000   0.00000   0.00000   1.81678
    R2        2.57649   0.00000   0.00000   0.00000   0.00000   2.57649
    R3        2.95989   0.00000   0.00000   0.00000   0.00000   2.95989
    R4        2.64163   0.00000   0.00000   0.00000   0.00000   2.64163
    R5        2.64234   0.00000   0.00000   0.00000   0.00000   2.64234
    R6        2.58856   0.00000   0.00000   0.00000   0.00000   2.58856
    R7        1.81125   0.00000   0.00000   0.00000   0.00000   1.81125
    R8        2.05692   0.00000   0.00000   0.00000   0.00000   2.05692
    R9        2.63346   0.00000   0.00000   0.00000   0.00000   2.63346
   R10        2.63502   0.00000   0.00000   0.00000   0.00000   2.63502
   R11        2.84847   0.00000   0.00000   0.00000   0.00000   2.84847
   R12        2.63601   0.00000   0.00000   0.00000   0.00000   2.63601
   R13        2.05449   0.00000   0.00000   0.00000   0.00000   2.05449
   R14        2.63290   0.00000   0.00000   0.00000   0.00000   2.63290
   R15        2.84820   0.00000   0.00000   0.00000   0.00000   2.84820
   R16        2.05126   0.00000   0.00000   0.00000   0.00000   2.05126
   R17        2.06110   0.00000   0.00000   0.00000   0.00000   2.06110
   R18        2.06650   0.00000   0.00000   0.00000   0.00000   2.06650
   R19        2.06250   0.00000   0.00000   0.00000   0.00000   2.06250
   R20        2.06192   0.00000   0.00000   0.00000   0.00000   2.06192
   R21        2.06648   0.00000   0.00000   0.00000   0.00000   2.06648
   R22        2.06219   0.00000   0.00000   0.00000   0.00000   2.06219
    A1        1.95418   0.00000   0.00000   0.00000   0.00000   1.95418
    A2        2.13643   0.00000   0.00000   0.00000   0.00000   2.13643
    A3        2.08261   0.00000   0.00000   0.00000   0.00000   2.08261
    A4        2.06415   0.00000   0.00000   0.00000   0.00000   2.06415
    A5        2.06916   0.00000   0.00000   0.00000   0.00000   2.06916
    A6        2.05002   0.00000   0.00000   0.00000   0.00000   2.05002
    A7        2.16400   0.00000   0.00000   0.00000   0.00000   2.16400
    A8        1.99296   0.00000   0.00000   0.00000   0.00000   1.99296
    A9        2.10479   0.00000   0.00000   0.00000   0.00000   2.10479
   A10        2.12502   0.00000   0.00000   0.00000   0.00000   2.12502
   A11        2.05336   0.00000   0.00000   0.00000   0.00000   2.05336
   A12        2.06277   0.00000   0.00000   0.00000   0.00000   2.06277
   A13        2.11468   0.00000   0.00000   0.00000   0.00000   2.11468
   A14        2.10553   0.00000   0.00000   0.00000   0.00000   2.10553
   A15        2.12678   0.00000   0.00000   0.00000   0.00000   2.12678
   A16        2.07727   0.00000   0.00000   0.00000   0.00000   2.07727
   A17        2.07914   0.00000   0.00000   0.00000   0.00000   2.07914
   A18        2.06654   0.00000   0.00000   0.00000   0.00000   2.06654
   A19        2.10390   0.00000   0.00000   0.00000   0.00000   2.10390
   A20        2.11250   0.00000   0.00000   0.00000   0.00000   2.11250
   A21        2.12108   0.00000   0.00000   0.00000   0.00000   2.12108
   A22        2.07354   0.00000   0.00000   0.00000   0.00000   2.07354
   A23        2.08857   0.00000   0.00000   0.00000   0.00000   2.08857
   A24        1.93853   0.00000   0.00000   0.00000   0.00000   1.93853
   A25        1.93027   0.00000   0.00000   0.00000   0.00000   1.93027
   A26        1.94124   0.00000   0.00000   0.00000   0.00000   1.94124
   A27        1.88037   0.00000   0.00000   0.00000   0.00000   1.88037
   A28        1.89195   0.00000   0.00000   0.00000   0.00000   1.89195
   A29        1.87924   0.00000   0.00000   0.00000   0.00000   1.87924
   A30        1.94082   0.00000   0.00000   0.00000   0.00000   1.94082
   A31        1.93186   0.00000   0.00000   0.00000   0.00000   1.93186
   A32        1.94032   0.00000   0.00000   0.00000   0.00000   1.94032
   A33        1.88073   0.00000   0.00000   0.00000   0.00000   1.88073
   A34        1.88900   0.00000   0.00000   0.00000   0.00000   1.88900
   A35        1.87874   0.00000   0.00000   0.00000   0.00000   1.87874
    D1        3.12822   0.00000   0.00000   0.00000   0.00000   3.12822
    D2       -0.01001   0.00000   0.00000   0.00000   0.00000  -0.01001
    D3        3.06472   0.00000   0.00000   0.00000   0.00000   3.06472
    D4       -0.08047   0.00000   0.00000   0.00000   0.00000  -0.08048
    D5       -0.07761   0.00000   0.00000   0.00000   0.00000  -0.07761
    D6        3.06038   0.00000   0.00000   0.00000   0.00000   3.06038
    D7       -0.01293   0.00000   0.00000   0.00000   0.00000  -0.01293
    D8        3.13304   0.00000   0.00000   0.00000   0.00000   3.13304
    D9        3.12939   0.00000   0.00000   0.00000   0.00000   3.12939
   D10       -0.00783   0.00000   0.00000   0.00000   0.00000  -0.00783
   D11       -3.13884   0.00000   0.00000   0.00000   0.00000  -3.13884
   D12        0.00368   0.00000   0.00000   0.00000   0.00000   0.00368
   D13        0.00204   0.00000   0.00000   0.00000   0.00000   0.00204
   D14       -3.13862   0.00000   0.00000   0.00000   0.00000  -3.13862
   D15        3.10605   0.00000   0.00000   0.00000   0.00000   3.10605
   D16       -0.03198   0.00000   0.00000   0.00000   0.00000  -0.03198
   D17        0.00769   0.00000   0.00000   0.00000   0.00000   0.00769
   D18       -3.11260   0.00000   0.00000   0.00000   0.00000  -3.11260
   D19       -3.12965   0.00000   0.00000   0.00000   0.00000  -3.12965
   D20        0.03324   0.00000   0.00000   0.00000   0.00000   0.03324
   D21       -0.00179   0.00000   0.00000   0.00000   0.00000  -0.00179
   D22        3.13879   0.00000   0.00000   0.00000   0.00000   3.13879
   D23        3.11862   0.00000   0.00000   0.00000   0.00000   3.11862
   D24       -0.02399   0.00000   0.00000   0.00000   0.00000  -0.02399
   D25       -0.43833   0.00000   0.00000   0.00000   0.00000  -0.43832
   D26        1.65163   0.00000   0.00000   0.00000   0.00000   1.65164
   D27       -2.54442   0.00000   0.00000   0.00000   0.00000  -2.54442
   D28        2.72509   0.00000   0.00000   0.00000   0.00000   2.72509
   D29       -1.46814   0.00000   0.00000   0.00000   0.00000  -1.46814
   D30        0.61899   0.00000   0.00000   0.00000   0.00000   0.61900
   D31       -0.00371   0.00000   0.00000   0.00000   0.00000  -0.00371
   D32        3.11474   0.00000   0.00000   0.00000   0.00000   3.11474
   D33        3.13890   0.00000   0.00000   0.00000   0.00000   3.13890
   D34       -0.02584   0.00000   0.00000   0.00000   0.00000  -0.02584
   D35        0.00356   0.00000   0.00000   0.00000   0.00000   0.00356
   D36       -3.13897   0.00000   0.00000   0.00000   0.00000  -3.13897
   D37       -3.11477   0.00000   0.00000   0.00000   0.00000  -3.11477
   D38        0.02588   0.00000   0.00000   0.00000   0.00000   0.02588
   D39        2.73293   0.00000   0.00000   0.00000   0.00000   2.73293
   D40       -1.46329   0.00000   0.00000   0.00000   0.00000  -1.46330
   D41        0.62403   0.00000   0.00000   0.00000   0.00000   0.62402
   D42       -0.43242   0.00000   0.00000   0.00000   0.00000  -0.43242
   D43        1.65454   0.00000   0.00000   0.00000   0.00000   1.65454
   D44       -2.54132   0.00000   0.00000   0.00000   0.00000  -2.54133
         Item               Value     Threshold  Converged?
 Maximum Force            0.000000     0.000015     YES
 RMS     Force            0.000000     0.000010     YES
 Maximum Displacement     0.000009     0.000060     YES
 RMS     Displacement     0.000002     0.000040     YES
 Predicted change in Energy=-2.602865D-14
 Optimization completed.
    -- Stationary point found.
                           ----------------------------
                           !   Optimized Parameters   !
                           ! (Angstroms and Degrees)  !
 --------------------------                            --------------------------
 ! Name  Definition              Value          Derivative Info.                !
 --------------------------------------------------------------------------------
 ! R1    R(1,2)                  0.9614         -DE/DX =    0.0                 !
 ! R2    R(1,4)                  1.3634         -DE/DX =    0.0                 !
 ! R3    R(3,4)                  1.5663         -DE/DX =    0.0                 !
 ! R4    R(3,7)                  1.3979         -DE/DX =    0.0                 !
 ! R5    R(3,12)                 1.3983         -DE/DX =    0.0                 !
 ! R6    R(4,5)                  1.3698         -DE/DX =    0.0                 !
 ! R7    R(5,6)                  0.9585         -DE/DX =    0.0                 !
 ! R8    R(7,8)                  1.0885         -DE/DX =    0.0                 !
 ! R9    R(7,9)                  1.3936         -DE/DX =    0.0                 !
 ! R10   R(9,10)                 1.3944         -DE/DX =    0.0                 !
 ! R11   R(9,19)                 1.5073         -DE/DX =    0.0                 !
 ! R12   R(10,11)                1.3949         -DE/DX =    0.0                 !
 ! R13   R(10,14)                1.0872         -DE/DX =    0.0                 !
 ! R14   R(11,12)                1.3933         -DE/DX =    0.0                 !
 ! R15   R(11,15)                1.5072         -DE/DX =    0.0                 !
 ! R16   R(12,13)                1.0855         -DE/DX =    0.0                 !
 ! R17   R(15,16)                1.0907         -DE/DX =    0.0                 !
 ! R18   R(15,17)                1.0935         -DE/DX =    0.0                 !
 ! R19   R(15,18)                1.0914         -DE/DX =    0.0                 !
 ! R20   R(19,20)                1.0911         -DE/DX =    0.0                 !
 ! R21   R(19,21)                1.0935         -DE/DX =    0.0                 !
 ! R22   R(19,22)                1.0913         -DE/DX =    0.0                 !
 ! A1    A(2,1,4)              111.9661         -DE/DX =    0.0                 !
 ! A2    A(4,3,7)              122.4082         -DE/DX =    0.0                 !
 ! A3    A(4,3,12)             119.3245         -DE/DX =    0.0                 !
 ! A4    A(7,3,12)             118.2672         -DE/DX =    0.0                 !
 ! A5    A(1,4,3)              118.554          -DE/DX =    0.0                 !
 ! A6    A(1,4,5)              117.4573         -DE/DX =    0.0                 !
 ! A7    A(3,4,5)              123.9883         -DE/DX =    0.0                 !
 ! A8    A(4,5,6)              114.188          -DE/DX =    0.0                 !
 ! A9    A(3,7,8)              120.5957         -DE/DX =    0.0                 !
 ! A10   A(3,7,9)              121.7549         -DE/DX =    0.0                 !
 ! A11   A(8,7,9)              117.649          -DE/DX =    0.0                 !
 ! A12   A(7,9,10)             118.188          -DE/DX =    0.0                 !
 ! A13   A(7,9,19)             121.1625         -DE/DX =    0.0                 !
 ! A14   A(10,9,19)            120.6381         -DE/DX =    0.0                 !
 ! A15   A(9,10,11)            121.8552         -DE/DX =    0.0                 !
 ! A16   A(9,10,14)            119.0186         -DE/DX =    0.0                 !
 ! A17   A(11,10,14)           119.1262         -DE/DX =    0.0                 !
 ! A18   A(10,11,12)           118.4041         -DE/DX =    0.0                 !
 ! A19   A(10,11,15)           120.5448         -DE/DX =    0.0                 !
 ! A20   A(12,11,15)           121.0375         -DE/DX =    0.0                 !
 ! A21   A(3,12,11)            121.5287         -DE/DX =    0.0                 !
 ! A22   A(3,12,13)            118.805          -DE/DX =    0.0                 !
 ! A23   A(11,12,13)           119.6663         -DE/DX =    0.0                 !
 ! A24   A(11,15,16)           111.0694         -DE/DX =    0.0                 !
 ! A25   A(11,15,17)           110.5964         -DE/DX =    0.0                 !
 ! A26   A(11,15,18)           111.2247         -DE/DX =    0.0                 !
 ! A27   A(16,15,17)           107.7372         -DE/DX =    0.0                 !
 ! A28   A(16,15,18)           108.4007         -DE/DX =    0.0                 !
 ! A29   A(17,15,18)           107.6727         -DE/DX =    0.0                 !
 ! A30   A(9,19,20)            111.2006         -DE/DX =    0.0                 !
 ! A31   A(9,19,21)            110.6874         -DE/DX =    0.0                 !
 ! A32   A(9,19,22)            111.1723         -DE/DX =    0.0                 !
 ! A33   A(20,19,21)           107.7577         -DE/DX =    0.0                 !
 ! A34   A(20,19,22)           108.2316         -DE/DX =    0.0                 !
 ! A35   A(21,19,22)           107.6438         -DE/DX =    0.0                 !
 ! D1    D(2,1,4,3)            179.2338         -DE/DX =    0.0                 !
 ! D2    D(2,1,4,5)             -0.5734         -DE/DX =    0.0                 !
 ! D3    D(7,3,4,1)            175.5954         -DE/DX =    0.0                 !
 ! D4    D(7,3,4,5)             -4.6108         -DE/DX =    0.0                 !
 ! D5    D(12,3,4,1)            -4.4466         -DE/DX =    0.0                 !
 ! D6    D(12,3,4,5)           175.3471         -DE/DX =    0.0                 !
 ! D7    D(4,3,7,8)             -0.7407         -DE/DX =    0.0                 !
 ! D8    D(4,3,7,9)            179.5098         -DE/DX =    0.0                 !
 ! D9    D(12,3,7,8)           179.301          -DE/DX =    0.0                 !
 ! D10   D(12,3,7,9)            -0.4485         -DE/DX =    0.0                 !
 ! D11   D(4,3,12,11)         -179.8425         -DE/DX =    0.0                 !
 ! D12   D(4,3,12,13)            0.2108         -DE/DX =    0.0                 !
 ! D13   D(7,3,12,11)            0.1171         -DE/DX =    0.0                 !
 ! D14   D(7,3,12,13)         -179.8295         -DE/DX =    0.0                 !
 ! D15   D(1,4,5,6)            177.9635         -DE/DX =    0.0                 !
 ! D16   D(3,4,5,6)             -1.8323         -DE/DX =    0.0                 !
 ! D17   D(3,7,9,10)             0.4409         -DE/DX =    0.0                 !
 ! D18   D(3,7,9,19)          -178.3387         -DE/DX =    0.0                 !
 ! D19   D(8,7,9,10)          -179.3157         -DE/DX =    0.0                 !
 ! D20   D(8,7,9,19)             1.9047         -DE/DX =    0.0                 !
 ! D21   D(7,9,10,11)           -0.1024         -DE/DX =    0.0                 !
 ! D22   D(7,9,10,14)          179.8395         -DE/DX =    0.0                 !
 ! D23   D(19,9,10,11)         178.6838         -DE/DX =    0.0                 !
 ! D24   D(19,9,10,14)          -1.3743         -DE/DX =    0.0                 !
 ! D25   D(7,9,19,20)          -25.1143         -DE/DX =    0.0                 !
 ! D26   D(7,9,19,21)           94.6315         -DE/DX =    0.0                 !
 ! D27   D(7,9,19,22)         -145.7845         -DE/DX =    0.0                 !
 ! D28   D(10,9,19,20)         156.136          -DE/DX =    0.0                 !
 ! D29   D(10,9,19,21)         -84.1183         -DE/DX =    0.0                 !
 ! D30   D(10,9,19,22)          35.4658         -DE/DX =    0.0                 !
 ! D31   D(9,10,11,12)          -0.2125         -DE/DX =    0.0                 !
 ! D32   D(9,10,11,15)         178.4616         -DE/DX =    0.0                 !
 ! D33   D(14,10,11,12)        179.8456         -DE/DX =    0.0                 !
 ! D34   D(14,10,11,15)         -1.4803         -DE/DX =    0.0                 !
 ! D35   D(10,11,12,3)           0.2041         -DE/DX =    0.0                 !
 ! D36   D(10,11,12,13)       -179.8497         -DE/DX =    0.0                 !
 ! D37   D(15,11,12,3)        -178.4632         -DE/DX =    0.0                 !
 ! D38   D(15,11,12,13)          1.4831         -DE/DX =    0.0                 !
 ! D39   D(10,11,15,16)        156.5855         -DE/DX =    0.0                 !
 ! D40   D(10,11,15,17)        -83.8404         -DE/DX =    0.0                 !
 ! D41   D(10,11,15,18)         35.7542         -DE/DX =    0.0                 !
 ! D42   D(12,11,15,16)        -24.7757         -DE/DX =    0.0                 !
 ! D43   D(12,11,15,17)         94.7984         -DE/DX =    0.0                 !
 ! D44   D(12,11,15,18)       -145.607          -DE/DX =    0.0                 !
 --------------------------------------------------------------------------------
 GradGradGradGradGradGradGradGradGradGradGradGradGradGradGradGradGradGrad

                          Input orientation:                          
 ---------------------------------------------------------------------
 Center     Atomic      Atomic             Coordinates (Angstroms)
 Number     Number       Type             X           Y           Z
 ---------------------------------------------------------------------
      1          8           0        8.693214    7.464603    5.572375
      2          1           0        9.496408    7.148410    5.995679
      3          6           0        6.250784    6.994338    5.163568
      4          5           0        7.643699    6.617708    5.772871
      5          8           0        7.878020    5.483779    6.504764
[...]
 052662,0.00359754,-0.13227554,0.03146745,0.09283744,0.59946935,0.00054
 975,0.00098230,-0.00060819,0.00041628,0.00009730,-0.00017861,-0.036173
 59,0.09738089,-0.12249292,-0.00509072,0.00793850,-0.00334466,-0.000968
 04,0.00036460,0.00091205,0.00005416,-0.00010075,0.00008855,0.04174511,
 0.01856233,0.01089530,-0.00148128,0.00178371,0.00625135,-0.02204148,0.
 02408908,-0.02540563,-0.02057241,-0.03576745,0.01921056,-0.06550424,0.
 05255695,-0.11645868,0.11664854,-0.19619731,0.27401893,-0.00117811,0.0
 0055869,-0.00057412,-0.00002468,-0.00000454,0.00004552,0.00603338,0.00
 250524,0.00009735,0.00031537,0.00113181,0.00038618,0.00005043,-0.00044
 749,0.00014340,0.00002382,0.00000055,0.00002487,0.00194298,0.00081353,
 -0.00202996,0.00031345,0.00025859,-0.00013730,-0.00030671,0.00108201,-
 0.00032129,-0.00302885,0.00154907,-0.00380488,-0.01618108,-0.01772931,
 0.00233513,-0.23119512,-0.13806001,0.00961062,0.24313745,0.00044993,0.
 00078671,-0.00038381,0.00020714,0.00034538,-0.00017666,-0.02140514,-0.
 01333580,0.00107272,-0.00214045,-0.00248324,-0.00070929,0.00041986,0.0
 0065080,0.00000233,-0.00014358,0.00005979,-0.00012903,0.00112436,-0.00
 254961,0.00518198,-0.00118126,-0.00078684,0.00016903,0.00060985,-0.000
 50088,0.00001848,0.00160786,0.00155364,0.00310984,0.00748036,0.0071275
 1,0.00088002,-0.13773441,-0.15974981,0.01728865,0.14885095,0.16775426,
 -0.00038423,-0.00029853,-0.00008112,-0.00004812,-0.00024189,-0.0001373
 9,0.01161751,0.00797193,0.00115551,0.00203697,0.00018253,-0.00242452,-
 0.00036287,-0.00008524,0.00045880,0.00007620,-0.00007697,0.00001829,-0
 .00216639,0.00506954,0.00424632,0.00053610,0.00061274,0.00027657,-0.00
 026932,0.00001187,-0.00093606,-0.00356561,0.00326935,0.00418182,-0.009
 93381,-0.00725836,0.00526566,0.00921544,0.01722650,-0.04498320,-0.0075
 3421,-0.02401309,0.03647135,-0.00016744,0.00003223,-0.00008378,0.00003
 405,0.00002573,0.00000143,0.00022217,-0.00039362,0.00066492,0.00003883
 ,-0.00004432,0.00029366,-0.00009330,0.00011783,-0.00012049,0.00003892,
 -0.00004687,0.00003781,0.00223871,-0.00041287,-0.00123709,-0.00002531,
 0.00004577,0.00002172,-0.00064696,-0.00110686,-0.00116301,-0.26967002,
 0.06174849,-0.09943430,-0.01761524,0.00914161,-0.01083902,-0.00184047,
 -0.00477898,-0.00026649,-0.00091845,0.00042866,-0.00053277,0.28635006,
 0.00005930,0.00013388,-0.00001783,0.00000409,0.00000779,-0.00000724,-0
 .00044161,-0.00106570,-0.00023999,0.00001115,-0.00041431,-0.00021153,0
 .00009392,0.00016521,-0.00002048,-0.00014615,0.00004093,-0.00008089,-0
 .00078409,-0.00346232,0.00491470,0.00141090,-0.00040916,0.00061847,0.0
 2437406,-0.00297409,0.01100295,0.06187914,-0.07408543,0.03550781,-0.01
 673389,0.00810329,-0.00680899,-0.00439428,-0.00091522,0.00263352,-0.00
 084808,0.00042751,-0.00049820,-0.06537638,0.07390118,-0.00007330,-0.00
 001066,0.00006276,0.00000850,0.00000342,-0.00000676,0.00060170,-0.0003
 8735,-0.00095644,0.00027600,-0.00024625,-0.00065910,-0.00010493,0.0000
 0422,0.00001460,0.00006943,-0.00001007,0.00007556,-0.00079846,0.004908
 38,0.00431490,-0.00067959,0.00026197,-0.00028439,-0.01409600,0.0028308
 6,-0.00133862,-0.09925323,0.03603184,-0.08583076,0.00179955,0.00031763
 ,0.00493841,-0.00074266,0.00258059,0.00555746,0.00017464,-0.00007664,-
 0.00002033,0.11007719,-0.04319100,0.07933004,-0.00020383,-0.00018598,-
 0.00004247,0.00000973,0.00002043,-0.00000252,-0.00363584,-0.00050893,-
 0.00423127,0.00065279,0.00086516,-0.00014748,-0.00049620,0.00030136,-0
 .00029006,-0.00003547,-0.00009524,0.00004777,-0.00058815,0.00001681,0.
 00005974,0.00010391,0.00014107,0.00025817,-0.00387277,-0.00258829,-0.0
 0036283,0.00604643,-0.02263050,0.01297087,-0.08852967,0.00919572,-0.01
 023129,0.00059608,0.02628514,-0.01578486,0.00045482,0.00167535,0.00132
 479,0.00068250,-0.00080761,0.00052533,0.58734628,-0.00018980,-0.000126
 72,-0.00004767,0.00001741,0.00003331,0.00001611,-0.00079141,0.00241026
 ,0.00144320,0.00027168,0.00006569,0.00021420,-0.00006677,0.00001258,-0
 .00013222,0.00001767,-0.00001871,0.00002200,0.00062869,-0.00050545,-0.
 00006554,0.00009870,-0.00012822,-0.00021071,-0.00334959,0.00229610,0.0
 0108024,-0.00048244,-0.02224156,0.01366298,0.00997051,-0.19026937,0.06
 482166,0.00373518,-0.00958991,0.00862451,-0.00119205,0.00062533,-0.001
 86279,0.00186455,0.00068622,-0.00109291,0.01260512,0.51822192,-0.00017
 239,-0.00014685,0.00000857,0.00000518,0.00003080,0.00003480,-0.0022086
 7,0.00101413,0.00591473,0.00034993,0.00032185,-0.00007552,-0.00015720,
 -0.00008152,-0.00014540,0.00008773,-0.00004403,0.00005321,-0.00047652,
 0.00091839,-0.00133338,0.00027127,-0.00042850,-0.00077455,-0.00193500,
 -0.00004725,0.00668431,0.00109026,0.00621096,0.00192851,-0.01002501,0.
 06063537,-0.10525195,-0.00374963,0.01494246,-0.00335801,0.00135814,-0.
 00153109,-0.00267464,0.00076411,-0.00184570,-0.00252094,0.00484793,0.0
 2845085,0.52775118,0.00008504,0.00002297,0.00003991,-0.00001222,-0.000
 00740,-0.00000652,0.00016020,-0.00013755,0.00071474,-0.00018114,0.0000
 2067,-0.00011156,0.00006328,-0.00007629,0.00007720,-0.00000204,0.00001
 721,-0.00001955,0.00004421,0.00018901,-0.00005146,0.00005626,-0.000087
 35,-0.00007241,0.00020578,-0.00003408,-0.00014076,0.00030140,-0.000017
 01,-0.00067282,0.00171089,0.00268867,0.00276870,0.00047491,0.00174941,
 -0.00051466,0.00019825,-0.00019124,-0.00037474,0.00036903,0.00024517,0
 .00004056,-0.17699234,-0.12262653,-0.06021600,0.18806454,0.00016754,0.
 00016112,-0.00003133,-0.00000108,-0.00000547,0.00000525,0.00006558,-0.
 00008708,0.00039251,-0.00034556,-0.00019365,-0.00002713,0.00008241,0.0
 0006037,-0.00000628,-0.00004023,0.00001596,-0.00002704,0.00047878,-0.0
 0000402,0.00007307,0.00010684,-0.00000829,-0.00002348,-0.00162687,0.00
 039412,0.00021325,0.00208452,-0.00435377,0.00275891,-0.01988925,-0.018
 34241,-0.00933704,-0.00209754,0.00178833,-0.00071202,0.00122454,-0.000
 09716,0.00007174,0.00004549,-0.00009424,-0.00022926,-0.12044852,-0.163
 69053,-0.05661652,0.13353382,0.17834039,0.00006661,0.00000695,-0.00002
 973,-0.00001423,-0.00000567,0.00001104,0.00008341,-0.00027116,0.000005
 01,-0.00008944,-0.00002445,-0.00003046,0.00003661,-0.00002186,0.000028
 48,-0.00000274,0.00001333,-0.00000288,0.00031953,0.00000433,0.00015404
 ,-0.00002236,0.00000008,-0.00000256,0.00057331,0.00072285,-0.00043090,
 -0.00115447,0.00265782,-0.00082058,0.01327396,0.01263693,0.00421629,0.
 00077023,-0.00000691,0.00032407,-0.00027580,-0.00019680,0.00021143,-0.
 00003519,0.00007533,-0.00002936,-0.06150069,-0.05915180,-0.07309828,0.
 06690657,0.05937266,0.07812730,-0.00008063,-0.00001757,0.00004488,0.00
 000374,0.00000389,-0.00000924,-0.00062104,-0.00079575,0.00087700,0.000
 07361,-0.00000636,-0.00007472,-0.00002185,-0.00002418,0.00001355,0.000
 01173,0.00000173,0.00000356,0.00113242,0.00028169,0.00023311,0.0000184
 1,-0.00001212,-0.00003662,-0.00071715,0.00084762,-0.00086913,0.0000506
 0,-0.00188129,0.00047090,0.00040353,-0.00047063,-0.00396816,-0.0007532
 5,0.00189570,-0.00061749,-0.00000470,-0.00016724,-0.00036232,-0.000190
 36,0.00000276,0.00017345,-0.04949653,0.00434873,0.03310888,0.00351014,
 -0.00241357,-0.02310838,0.04962664,0.00016483,0.00007117,0.00000391,-0
 .00001158,-0.00001706,-0.00000301,0.00021102,-0.00087979,-0.00090188,-
 0.00028125,-0.00010663,-0.00000262,0.00013444,-0.00002742,0.00008556,-
 0.00005729,0.00004484,-0.00003803,0.00038990,-0.00036224,0.00042701,-0
 .00002874,0.00004884,0.00008738,0.00028561,-0.00029144,-0.00127817,0.0
 0085741,-0.00071470,0.00010752,-0.00361318,0.00267926,0.03107129,-0.00
 070981,-0.00081770,-0.00017150,0.00011072,0.00026505,0.00038910,-0.000
 50527,0.00023490,0.00029517,0.00391277,-0.04926304,-0.03524712,0.00425
 709,-0.00319653,-0.02068170,-0.00565101,0.05489312,-0.00019359,-0.0000
 4338,0.00002281,0.00002124,0.00001063,-0.00000946,-0.00042428,0.000613
 02,0.00052449,0.00032341,0.00002698,0.00004777,-0.00012713,0.00007391,
 -0.00008162,0.00003378,-0.00004084,0.00002654,0.00031381,-0.00005971,0
 .00000195,0.00005118,-0.00003631,-0.00015440,-0.00050535,0.00103208,0.
 00020480,-0.00118919,-0.00046068,0.00063154,0.00107547,0.00142303,-0.0
 1393929,0.00076958,0.00090436,0.00029948,0.00011451,-0.00018473,-0.000
 54840,0.00028324,-0.00012736,-0.00054175,0.03366948,-0.03877794,-0.302
 75391,0.00158160,-0.00139048,-0.00928122,-0.03626185,0.03788193,0.3293
 7872,-0.00009427,0.00002598,-0.00005494,0.00001904,0.00000478,0.000005
 63,-0.00026102,-0.00041117,-0.00006761,0.00015405,-0.00008626,0.000148
 84,-0.00007069,0.00011808,-0.00011583,0.00000575,-0.00002170,0.0000286
 2,0.00060790,-0.00005078,0.00020351,0.00000026,0.00011703,0.00012974,0
 .00003835,0.00046000,-0.00095193,0.00041353,-0.00212532,0.00051754,-0.
 00167063,0.00015262,-0.00115458,0.00017410,0.00125609,-0.00009742,0.00
 034921,0.00000262,0.00026268,0.00015980,0.00045916,0.00051153,-0.27221
 949,0.09489802,0.03697113,-0.01803540,0.00893868,0.00417571,-0.0029278
 4,0.00056146,0.00044732,0.29332633,0.00016893,0.00007377,0.00001817,-0
 .00001628,-0.00001682,0.00000531,0.00082163,0.00066509,0.00092294,-0.0
 0030779,-0.00020523,0.00002625,0.00020104,-0.00011257,0.00009957,-0.00
 001969,0.00005121,-0.00003897,-0.00019019,-0.00024048,-0.00005243,-0.0
 0006580,-0.00001527,-0.00005470,0.00007766,0.00008825,0.00029866,0.001
 37698,0.00176676,0.00050626,0.02610856,-0.01096965,-0.00464786,-0.0010
 5884,-0.00428411,0.00181210,0.00019868,-0.00010401,-0.00016895,-0.0008
 7917,-0.00044546,-0.00036440,0.09344221,-0.08813234,-0.01622525,-0.019
 55125,0.00967393,0.00471119,0.00408886,-0.00255895,-0.00088126,-0.1043
 6489,0.09472796,-0.00007773,-0.00002560,-0.00000321,0.00000396,0.00000
 896,-0.00000377,-0.00047541,0.00043760,-0.00100223,0.00019565,0.000102
 08,-0.00005580,-0.00011472,0.00008951,-0.00006431,-0.00000777,-0.00002
 197,0.00001663,-0.00031830,-0.00016989,0.00004315,0.00000921,0.0000527
 0,0.00004957,0.00008772,-0.00024028,-0.00024106,-0.00041021,-0.0007839
 7,0.00044036,-0.01735591,0.00760998,0.00043419,0.00034928,0.00278835,-
 0.00058123,0.00011700,0.00014564,0.00020332,0.00016316,-0.00011066,0.0
 0041745,0.03841526,-0.01720639,-0.05033441,-0.00999004,0.00537300,0.00
 080918,0.03033613,-0.01211504,-0.00380297,-0.04096204,0.01407325,0.053
 67557,-0.00034360,0.00009284,-0.00010212,-0.00004114,-0.00002636,0.000
 00396,-0.00077056,0.00186758,-0.00274451,-0.00011219,-0.00073416,0.000
 32995,-0.00003101,0.00018204,-0.00010794,-0.00005208,-0.00005963,-0.00
 000331,-0.02596701,-0.01977857,0.00143002,0.00084111,-0.00068343,0.001
 54018,-0.17135978,-0.06549316,0.00487081,0.00273240,-0.00431611,0.0010
 6088,0.00274767,0.00214190,-0.00347926,-0.00142065,-0.00006373,-0.0002
 7211,-0.00001658,0.00010607,0.00037482,0.00031610,0.00195922,0.0011107
 0,0.00048144,0.00030299,0.00017031,-0.00000725,0.00021428,-0.00007241,
 -0.00002090,0.00000999,-0.00004490,-0.00002902,0.00000011,0.00003227,0
 .52212694,0.00040442,-0.00006221,0.00004610,0.00003518,0.00001530,-0.0
 0001877,0.00232175,0.00057026,0.00261470,-0.00026694,0.00075967,-0.000
 18562,0.00014709,-0.00034054,0.00016828,0.00001109,0.00018402,-0.00004
 044,0.00227786,0.00707591,-0.00104130,0.00201688,0.00022047,-0.0002884
 7,-0.06885438,-0.13557435,0.01373028,-0.02729034,-0.01925987,0.0046242
 1,0.00167627,-0.00131567,0.00513887,0.00005331,-0.00033724,-0.00033278
 ,-0.00003105,-0.00005851,-0.00027724,-0.00038848,0.00054453,-0.0023029
 1,-0.00094177,-0.00034340,-0.00025850,0.00002290,-0.00029966,0.0001214
 7,-0.00000587,0.00000364,0.00002045,0.00003109,0.00005341,-0.00002389,
 -0.03878516,0.55300291,-0.00018330,-0.00009857,-0.00015854,-0.00005066
 ,-0.00003440,-0.00004478,-0.00441688,0.00358592,0.00455021,-0.00018244
 ,-0.00019517,0.00024840,-0.00002821,0.00002521,0.00005261,0.00003139,-
 0.00001109,-0.00000652,-0.01098560,-0.00770451,0.00592379,0.00089303,-
 0.00229504,-0.00285372,0.00303485,0.01197892,-0.07496369,0.01236310,0.
 01040554,0.00244190,-0.00288728,0.00324666,0.00342539,0.00084068,0.000
 10546,-0.00061409,0.00019160,-0.00043626,-0.00063942,0.00111504,-0.000
 77680,-0.00209310,0.00040176,0.00022779,0.00005326,0.00002141,0.000119
 51,-0.00015357,0.00005014,0.00004539,-0.00001765,-0.00000080,-0.000015
 25,0.00001351,0.02136700,-0.00784531,0.55610256,0.00008168,0.00004729,
 -0.00000878,-0.00000299,-0.00000507,-0.00000522,0.00027733,0.00000997,
 -0.00000641,-0.00008512,-0.00004934,0.00004199,0.00004203,0.00004637,0
 .00001387,-0.00005171,0.00000378,-0.00006180,0.00120371,-0.00095009,0.
 00099634,-0.00032936,0.00049215,-0.00033543,0.00794114,-0.02693870,0.0
 0325256,-0.00418734,-0.00203084,-0.00044418,0.00022966,-0.00074891,0.0
 0114335,0.00000622,-0.00010222,-0.00006423,-0.00001598,0.00006438,0.00
 001564,0.00005848,-0.00029563,-0.00000918,-0.00029869,-0.00009374,-0.0
 0005345,0.00000579,-0.00008340,0.00004297,-0.00000298,-0.00000219,0.00
 001368,0.00001899,0.00001297,-0.00000740,-0.07062806,0.07783955,-0.010
 85833,0.07706556,-0.00011090,0.00005098,-0.00004605,0.00000851,-0.0000
 1042,0.00000400,-0.00076746,-0.00002887,0.00033357,0.00027420,-0.00033
 195,0.00020098,-0.00006154,0.00024355,-0.00012321,-0.00005632,-0.00007
 582,0.00000092,0.00254012,0.00120806,0.00098178,-0.00069176,0.00040829
 ,-0.00092717,0.00605788,-0.01776001,0.00276133,-0.00380648,-0.00156823
 ,-0.00059764,0.00089798,-0.00012773,0.00096787,-0.00030271,0.00036067,
 -0.00030820,-0.00002278,0.00001049,-0.00012897,0.00004075,0.00011071,-
 0.00027002,-0.00026094,-0.00009761,-0.00011162,-0.00001458,-0.00009485
 ,0.00003884,-0.00000343,0.00000203,0.00001685,0.00001205,0.00002382,-0
 .00000299,0.07464324,-0.29206170,0.02829803,-0.08057552,0.31710390,0.0
 0004390,0.00003034,-0.00001814,-0.00000654,0.00000160,0.00001059,0.000
 21534,-0.00025222,-0.00027117,-0.00006208,-0.00006422,0.00002918,0.000
 03565,0.00001272,-0.00005222,-0.00005787,0.00000118,0.00004009,-0.0005
 0877,-0.00070145,0.00030909,-0.00028222,0.00003826,0.00034540,-0.00008
 502,0.00414161,-0.00270227,0.00044667,0.00066622,0.00092680,0.00044733
 ,0.00043378,0.00006863,-0.00032142,0.00010963,-0.00014430,0.00001036,0
 .00004344,0.00006903,0.00015043,-0.00026296,0.00009805,0.00007059,-0.0
 0001686,-0.00006594,0.00001344,0.00001528,-0.00001258,-0.00001011,0.00
 003593,-0.00001820,-0.00000507,-0.00001151,-0.00000243,-0.01044415,0.0
 2761096,-0.04951360,0.00963349,-0.03199686,0.04892657,-0.00017735,0.00
 002267,-0.00005726,0.00000223,0.00000635,0.00002080,0.00018551,-0.0004
 1258,-0.00140218,0.00021608,-0.00022688,0.00021703,-0.00009715,0.00014
 401,-0.00019714,0.00000079,-0.00004605,0.00010645,-0.00059184,-0.00187
 128,0.00004927,-0.00038136,0.00049498,0.00058741,-0.01658240,0.0044688
 8,0.01999706,0.00025838,0.00130478,-0.00103015,-0.00089844,-0.00074838
 ,-0.00106534,0.00014913,-0.00044568,0.00041610,-0.00001944,0.00006382,
 0.00015617,-0.00001595,0.00009966,0.00054969,-0.00003338,0.00001802,-0
 .00003020,-0.00002241,-0.00000338,0.00002734,0.00001168,-0.00000870,0.
 00002280,0.00002720,-0.00000894,0.00001199,-0.12346284,0.03961021,0.11
 740454,-0.00561803,0.00216167,0.00738856,0.13558677,-0.00012212,0.0000
 0867,-0.00001406,0.00000991,0.00000615,0.00000657,-0.00034047,-0.00113
 376,-0.00014026,0.00011686,-0.00017403,0.00005348,-0.00005033,0.000080
 17,-0.00002739,0.00002910,-0.00003225,-0.00000551,0.00108708,-0.000077
 12,0.00038475,-0.00005703,0.00017535,-0.00004808,-0.01274985,0.0052944
 7,0.01757231,-0.00131740,-0.00103250,-0.00042335,0.00129325,-0.0000891
 3,-0.00078073,-0.00094017,0.00048390,-0.00040571,0.00001697,0.00002692
 ,0.00002025,0.00018185,-0.00002126,0.00051786,-0.00003058,0.00001316,0
 .00004955,-0.00001366,0.00000679,0.00001538,-0.00001710,-0.00001667,-0
 .00000072,0.00001069,-0.00000334,0.00001884,0.03761528,-0.06314413,-0.
 05410821,0.01607393,-0.00722801,-0.02586164,-0.03886666,0.06695926,0.0
 0009350,0.00003072,0.00000902,-0.00001204,-0.00000323,-0.00000145,0.00
 059059,0.00066364,-0.00029165,-0.00014584,0.00006683,-0.00003396,0.000
 03742,-0.00003067,0.00002085,-0.00001866,0.00001252,-0.00001120,-0.001
 31996,-0.00016136,-0.00034032,0.00000798,0.00007109,-0.00008420,0.0012
 1245,0.00144442,0.00049548,0.00068926,0.00048051,0.00069784,-0.0004537
 9,0.00022364,0.00020182,0.00019490,-0.00052698,0.00024588,0.00002747,-
 0.00001776,-0.00005808,0.00016243,-0.00002472,-0.00046001,0.00004232,0
 .00000281,-0.00001207,-0.00000031,0.00001746,-0.00000324,-0.00000037,0
 .00000895,-0.00000085,-0.00000879,0.00001246,-0.00000771,0.11519456,-0
 .05609505,-0.21521856,-0.00331505,0.00086503,0.00384510,-0.12790138,0.
 06059539,0.23165172,-0.00027028,-0.00003805,-0.00005953,-0.00000264,-0
 .00000886,-0.00000947,-0.00113656,0.00086542,0.00022028,0.00017369,-0.
 00021194,0.00020606,-0.00012584,0.00009900,-0.00008911,0.00005975,-0.0
 0005562,0.00006084,-0.00261306,-0.00416498,0.00044659,0.00024146,-0.00
 025452,-0.00019179,-0.01751469,0.00244399,-0.02072434,0.00111455,0.002
 45634,-0.00018849,-0.00059198,0.00011973,0.00058795,0.00025016,-0.0001
 1254,0.00000844,0.00007055,-0.00012790,-0.00008193,0.00067485,-0.00077
 080,-0.00016091,0.00002838,0.00001508,-0.00000080,0.00000308,0.0000069
 1,-0.00000056,-0.00000523,-0.00002619,0.00002518,0.00001384,-0.0000347
 8,-0.00000210,-0.13498299,0.01011640,-0.12812102,-0.00571034,0.0000380
 4,-0.00667250,0.01146277,-0.00192955,0.01492331,0.14886053,-0.00007642
 ,0.00003360,-0.00006079,-0.00001239,-0.00000909,-0.00000518,-0.0005193
 2,0.00065933,0.00014323,-0.00005667,-0.00020311,0.00014197,-0.00001757
 ,0.00008800,-0.00006127,-0.00002639,-0.00004192,0.00002077,-0.00160607
 ,-0.00225492,0.00093914,-0.00026200,0.00016838,-0.00027264,-0.01066480
 ,0.00097128,-0.01711795,-0.00105609,0.00109335,-0.00029435,0.00020221,
 0.00017983,-0.00018897,-0.00016088,-0.00013654,-0.00011870,0.00003397,
 0.00003247,0.00008466,0.00025988,-0.00046896,0.00042952,0.00003723,0.0
 0004231,0.00000958,0.00001001,0.00002667,-0.00001681,-0.00000486,0.000
 00931,0.00000019,0.00001180,-0.00003597,0.00000078,0.01080478,-0.04963
 283,0.01548218,0.01728527,-0.00013730,0.02602677,-0.00575652,-0.000102
 62,-0.00763571,-0.00842518,0.04971872,-0.00006052,-0.00002802,0.000014
 72,0.00001682,0.00000804,0.00000480,0.00062315,0.00050932,-0.00015634,
 0.00013637,0.00003819,-0.00006435,-0.00005998,0.00000212,0.00000484,0.
 00004138,-0.00001813,0.00000267,0.00017717,0.00013720,0.00017147,0.000
 15557,-0.00000189,0.00003258,0.00409969,-0.00009954,0.00436846,0.00074
 243,0.00102230,0.00050784,-0.00061994,-0.00025903,0.00023826,0.0003872
 7,-0.00043928,0.00036589,0.00004077,-0.00005695,-0.00005495,-0.0000230
 1,-0.00052842,-0.00006765,-0.00004055,-0.00000152,-0.00002956,0.000006
 70,-0.00001206,0.00000851,0.00000678,-0.00000006,0.00001163,0.00001677
 ,-0.00002559,-0.00000380,-0.13021477,0.01463495,-0.22653440,0.00001558
 ,0.00004352,-0.00186768,-0.01527155,0.00258127,-0.02064440,0.13982390,
 -0.01750642,0.24369147\\0.00000026,0.00000212,-0.00000148,0.00000062,0
 .00000261,-0.00000179,0.00000036,0.00000062,-0.00000041,0.00000083,0.0
 0000149,-0.00000099,0.00000182,0.00000168,-0.00000103,0.00000221,0.000
 00123,-0.00000068,0.00000090,0.,0.00000008,0.00000168,0.00000006,0.000
 00010,0.00000046,-0.00000077,0.00000058,-0.00000055,-0.00000091,0.0000
 0058,-0.00000108,-0.00000021,0.00000007,-0.00000065,0.00000053,-0.0000
 0043,-0.00000107,0.00000102,-0.00000081,-0.00000089,-0.00000146,0.0000
 0096,-0.00000219,-0.00000037,0.00000007,-0.00000248,0.00000010,-0.0000
 0028,-0.00000256,-0.00000033,0.00000002,-0.00000239,-0.00000094,0.0000
 0047,0.00000107,-0.00000148,0.00000114,0.00000173,-0.00000129,0.000001
 06,0.00000126,-0.00000180,0.00000138,0.00000064,-0.00000190,0.00000139
 \\\@
 The archive entry for this job was punched.


 NO MATTER HOW THIN YOU SLICE IT, IT'S STILL BALONEY

                                   -- ALFRED E. SMITH
 Job cpu time:       0 days  1 hours 14 minutes 52.5 seconds.
 Elapsed time:       0 days  0 hours  2 minutes 23.3 seconds.
 File lengths (MBytes):  RWF=    192 Int=      0 D2E=      0 Chk=     10 Scr=      1
 Normal termination of Gaussian 16 at Tue May  6 17:14:36 2025.
