/home/tahminaafroz
cn020.cluster.local
tahminaafroz
Tue May  6 08:32:30 CDT 2025
 Entering Gaussian System, Link 0=g16
 Initial command:
 /home/apps/g16/l1.exe "/tmp/2-6-diisopropyl-phboh2-opt-freq-2/Gau-1634370.inp" -scrdir="/tmp/2-6-diisopropyl-phboh2-opt-freq-2/"
 Entering Link 1 = /home/apps/g16/l1.exe PID=   1634371.
  
 Copyright (c) 1988-2019, Gaussian, Inc.  All Rights Reserved.
  
 This is part of the Gaussian(R) 16 program.  It is based on
 the Gaussian(R) 09 system (copyright 2009, Gaussian, Inc.),
 the Gaussian(R) 03 system (copyright 2003, Gaussian, Inc.),
 the Gaussian(R) 98 system (copyright 1998, Gaussian, Inc.),
 the Gaussian(R) 94 system (copyright 1995, Gaussian, Inc.),
 the Gaussian 92(TM) system (copyright 1992, Gaussian, Inc.),
 the Gaussian 90(TM) system (copyright 1990, Gaussian, Inc.),
 the Gaussian 88(TM) system (copyright 1988, Gaussian, Inc.),
 the Gaussian 86(TM) system (copyright 1986, Carnegie Mellon
 University), and the Gaussian 82(TM) system (copyright 1983,
 Carnegie Mellon University). Gaussian is a federally registered
 trademark of Gaussian, Inc.
  
 This software contains proprietary and confidential information,
 including trade secrets, belonging to Gaussian, Inc.
  
 This software is provided under written license and may be
 used, copied, transmitted, or stored only in accord with that
 written license.
  
 The following legend is applicable only to US Government
 contracts under FAR:
  
                    RESTRICTED RIGHTS LEGEND
  
 Use, reproduction and disclosure by the US Government is
 subject to restrictions as set forth in subparagraphs (a)
 and (c) of the Commercial Computer Software - Restricted
 Rights clause in FAR 52.227-19.
  
 Gaussian, Inc.
 340 Quinnipiac St., Bldg. 40, Wallingford CT 06492
  
  
 ---------------------------------------------------------------
 Warning -- This program may not be used in any manner that
 competes with the business of Gaussian, Inc. or will provide
 assistance to any competitor of Gaussian, Inc.  The licensee
 of this program is prohibited from giving any competitor of
 Gaussian, Inc. access to this program.  By using this program,
 the user acknowledges that Gaussian, Inc. is engaged in the
 business of creating and licensing software in the field of
 computational chemistry and represents and warrants to the
 licensee that it is not a competitor of Gaussian, Inc. and that
 it will not use this program in any manner prohibited above.
 ---------------------------------------------------------------
  

 Cite this work as:
 Gaussian 16, Revision C.01,
 M. J. Frisch, G. W. Trucks, H. B. Schlegel, G. E. Scuseria, 
 M. A. Robb, J. R. Cheeseman, G. Scalmani, V. Barone, 
 G. A. Petersson, H. Nakatsuji, X. Li, M. Caricato, A. V. Marenich, 
 J. Bloino, B. G. Janesko, R. Gomperts, B. Mennucci, H. P. Hratchian, 
 J. V. Ortiz, A. F. Izmaylov, J. L. Sonnenberg, D. Williams-Young, 
 F. Ding, F. Lipparini, F. Egidi, J. Goings, B. Peng, A. Petrone, 
 T. Henderson, D. Ranasinghe, V. G. Zakrzewski, J. Gao, N. Rega, 
 G. Zheng, W. Liang, M. Hada, M. Ehara, K. Toyota, R. Fukuda, 
 J. Hasegawa, M. Ishida, T. Nakajima, Y. Honda, O. Kitao, H. Nakai, 
 T. Vreven, K. Throssell, J. A. Montgomery, Jr., J. E. Peralta, 
 F. Ogliaro, M. J. Bearpark, J. J. Heyd, E. N. Brothers, K. N. Kudin, 
 V. N. Staroverov, T. A. Keith, R. Kobayashi, J. Normand, 
 K. Raghavachari, A. P. Rendell, J. C. Burant, S. S. Iyengar, 
 J. Tomasi, M. Cossi, J. M. Millam, M. Klene, C. Adamo, R. Cammi, 
 J. W. Ochterski, R. L. Martin, K. Morokuma, O. Farkas, 
 J. B. Foresman, and D. J. Fox, Gaussian, Inc., Wallingford CT, 2019.
 
 ******************************************
 Gaussian 16:  AS64L-G16RevC.01  3-Jul-2019
                 6-May-2025 
 ******************************************
 %mem=20GB
 %nprocshared=32
 Will use up to   32 processors via shared memory.
 %chk=2-6-diisopropyl-phboh2-opt-freq-2.chk
 ----------------------------------------------------------------------
 # opt=(calcfc,tight) freq 6-311+g(d,p) nosymm scf=(qc,fermi,xqc) geom=
 connectivity int=ultrafine m062x
 ----------------------------------------------------------------------
 1/7=10,10=4,18=20,19=15,26=4,38=1,57=2/1,3;
 2/9=110,12=2,15=1,17=6,18=5,40=1/2;
 3/5=4,6=6,7=111,11=2,25=1,30=1,71=2,74=-55,75=-5,140=1/1,2,3;
 4//1;
 5/5=2,22=13,38=5/2;
 8/6=4,10=90,11=11/1;
 11/6=1,8=1,9=11,15=111,16=1,31=1/1,2,10;
 10/6=1,13=1,31=1/2;
 6/7=2,8=2,9=2,10=2,28=1/1;
 7/10=1,25=1,30=1/1,2,3,16;
 1/7=10,10=4,18=20,19=15,26=4/3(2);
 2/9=110,15=1/2;
 99//99;
 2/9=110,15=1/2;
 3/5=4,6=6,7=111,11=2,25=1,30=1,71=1,74=-55,75=-5/1,2,3;
 4/5=5,16=3,69=1/1;
 5/5=2,22=13,38=5/2;
 7/30=1/1,2,3,16;
 1/7=10,18=20,19=15,26=4/3(-5);
 2/9=110,15=1/2;
 6/7=2,8=2,9=2,10=2,19=2,28=1/1;
 99/9=1/99;
 ---------------------------------
 2-6-diisopropyl-phboh2-opt-freq-2
 ---------------------------------
 Symbolic Z-matrix:
 Charge =  0 Multiplicity = 1
 O                     8.34936   7.49701   6.58147 
 H                     9.17939   7.15726   6.93181 
 C                     6.31145   6.90648   5.15963 
 B                     7.68991   6.56216   5.84253 
 O                     8.27519   5.3273    5.72074 
 H                     7.75873   4.72715   5.17814 
 C                     5.11068   6.49597   5.75823 
 C                     3.89841   6.77507   5.12298 
 H                     2.96375   6.46236   5.57681 
 C                     3.87804   7.4525    3.91295 
 C                     5.0679    7.86484   3.32195 
 H                     5.03484   8.39614   2.37785 
 C                     6.29082   7.59882   3.93409 
 H                     2.93245   7.66303   3.42631 
 C                     7.59165   8.10418   3.32962 
 H                     8.40014   7.45226   3.68309 
 C                     5.10708   5.76355   7.09101 
 H                     6.14312   5.67095   7.43504 
 C                     7.8826    9.52305   3.83811 
 H                     8.8317    9.8892    3.43747 
 H                     7.08911   10.20365   3.51621 
 H                     7.9324    9.54182   4.92799 
 C                     7.6145    8.06272   1.79999 
 H                     6.93332   8.80206   1.37156 
 H                     8.61699   8.29781   1.43548 
 H                     7.33138   7.0783    1.42106 
 C                     4.53968   4.3466    6.95028 
 H                     5.0953    3.76935   6.20735 
 H                     4.58705   3.81607   7.90444 
 H                     3.49382   4.37781   6.63362 
 C                     4.34508   6.55461   8.16005 
 H                     3.28892   6.65046   7.89514 
 H                     4.4037    6.04681   9.12594 
 H                     4.75886   7.55881   8.26973 
 

 GradGradGradGradGradGradGradGradGradGradGradGradGradGradGradGradGradGrad
 Berny optimization.
 Initialization pass.
                           ----------------------------
                           !    Initial Parameters    !
                           ! (Angstroms and Degrees)  !
 --------------------------                            --------------------------
 ! Name  Definition              Value          Derivative Info.                !
 --------------------------------------------------------------------------------
 ! R1    R(1,2)                  0.9629         calculate D2E/DX2 analytically  !
 ! R2    R(1,4)                  1.3619         calculate D2E/DX2 analytically  !
 ! R3    R(3,4)                  1.5764         calculate D2E/DX2 analytically  !
 ! R4    R(3,7)                  1.4031         calculate D2E/DX2 analytically  !
 ! R5    R(3,13)                 1.4077         calculate D2E/DX2 analytically  !
 ! R6    R(4,5)                  1.372          calculate D2E/DX2 analytically  !
 ! R7    R(5,6)                  0.9599         calculate D2E/DX2 analytically  !
 ! R8    R(7,8)                  1.3968         calculate D2E/DX2 analytically  !
 ! R9    R(7,17)                 1.5208         calculate D2E/DX2 analytically  !
 ! R10   R(8,9)                  1.0851         calculate D2E/DX2 analytically  !
 ! R11   R(8,10)                 1.3869         calculate D2E/DX2 analytically  !
 ! R12   R(10,11)                1.3911         calculate D2E/DX2 analytically  !
 ! R13   R(10,14)                1.0841         calculate D2E/DX2 analytically  !
 ! R14   R(11,12)                1.0838         calculate D2E/DX2 analytically  !
 ! R15   R(11,13)                1.3932         calculate D2E/DX2 analytically  !
 ! R16   R(13,15)                1.5208         calculate D2E/DX2 analytically  !
 ! R17   R(15,16)                1.0971         calculate D2E/DX2 analytically  !
 ! R18   R(15,19)                1.5351         calculate D2E/DX2 analytically  !
 ! R19   R(15,23)                1.5304         calculate D2E/DX2 analytically  !
 ! R20   R(17,18)                1.0956         calculate D2E/DX2 analytically  !
 ! R21   R(17,27)                1.5328         calculate D2E/DX2 analytically  !
 ! R22   R(17,31)                1.5327         calculate D2E/DX2 analytically  !
 ! R23   R(19,20)                1.0933         calculate D2E/DX2 analytically  !
 ! R24   R(19,21)                1.0938         calculate D2E/DX2 analytically  !
 ! R25   R(19,22)                1.0912         calculate D2E/DX2 analytically  !
 ! R26   R(23,24)                1.0928         calculate D2E/DX2 analytically  !
 ! R27   R(23,25)                1.0923         calculate D2E/DX2 analytically  !
 ! R28   R(23,26)                1.0922         calculate D2E/DX2 analytically  !
 ! R29   R(27,28)                1.0926         calculate D2E/DX2 analytically  !
 ! R30   R(27,29)                1.0928         calculate D2E/DX2 analytically  !
 ! R31   R(27,30)                1.0932         calculate D2E/DX2 analytically  !
 ! R32   R(31,32)                1.0931         calculate D2E/DX2 analytically  !
 ! R33   R(31,33)                1.0928         calculate D2E/DX2 analytically  !
 ! R34   R(31,34)                1.0916         calculate D2E/DX2 analytically  !
 ! A1    A(2,1,4)              111.8769         calculate D2E/DX2 analytically  !
 ! A2    A(4,3,7)              119.9742         calculate D2E/DX2 analytically  !
 ! A3    A(4,3,13)             119.8264         calculate D2E/DX2 analytically  !
 ! A4    A(7,3,13)             120.1832         calculate D2E/DX2 analytically  !
 ! A5    A(1,4,3)              120.5647         calculate D2E/DX2 analytically  !
 ! A6    A(1,4,5)              117.3501         calculate D2E/DX2 analytically  !
 ! A7    A(3,4,5)              122.085          calculate D2E/DX2 analytically  !
 ! A8    A(4,5,6)              112.545          calculate D2E/DX2 analytically  !
 ! A9    A(3,7,8)              119.3571         calculate D2E/DX2 analytically  !
 ! A10   A(3,7,17)             121.1198         calculate D2E/DX2 analytically  !
 ! A11   A(8,7,17)             119.5211         calculate D2E/DX2 analytically  !
 ! A12   A(7,8,9)              119.9867         calculate D2E/DX2 analytically  !
 ! A13   A(7,8,10)             120.4734         calculate D2E/DX2 analytically  !
 ! A14   A(9,8,10)             119.5399         calculate D2E/DX2 analytically  !
 ! A15   A(8,10,11)            120.1915         calculate D2E/DX2 analytically  !
 ! A16   A(8,10,14)            119.9541         calculate D2E/DX2 analytically  !
 ! A17   A(11,10,14)           119.8543         calculate D2E/DX2 analytically  !
 ! A18   A(10,11,12)           119.2938         calculate D2E/DX2 analytically  !
 ! A19   A(10,11,13)           120.5002         calculate D2E/DX2 analytically  !
 ! A20   A(12,11,13)           120.206          calculate D2E/DX2 analytically  !
 ! A21   A(3,13,11)            119.2934         calculate D2E/DX2 analytically  !
 ! A22   A(3,13,15)            119.7958         calculate D2E/DX2 analytically  !
 ! A23   A(11,13,15)           120.8448         calculate D2E/DX2 analytically  !
 ! A24   A(13,15,16)           107.7472         calculate D2E/DX2 analytically  !
 ! A25   A(13,15,19)           109.7305         calculate D2E/DX2 analytically  !
 ! A26   A(13,15,23)           113.643          calculate D2E/DX2 analytically  !
 ! A27   A(16,15,19)           107.629          calculate D2E/DX2 analytically  !
 ! A28   A(16,15,23)           107.1537         calculate D2E/DX2 analytically  !
 ! A29   A(19,15,23)           110.6899         calculate D2E/DX2 analytically  !
 ! A30   A(7,17,18)            108.2796         calculate D2E/DX2 analytically  !
 ! A31   A(7,17,27)            111.4461         calculate D2E/DX2 analytically  !
 ! A32   A(7,17,31)            111.3378         calculate D2E/DX2 analytically  !
 ! A33   A(18,17,27)           107.5025         calculate D2E/DX2 analytically  !
 ! A34   A(18,17,31)           107.142          calculate D2E/DX2 analytically  !
 ! A35   A(27,17,31)           110.9228         calculate D2E/DX2 analytically  !
 ! A36   A(15,19,20)           110.6519         calculate D2E/DX2 analytically  !
 ! A37   A(15,19,21)           109.8853         calculate D2E/DX2 analytically  !
 ! A38   A(15,19,22)           110.8181         calculate D2E/DX2 analytically  !
 ! A39   A(20,19,21)           108.2712         calculate D2E/DX2 analytically  !
 ! A40   A(20,19,22)           108.7015         calculate D2E/DX2 analytically  !
 ! A41   A(21,19,22)           108.4419         calculate D2E/DX2 analytically  !
 ! A42   A(15,23,24)           111.36           calculate D2E/DX2 analytically  !
 ! A43   A(15,23,25)           109.9634         calculate D2E/DX2 analytically  !
 ! A44   A(15,23,26)           111.5516         calculate D2E/DX2 analytically  !
 ! A45   A(24,23,25)           107.1962         calculate D2E/DX2 analytically  !
 ! A46   A(24,23,26)           108.1922         calculate D2E/DX2 analytically  !
 ! A47   A(25,23,26)           108.4288         calculate D2E/DX2 analytically  !
 ! A48   A(17,27,28)           111.258          calculate D2E/DX2 analytically  !
 ! A49   A(17,27,29)           110.6459         calculate D2E/DX2 analytically  !
 ! A50   A(17,27,30)           110.7531         calculate D2E/DX2 analytically  !
 ! A51   A(28,27,29)           108.3705         calculate D2E/DX2 analytically  !
 ! A52   A(28,27,30)           107.7349         calculate D2E/DX2 analytically  !
 ! A53   A(29,27,30)           107.9545         calculate D2E/DX2 analytically  !
 ! A54   A(17,31,32)           110.8906         calculate D2E/DX2 analytically  !
 ! A55   A(17,31,33)           110.4857         calculate D2E/DX2 analytically  !
 ! A56   A(17,31,34)           110.8797         calculate D2E/DX2 analytically  !
 ! A57   A(32,31,33)           107.8653         calculate D2E/DX2 analytically  !
 ! A58   A(32,31,34)           108.0548         calculate D2E/DX2 analytically  !
 ! A59   A(33,31,34)           108.5612         calculate D2E/DX2 analytically  !
 ! D1    D(2,1,4,3)           -179.4103         calculate D2E/DX2 analytically  !
 ! D2    D(2,1,4,5)              0.4506         calculate D2E/DX2 analytically  !
 ! D3    D(7,3,4,1)           -100.0123         calculate D2E/DX2 analytically  !
 ! D4    D(7,3,4,5)             80.1336         calculate D2E/DX2 analytically  !
 ! D5    D(13,3,4,1)            81.4488         calculate D2E/DX2 analytically  !
 ! D6    D(13,3,4,5)           -98.4053         calculate D2E/DX2 analytically  !
 ! D7    D(4,3,7,8)           -178.2075         calculate D2E/DX2 analytically  !
 ! D8    D(4,3,7,17)             2.3103         calculate D2E/DX2 analytically  !
 ! D9    D(13,3,7,8)             0.3261         calculate D2E/DX2 analytically  !
 ! D10   D(13,3,7,17)         -179.1561         calculate D2E/DX2 analytically  !
 ! D11   D(4,3,13,11)          178.2344         calculate D2E/DX2 analytically  !
 ! D12   D(4,3,13,15)           -4.6935         calculate D2E/DX2 analytically  !
 ! D13   D(7,3,13,11)           -0.3014         calculate D2E/DX2 analytically  !
 ! D14   D(7,3,13,15)          176.7707         calculate D2E/DX2 analytically  !
 ! D15   D(1,4,5,6)           -179.2785         calculate D2E/DX2 analytically  !
 ! D16   D(3,4,5,6)              0.58           calculate D2E/DX2 analytically  !
 ! D17   D(3,7,8,9)           -179.9972         calculate D2E/DX2 analytically  !
 ! D18   D(3,7,8,10)            -0.0707         calculate D2E/DX2 analytically  !
 ! D19   D(17,7,8,9)            -0.5067         calculate D2E/DX2 analytically  !
 ! D20   D(17,7,8,10)          179.4198         calculate D2E/DX2 analytically  !
 ! D21   D(3,7,17,18)            1.2496         calculate D2E/DX2 analytically  !
 ! D22   D(3,7,17,27)         -116.788          calculate D2E/DX2 analytically  !
 ! D23   D(3,7,17,31)          118.7843         calculate D2E/DX2 analytically  !
 ! D24   D(8,7,17,18)         -178.2317         calculate D2E/DX2 analytically  !
 ! D25   D(8,7,17,27)           63.7307         calculate D2E/DX2 analytically  !
 ! D26   D(8,7,17,31)          -60.6969         calculate D2E/DX2 analytically  !
 ! D27   D(7,8,10,11)           -0.2093         calculate D2E/DX2 analytically  !
 ! D28   D(7,8,10,14)          179.8828         calculate D2E/DX2 analytically  !
 ! D29   D(9,8,10,11)          179.7175         calculate D2E/DX2 analytically  !
 ! D30   D(9,8,10,14)           -0.1904         calculate D2E/DX2 analytically  !
 ! D31   D(8,10,11,12)        -179.7932         calculate D2E/DX2 analytically  !
 ! D32   D(8,10,11,13)           0.2344         calculate D2E/DX2 analytically  !
 ! D33   D(14,10,11,12)          0.1148         calculate D2E/DX2 analytically  !
 ! D34   D(14,10,11,13)       -179.8576         calculate D2E/DX2 analytically  !
 ! D35   D(10,11,13,3)           0.0209         calculate D2E/DX2 analytically  !
 ! D36   D(10,11,13,15)       -177.0196         calculate D2E/DX2 analytically  !
 ! D37   D(12,11,13,3)        -179.9512         calculate D2E/DX2 analytically  !
 ! D38   D(12,11,13,15)          3.0082         calculate D2E/DX2 analytically  !
 ! D39   D(3,13,15,16)          27.2142         calculate D2E/DX2 analytically  !
 ! D40   D(3,13,15,19)         -89.6966         calculate D2E/DX2 analytically  !
 ! D41   D(3,13,15,23)         145.7794         calculate D2E/DX2 analytically  !
 ! D42   D(11,13,15,16)       -155.76           calculate D2E/DX2 analytically  !
 ! D43   D(11,13,15,19)         87.3292         calculate D2E/DX2 analytically  !
 ! D44   D(11,13,15,23)        -37.1948         calculate D2E/DX2 analytically  !
 ! D45   D(13,15,19,20)        178.1969         calculate D2E/DX2 analytically  !
 ! D46   D(13,15,19,21)        -62.2903         calculate D2E/DX2 analytically  !
 ! D47   D(13,15,19,22)         57.5396         calculate D2E/DX2 analytically  !
 ! D48   D(16,15,19,20)         61.2119         calculate D2E/DX2 analytically  !
 ! D49   D(16,15,19,21)       -179.2752         calculate D2E/DX2 analytically  !
 ! D50   D(16,15,19,22)        -59.4454         calculate D2E/DX2 analytically  !
 ! D51   D(23,15,19,20)        -55.5842         calculate D2E/DX2 analytically  !
 ! D52   D(23,15,19,21)         63.9286         calculate D2E/DX2 analytically  !
 ! D53   D(23,15,19,22)       -176.2415         calculate D2E/DX2 analytically  !
 ! D54   D(13,15,23,24)         69.5125         calculate D2E/DX2 analytically  !
 ! D55   D(13,15,23,25)       -171.8146         calculate D2E/DX2 analytically  !
 ! D56   D(13,15,23,26)        -51.4778         calculate D2E/DX2 analytically  !
 ! D57   D(16,15,23,24)       -171.582          calculate D2E/DX2 analytically  !
 ! D58   D(16,15,23,25)        -52.9091         calculate D2E/DX2 analytically  !
 ! D59   D(16,15,23,26)         67.4278         calculate D2E/DX2 analytically  !
 ! D60   D(19,15,23,24)        -54.4929         calculate D2E/DX2 analytically  !
 ! D61   D(19,15,23,25)         64.18           calculate D2E/DX2 analytically  !
 ! D62   D(19,15,23,26)       -175.4832         calculate D2E/DX2 analytically  !
 ! D63   D(7,17,27,28)          56.7807         calculate D2E/DX2 analytically  !
 ! D64   D(7,17,27,29)         177.3092         calculate D2E/DX2 analytically  !
 ! D65   D(7,17,27,30)         -63.0177         calculate D2E/DX2 analytically  !
 ! D66   D(18,17,27,28)        -61.7233         calculate D2E/DX2 analytically  !
 ! D67   D(18,17,27,29)         58.8051         calculate D2E/DX2 analytically  !
 ! D68   D(18,17,27,30)        178.4783         calculate D2E/DX2 analytically  !
 ! D69   D(31,17,27,28)       -178.5586         calculate D2E/DX2 analytically  !
 ! D70   D(31,17,27,29)        -58.0302         calculate D2E/DX2 analytically  !
 ! D71   D(31,17,27,30)         61.643          calculate D2E/DX2 analytically  !
 ! D72   D(7,17,31,32)          63.9562         calculate D2E/DX2 analytically  !
 ! D73   D(7,17,31,33)        -176.4975         calculate D2E/DX2 analytically  !
 ! D74   D(7,17,31,34)         -56.0863         calculate D2E/DX2 analytically  !
 ! D75   D(18,17,31,32)       -177.8223         calculate D2E/DX2 analytically  !
 ! D76   D(18,17,31,33)        -58.276          calculate D2E/DX2 analytically  !
 ! D77   D(18,17,31,34)         62.1352         calculate D2E/DX2 analytically  !
 ! D78   D(27,17,31,32)        -60.7658         calculate D2E/DX2 analytically  !
 ! D79   D(27,17,31,33)         58.7805         calculate D2E/DX2 analytically  !
 ! D80   D(27,17,31,34)        179.1917         calculate D2E/DX2 analytically  !
 --------------------------------------------------------------------------------
 Trust Radius=3.00D-01 FncErr=1.00D-07 GrdErr=1.00D-06 EigMax=2.50D+02 EigMin=1.00D-04
 Number of steps in this run=    183 maximum allowed number of steps=    204.
 GradGradGradGradGradGradGradGradGradGradGradGradGradGradGradGradGradGrad

                          Input orientation:                          
 ---------------------------------------------------------------------
 Center     Atomic      Atomic             Coordinates (Angstroms)
 Number     Number       Type             X           Y           Z
 ---------------------------------------------------------------------
      1          8           0        8.349362    7.497012    6.581468
      2          1           0        9.179389    7.157264    6.931814
      3          6           0        6.311446    6.906482    5.159627
      4          5           0        7.689908    6.562155    5.842533
      5          8           0        8.275192    5.327298    5.720741
      6          1           0        7.758725    4.727145    5.178138
      7          6           0        5.110683    6.495967    5.758228
      8          6           0        3.898411    6.775072    5.122981
      9          1           0        2.963747    6.462364    5.576809
     10          6           0        3.878039    7.452499    3.912954
     11          6           0        5.067905    7.864836    3.321949
     12          1           0        5.034838    8.396136    2.377854
     13          6           0        6.290817    7.598824    3.934092
     14          1           0        2.932446    7.663028    3.426314
     15          6           0        7.591654    8.104183    3.329619
     16          1           0        8.400138    7.452258    3.683092
     17          6           0        5.107075    5.763545    7.091011
     18          1           0        6.143119    5.670947    7.435036
     19          6           0        7.882603    9.523054    3.838114
     20          1           0        8.831701    9.889202    3.437467
     21          1           0        7.089109   10.203647    3.516214
     22          1           0        7.932397    9.541817    4.927987
     23          6           0        7.614501    8.062717    1.799991
     24          1           0        6.933318    8.802056    1.371561
     25          1           0        8.616992    8.297810    1.435478
     26          1           0        7.331383    7.078303    1.421064
     27          6           0        4.539683    4.346600    6.950284
     28          1           0        5.095302    3.769347    6.207353
     29          1           0        4.587051    3.816067    7.904442
     30          1           0        3.493819    4.377812    6.633615
     31          6           0        4.345075    6.554608    8.160049
     32          1           0        3.288916    6.650460    7.895143
     33          1           0        4.403699    6.046808    9.125941
     34          1           0        4.758857    7.558808    8.269727
 ---------------------------------------------------------------------
                    Distance matrix (angstroms):
                    1          2          3          4          5
     1  O    0.000000
     2  H    0.962869   0.000000
     3  C    2.554106   3.380626   0.000000
     4  B    1.361933   1.938876   1.576413   0.000000
     5  O    2.335382   2.373404   2.581660   1.371956   0.000000
     6  H    3.160752   3.316496   2.616194   1.952798   0.959864
     7  C    3.488389   4.285906   1.403096   2.581451   3.373620
     8  C    4.739129   5.595237   2.416888   3.865041   4.648610
     9  H    5.575364   6.399463   3.402700   4.734677   5.433281
    10  C    5.207272   6.107781   2.788153   4.364210   5.207641
    11  C    4.639797   5.516891   2.417002   3.863317   4.741307
    12  H    5.428155   6.280976   3.403977   4.734647   5.576070
    13  C    3.355082   4.186306   1.407728   2.583464   3.505665
    14  H    6.271008   7.181130   3.872257   5.448255   6.266176
    15  C    3.393715   4.048872   2.534235   2.949956   3.727704
    16  H    2.899166   3.353871   2.615466   2.441290   2.946707
    17  C    3.711734   4.307150   2.546970   2.977835   3.479212
    18  H    2.988411   3.417793   2.594680   2.392253   2.757288
    19  C    3.442194   4.104826   3.325865   3.580747   4.615493
    20  H    3.979946   4.449138   4.267803   4.261135   5.131667
    21  H    4.279006   5.031505   3.765218   4.362704   5.481379
    22  H    2.662534   3.355057   3.102600   3.126273   4.302109
    23  C    4.870582   5.440986   3.784440   4.312716   4.826107
    24  H    5.554408   6.218246   4.281281   5.057586   5.726250
    25  H    5.214798   5.641529   4.595718   4.826398   5.225347
    26  H    5.276492   5.812893   3.879001   4.465908   4.737512
    27  C    4.957295   5.424670   3.591461   4.007457   4.053094
    28  H    4.962293   5.355613   3.523968   3.829471   3.574312
    29  H    5.427209   5.761872   4.478640   4.628195   4.544750
    30  H    5.771345   6.335612   4.062737   4.796283   4.959475
    31  C    4.406173   5.024176   3.604575   4.069256   4.785638
    32  H    5.296273   5.990202   4.084640   4.856927   5.598369
    33  H    4.913827   5.371640   4.484438   4.673919   5.205914
    34  H    3.968093   4.635984   3.536776   3.933910   4.882784
                    6          7          8          9         10
     6  H    0.000000
     7  C    3.236875   0.000000
     8  C    4.370248   1.396797   0.000000
     9  H    5.114855   2.154849   1.085054   0.000000
    10  C    4.907950   2.416485   1.386899   2.141194   0.000000
    11  C    4.531121   2.794832   2.408115   3.388038   1.391075
    12  H    5.359351   3.878572   3.384529   4.273430   2.141300
    13  C    3.456725   2.436490   2.795645   3.880651   2.417303
    14  H    5.914496   3.397730   2.144815   2.463169   1.084107
    15  C    3.853482   3.826188   4.315406   5.400274   3.815221
    16  H    3.173770   4.005146   4.774663   5.841267   4.527937
    17  C    3.429935   1.520778   2.521348   2.715697   3.803044
    18  H    2.931643   2.135010   3.406377   3.766664   4.550778
    19  C    4.981140   4.531405   5.007602   6.048639   4.508806
    20  H    5.552301   5.544903   6.072571   7.124106   5.540973
    21  H    5.762157   4.763159   4.951503   5.938170   4.247021
    22  H    4.824293   4.234214   4.895502   5.881453   4.672618
    23  C    4.749602   4.938770   5.148749   6.201209   4.335681
    24  H    5.637040   5.280425   5.233782   6.238250   4.196988
    25  H    5.243451   5.850385   6.179111   7.244216   5.413882
    26  H    4.452659   4.907302   5.057809   6.060185   4.274941
    27  C    3.694259   2.523255   3.106082   2.974301   4.394287
    28  H    3.011724   2.763405   3.412154   3.491913   4.506840
    29  H    4.280457   3.473081   4.119036   3.880191   5.445945
    30  H    4.519941   2.804841   2.862266   2.396492   4.123508
    31  C    4.887169   2.521575   3.077644   2.930820   4.366022
    32  H    5.573190   2.812314   2.841108   2.348571   4.104651
    33  H    5.346294   3.470311   4.099924   3.852595   5.424714
    34  H    5.155138   2.749734   3.355089   3.417077   4.446191
                   11         12         13         14         15
    11  C    0.000000
    12  H    1.083830   0.000000
    13  C    1.393196   2.152920   0.000000
    14  H    2.147511   2.461050   3.397148   0.000000
    15  C    2.535085   2.743793   1.520839   4.681045   0.000000
    16  H    3.377043   3.730924   2.129253   5.477775   1.097085
    17  C    4.315413   5.399037   3.838702   4.665517   5.079349
    18  H    4.784007   5.850644   3.999392   5.508780   4.987318
    19  C    3.307361   3.392944   2.499131   5.304086   1.535061
    20  H    4.275227   4.215234   3.456669   6.305330   2.176153
    21  H    3.097264   2.963611   2.756265   4.872440   2.166822
    22  H    3.687403   4.026365   2.730904   5.548367   2.176621
    23  C    2.973325   2.664537   2.553766   4.972556   1.530360
    24  H    2.856949   2.186692   2.902954   4.639652   2.180464
    25  H    4.042556   3.705343   3.484644   6.056438   2.162540
    26  H    3.058648   2.815360   2.769301   4.869659   2.182373
    27  C    5.081517   6.127890   4.768736   5.099046   6.045095
    28  H    5.009924   6.006321   4.611059   5.250988   5.770956
    29  H    6.133758   7.191712   5.742451   6.131106   6.953027
    30  H    5.060061   6.052534   5.048321   4.625426   6.449378
    31  C    5.064227   6.107436   4.768125   5.062841   6.022833
    32  H    5.055058   6.044510   5.059716   4.595954   6.439788
    33  H    6.118228   7.173169   5.738054   6.104302   6.927712
    34  H    4.966857   5.957470   4.598503   5.177382   5.720738
                   16         17         18         19         20
    16  H    0.000000
    17  C    5.030897   0.000000
    18  H    4.726974   1.095589   0.000000
    19  C    2.140110   5.693751   5.549989   0.000000
    20  H    2.487021   6.651486   6.403336   1.093329   0.000000
    21  H    3.052341   6.035076   6.066089   1.093828   1.772485
    22  H    2.476853   5.190034   4.946761   1.091171   1.775126
    23  C    2.129778   6.290331   6.295972   2.521588   2.738421
    24  H    3.052326   6.729028   6.869788   2.739501   3.008939
    25  H    2.411172   7.122294   7.001082   2.795212   2.566435
    26  H    2.529595   6.230926   6.289712   3.481779   3.770675
    27  C    5.934877   1.532798   2.135389   6.903361   7.841029
    28  H    5.554968   2.181242   2.494235   6.818173   7.686714
    29  H    6.751393   2.173653   2.466226   7.743732   8.651814
    30  H    6.498444   2.175330   3.055039   7.317771   8.311664
    31  C    6.106755   1.532732   2.130602   6.324943   7.317931
    32  H    6.671495   2.176913   3.052478   6.768548   7.815548
    33  H    6.897204   2.171616   2.454794   7.221369   8.168839
    34  H    5.857261   2.175683   2.485339   5.766736   6.735691
                   21         22         23         24         25
    21  H    0.000000
    22  H    1.772641   0.000000
    23  C    2.793750   3.474644   0.000000
    24  H    2.566762   3.767436   1.092788   0.000000
    25  H    3.208754   3.770125   1.092303   1.758723   0.000000
    26  H    3.770428   4.327658   1.092160   1.769811   1.772060
    27  C    7.252407   6.526138   7.056171   7.530121   7.915150
    28  H    7.253807   6.557995   6.648626   7.217434   7.461908
    29  H    8.143588   7.268758   8.028936   8.546554   8.841603
    30  H    7.522277   7.019764   7.343192   7.687217   8.284559
    31  C    6.512328   5.677898   7.308480   7.604840   8.155237
    32  H    6.800119   6.223012   7.606315   7.776127   8.534016
    33  H    7.480627   6.503047   8.248799   8.609342   9.053291
    34  H    5.917866   5.017062   7.089860   7.338845   7.882784
                   26         27         28         29         30
    26  H    0.000000
    27  C    6.769643   0.000000
    28  H    6.233603   1.092648   0.000000
    29  H    7.759364   1.092761   1.772177   0.000000
    30  H    7.013575   1.093199   1.765411   1.767969   0.000000
    31  C    7.389602   2.525213   3.483323   2.761068   2.791609
    32  H    7.644494   2.786566   3.796377   3.117535   2.607368
    33  H    8.306651   2.764540   3.766072   2.549879   3.134504
    34  H    7.331641   3.479547   4.327424   3.764447   3.794195
                   31         32         33         34
    31  C    0.000000
    32  H    1.093085   0.000000
    33  H    1.092815   1.766918   0.000000
    34  H    1.091633   1.768088   1.773523   0.000000
 Symmetry turned off by external request.
 Stoichiometry    C12H19BO2
 Framework group  C1[X(C12H19BO2)]
 Deg. of freedom    96
 Full point group                 C1      NOp   1
 Rotational constants (GHZ):           0.8261991           0.4637228           0.3599977
 Standard basis: 6-311+G(d,p) (5D, 7F)
   444 basis functions,   692 primitive gaussians,   459 cartesian basis functions
    56 alpha electrons       56 beta electrons
       nuclear repulsion energy      1013.7156341006 Hartrees.
 NAtoms=   34 NActive=   34 NUniq=   34 SFac= 1.00D+00 NAtFMM=   60 NAOKFM=F Big=F
 Integral buffers will be    131072 words long.
 Raffenetti 2 integral format.
 Two-electron integral symmetry is turned off.
 One-electron integrals computed using PRISM.
 NBasis=   444 RedAO= T EigKep=  2.70D-06  NBF=   444
 NBsUse=   441 1.00D-06 EigRej=  8.37D-07 NBFU=   441
 ExpMin= 3.15D-02 ExpMax= 8.59D+03 ExpMxC= 1.30D+03 IAcc=3 IRadAn=         5 AccDes= 0.00D+00
 Harris functional with IExCor= 1009 and IRadAn=       5 diagonalized for initial guess.
 HarFok:  IExCor= 1009 AccDes= 0.00D+00 IRadAn=         5 IDoV= 1 UseB2=F ITyADJ=14
 ICtDFT=  3500011 ScaDFX=  1.000000  1.000000  1.000000  1.000000
 FoFCou: FMM=F IPFlag=           0 FMFlag=      100000 FMFlg1=           0
         NFxFlg=           0 DoJE=T BraDBF=F KetDBF=T FulRan=T
         wScrn=  0.000000 ICntrl=       500 IOpCl=  0 I1Cent=   200000004 NGrid=           0
         NMat0=    1 NMatS0=      1 NMatT0=    0 NMatD0=    1 NMtDS0=    0 NMtDT0=    0
 Symmetry not used in FoFCou.
 Requested convergence on RMS density matrix=1.00D-08 within 128 cycles.
 Requested convergence on MAX density matrix=1.00D-06.
 Requested convergence on             energy=1.00D-06.
 Level shift goal  0.100 maximum shift  0.100.
 No special actions if energy rises.
 Dynamic level shift is on during FON iterations.
 SCF Done:  E(RM062X) =  -644.049376264     A.U. after   14 cycles
            NFock= 14  Conv=0.30D-08     -V/T= 2.0041
 DoSCS=F DFT=T ScalE2(SS,OS)=  1.000000  1.000000
 Range of M.O.s used for correlation:     1   441
 NBasis=   444 NAE=    56 NBE=    56 NFC=     0 NFV=     0
 NROrb=    441 NOA=    56 NOB=    56 NVA=   385 NVB=   385

 **** Warning!!: The largest alpha MO coefficient is  0.94809633D+02

 Symmetrizing basis deriv contribution to polar:
 IMax=3 JMax=2 DiffMx= 0.00D+00
 G2DrvN: will do    35 centers at a time, making    1 passes.
 Calling FoFCou, ICntrl=  3107 FMM=F I1Cent=   0 AccDes= 0.00D+00.
 End of G2Drv F.D. properties file   721 does not exist.
 End of G2Drv F.D. properties file   722 does not exist.
 End of G2Drv F.D. properties file   788 does not exist.
          IDoAtm=1111111111111111111111111111111111
          Differentiating once with respect to nuclear coordinates.
 CalDSu exits because no D1Ps are significant.
          There are   105 degrees of freedom in the 1st order CPHF.  IDoFFX=6 NUNeed=     0.
     99 vectors produced by pass  0 Test12= 2.16D-14 1.00D-09 XBig12= 1.41D-01 8.63D-02.
 AX will form    99 AO Fock derivatives at one time.
     99 vectors produced by pass  1 Test12= 2.16D-14 1.00D-09 XBig12= 9.93D-03 2.97D-02.
     99 vectors produced by pass  2 Test12= 2.16D-14 1.00D-09 XBig12= 2.34D-04 2.22D-03.
     99 vectors produced by pass  3 Test12= 2.16D-14 1.00D-09 XBig12= 1.86D-06 1.50D-04.
     99 vectors produced by pass  4 Test12= 2.16D-14 1.00D-09 XBig12= 1.16D-08 8.42D-06.
     99 vectors produced by pass  5 Test12= 2.16D-14 1.00D-09 XBig12= 4.68D-11 6.42D-07.
     70 vectors produced by pass  6 Test12= 2.16D-14 1.00D-09 XBig12= 1.72D-13 4.94D-08.
      5 vectors produced by pass  7 Test12= 2.16D-14 1.00D-09 XBig12= 6.65D-16 2.41D-09.
 InvSVY:  IOpt=1 It=  1 EMax= 4.44D-16
 Solved reduced A of dimension   669 with   105 vectors.
 End of Minotr F.D. properties file   721 does not exist.
 End of Minotr F.D. properties file   722 does not exist.
 End of Minotr F.D. properties file   788 does not exist.

 **********************************************************************

            Population analysis using the SCF Density.

 **********************************************************************

 Alpha  occ. eigenvalues --  -19.63962 -19.63442 -10.54745 -10.54699 -10.54670
 Alpha  occ. eigenvalues --  -10.54458 -10.53998 -10.53504 -10.53423 -10.52814
 Alpha  occ. eigenvalues --  -10.52446 -10.52425 -10.52305 -10.51816  -7.08667
 Alpha  occ. eigenvalues --   -1.17069  -1.13310  -0.96690  -0.91665  -0.88851
 Alpha  occ. eigenvalues --   -0.83172  -0.81606  -0.77720  -0.77292  -0.71378
 Alpha  occ. eigenvalues --   -0.69396  -0.67337  -0.64954  -0.62436  -0.61324
 Alpha  occ. eigenvalues --   -0.57679  -0.55461  -0.53263  -0.51025  -0.50889
 Alpha  occ. eigenvalues --   -0.50481  -0.49369  -0.48328  -0.47343  -0.47190
 Alpha  occ. eigenvalues --   -0.46059  -0.45742  -0.45267  -0.44887  -0.43612
 Alpha  occ. eigenvalues --   -0.42299  -0.41920  -0.40682  -0.40312  -0.39665
 Alpha  occ. eigenvalues --   -0.39228  -0.38931  -0.36735  -0.36406  -0.29780
 Alpha  occ. eigenvalues --   -0.28948
 Alpha virt. eigenvalues --   -0.00374   0.01170   0.01611   0.01703   0.02170
 Alpha virt. eigenvalues --    0.02303   0.03120   0.03256   0.03740   0.04306
 Alpha virt. eigenvalues --    0.05303   0.05515   0.05865   0.06572   0.06739
 Alpha virt. eigenvalues --    0.07397   0.08034   0.08566   0.08714   0.08931
 Alpha virt. eigenvalues --    0.09386   0.09501   0.09863   0.10947   0.11421
 Alpha virt. eigenvalues --    0.11731   0.11826   0.12379   0.13506   0.13711
 Alpha virt. eigenvalues --    0.14299   0.14864   0.15262   0.15630   0.15872
 Alpha virt. eigenvalues --    0.16496   0.16843   0.17741   0.17983   0.18646
 Alpha virt. eigenvalues --    0.19006   0.19580   0.19906   0.20342   0.20655
 Alpha virt. eigenvalues --    0.21199   0.21467   0.21794   0.22263   0.23060
 Alpha virt. eigenvalues --    0.23302   0.23446   0.24151   0.24456   0.24942
 Alpha virt. eigenvalues --    0.25155   0.25927   0.26307   0.26718   0.26868
 Alpha virt. eigenvalues --    0.27324   0.27588   0.27864   0.28218   0.28896
 Alpha virt. eigenvalues --    0.29189   0.29505   0.29985   0.30370   0.30934
 Alpha virt. eigenvalues --    0.31129   0.31583   0.31752   0.32093   0.32528
 Alpha virt. eigenvalues --    0.32779   0.33034   0.34180   0.35368   0.35517
 Alpha virt. eigenvalues --    0.36712   0.37054   0.38398   0.39014   0.39703
 Alpha virt. eigenvalues --    0.41892   0.42582   0.42871   0.42936   0.44057
 Alpha virt. eigenvalues --    0.45807   0.45907   0.46154   0.47039   0.47220
 Alpha virt. eigenvalues --    0.48317   0.49112   0.50767   0.52447   0.53541
 Alpha virt. eigenvalues --    0.54097   0.54597   0.55765   0.56607   0.57378
 Alpha virt. eigenvalues --    0.57723   0.59133   0.59592   0.59920   0.61334
 Alpha virt. eigenvalues --    0.61522   0.62298   0.63073   0.63677   0.64474
 Alpha virt. eigenvalues --    0.64865   0.66260   0.67409   0.67652   0.68911
 Alpha virt. eigenvalues --    0.69342   0.70377   0.70637   0.71390   0.71994
 Alpha virt. eigenvalues --    0.72629   0.73157   0.73231   0.73997   0.74462
 Alpha virt. eigenvalues --    0.74911   0.75788   0.76655   0.76896   0.77770
 Alpha virt. eigenvalues --    0.78072   0.78932   0.79330   0.80077   0.80686
 Alpha virt. eigenvalues --    0.81203   0.81748   0.82656   0.82962   0.84037
 Alpha virt. eigenvalues --    0.85902   0.86662   0.87690   0.90144   0.91272
 Alpha virt. eigenvalues --    0.92206   0.93669   0.95257   0.96691   0.97666
 Alpha virt. eigenvalues --    0.98350   1.00305   1.01107   1.03185   1.03958
 Alpha virt. eigenvalues --    1.04530   1.05549   1.08207   1.08899   1.09603
 Alpha virt. eigenvalues --    1.11415   1.13089   1.14810   1.14995   1.15580
 Alpha virt. eigenvalues --    1.17486   1.19314   1.20103   1.20387   1.21783
 Alpha virt. eigenvalues --    1.23454   1.25714   1.27510   1.29462   1.30365
 Alpha virt. eigenvalues --    1.31155   1.32472   1.33865   1.34968   1.38616
 Alpha virt. eigenvalues --    1.40457   1.42438   1.44072   1.46798   1.48198
 Alpha virt. eigenvalues --    1.48837   1.50121   1.51853   1.51921   1.52416
 Alpha virt. eigenvalues --    1.53128   1.53737   1.55237   1.55577   1.56337
 Alpha virt. eigenvalues --    1.57655   1.58363   1.58850   1.59278   1.60202
 Alpha virt. eigenvalues --    1.60940   1.61375   1.62643   1.63025   1.63802
 Alpha virt. eigenvalues --    1.64546   1.65234   1.65743   1.66431   1.67545
 Alpha virt. eigenvalues --    1.69147   1.69594   1.69818   1.70787   1.72308
 Alpha virt. eigenvalues --    1.73208   1.74034   1.74343   1.76275   1.77915
 Alpha virt. eigenvalues --    1.78509   1.79070   1.79891   1.80847   1.81174
 Alpha virt. eigenvalues --    1.81946   1.84227   1.85649   1.87055   1.88052
 Alpha virt. eigenvalues --    1.90082   1.91912   1.93986   1.94455   1.95482
 Alpha virt. eigenvalues --    1.97072   1.97963   1.98961   1.99915   2.01151
 Alpha virt. eigenvalues --    2.02375   2.02875   2.03848   2.05107   2.08854
 Alpha virt. eigenvalues --    2.10508   2.11655   2.13279   2.14032   2.15443
 Alpha virt. eigenvalues --    2.15674   2.16892   2.17493   2.18713   2.20800
 Alpha virt. eigenvalues --    2.21643   2.22445   2.22798   2.28001   2.29904
 Alpha virt. eigenvalues --    2.33214   2.33771   2.37725   2.38244   2.40347
 Alpha virt. eigenvalues --    2.42323   2.43332   2.45301   2.46518   2.48560
 Alpha virt. eigenvalues --    2.49627   2.52471   2.53112   2.54223   2.55121
 Alpha virt. eigenvalues --    2.55183   2.55395   2.56169   2.57567   2.57813
 Alpha virt. eigenvalues --    2.59128   2.59738   2.60803   2.61386   2.62912
 Alpha virt. eigenvalues --    2.65018   2.65349   2.66520   2.68478   2.70376
 Alpha virt. eigenvalues --    2.71031   2.71513   2.72155   2.73514   2.73671
 Alpha virt. eigenvalues --    2.74972   2.75791   2.77503   2.79137   2.79595
 Alpha virt. eigenvalues --    2.80471   2.81875   2.83499   2.86377   2.89062
 Alpha virt. eigenvalues --    2.91176   2.93421   2.94659   2.95281   2.95900
 Alpha virt. eigenvalues --    2.96170   2.96947   2.99252   3.02005   3.03242
 Alpha virt. eigenvalues --    3.06957   3.08288   3.10211   3.12288   3.17920
 Alpha virt. eigenvalues --    3.20856   3.22753   3.23947   3.25596   3.27836
 Alpha virt. eigenvalues --    3.29232   3.30578   3.33467   3.45256   3.47737
 Alpha virt. eigenvalues --    3.48102   3.52059   3.53333   3.56262   3.61681
 Alpha virt. eigenvalues --    3.63220   3.68000   3.75537   3.80268   3.82247
 Alpha virt. eigenvalues --    3.83317   3.83730   3.85992   3.88282   3.89365
 Alpha virt. eigenvalues --    3.89586   3.90235   3.92448   3.99216   4.06576
 Alpha virt. eigenvalues --    4.11720   4.13633   4.14896   4.20233   4.32967
 Alpha virt. eigenvalues --    4.33874   4.41543   4.47125   4.90294   5.14443
 Alpha virt. eigenvalues --    5.20861   5.37935   5.52335   5.68097   5.74469
 Alpha virt. eigenvalues --   14.85955  23.67332  23.93663  23.93911  24.04725
 Alpha virt. eigenvalues --   24.05475  24.05972  24.06630  24.07892  24.08404
 Alpha virt. eigenvalues --   24.17945  24.18310  24.27713  50.04381  50.05436
          Condensed to atoms (all electrons):
               1          2          3          4          5          6
     1  O    7.746934   0.263488  -0.139952   0.449240  -0.110138   0.018139
     2  H    0.263488   0.455009   0.001370   0.006002  -0.014046   0.002418
     3  C   -0.139952   0.001370   6.462726   0.387223   0.080325   0.006836
     4  B    0.449240   0.006002   0.387223   3.719748   0.347123   0.001399
     5  O   -0.110138  -0.014046   0.080325   0.347123   7.731274   0.276272
     6  H    0.018139   0.002418   0.006836   0.001399   0.276272   0.420936
     7  C    0.005187  -0.002967   0.305291  -0.085881   0.027653  -0.005939
     8  C    0.004508  -0.000495   0.144274   0.004389   0.048271  -0.002072
     9  H    0.000086  -0.000002   0.017448   0.002189   0.000080  -0.000003
    10  C    0.023982  -0.000372   0.528834   0.080970   0.012192   0.006399
    11  C   -0.060923  -0.001558   0.505433  -0.019259   0.009269   0.003289
    12  H    0.000097  -0.000002   0.007779   0.000926   0.000076  -0.000001
    13  C    0.023586  -0.006790  -0.175076  -0.103038   0.010686  -0.000467
    14  H   -0.000018   0.000000  -0.017189  -0.000164  -0.000017   0.000000
    15  C    0.067516   0.003579  -0.800945   0.026836  -0.063350  -0.002144
    16  H   -0.004685   0.000833  -0.062717   0.029365  -0.004477   0.000279
    17  C   -0.024829   0.010911  -0.517727  -0.096187  -0.082591   0.007714
    18  H   -0.000990   0.000435  -0.070549   0.039864  -0.009011   0.000450
    19  C    0.003505   0.001234   0.067580  -0.047954  -0.008054   0.002984
    20  H   -0.000524   0.000025   0.009915   0.000606   0.000086  -0.000008
    21  H    0.000080   0.000016  -0.027046   0.000395  -0.000058  -0.000004
    22  H   -0.006551  -0.000617   0.023227   0.003973   0.000865  -0.000050
    23  C    0.002625   0.001108  -0.057622   0.017103   0.001240  -0.003724
    24  H    0.000079   0.000000  -0.010991   0.002220  -0.000036   0.000006
    25  H   -0.000018  -0.000004   0.009912  -0.002166   0.000047  -0.000002
    26  H   -0.000080  -0.000001   0.012714  -0.002251   0.000087  -0.000013
    27  C   -0.010957   0.000709  -0.016446  -0.045033  -0.037253  -0.013990
    28  H    0.000042  -0.000007   0.013878  -0.001063  -0.001358  -0.000251
    29  H    0.000072  -0.000006   0.005216   0.000267   0.000252   0.000048
    30  H    0.000105   0.000001  -0.011704   0.003406  -0.000257   0.000072
    31  C    0.003781  -0.002619   0.113958   0.011958   0.011112   0.004249
    32  H   -0.000030   0.000003  -0.014057   0.001862   0.000036   0.000010
    33  H   -0.000075   0.000010   0.008410  -0.001082   0.000031  -0.000010
    34  H   -0.000995   0.000017   0.006929  -0.002089   0.000038  -0.000018
               7          8          9         10         11         12
     1  O    0.005187   0.004508   0.000086   0.023982  -0.060923   0.000097
     2  H   -0.002967  -0.000495  -0.000002  -0.000372  -0.001558  -0.000002
     3  C    0.305291   0.144274   0.017448   0.528834   0.505433   0.007779
     4  B   -0.085881   0.004389   0.002189   0.080970  -0.019259   0.000926
     5  O    0.027653   0.048271   0.000080   0.012192   0.009269   0.000076
     6  H   -0.005939  -0.002072  -0.000003   0.006399   0.003289  -0.000001
     7  C   12.788719  -3.323463   0.017784  -1.362147   2.228189  -0.022181
     8  C   -3.323463   9.400363   0.352840   0.880276  -2.299419   0.003782
     9  H    0.017784   0.352840   0.507667  -0.028758  -0.010560  -0.000372
    10  C   -1.362147   0.880276  -0.028758   7.064917   0.185612  -0.023379
    11  C    2.228189  -2.299419  -0.010560   0.185612   9.027234   0.360411
    12  H   -0.022181   0.003782  -0.000372  -0.023379   0.360411   0.514179
    13  C   -2.633903   2.335731  -0.013385  -1.154779  -2.985437   0.003006
    14  H    0.034159  -0.037310  -0.007024   0.344196  -0.035471  -0.006855
    15  C   -1.212663   0.422031   0.002058   0.115241  -0.920514   0.028223
    16  H    0.027204  -0.002832  -0.000001  -0.003730  -0.026550  -0.000062
    17  C   -1.007043  -1.477418   0.035279  -0.336136   0.474999   0.000628
    18  H   -0.097908  -0.048162  -0.000005   0.001122   0.001650  -0.000003
    19  C    0.068564   0.010013  -0.000430  -0.017540   0.006634   0.002850
    20  H   -0.005679   0.002159   0.000000   0.001470   0.001629  -0.000009
    21  H    0.019629  -0.006700   0.000001  -0.000908  -0.006566  -0.001034
    22  H   -0.016501  -0.005188   0.000000   0.000177   0.027194   0.000036
    23  C   -0.170000   0.101734  -0.000200  -0.086780  -0.337803  -0.017712
    24  H   -0.005282  -0.003922   0.000000   0.009097   0.000949  -0.000299
    25  H    0.005024   0.000281   0.000000   0.003898   0.017740   0.000391
    26  H    0.004714  -0.002594   0.000001  -0.018655  -0.010116  -0.000237
    27  C    0.585860  -0.792956  -0.008586  -0.144554   0.240304  -0.000272
    28  H   -0.050449   0.029084   0.000152  -0.005091  -0.001691   0.000000
    29  H    0.063648   0.006228  -0.000100   0.002063   0.001529   0.000000
    30  H   -0.017562  -0.019097  -0.001780   0.008285  -0.008696   0.000000
    31  C   -0.339081   0.639282  -0.016926   0.158338  -0.131117  -0.000208
    32  H   -0.038240  -0.017169  -0.001816   0.008645  -0.004574   0.000000
    33  H    0.075985   0.008456  -0.000076   0.000795   0.001133   0.000000
    34  H   -0.038674   0.007331   0.000067  -0.008378  -0.000539   0.000000
              13         14         15         16         17         18
     1  O    0.023586  -0.000018   0.067516  -0.004685  -0.024829  -0.000990
     2  H   -0.006790   0.000000   0.003579   0.000833   0.010911   0.000435
     3  C   -0.175076  -0.017189  -0.800945  -0.062717  -0.517727  -0.070549
     4  B   -0.103038  -0.000164   0.026836   0.029365  -0.096187   0.039864
     5  O    0.010686  -0.000017  -0.063350  -0.004477  -0.082591  -0.009011
     6  H   -0.000467   0.000000  -0.002144   0.000279   0.007714   0.000450
     7  C   -2.633903   0.034159  -1.212663   0.027204  -1.007043  -0.097908
     8  C    2.335731  -0.037310   0.422031  -0.002832  -1.477418  -0.048162
     9  H   -0.013385  -0.007024   0.002058  -0.000001   0.035279  -0.000005
    10  C   -1.154779   0.344196   0.115241  -0.003730  -0.336136   0.001122
    11  C   -2.985437  -0.035471  -0.920514  -0.026550   0.474999   0.001650
    12  H    0.003006  -0.006855   0.028223  -0.000062   0.000628  -0.000003
    13  C   12.538304   0.046717  -1.252292  -0.078735  -1.363158   0.001892
    14  H    0.046717   0.513280   0.005978   0.000019   0.005939   0.000016
    15  C   -1.252292   0.005978   9.625701   0.547463  -0.319583   0.000928
    16  H   -0.078735   0.000019   0.547463   0.517750   0.003587   0.000102
    17  C   -1.363158   0.005939  -0.319583   0.003587  10.416684   0.577567
    18  H    0.001892   0.000016   0.000928   0.000102   0.577567   0.518064
    19  C    0.216890   0.000339  -0.206596  -0.032147   0.001468  -0.000787
    20  H    0.028831  -0.000001  -0.111417  -0.006426  -0.000234  -0.000001
    21  H   -0.017832   0.000025   0.031840   0.004607   0.001531   0.000005
    22  H   -0.073614   0.000002   0.063393  -0.005652  -0.000826  -0.000025
    23  C    0.330315  -0.000187  -0.060662  -0.074467  -0.038213  -0.000136
    24  H   -0.073419   0.000024   0.118993   0.008000  -0.000331   0.000001
    25  H    0.066509  -0.000002  -0.162309  -0.009055   0.000422   0.000000
    26  H    0.042076   0.000007  -0.079333  -0.006498   0.000298   0.000001
    27  C   -0.349769   0.000355  -0.091252  -0.000105   0.365766  -0.027963
    28  H   -0.009183   0.000005  -0.000720   0.000005   0.052737  -0.007026
    29  H    0.000182  -0.000001  -0.000030   0.000000  -0.150133  -0.007335
    30  H    0.004745   0.000029   0.000595   0.000001   0.036916   0.006253
    31  C    0.253455  -0.000211   0.052154  -0.000252  -0.720414  -0.045677
    32  H   -0.004295   0.000029  -0.000420   0.000001   0.074748   0.006808
    33  H    0.003593  -0.000001   0.000389   0.000000  -0.167609  -0.007969
    34  H   -0.003758   0.000009  -0.000433   0.000000   0.037187  -0.005626
              19         20         21         22         23         24
     1  O    0.003505  -0.000524   0.000080  -0.006551   0.002625   0.000079
     2  H    0.001234   0.000025   0.000016  -0.000617   0.001108   0.000000
     3  C    0.067580   0.009915  -0.027046   0.023227  -0.057622  -0.010991
     4  B   -0.047954   0.000606   0.000395   0.003973   0.017103   0.002220
     5  O   -0.008054   0.000086  -0.000058   0.000865   0.001240  -0.000036
     6  H    0.002984  -0.000008  -0.000004  -0.000050  -0.003724   0.000006
     7  C    0.068564  -0.005679   0.019629  -0.016501  -0.170000  -0.005282
     8  C    0.010013   0.002159  -0.006700  -0.005188   0.101734  -0.003922
     9  H   -0.000430   0.000000   0.000001   0.000000  -0.000200   0.000000
    10  C   -0.017540   0.001470  -0.000908   0.000177  -0.086780   0.009097
    11  C    0.006634   0.001629  -0.006566   0.027194  -0.337803   0.000949
    12  H    0.002850  -0.000009  -0.001034   0.000036  -0.017712  -0.000299
    13  C    0.216890   0.028831  -0.017832  -0.073614   0.330315  -0.073419
    14  H    0.000339  -0.000001   0.000025   0.000002  -0.000187   0.000024
    15  C   -0.206596  -0.111417   0.031840   0.063393  -0.060662   0.118993
    16  H   -0.032147  -0.006426   0.004607  -0.005652  -0.074467   0.008000
    17  C    0.001468  -0.000234   0.001531  -0.000826  -0.038213  -0.000331
    18  H   -0.000787  -0.000001   0.000005  -0.000025  -0.000136   0.000001
    19  C    5.812251   0.440187   0.382071   0.362291  -0.371649   0.008384
    20  H    0.440187   0.522691  -0.029310  -0.021597   0.003693  -0.001182
    21  H    0.382071  -0.029310   0.485747  -0.025486   0.007690   0.001204
    22  H    0.362291  -0.021597  -0.025486   0.481761  -0.000518  -0.000086
    23  C   -0.371649   0.003693   0.007690  -0.000518   6.163877   0.318756
    24  H    0.008384  -0.001182   0.001204  -0.000086   0.318756   0.528647
    25  H    0.002775   0.002980  -0.000633   0.000074   0.435654  -0.029500
    26  H    0.010870   0.000315  -0.000496  -0.000265   0.427467  -0.029889
    27  C   -0.000141  -0.000001   0.000040  -0.000076   0.000997   0.000002
    28  H    0.000056   0.000000   0.000000   0.000000   0.000087   0.000000
    29  H   -0.000034   0.000000   0.000000   0.000000  -0.000006   0.000000
    30  H   -0.000031   0.000000   0.000000   0.000000  -0.000078   0.000000
    31  C    0.006208  -0.000016  -0.000256   0.000466  -0.002876   0.000002
    32  H   -0.000051   0.000000   0.000001  -0.000002   0.000022   0.000000
    33  H    0.000014   0.000000   0.000000   0.000000   0.000007   0.000000
    34  H    0.000349   0.000000   0.000000   0.000010  -0.000059   0.000000
              25         26         27         28         29         30
     1  O   -0.000018  -0.000080  -0.010957   0.000042   0.000072   0.000105
     2  H   -0.000004  -0.000001   0.000709  -0.000007  -0.000006   0.000001
     3  C    0.009912   0.012714  -0.016446   0.013878   0.005216  -0.011704
     4  B   -0.002166  -0.002251  -0.045033  -0.001063   0.000267   0.003406
     5  O    0.000047   0.000087  -0.037253  -0.001358   0.000252  -0.000257
     6  H   -0.000002  -0.000013  -0.013990  -0.000251   0.000048   0.000072
     7  C    0.005024   0.004714   0.585860  -0.050449   0.063648  -0.017562
     8  C    0.000281  -0.002594  -0.792956   0.029084   0.006228  -0.019097
     9  H    0.000000   0.000001  -0.008586   0.000152  -0.000100  -0.001780
    10  C    0.003898  -0.018655  -0.144554  -0.005091   0.002063   0.008285
    11  C    0.017740  -0.010116   0.240304  -0.001691   0.001529  -0.008696
    12  H    0.000391  -0.000237  -0.000272   0.000000   0.000000   0.000000
    13  C    0.066509   0.042076  -0.349769  -0.009183   0.000182   0.004745
    14  H   -0.000002   0.000007   0.000355   0.000005  -0.000001   0.000029
    15  C   -0.162309  -0.079333  -0.091252  -0.000720  -0.000030   0.000595
    16  H   -0.009055  -0.006498  -0.000105   0.000005   0.000000   0.000001
    17  C    0.000422   0.000298   0.365766   0.052737  -0.150133   0.036916
    18  H    0.000000   0.000001  -0.027963  -0.007026  -0.007335   0.006253
    19  C    0.002775   0.010870  -0.000141   0.000056  -0.000034  -0.000031
    20  H    0.002980   0.000315  -0.000001   0.000000   0.000000   0.000000
    21  H   -0.000633  -0.000496   0.000040   0.000000   0.000000   0.000000
    22  H    0.000074  -0.000265  -0.000076   0.000000   0.000000   0.000000
    23  C    0.435654   0.427467   0.000997   0.000087  -0.000006  -0.000078
    24  H   -0.029500  -0.029889   0.000002   0.000000   0.000000   0.000000
    25  H    0.508391  -0.022181   0.000021   0.000000   0.000000   0.000000
    26  H   -0.022181   0.493814   0.000177  -0.000001   0.000000   0.000000
    27  C    0.000021   0.000177   6.656997   0.336564   0.442426   0.370350
    28  H    0.000000  -0.000001   0.336564   0.522765  -0.022724  -0.028323
    29  H    0.000000   0.000000   0.442426  -0.022724   0.513003  -0.028972
    30  H    0.000000   0.000000   0.370350  -0.028323  -0.028972   0.502311
    31  C   -0.000012  -0.000055  -0.962982   0.015625   0.004122   0.010710
    32  H    0.000000   0.000000   0.017839  -0.000267  -0.001185   0.000381
    33  H    0.000000   0.000000   0.007994   0.000142   0.003189  -0.001065
    34  H    0.000000   0.000000   0.013527  -0.000351   0.000200  -0.000222
              31         32         33         34
     1  O    0.003781  -0.000030  -0.000075  -0.000995
     2  H   -0.002619   0.000003   0.000010   0.000017
     3  C    0.113958  -0.014057   0.008410   0.006929
     4  B    0.011958   0.001862  -0.001082  -0.002089
     5  O    0.011112   0.000036   0.000031   0.000038
     6  H    0.004249   0.000010  -0.000010  -0.000018
     7  C   -0.339081  -0.038240   0.075985  -0.038674
     8  C    0.639282  -0.017169   0.008456   0.007331
     9  H   -0.016926  -0.001816  -0.000076   0.000067
    10  C    0.158338   0.008645   0.000795  -0.008378
    11  C   -0.131117  -0.004574   0.001133  -0.000539
    12  H   -0.000208   0.000000   0.000000   0.000000
    13  C    0.253455  -0.004295   0.003593  -0.003758
    14  H   -0.000211   0.000029  -0.000001   0.000009
    15  C    0.052154  -0.000420   0.000389  -0.000433
    16  H   -0.000252   0.000001   0.000000   0.000000
    17  C   -0.720414   0.074748  -0.167609   0.037187
    18  H   -0.045677   0.006808  -0.007969  -0.005626
    19  C    0.006208  -0.000051   0.000014   0.000349
    20  H   -0.000016   0.000000   0.000000   0.000000
    21  H   -0.000256   0.000001   0.000000   0.000000
    22  H    0.000466  -0.000002   0.000000   0.000010
    23  C   -0.002876   0.000022   0.000007  -0.000059
    24  H    0.000002   0.000000   0.000000   0.000000
    25  H   -0.000012   0.000000   0.000000   0.000000
    26  H   -0.000055   0.000000   0.000000   0.000000
    27  C   -0.962982   0.017839   0.007994   0.013527
    28  H    0.015625  -0.000267   0.000142  -0.000351
    29  H    0.004122  -0.001185   0.003189   0.000200
    30  H    0.010710   0.000381  -0.001065  -0.000222
    31  C    6.449779   0.348114   0.436455   0.374147
    32  H    0.348114   0.513169  -0.029763  -0.027586
    33  H    0.436455  -0.029763   0.518068  -0.021994
    34  H    0.374147  -0.027586  -0.021994   0.493511
 Mulliken charges:
               1
     1  O   -0.252287
     2  H    0.282317
     3  C   -0.797256
     4  B    0.269104
     5  O   -0.226368
     6  H    0.277196
     7  C    0.177952
     8  C   -0.362234
     9  H    0.154373
    10  C   -0.245303
    11  C   -0.232406
    12  H    0.150242
    13  C    0.392414
    14  H    0.153323
    15  C    0.171744
    16  H    0.179176
    17  C    0.198051
    18  H    0.174016
    19  C   -0.722106
    20  H    0.161819
    21  H    0.181449
    22  H    0.193585
    23  C   -0.589685
    24  H    0.158571
    25  H    0.171766
    26  H    0.180123
    27  C   -0.537590
    28  H    0.157361
    29  H    0.168082
    30  H    0.173626
    31  C   -0.671215
    32  H    0.167789
    33  H    0.164973
    34  H    0.177401
 Sum of Mulliken charges =   0.00000
 Mulliken charges with hydrogens summed into heavy atoms:
               1
     1  O    0.030030
     3  C   -0.797256
     4  B    0.269104
     5  O    0.050828
     7  C    0.177952
     8  C   -0.207862
    10  C   -0.091980
    11  C   -0.082165
    13  C    0.392414
    15  C    0.350919
    17  C    0.372067
    19  C   -0.185254
    23  C   -0.079225
    27  C   -0.038521
    31  C   -0.161052
 APT charges:
               1
     1  O    0.009505
     2  H    2.082692
     3  C   -0.165100
     4  B   -0.849701
     5  O    1.686356
     6  H   -1.682392
     7  C    0.421580
     8  C   -0.575614
     9  H   -0.257023
    10  C   -0.610366
    11  C   -0.474410
    12  H    0.405545
    13  C    2.722709
    14  H   -0.296897
    15  C   -2.084140
    16  H    0.644020
    17  C   -2.222108
    18  H    1.262389
    19  C   -3.157710
    20  H    1.505274
    21  H    0.216703
    22  H    0.975617
    23  C    0.059710
    24  H    0.281421
    25  H    1.436377
    26  H   -1.110232
    27  C    0.570000
    28  H   -0.405748
    29  H    0.864219
    30  H   -0.579086
    31  C   -2.734937
    32  H   -0.427097
    33  H    0.945627
    34  H    1.542816
 Sum of APT charges =   0.00000
 APT charges with hydrogens summed into heavy atoms:
               1
     1  O    2.092197
     3  C   -0.165100
     4  B   -0.849701
     5  O    0.003964
     7  C    0.421580
     8  C   -0.832636
    10  C   -0.907263
    11  C   -0.068865
    13  C    2.722709
    15  C   -1.440120
    17  C   -0.959718
    19  C   -0.460116
    23  C    0.667277
    27  C    0.449385
    31  C   -0.673592
 Electronic spatial extent (au):  <R**2>=          48730.4691
 Charge=              0.0000 electrons
 Dipole moment (field-independent basis, Debye):
    X=              0.0250    Y=             -1.1194    Z=             -0.3253  Tot=              1.1660
 Quadrupole moment (field-independent basis, Debye-Ang):
   XX=            -87.5660   YY=           -109.2204   ZZ=            -93.1381
   XY=             -6.1018   XZ=             -1.9301   YZ=            -11.1679
 Traceless Quadrupole moment (field-independent basis, Debye-Ang):
   XX=              9.0755   YY=            -12.5789   ZZ=              3.5034
   XY=             -6.1018   XZ=             -1.9301   YZ=            -11.1679
 Octapole moment (field-independent basis, Debye-Ang**2):
  XXX=          -1608.2222  YYY=          -2138.0671  ZZZ=          -1394.5799  XYY=           -659.8090
  XXY=           -640.7174  XXZ=           -455.4715  XZZ=           -565.8014  YZZ=           -712.0601
  YYZ=           -623.7117  XYZ=            -59.4364
 Hexadecapole moment (field-independent basis, Debye-Ang**3):
 XXXX=         -21222.8804 YYYY=         -30411.6283 ZZZZ=         -16010.8049 XXXY=         -11518.5626
 XXXZ=          -7894.0182 YYYX=         -13251.0997 YYYZ=         -11156.2551 ZZZX=          -8182.6305
 ZZZY=          -9717.6229 XXYY=          -8688.3378 XXZZ=          -6247.3548 YYZZ=          -8405.2497
 XXYZ=          -3239.0119 YYXZ=          -3623.9905 ZZXY=          -4338.6157
 N-N= 1.013715634101D+03 E-N=-3.526746450076D+03  KE= 6.414152428852D+02
  Exact polarizability:       0.000       0.000       0.000       0.000       0.000       0.000
 Approx polarizability:     208.084       4.232     170.323       1.576     -22.544     194.006
 Calling FoFJK, ICntrl=    100127 FMM=F ISym2X=0 I1Cent= 0 IOpClX= 0 NMat=1 NMatS=1 NMatT=0.
 -------------------------------------------------------------------
 Center     Atomic                   Forces (Hartrees/Bohr)
 Number     Number              X              Y              Z
 -------------------------------------------------------------------
      1        8           0.000001086   -0.000000853   -0.000000346
      2        1           0.000000559   -0.000001437   -0.000001215
      3        6          -0.000000435    0.000000501    0.000000285
      4        5           0.000000327   -0.000001142   -0.000000656
      5        8          -0.000000426    0.000000005   -0.000000306
      6        1          -0.000001519   -0.000001335   -0.000001307
      7        6           0.000000199   -0.000000897    0.000000748
      8        6          -0.000000442    0.000001496    0.000000324
      9        1          -0.000000153    0.000001206    0.000001214
     10        6           0.000000865    0.000000234    0.000001733
     11        6          -0.000000506    0.000000958    0.000000196
     12        1          -0.000000378    0.000000618    0.000000494
     13        6           0.000000069   -0.000000928   -0.000000913
     14        1          -0.000001111    0.000001631    0.000000692
     15        6          -0.000001101    0.000000605    0.000000432
     16        1           0.000000166   -0.000001217   -0.000000662
     17        6           0.000000938    0.000000435    0.000000447
     18        1          -0.000000226    0.000000341   -0.000000096
     19        6           0.000000311   -0.000000273   -0.000000062
     20        1           0.000000879   -0.000001114   -0.000000908
     21        1           0.000001214   -0.000000548    0.000000032
     22        1           0.000001165   -0.000000904   -0.000000850
     23        6          -0.000000433   -0.000000623   -0.000000479
     24        1          -0.000000413   -0.000000248   -0.000000333
     25        1          -0.000000878   -0.000000867   -0.000001008
     26        1          -0.000001354   -0.000000597   -0.000000749
     27        6          -0.000000999    0.000001086   -0.000000027
     28        1          -0.000001009    0.000000400    0.000000047
     29        1          -0.000000377    0.000000231    0.000000500
     30        1          -0.000000505    0.000000937    0.000000789
     31        6           0.000001334    0.000000525    0.000000318
     32        1           0.000000822    0.000000992    0.000000860
     33        1           0.000001066    0.000000188    0.000000534
     34        1           0.000001264    0.000000594    0.000000270
 -------------------------------------------------------------------
 Cartesian Forces:  Max     0.000001733 RMS     0.000000804
 FormGI is forming the generalized inverse of G from B-inverse, IUseBI=4.

 GradGradGradGradGradGradGradGradGradGradGradGradGradGradGradGradGradGrad
 Berny optimization.
 Internal  Forces:  Max     0.000001023 RMS     0.000000255
 Search for a local minimum.
 Step number   1 out of a maximum of  183
 All quantities printed in internal units (Hartrees-Bohrs-Radians)
 Mixed Optimization -- En-DIIS/RFO-DIIS
 Second derivative matrix not updated -- analytic derivatives used.
 ITU=  0
     Eigenvalues ---    0.00101   0.00158   0.00255   0.00266   0.00317
     Eigenvalues ---    0.00330   0.00370   0.01479   0.01493   0.01620
     Eigenvalues ---    0.01755   0.01766   0.02004   0.02215   0.02248
     Eigenvalues ---    0.02468   0.02511   0.02822   0.03712   0.04100
     Eigenvalues ---    0.04211   0.04402   0.04404   0.04474   0.04494
     Eigenvalues ---    0.04551   0.04586   0.04641   0.04680   0.04693
     Eigenvalues ---    0.04847   0.04952   0.05267   0.10888   0.11065
     Eigenvalues ---    0.11535   0.11825   0.11965   0.12019   0.12169
     Eigenvalues ---    0.12381   0.12395   0.12746   0.13032   0.13164
     Eigenvalues ---    0.13377   0.14013   0.14170   0.14376   0.14584
     Eigenvalues ---    0.15048   0.15114   0.17138   0.17307   0.18546
     Eigenvalues ---    0.18835   0.19020   0.19163   0.19445   0.19679
     Eigenvalues ---    0.21889   0.25250   0.26636   0.29097   0.29191
     Eigenvalues ---    0.29256   0.29684   0.31610   0.31947   0.32391
     Eigenvalues ---    0.33682   0.33853   0.33941   0.33975   0.34007
     Eigenvalues ---    0.34125   0.34231   0.34254   0.34269   0.34509
     Eigenvalues ---    0.34801   0.34938   0.34955   0.35010   0.36228
     Eigenvalues ---    0.36409   0.37114   0.38402   0.43705   0.43798
     Eigenvalues ---    0.47825   0.48234   0.48812   0.51485   0.54581
     Eigenvalues ---    0.55668
 RFO step:  Lambda= 0.00000000D+00 EMin= 1.01408022D-03
 Linear search not attempted -- first point.
 Iteration  1 RMS(Cart)=  0.00001709 RMS(Int)=  0.00000000
 Iteration  2 RMS(Cart)=  0.00000000 RMS(Int)=  0.00000000
 Variable       Old X    -DE/DX   Delta X   Delta X   Delta X     New X
                                 (Linear)    (Quad)   (Total)
    R1        1.81956   0.00000   0.00000   0.00000   0.00000   1.81956
    R2        2.57368   0.00000   0.00000   0.00000   0.00000   2.57368
    R3        2.97899   0.00000   0.00000   0.00000   0.00000   2.97899
    R4        2.65147   0.00000   0.00000   0.00000   0.00000   2.65147
    R5        2.66022   0.00000   0.00000   0.00000   0.00000   2.66022
    R6        2.59262   0.00000   0.00000   0.00000   0.00000   2.59262
    R7        1.81388   0.00000   0.00000   0.00000   0.00000   1.81388
    R8        2.63956   0.00000   0.00000   0.00000   0.00000   2.63956
    R9        2.87385   0.00000   0.00000   0.00000   0.00000   2.87385
   R10        2.05046   0.00000   0.00000   0.00000   0.00000   2.05046
   R11        2.62086   0.00000   0.00000   0.00000   0.00000   2.62086
   R12        2.62875   0.00000   0.00000   0.00000   0.00000   2.62875
   R13        2.04866   0.00000   0.00000   0.00000   0.00000   2.04867
   R14        2.04814   0.00000   0.00000   0.00000   0.00000   2.04814
   R15        2.63276   0.00000   0.00000   0.00000   0.00000   2.63276
   R16        2.87397   0.00000   0.00000   0.00000   0.00000   2.87397
   R17        2.07319   0.00000   0.00000   0.00000   0.00000   2.07319
   R18        2.90085   0.00000   0.00000   0.00000   0.00000   2.90085
   R19        2.89196   0.00000   0.00000   0.00000   0.00000   2.89196
   R20        2.07036   0.00000   0.00000   0.00000   0.00000   2.07036
   R21        2.89657   0.00000   0.00000   0.00000   0.00000   2.89657
   R22        2.89644   0.00000   0.00000   0.00000   0.00000   2.89644
   R23        2.06609   0.00000   0.00000   0.00000   0.00000   2.06609
   R24        2.06703   0.00000   0.00000   0.00000   0.00000   2.06703
   R25        2.06201   0.00000   0.00000   0.00000   0.00000   2.06201
   R26        2.06507   0.00000   0.00000   0.00000   0.00000   2.06507
   R27        2.06415   0.00000   0.00000   0.00000   0.00000   2.06415
   R28        2.06388   0.00000   0.00000   0.00000   0.00000   2.06388
   R29        2.06481   0.00000   0.00000   0.00000   0.00000   2.06481
   R30        2.06502   0.00000   0.00000   0.00000   0.00000   2.06502
   R31        2.06585   0.00000   0.00000   0.00000   0.00000   2.06585
   R32        2.06563   0.00000   0.00000   0.00000   0.00000   2.06563
   R33        2.06512   0.00000   0.00000   0.00000   0.00000   2.06512
   R34        2.06289   0.00000   0.00000   0.00000   0.00000   2.06289
    A1        1.95262   0.00000   0.00000   0.00000   0.00000   1.95262
    A2        2.09394   0.00000   0.00000   0.00000   0.00000   2.09394
    A3        2.09137   0.00000   0.00000   0.00000   0.00000   2.09137
    A4        2.09759   0.00000   0.00000   0.00000   0.00000   2.09759
    A5        2.10425   0.00000   0.00000   0.00001   0.00001   2.10426
    A6        2.04815   0.00000   0.00000   0.00000   0.00000   2.04815
    A7        2.13079   0.00000   0.00000  -0.00001  -0.00001   2.13078
    A8        1.96428   0.00000   0.00000   0.00000   0.00000   1.96428
    A9        2.08318   0.00000   0.00000   0.00000   0.00000   2.08317
   A10        2.11394   0.00000   0.00000   0.00000   0.00000   2.11394
   A11        2.08604   0.00000   0.00000   0.00000   0.00000   2.08604
   A12        2.09416   0.00000   0.00000   0.00000   0.00000   2.09416
   A13        2.10266   0.00000   0.00000   0.00000   0.00000   2.10266
   A14        2.08636   0.00000   0.00000   0.00000   0.00000   2.08637
   A15        2.09774   0.00000   0.00000   0.00000   0.00000   2.09774
   A16        2.09359   0.00000   0.00000   0.00000   0.00000   2.09359
   A17        2.09185   0.00000   0.00000   0.00000   0.00000   2.09185
   A18        2.08207   0.00000   0.00000   0.00000   0.00000   2.08207
   A19        2.10313   0.00000   0.00000   0.00000   0.00000   2.10312
   A20        2.09799   0.00000   0.00000   0.00000   0.00000   2.09799
   A21        2.08206   0.00000   0.00000   0.00000   0.00000   2.08206
   A22        2.09083   0.00000   0.00000   0.00000   0.00000   2.09083
   A23        2.10914   0.00000   0.00000   0.00000   0.00000   2.10914
   A24        1.88054   0.00000   0.00000   0.00000   0.00000   1.88054
   A25        1.91516   0.00000   0.00000   0.00001   0.00001   1.91516
   A26        1.98344   0.00000   0.00000   0.00000   0.00000   1.98344
   A27        1.87848   0.00000   0.00000   0.00000   0.00000   1.87848
   A28        1.87018   0.00000   0.00000   0.00000   0.00000   1.87018
   A29        1.93190   0.00000   0.00000   0.00000   0.00000   1.93191
   A30        1.88983   0.00000   0.00000   0.00000   0.00000   1.88984
   A31        1.94510   0.00000   0.00000   0.00000   0.00000   1.94510
   A32        1.94321   0.00000   0.00000   0.00000   0.00000   1.94321
   A33        1.87627   0.00000   0.00000   0.00000   0.00000   1.87628
   A34        1.86998   0.00000   0.00000   0.00000   0.00000   1.86998
   A35        1.93597   0.00000   0.00000   0.00000   0.00000   1.93597
   A36        1.93124   0.00000   0.00000   0.00000   0.00000   1.93124
   A37        1.91786   0.00000   0.00000   0.00000   0.00000   1.91786
   A38        1.93414   0.00000   0.00000   0.00000   0.00000   1.93414
   A39        1.88969   0.00000   0.00000   0.00000   0.00000   1.88969
   A40        1.89720   0.00000   0.00000   0.00000   0.00000   1.89720
   A41        1.89267   0.00000   0.00000   0.00000   0.00000   1.89267
   A42        1.94360   0.00000   0.00000   0.00000   0.00000   1.94360
   A43        1.91922   0.00000   0.00000   0.00000   0.00000   1.91923
   A44        1.94694   0.00000   0.00000   0.00000   0.00000   1.94694
   A45        1.87093   0.00000   0.00000   0.00000   0.00000   1.87093
   A46        1.88831   0.00000   0.00000   0.00000   0.00000   1.88831
   A47        1.89244   0.00000   0.00000   0.00000   0.00000   1.89244
   A48        1.94182   0.00000   0.00000   0.00000   0.00000   1.94182
   A49        1.93114   0.00000   0.00000   0.00000   0.00000   1.93114
   A50        1.93301   0.00000   0.00000   0.00000   0.00000   1.93301
   A51        1.89142   0.00000   0.00000   0.00000   0.00000   1.89142
   A52        1.88033   0.00000   0.00000   0.00000   0.00000   1.88033
   A53        1.88416   0.00000   0.00000   0.00000   0.00000   1.88416
   A54        1.93541   0.00000   0.00000   0.00000   0.00000   1.93540
   A55        1.92834   0.00000   0.00000   0.00000   0.00000   1.92834
   A56        1.93522   0.00000   0.00000   0.00000   0.00000   1.93522
   A57        1.88260   0.00000   0.00000   0.00000   0.00000   1.88260
   A58        1.88591   0.00000   0.00000   0.00000   0.00000   1.88591
   A59        1.89475   0.00000   0.00000   0.00000   0.00000   1.89475
    D1       -3.13130   0.00000   0.00000   0.00000   0.00000  -3.13130
    D2        0.00786   0.00000   0.00000   0.00000   0.00000   0.00787
    D3       -1.74554   0.00000   0.00000   0.00000   0.00000  -1.74555
    D4        1.39859   0.00000   0.00000   0.00000   0.00000   1.39859
    D5        1.42155   0.00000   0.00000   0.00002   0.00002   1.42157
    D6       -1.71750   0.00000   0.00000   0.00001   0.00001  -1.71748
    D7       -3.11031   0.00000   0.00000   0.00001   0.00001  -3.11030
    D8        0.04032   0.00000   0.00000   0.00002   0.00002   0.04034
    D9        0.00569   0.00000   0.00000  -0.00001  -0.00001   0.00568
   D10       -3.12686   0.00000   0.00000   0.00000   0.00000  -3.12686
   D11        3.11078   0.00000   0.00000  -0.00001  -0.00001   3.11077
   D12       -0.08192   0.00000   0.00000  -0.00001  -0.00001  -0.08193
   D13       -0.00526   0.00000   0.00000   0.00001   0.00001  -0.00525
   D14        3.08523   0.00000   0.00000   0.00000   0.00000   3.08524
   D15       -3.12900   0.00000   0.00000   0.00000   0.00000  -3.12900
   D16        0.01012   0.00000   0.00000   0.00000   0.00000   0.01013
   D17       -3.14154   0.00000   0.00000   0.00000   0.00000  -3.14154
   D18       -0.00123   0.00000   0.00000   0.00001   0.00001  -0.00123
   D19       -0.00884   0.00000   0.00000   0.00000   0.00000  -0.00885
   D20        3.13147   0.00000   0.00000   0.00000   0.00000   3.13146
   D21        0.02181   0.00000   0.00000  -0.00001  -0.00001   0.02180
   D22       -2.03833   0.00000   0.00000  -0.00002  -0.00002  -2.03835
   D23        2.07318   0.00000   0.00000  -0.00002  -0.00002   2.07316
   D24       -3.11073   0.00000   0.00000  -0.00001  -0.00001  -3.11074
   D25        1.11231   0.00000   0.00000  -0.00001  -0.00001   1.11230
   D26       -1.05936   0.00000   0.00000  -0.00001  -0.00001  -1.05937
   D27       -0.00365   0.00000   0.00000   0.00000   0.00000  -0.00366
   D28        3.13955   0.00000   0.00000   0.00000   0.00000   3.13955
   D29        3.13666   0.00000   0.00000   0.00000   0.00000   3.13666
   D30       -0.00332   0.00000   0.00000   0.00000   0.00000  -0.00332
   D31       -3.13798   0.00000   0.00000   0.00000   0.00000  -3.13798
   D32        0.00409   0.00000   0.00000   0.00000   0.00000   0.00409
   D33        0.00200   0.00000   0.00000   0.00000   0.00000   0.00200
   D34       -3.13911   0.00000   0.00000   0.00000   0.00000  -3.13911
   D35        0.00037   0.00000   0.00000   0.00000   0.00000   0.00036
   D36       -3.08958   0.00000   0.00000   0.00000   0.00000  -3.08958
   D37       -3.14074   0.00000   0.00000   0.00000   0.00000  -3.14074
   D38        0.05250   0.00000   0.00000   0.00000   0.00000   0.05250
   D39        0.47498   0.00000   0.00000   0.00003   0.00003   0.47500
   D40       -1.56550   0.00000   0.00000   0.00003   0.00003  -1.56547
   D41        2.54433   0.00000   0.00000   0.00002   0.00002   2.54435
   D42       -2.71853   0.00000   0.00000   0.00002   0.00002  -2.71850
   D43        1.52418   0.00000   0.00000   0.00002   0.00002   1.52420
   D44       -0.64917   0.00000   0.00000   0.00002   0.00002  -0.64916
   D45        3.11012   0.00000   0.00000   0.00000   0.00000   3.11013
   D46       -1.08717   0.00000   0.00000   0.00001   0.00001  -1.08716
   D47        1.00426   0.00000   0.00000   0.00001   0.00001   1.00426
   D48        1.06835   0.00000   0.00000   0.00001   0.00001   1.06836
   D49       -3.12894   0.00000   0.00000   0.00001   0.00001  -3.12894
   D50       -1.03752   0.00000   0.00000   0.00001   0.00001  -1.03751
   D51       -0.97013   0.00000   0.00000   0.00001   0.00001  -0.97012
   D52        1.11576   0.00000   0.00000   0.00001   0.00001   1.11578
   D53       -3.07600   0.00000   0.00000   0.00001   0.00001  -3.07598
   D54        1.21322   0.00000   0.00000   0.00001   0.00001   1.21323
   D55       -2.99873   0.00000   0.00000   0.00001   0.00001  -2.99872
   D56       -0.89846   0.00000   0.00000   0.00001   0.00001  -0.89845
   D57       -2.99467   0.00000   0.00000   0.00000   0.00000  -2.99467
   D58       -0.92344   0.00000   0.00000   0.00000   0.00000  -0.92344
   D59        1.17684   0.00000   0.00000   0.00000   0.00000   1.17684
   D60       -0.95108   0.00000   0.00000   0.00000   0.00000  -0.95108
   D61        1.12015   0.00000   0.00000   0.00000   0.00000   1.12015
[...]
 13172,0.00003479,0.00012405,-0.00000729,0.00000705,-0.00002801,-0.0002
 3569,0.00010425,0.00035053,-0.00031709,0.00003806,-0.00018630,0.000180
 68,-0.00013783,0.00010368,-0.00016550,0.00005214,-0.00003807,0.0000622
 3,-0.00042893,0.00048494,0.00023110,0.00011812,0.00033334,0.00009563,-
 0.00014603,-0.00007195,0.00005705,0.00003840,0.00012188,0.00011354,0.0
 0000280,-0.00002969,0.00000346,0.00000036,-0.00001577,-0.00012099,0.00
 001678,-0.00008408,-0.00000756,-0.00001002,-0.00001630,-0.00005240,0.0
 0000446,0.00001278,0.00001631,-0.00000146,-0.00000555,0.00057977,-0.00
 319131,0.00291349,0.00040907,0.00048446,0.00032165,0.00002691,-0.00000
 732,-0.00002424,0.00001978,0.00001878,-0.00000316,-0.00000514,-0.00000
 671,0.00000142,-0.00000861,-0.00000808,0.00000020,0.00003213,0.0000073
 8,0.00000067,-0.00000720,-0.00000406,0.00000463,0.00001608,0.00000766,
 -0.00001326,-0.00001011,0.00000253,0.00001154,-0.01180286,0.11226341,-
 0.25445716,-0.00224112,0.01023323,-0.01768366,0.01303714,-0.12241328,0
 .27413385,-0.00007120,-0.00020473,0.00009915,0.00007561,0.00004654,-0.
 00001128,-0.00014544,-0.00034218,0.00057606,0.00010650,0.00051994,-0.0
 0045576,-0.00007370,-0.00029094,0.00028052,0.00012232,0.00009416,-0.00
 021486,0.00027102,0.00060198,-0.00121342,-0.00039926,0.00064870,0.0000
 8846,0.00058795,0.00015930,-0.00030204,0.00014759,-0.00005405,0.000570
 14,0.00043789,-0.00007632,-0.00000962,0.00004270,-0.00002362,-0.000031
 42,-0.00014699,0.00021868,-0.00034910,-0.00000332,0.00000588,0.0000511
 7,-0.00003666,0.00002519,0.00001911,0.00003838,-0.00000970,-0.00001111
 ,-0.01328331,-0.00021927,-0.00330666,0.00054685,-0.00260974,0.00014875
 ,0.00003468,-0.00000895,-0.00002525,0.00000667,0.00001414,0.00000402,0
 .00000155,-0.00001131,0.00000580,-0.00000527,0.00001346,0.00000106,0.0
 0002790,-0.00000578,0.00000080,0.00000084,-0.00000774,0.00001054,0.000
 00443,0.00000518,-0.00000590,-0.00000630,0.00000592,0.00000516,-0.2908
 7146,0.01117439,-0.07374055,-0.01500192,0.00044906,-0.00511875,-0.0000
 8798,0.00027137,0.00026797,0.31601402,-0.00010085,-0.00004243,0.000258
 90,0.00006699,0.00000201,-0.00002416,-0.00017431,-0.00014553,0.0007896
 1,0.00037954,-0.00009936,-0.00076584,-0.00007234,0.00030259,0.00017841
 ,-0.00010796,-0.00012213,0.00008517,0.00025762,0.00155368,-0.00087807,
 -0.00058338,-0.00014320,-0.00001521,0.00054224,-0.00120984,0.00057527,
 0.00012404,-0.00017448,0.00044047,0.00048509,0.00007111,-0.00005828,0.
 00004810,-0.00001509,-0.00002098,-0.00017459,0.00023891,-0.00040819,-0
 .00001679,-0.00002750,0.00000060,-0.00003289,-0.00001198,-0.00000040,0
 .00001869,-0.00000742,-0.00000772,-0.03110224,-0.00005603,-0.00981722,
 -0.00243759,-0.00584795,-0.00050180,0.00001862,-0.00000410,-0.00001733
 ,0.00000984,0.00000851,0.00000196,-0.00000044,-0.00000812,0.00000532,-
 0.00000491,0.00000765,-0.00000091,0.00002452,0.00001007,-0.00000227,-0
 .00000308,-0.00000422,0.00000618,0.00000791,0.00000384,-0.00000706,-0.
 00000186,0.00000307,0.00000721,0.01209947,-0.04588227,0.00352248,0.015
 71822,-0.00125719,0.00602269,0.01506987,-0.00134621,0.00318116,-0.0104
 1311,0.05203688,-0.00006388,0.00003949,0.00001252,-0.00000118,-0.00000
 242,-0.00001044,-0.00000582,0.00008651,-0.00012472,0.00023007,-0.00024
 108,-0.00001211,-0.00008891,0.00025594,-0.00000786,-0.00014374,-0.0001
 2693,0.00011389,0.00087429,-0.00038937,0.00011431,-0.00011680,0.000225
 15,-0.00013268,-0.00006862,0.00076611,-0.00003533,0.00010378,0.0000397
 5,-0.00013025,-0.00009938,-0.00002982,0.00000406,-0.00000365,0.0000002
 6,0.00000223,0.00003848,-0.00000881,0.00012278,-0.00000193,0.00002956,
 0.00003812,0.00002855,-0.00001870,-0.00001120,-0.00000898,-0.00000057,
 0.00000118,-0.00273167,0.00014998,-0.00172370,0.00004884,-0.00060300,0
 .00063044,-0.00001661,0.00000244,0.00001039,-0.00000766,-0.00000915,0.
 00000065,0.00000166,0.00000305,0.00000048,0.00000269,0.00000420,0.0000
 0016,-0.00001251,-0.00000521,0.00000057,0.00000347,0.00000441,-0.00000
 190,-0.00000804,-0.00000308,0.00000459,0.00000411,-0.00000256,-0.00000
 321,-0.07450327,0.00325470,-0.06927162,0.02215804,-0.00021547,0.006770
 46,-0.02759085,0.00030786,-0.00743369,0.08248048,-0.00350390,0.0710467
 2,-0.00000418,-0.00039974,0.00004494,0.00008392,0.00007168,-0.00000821
 ,0.00018707,-0.00005865,0.00008307,0.00047299,0.00144441,-0.00095479,-
 0.00054910,-0.00023057,0.00083366,-0.00001071,-0.00007523,-0.00023672,
 0.00037217,-0.00397127,0.00529695,0.00024519,0.00128146,-0.00181597,-0
 .00042661,-0.00016794,-0.00029103,-0.00050153,-0.00039653,0.00053461,0
 .00037188,0.00007117,-0.00037662,-0.00001886,0.00003566,0.00009474,0.0
 0000063,-0.00004969,-0.00018857,-0.00001079,0.00012737,-0.00000198,-0.
 00007102,0.00002855,-0.00004455,0.00001846,-0.00000979,0.00000229,-0.1
 0897296,0.03402683,0.03836758,-0.01713789,0.01782013,0.02461752,-0.000
 01114,0.00001282,0.00002485,0.00000564,-0.00001153,-0.00000728,0.00000
 782,-0.00001410,0.00001470,-0.00002066,0.00001069,-0.00000220,0.000008
 90,-0.00001071,-0.00001028,-0.00000190,-0.00000630,0.00001385,0.000008
 66,0.00000251,0.00000065,-0.00000564,0.00000503,0.00000206,0.00720083,
 -0.00635087,-0.00909555,-0.00051311,-0.00380871,-0.00087861,0.00003489
 ,0.00024845,-0.00023478,0.00098491,-0.00085232,-0.00083451,0.54930286,
 -0.00033699,-0.00029679,-0.00057758,-0.00003934,0.00000515,0.00000445,
 -0.00014600,-0.00162521,0.00237572,0.00133725,0.00044452,0.00106528,-0
 .00047743,0.00039603,-0.00027449,-0.00002996,-0.00032579,0.00006557,-0
 .00937406,0.01058897,0.00734629,0.00028200,-0.00034001,0.00202103,0.00
 002886,-0.00002244,0.00011919,0.00017884,0.00017127,-0.00066469,-0.000
 50700,-0.00029904,0.00056907,0.00002117,0.00004900,0.00003391,-0.00011
 932,-0.00118662,-0.00011356,0.00005261,-0.00002063,0.00006618,0.000229
 46,-0.00002774,0.00014855,-0.00004468,0.00000936,0.00000057,0.03006596
 ,-0.10539283,-0.03750600,0.00266211,-0.00242096,-0.00316702,-0.0000323
 6,0.00001359,0.00008475,-0.00004227,-0.00004427,-0.00002145,0.00000475
 ,0.00001769,0.00001143,-0.00001790,0.00001996,-0.00000404,-0.00011405,
 -0.00006833,-0.00001044,0.00002070,0.00002166,-0.00001247,-0.00003633,
 -0.00000427,0.00004516,0.00002243,-0.00000980,-0.00002004,0.01742149,-
 0.02420852,-0.02569823,-0.00233430,-0.00579115,-0.00080648,0.00079447,
 0.00136380,-0.00040589,0.00060518,0.00220599,0.00031404,0.03050453,0.5
 5875002,-0.00008819,-0.00029874,0.00026260,0.00010187,0.00004683,0.000
 01667,-0.00172871,-0.00056107,-0.00065795,0.00007378,0.00072833,-0.001
 49530,-0.00016329,-0.00044544,0.00077268,0.00006176,0.00011602,-0.0002
 3558,0.01670215,-0.01173756,-0.02990728,0.00051642,-0.00008689,-0.0007
 8922,0.00011099,0.00018216,-0.00059938,0.00038650,-0.00009093,0.001130
 63,0.00084661,0.00015512,-0.00029472,0.00001725,-0.00003121,-0.0000067
 1,-0.00012586,0.00162734,-0.00037058,-0.00003374,-0.00014557,-0.000004
 78,-0.00021840,0.00012606,-0.00008495,0.00006313,-0.00002406,-0.000003
 14,0.03869095,-0.04340577,-0.12927334,-0.00326541,0.00387160,0.0055382
 7,0.00005679,0.00000388,-0.00001936,0.00003665,0.00001668,0.00000704,0
 .00000244,-0.00003306,0.00001179,-0.00002259,0.00001128,0.00000500,0.0
 0005705,0.00002032,0.00001442,-0.00000783,-0.00001543,0.00001769,0.000
 02090,0.00000232,-0.00001765,-0.00001589,0.00000550,0.00000287,0.00223
 591,-0.00755507,-0.00394249,-0.00006699,0.00053623,0.00060788,0.000116
 92,0.00150578,0.00071095,0.00054887,0.00077107,-0.00002130,0.03688443,
 -0.04037367,0.52497437,-0.00009256,-0.00012818,0.00022090,0.00008436,0
 .00003455,-0.00002511,-0.00015897,-0.00035829,0.00061522,0.00021974,0.
 00030127,-0.00062395,-0.00012076,-0.00004150,0.00029701,0.00001842,-0.
 00001060,-0.00010283,0.00034731,0.00076116,-0.00142430,-0.00052349,-0.
 00046165,-0.00053447,0.00074766,0.00025673,-0.00024049,0.00026902,-0.0
 0043620,0.00033989,0.00042520,0.00010020,0.00006418,0.00004985,0.00004
 974,0.00000339,-0.00013293,0.00011261,-0.00041775,-0.00000279,-0.00005
 454,0.00002317,-0.00003654,0.00004018,0.00003920,0.00003917,-0.0000124
 6,-0.00001312,-0.01762432,0.00145184,-0.00350523,-0.00025698,0.0017336
 8,0.00293484,0.00004038,-0.00000593,-0.00003599,0.00000951,0.00001434,
 0.00000527,0.00000126,-0.00001346,0.00001039,-0.00000623,0.00001532,-0
 .00000115,0.00001932,-0.00000173,0.00000271,0.00000117,-0.00000661,0.0
 0001042,0.00000374,0.00000402,-0.00000437,-0.00000354,0.00000345,0.000
 00513,0.00095739,-0.00093713,-0.00036604,0.00033526,-0.00010346,0.0001
 3106,-0.00004645,0.00003399,0.00010737,0.00045267,0.00082749,0.0001695
 1,-0.29443688,0.02015286,-0.06543377,0.32090180,0.00009097,0.00017712,
 0.00014196,-0.00000375,-0.00001978,-0.00001622,0.00006172,0.00020605,-
 0.00009570,-0.00030359,-0.00044825,0.00004372,0.00017734,0.00009213,-0
 .00014198,-0.00002021,0.00004353,0.00006246,-0.00082755,-0.00007490,0.
 00036521,0.00029475,-0.00008505,0.00013176,-0.00016555,0.00030781,-0.0
 0014646,-0.00013327,-0.00000732,-0.00006474,-0.00010094,-0.00001822,0.
 00003532,-0.00001505,-0.00000713,-0.00000404,0.00002734,-0.00001144,0.
 00009906,0.00000696,0.00002724,-0.00000168,-0.00000248,-0.00002154,-0.
 00000586,-0.00000002,-0.00000001,-0.00000039,0.01727112,-0.00277243,0.
 00458142,0.00176180,-0.00131771,-0.00275022,-0.00000478,0.00000081,-0.
 00001408,0.00000376,0.00000289,0.00000022,-0.00000069,0.00000049,0.000
 00426,0.00000223,-0.00000177,-0.00000463,0.00000922,0.00000920,0.00000
 033,-0.00000171,-0.00000105,-0.00000053,0.00000263,0.00000040,-0.00000
 481,0.,-0.00000031,0.00000192,0.00104232,0.00115495,0.00105470,-0.0003
 6539,0.00018762,0.00004930,0.00001865,-0.00008031,0.00006811,-0.000446
 40,-0.00014176,-0.00041094,0.02024060,-0.04853490,0.00580266,-0.024750
 55,0.04939521,0.00001472,0.00015035,0.00001184,-0.00001713,-0.00002304
 ,-0.00002955,0.00010280,0.00052665,-0.00043948,-0.00017327,-0.00052243
 ,0.00036195,0.00014087,0.00017530,-0.00025708,-0.00002556,-0.00001445,
 0.00009381,0.00003963,0.00023533,0.00170490,0.00041030,-0.00008975,-0.
 00034017,-0.00026377,-0.00032380,-0.00189886,-0.00004173,0.00024535,-0
 .00033477,-0.00042670,-0.00002372,0.00007135,-0.00003650,-0.00002406,-
 0.00000528,0.00014814,-0.00018069,0.00037026,0.00001706,-0.00003825,-0
 .00002332,0.00004395,-0.00003052,-0.00001550,-0.00002086,0.00000045,0.
 00000584,0.02382692,-0.00250275,0.00525325,0.00273727,-0.00264342,-0.0
 0306109,-0.00002915,0.00000247,0.00001649,-0.00001305,-0.00001205,-0.0
 0000205,0.00000210,0.00001057,-0.00000202,0.00000522,-0.00000099,-0.00
 000086,-0.00002182,-0.00000637,-0.00000296,0.00000350,0.00000533,-0.00
 000701,-0.00000961,-0.00000425,0.00000733,0.00000628,-0.00000115,-0.00
 000517,0.00007379,0.00141724,0.00109805,-0.00007624,0.00027648,-0.0000
 4408,-0.00018265,-0.00009574,-0.00004374,-0.00056378,-0.00006478,0.000
 09650,-0.06680947,0.00598931,-0.06346906,0.07086693,-0.00397358,0.0693
 1755,-0.00009787,-0.00001005,-0.00020245,-0.00003781,-0.00001387,0.000
 05413,-0.00001868,-0.00031629,0.00053382,0.00031624,-0.00002395,0.0003
 5952,-0.00009529,0.00010962,-0.00016390,0.00002322,-0.00004623,0.00002
 945,-0.00133783,0.00290073,0.00142913,-0.00020471,-0.00023880,-0.00013
 060,0.00034923,0.00035061,0.00024385,0.00010084,-0.00038887,-0.0000351
 5,0.00015551,-0.00000817,0.00016886,0.00002403,0.00006202,0.00001643,-
 0.00008378,-0.00020942,-0.00030123,0.00000797,-0.00002626,0.00002727,0
 .00004363,0.00001565,0.00005680,-0.00000453,0.00000429,-0.00000388,-0.
 00006175,-0.00794804,0.01654225,0.00034622,-0.00072194,-0.00025322,0.0
 0001284,-0.00000251,-0.00000545,-0.00000514,0.00000105,0.00000367,-0.0
 0000315,0.00000248,-0.00000164,0.00000523,0.00000255,-0.00000039,-0.00
 001624,-0.00000843,0.00000201,0.00000292,0.00000482,-0.00000322,-0.000
 00641,-0.00000042,0.00000647,0.00000424,-0.00000264,-0.00000241,0.0001
 5083,-0.00076648,-0.00056312,-0.00018191,-0.00011809,-0.00006656,0.000
 31780,0.00011944,-0.00021074,-0.00003673,0.00014416,-0.00011182,-0.048
 05959,0.00715789,-0.01578510,-0.00053004,0.01523916,-0.02774648,0.0488
 2066,-0.00005200,-0.00000357,-0.00004105,0.00000013,0.00000947,0.00004
 810,0.00002576,0.00044220,-0.00048116,0.00001221,-0.00005120,-0.000075
 22,-0.00000930,-0.00004310,0.00002376,0.00001844,0.00002127,-0.0000124
 8,0.00180595,-0.00162539,-0.00170338,-0.00007713,0.00039667,-0.0002043
 4,-0.00008818,-0.00011205,-0.00000116,-0.00007326,0.00005349,0.0000919
 0,0.00005745,0.00002458,-0.00010765,-0.00000507,-0.00001331,-0.0000004
 1,0.00010803,0.00022934,0.00002520,-0.00000624,-0.00001096,-0.00002488
 ,-0.00001914,0.00000862,-0.00004236,-0.00000376,0.00000027,0.00000398,
 -0.00188673,0.00701387,-0.01647195,-0.00045928,0.00060383,0.00068582,-
 0.00001095,-0.00000207,0.00000051,-0.00000557,-0.00000076,0.00001020,0
 .00000179,0.00000305,-0.00000953,0.00001565,0.00000077,0.00000364,0.00
 000249,0.00000664,0.00000073,0.00000034,-0.00000068,-0.00000127,-0.000
 00253,-0.00000347,-0.00000016,0.00000014,0.00000103,-0.00000044,-0.000
 09278,0.00128544,-0.00052309,-0.00000616,0.00021434,0.00021348,0.00017
 908,-0.00033578,0.00003598,-0.00009521,-0.00006660,0.00002390,0.007402
 30,-0.10782055,0.11229219,-0.00016825,-0.00197382,0.00090804,-0.010047
 89,0.11401076,0.00024043,0.00005801,0.00029734,0.00001964,0.00001256,-
 0.00005292,-0.00026406,-0.00001517,-0.00065073,-0.00067733,0.00007005,
 -0.00049516,0.00027631,-0.00028459,0.00018546,-0.00003717,0.00014165,-
 0.00003015,0.00303336,-0.00318282,-0.00156476,0.00030169,0.00010199,-0
 .00021110,-0.00001051,0.00006803,0.00014480,-0.00002649,-0.00013699,0.
 00026871,0.00032887,0.00010814,-0.00020296,-0.00000225,-0.00000132,-0.
 00001868,-0.00005831,0.00042603,-0.00012981,-0.00002854,0.00001521,-0.
 00004460,-0.00013362,0.00006213,-0.00001418,0.00002868,-0.00000601,-0.
 00000275,-0.00218675,0.01096440,-0.01981728,0.00019548,0.00015292,0.00
 078578,0.00004844,-0.00000599,-0.00004737,0.00003406,0.00003093,0.0000
 0113,-0.00000675,-0.00001453,0.00000130,-0.00001019,-0.00001241,0.0000
 0083,0.00005670,0.00003042,0.00000852,-0.00001298,-0.00001115,0.000008
 34,0.00002652,0.00000715,-0.00002518,-0.00001509,0.00000242,0.00001253
 ,-0.00054220,0.00134975,0.00053162,0.00012342,-0.00009957,0.00051949,-
 0.00009296,-0.00101838,0.00025324,0.00005169,-0.00007536,-0.00005178,-
 0.01523633,0.11085054,-0.25359151,-0.00016985,0.00305638,-0.00655707,0
 .01415992,-0.12070136,0.27636644,0.00013052,-0.00010631,-0.00033882,-0
 .00006324,-0.00000458,0.00000756,0.00009225,0.00000271,-0.00039822,0.0
 0000961,0.00028872,0.00035648,0.00002821,-0.00016378,-0.00007301,0.000
 02266,0.00002485,-0.00000132,0.00060127,0.00022974,-0.00046402,-0.0003
 9829,-0.00004815,0.00003280,0.00009311,-0.00012644,0.00003610,0.000173
 85,0.00019240,-0.00012976,-0.00014231,0.00005148,-0.00006896,0.0000024
 3,-0.00000730,-0.00001871,0.00003142,-0.00007309,0.00015772,-0.0000112
 2,-0.00002084,-0.00001082,0.00000761,-0.00000099,-0.00000082,-0.000010
 75,0.00001197,0.00000422,0.00663862,0.01656130,0.00149596,0.00063684,-
 0.00015714,-0.00082469,0.00000172,-0.00000364,0.00001205,0.00000020,0.
 00000322,-0.00000131,-0.00000550,0.00000513,-0.00001538,0.00000586,-0.
 00001710,0.00000570,-0.00000401,0.00000385,0.00000246,-0.00000224,0.00
 000038,-0.00000477,0.00000210,-0.00000027,-0.00000097,-0.00000280,-0.0
 0000160,-0.00000095,-0.00156596,0.00153343,0.00266788,0.00066406,0.000
 97054,0.00033455,-0.00019792,-0.00018913,0.00003913,0.00026507,0.00023
 627,0.00027585,-0.08855422,-0.09789058,-0.01057559,-0.01095077,-0.0291
 0862,-0.00198171,0.00010006,0.00347970,0.00058617,0.09240180,0.0000534
 6,0.00015396,0.00031244,0.00004741,-0.00001622,-0.00004683,0.00014371,
 0.00032571,-0.00029452,-0.00007074,-0.00050928,-0.00038028,0.00002699,
 0.00029480,0.00001066,-0.00007551,-0.00005913,0.00004763,0.00001373,0.
 00042035,0.00128515,-0.00021425,0.00029502,-0.00031785,0.00008142,0.00
 002648,0.00000945,-0.00005378,-0.00015691,-0.00002124,0.00004415,0.000
 00904,-0.00000698,0.00000305,0.00002410,0.00001032,0.00008337,-0.00007
 723,-0.00009429,-0.00000073,0.00000111,-0.00001469,-0.00001280,0.00001
 079,-0.00000988,0.00000211,-0.00000556,-0.00000384,-0.00651107,-0.0142
 0472,-0.00078161,0.00024531,0.00018962,0.00038709,0.00000359,-0.000004
 86,-0.00001982,0.00000012,0.00000562,0.00000492,0.00000117,0.00000160,
 0.00000143,0.00000492,0.00000615,-0.00000050,0.00001108,0.00000177,-0.
 00000191,-0.00000047,0.00000020,0.00000148,0.00000091,0.00000022,-0.00
 000351,0.00000142,0.00000327,0.00000581,0.00289176,-0.00076622,-0.0028
 5839,-0.00050010,-0.00093630,-0.00032116,0.00003512,0.00043730,0.00004
 099,-0.00004000,0.00016913,0.00006367,-0.09692023,-0.27561714,-0.02301
 690,0.00159713,0.00391224,0.00063292,-0.00521612,-0.01226234,-0.001943
 07,0.10432388,0.29832743,-0.00015526,0.00007405,-0.00008325,-0.0000104
 1,0.00000290,0.00006465,0.00013553,0.00026578,0.00012176,0.00030483,-0
 .00037592,0.00010224,-0.00009493,0.00024554,-0.00010565,-0.00002978,-0
 .00008490,0.00005400,-0.00074972,-0.00114177,0.00114842,-0.00034078,0.
 00027415,0.00013106,0.00008286,-0.00011989,0.00002849,0.00001777,0.000
 11833,-0.00009974,-0.00003887,-0.00004201,0.00000968,0.00000946,0.0000
 0031,0.00000213,0.00007269,0.00003733,-0.00006706,0.00000392,-0.000011
 91,-0.00001169,0.00003779,-0.00002201,-0.00001714,-0.00001549,0.000003
 05,0.00000242,-0.01028009,-0.02061342,-0.00369799,-0.00009320,0.000738
 48,0.00075860,-0.00002277,-0.00000150,0.00000494,-0.00001833,-0.000006
 39,0.00001304,0.00000245,0.00000958,-0.00001164,0.00002845,0.00000767,
 0.00000500,-0.00001936,-0.00000354,-0.00000499,0.00000469,0.00000398,-
 0.00000443,-0.00001102,-0.00000506,0.00000957,0.00000664,0.00000193,-0
 .00000164,0.00321072,-0.00184979,-0.00343357,-0.00036765,-0.00161405,0
 .00020231,0.00006773,-0.00025372,0.00025181,0.00014976,0.00032298,0.00
 000173,-0.00978844,-0.02145500,-0.04928858,-0.00294815,-0.00786294,-0.
 00187000,0.01195377,0.02603445,0.00412246,0.00889520,0.02732331,0.0516
 6307\\-0.00000073,0.00000106,0.00000076,-0.00000071,0.00000143,0.00000
 107,0.00000004,0.00000011,0.00000007,-0.00000006,0.00000073,0.00000059
 ,0.00000050,0.00000098,0.00000086,0.00000095,0.00000073,0.00000072,-0.
 00000006,-0.00000037,-0.00000032,0.00000012,-0.00000095,-0.00000071,0.
 00000007,-0.00000131,-0.00000106,0.00000023,-0.00000100,-0.00000082,0.
 00000021,-0.00000053,-0.00000041,0.00000036,-0.00000060,-0.00000045,0.
 00000019,0.00000001,0.00000006,0.00000031,-0.00000144,-0.00000114,0.00
 000013,0.00000055,0.00000046,0.00000031,0.00000091,0.00000079,-0.00000
 017,-0.00000031,-0.00000027,-0.00000024,0.00000016,0.00000010,-0.00000
 063,0.00000070,0.00000048,-0.00000065,0.00000108,0.00000079,-0.0000008
 2,0.00000034,0.00000017,-0.00000102,0.00000078,0.00000051,0.00000070,0
 .00000047,0.00000048,0.00000053,0.00000015,0.00000019,0.00000073,0.000
 00087,0.00000081,0.00000125,0.00000032,0.00000043,0.00000049,-0.000000
 55,-0.00000038,0.00000100,-0.00000036,-0.00000016,0.00000039,-0.000000
 48,-0.00000034,0.00000059,-0.00000102,-0.00000075,-0.00000087,-0.00000
 057,-0.00000058,-0.00000082,-0.00000103,-0.00000095,-0.00000099,-0.000
 00049,-0.00000053,-0.00000134,-0.00000038,-0.00000049\\\@
 The archive entry for this job was punched.


 THE VALUE OF PHILOSOPHY IS, IN FACT, TO BE SOUGHT LARGELY IN ITS
 VERY UNCERTAINTY.  THE MAN WHO HAS NO TINCTURE OF PHILOSOPHY GOES
 THROUGH LIFE IMPRISONED IN THE PREJUDICES DERIVED FROM COMMON SENSE,
 FROM THE HABITUAL BELIEFS OF HIS AGE OR HIS NATION, AND FROM
 CONVICTIONS WHICH HAVE GROWN UP IN HIS MIND WITHOUT THE CO-OPERATION
 OR CONSENT OF HIS DELIBERATE REASON.  TO SUCH A MAN THE WORLD TENDS
 TO BE DEFINITE, FINITE, OBVIOUS; COMMON OBJECTS ROUSE NO QUESTIONS,
 AND UNFAMILIAR POSSIBILITIES ARE CONTEMPTUOUSLY REJECTED.

                             -- BERTRAND RUSSELL
 Job cpu time:       0 days  4 hours 41 minutes 42.3 seconds.
 Elapsed time:       0 days  0 hours  8 minutes 56.4 seconds.
 File lengths (MBytes):  RWF=    591 Int=      0 D2E=      0 Chk=     18 Scr=      1
 Normal termination of Gaussian 16 at Tue May  6 08:51:06 2025.
