/home/tahminaafroz
cn013.cluster.local
tahminaafroz
Fri May 30 05:04:49 CDT 2025
 Entering Gaussian System, Link 0=g16
 Initial command:
 /home/apps/g16/l1.exe "/tmp/2-OMe-ph-anion-opt-freq-thf/Gau-1705548.inp" -scrdir="/tmp/2-OMe-ph-anion-opt-freq-thf/"
 Entering Link 1 = /home/apps/g16/l1.exe PID=   1705549.
  
 Copyright (c) 1988-2019, Gaussian, Inc.  All Rights Reserved.
  
 This is part of the Gaussian(R) 16 program.  It is based on
 the Gaussian(R) 09 system (copyright 2009, Gaussian, Inc.),
 the Gaussian(R) 03 system (copyright 2003, Gaussian, Inc.),
 the Gaussian(R) 98 system (copyright 1998, Gaussian, Inc.),
 the Gaussian(R) 94 system (copyright 1995, Gaussian, Inc.),
 the Gaussian 92(TM) system (copyright 1992, Gaussian, Inc.),
 the Gaussian 90(TM) system (copyright 1990, Gaussian, Inc.),
 the Gaussian 88(TM) system (copyright 1988, Gaussian, Inc.),
 the Gaussian 86(TM) system (copyright 1986, Carnegie Mellon
 University), and the Gaussian 82(TM) system (copyright 1983,
 Carnegie Mellon University). Gaussian is a federally registered
 trademark of Gaussian, Inc.
  
 This software contains proprietary and confidential information,
 including trade secrets, belonging to Gaussian, Inc.
  
 This software is provided under written license and may be
 used, copied, transmitted, or stored only in accord with that
 written license.
  
 The following legend is applicable only to US Government
 contracts under FAR:
  
                    RESTRICTED RIGHTS LEGEND
  
 Use, reproduction and disclosure by the US Government is
 subject to restrictions as set forth in subparagraphs (a)
 and (c) of the Commercial Computer Software - Restricted
 Rights clause in FAR 52.227-19.
  
 Gaussian, Inc.
 340 Quinnipiac St., Bldg. 40, Wallingford CT 06492
  
  
 ---------------------------------------------------------------
 Warning -- This program may not be used in any manner that
 competes with the business of Gaussian, Inc. or will provide
 assistance to any competitor of Gaussian, Inc.  The licensee
 of this program is prohibited from giving any competitor of
 Gaussian, Inc. access to this program.  By using this program,
 the user acknowledges that Gaussian, Inc. is engaged in the
 business of creating and licensing software in the field of
 computational chemistry and represents and warrants to the
 licensee that it is not a competitor of Gaussian, Inc. and that
 it will not use this program in any manner prohibited above.
 ---------------------------------------------------------------
  

 Cite this work as:
 Gaussian 16, Revision C.01,
 M. J. Frisch, G. W. Trucks, H. B. Schlegel, G. E. Scuseria, 
 M. A. Robb, J. R. Cheeseman, G. Scalmani, V. Barone, 
 G. A. Petersson, H. Nakatsuji, X. Li, M. Caricato, A. V. Marenich, 
 J. Bloino, B. G. Janesko, R. Gomperts, B. Mennucci, H. P. Hratchian, 
 J. V. Ortiz, A. F. Izmaylov, J. L. Sonnenberg, D. Williams-Young, 
 F. Ding, F. Lipparini, F. Egidi, J. Goings, B. Peng, A. Petrone, 
 T. Henderson, D. Ranasinghe, V. G. Zakrzewski, J. Gao, N. Rega, 
 G. Zheng, W. Liang, M. Hada, M. Ehara, K. Toyota, R. Fukuda, 
 J. Hasegawa, M. Ishida, T. Nakajima, Y. Honda, O. Kitao, H. Nakai, 
 T. Vreven, K. Throssell, J. A. Montgomery, Jr., J. E. Peralta, 
 F. Ogliaro, M. J. Bearpark, J. J. Heyd, E. N. Brothers, K. N. Kudin, 
 V. N. Staroverov, T. A. Keith, R. Kobayashi, J. Normand, 
 K. Raghavachari, A. P. Rendell, J. C. Burant, S. S. Iyengar, 
 J. Tomasi, M. Cossi, J. M. Millam, M. Klene, C. Adamo, R. Cammi, 
 J. W. Ochterski, R. L. Martin, K. Morokuma, O. Farkas, 
 J. B. Foresman, and D. J. Fox, Gaussian, Inc., Wallingford CT, 2019.
 
 ******************************************
 Gaussian 16:  AS64L-G16RevC.01  3-Jul-2019
                30-May-2025 
 ******************************************
 %mem=20GB
 %nprocshared=32
 Will use up to   32 processors via shared memory.
 %chk=2-OMe-ph-anion-opt-freq-thf.chk
 ----------------------------------------------------------------------
 # opt=(calcfc,tight) freq 6-311+g(d,p) scrf=(smd,solvent=thf) nosymm s
 cf=(qc,fermi,xqc) geom=connectivity int=ultrafine m062x
 ----------------------------------------------------------------------
 1/7=10,10=4,18=20,19=15,26=6,38=1,57=2/1,3;
 2/9=110,12=2,15=1,17=6,18=5,40=1/2;
 3/5=4,6=6,7=111,11=2,25=1,30=1,70=32201,71=2,72=20,74=-55,75=-5,140=1/1,2,3;
 4//1;
 5/5=2,22=13,38=5,53=20/2;
 8/6=4,10=90,11=11/1;
 11/6=1,8=1,9=11,15=111,16=1,31=1/1,2,10;
 10/6=1,13=1,31=1/2;
 6/7=2,8=2,9=2,10=2,28=1/1;
 7/10=1,25=1,30=1/1,2,3,16;
 1/7=10,10=4,18=20,19=15,26=6/3(2);
 2/9=110,15=1/2;
 99//99;
 2/9=110,15=1/2;
 3/5=4,6=6,7=111,11=2,25=1,30=1,70=32205,71=1,72=20,74=-55,75=-5/1,2,3;
 4/5=5,16=3,69=1/1;
 5/5=2,22=13,38=5,53=20/2;
 7/30=1/1,2,3,16;
 1/7=10,18=20,19=15,26=6/3(-5);
 2/9=110,15=1/2;
 6/7=2,8=2,9=2,10=2,19=2,28=1/1;
 99/9=1/99;
 ---------------------------
 2-OMe-ph-anion-opt-freq-thf
 ---------------------------
 Symbolic Z-matrix:
 Charge = -1 Multiplicity = 1
 C                     6.13711   6.97124   5.18031 
 C                     5.1638    6.13263   5.64291 
 H                     5.37905   5.3599    6.37325 
 C                     3.86664   6.30832   5.13547 
 H                     3.0607    5.66731   5.47251 
 C                     3.63385   7.30889   4.20191 
 C                     4.65969   8.14667   3.75459 
 C                     5.95757   7.98345   4.25166 
 H                     2.63565   7.45176   3.80432 
 H                     4.43967   8.91629   3.02505 
 O                     7.03084   8.72704   3.8987 
 C                     6.81922   9.76248   2.94923 
 H                     6.46527   9.35696   1.9971 
 H                     6.10472   10.50056   3.32485 
 H                     7.78721   10.23715   2.80313 
 

 GradGradGradGradGradGradGradGradGradGradGradGradGradGradGradGradGradGrad
 Berny optimization.
 Initialization pass.
                           ----------------------------
                           !    Initial Parameters    !
                           ! (Angstroms and Degrees)  !
 --------------------------                            --------------------------
 ! Name  Definition              Value          Derivative Info.                !
 --------------------------------------------------------------------------------
 ! R1    R(1,2)                  1.3655         calculate D2E/DX2 analytically  !
 ! R2    R(1,8)                  1.3854         calculate D2E/DX2 analytically  !
 ! R3    R(2,3)                  1.0848         calculate D2E/DX2 analytically  !
 ! R4    R(2,4)                  1.4039         calculate D2E/DX2 analytically  !
 ! R5    R(4,5)                  1.0835         calculate D2E/DX2 analytically  !
 ! R6    R(4,6)                  1.3881         calculate D2E/DX2 analytically  !
 ! R7    R(6,7)                  1.398          calculate D2E/DX2 analytically  !
 ! R8    R(6,9)                  1.0839         calculate D2E/DX2 analytically  !
 ! R9    R(7,8)                  1.3994         calculate D2E/DX2 analytically  !
 ! R10   R(7,10)                 1.083          calculate D2E/DX2 analytically  !
 ! R11   R(8,11)                 1.3526         calculate D2E/DX2 analytically  !
 ! R12   R(11,12)                1.4207         calculate D2E/DX2 analytically  !
 ! R13   R(12,13)                1.0937         calculate D2E/DX2 analytically  !
 ! R14   R(12,14)                1.0938         calculate D2E/DX2 analytically  !
 ! R15   R(12,15)                1.088          calculate D2E/DX2 analytically  !
 ! A1    A(2,1,8)              125.6928         calculate D2E/DX2 analytically  !
 ! A2    A(1,2,3)              121.608          calculate D2E/DX2 analytically  !
 ! A3    A(1,2,4)              117.3406         calculate D2E/DX2 analytically  !
 ! A4    A(3,2,4)              121.0513         calculate D2E/DX2 analytically  !
 ! A5    A(2,4,5)              120.0523         calculate D2E/DX2 analytically  !
 ! A6    A(2,4,6)              119.225          calculate D2E/DX2 analytically  !
 ! A7    A(5,4,6)              120.7227         calculate D2E/DX2 analytically  !
 ! A8    A(4,6,7)              121.6079         calculate D2E/DX2 analytically  !
 ! A9    A(4,6,9)              119.745          calculate D2E/DX2 analytically  !
 ! A10   A(7,6,9)              118.6472         calculate D2E/DX2 analytically  !
 ! A11   A(6,7,8)              119.8042         calculate D2E/DX2 analytically  !
 ! A12   A(6,7,10)             119.4936         calculate D2E/DX2 analytically  !
 ! A13   A(8,7,10)             120.7022         calculate D2E/DX2 analytically  !
 ! A14   A(1,8,7)              116.3295         calculate D2E/DX2 analytically  !
 ! A15   A(1,8,11)             118.2797         calculate D2E/DX2 analytically  !
 ! A16   A(7,8,11)             125.3908         calculate D2E/DX2 analytically  !
 ! A17   A(8,11,12)            117.1864         calculate D2E/DX2 analytically  !
 ! A18   A(11,12,13)           111.0849         calculate D2E/DX2 analytically  !
 ! A19   A(11,12,14)           111.0753         calculate D2E/DX2 analytically  !
 ! A20   A(11,12,15)           105.9739         calculate D2E/DX2 analytically  !
 ! A21   A(13,12,14)           109.7391         calculate D2E/DX2 analytically  !
 ! A22   A(13,12,15)           109.4387         calculate D2E/DX2 analytically  !
 ! A23   A(14,12,15)           109.446          calculate D2E/DX2 analytically  !
 ! D1    D(8,1,2,3)           -179.9991         calculate D2E/DX2 analytically  !
 ! D2    D(8,1,2,4)              0.0042         calculate D2E/DX2 analytically  !
 ! D3    D(2,1,8,7)             -0.0129         calculate D2E/DX2 analytically  !
 ! D4    D(2,1,8,11)          -179.991          calculate D2E/DX2 analytically  !
 ! D5    D(1,2,4,5)           -179.9826         calculate D2E/DX2 analytically  !
 ! D6    D(1,2,4,6)              0.0123         calculate D2E/DX2 analytically  !
 ! D7    D(3,2,4,5)              0.0207         calculate D2E/DX2 analytically  !
 ! D8    D(3,2,4,6)           -179.9844         calculate D2E/DX2 analytically  !
 ! D9    D(2,4,6,7)             -0.0197         calculate D2E/DX2 analytically  !
 ! D10   D(2,4,6,9)            179.9807         calculate D2E/DX2 analytically  !
 ! D11   D(5,4,6,7)            179.9751         calculate D2E/DX2 analytically  !
 ! D12   D(5,4,6,9)             -0.0244         calculate D2E/DX2 analytically  !
 ! D13   D(4,6,7,8)              0.0107         calculate D2E/DX2 analytically  !
 ! D14   D(4,6,7,10)           179.9893         calculate D2E/DX2 analytically  !
 ! D15   D(9,6,7,8)           -179.9897         calculate D2E/DX2 analytically  !
 ! D16   D(9,6,7,10)            -0.0112         calculate D2E/DX2 analytically  !
 ! D17   D(6,7,8,1)              0.0052         calculate D2E/DX2 analytically  !
 ! D18   D(6,7,8,11)           179.9815         calculate D2E/DX2 analytically  !
 ! D19   D(10,7,8,1)          -179.9731         calculate D2E/DX2 analytically  !
 ! D20   D(10,7,8,11)            0.0032         calculate D2E/DX2 analytically  !
 ! D21   D(1,8,11,12)         -179.7274         calculate D2E/DX2 analytically  !
 ! D22   D(7,8,11,12)            0.2967         calculate D2E/DX2 analytically  !
 ! D23   D(8,11,12,13)         -61.3583         calculate D2E/DX2 analytically  !
 ! D24   D(8,11,12,14)          61.0879         calculate D2E/DX2 analytically  !
 ! D25   D(8,11,12,15)         179.8666         calculate D2E/DX2 analytically  !
 --------------------------------------------------------------------------------
 Trust Radius=3.00D-01 FncErr=5.00D-06 GrdErr=5.00D-06 EigMax=2.50D+02 EigMin=1.00D-04
 Number of steps in this run=     73 maximum allowed number of steps=    100.
 GradGradGradGradGradGradGradGradGradGradGradGradGradGradGradGradGradGrad

                          Input orientation:                          
 ---------------------------------------------------------------------
 Center     Atomic      Atomic             Coordinates (Angstroms)
 Number     Number       Type             X           Y           Z
 ---------------------------------------------------------------------
      1          6           0        6.137113    6.971240    5.180311
      2          6           0        5.163799    6.132629    5.642914
      3          1           0        5.379045    5.359904    6.373246
      4          6           0        3.866640    6.308316    5.135473
      5          1           0        3.060701    5.667311    5.472507
      6          6           0        3.633847    7.308887    4.201909
      7          6           0        4.659691    8.146670    3.754593
      8          6           0        5.957569    7.983453    4.251655
      9          1           0        2.635650    7.451756    3.804320
     10          1           0        4.439671    8.916294    3.025052
     11          8           0        7.030838    8.727044    3.898696
     12          6           0        6.819223    9.762485    2.949227
     13          1           0        6.465265    9.356956    1.997101
     14          1           0        6.104720   10.500555    3.324846
     15          1           0        7.787212   10.237155    2.803128
 ---------------------------------------------------------------------
                    Distance matrix (angstroms):
                    1          2          3          4          5
     1  C    0.000000
     2  C    1.365507   0.000000
     3  H    2.143400   1.084813   0.000000
     4  C    2.365698   1.403917   2.172311   0.000000
     5  H    3.354090   2.160690   2.506102   1.083521   0.000000
     6  C    2.708804   2.408492   3.399846   1.388120   2.153529
     7  C    2.365816   2.806464   3.891128   2.432140   3.413974
     8  C    1.385357   2.447697   3.423280   2.821206   3.904720
     9  H    3.792689   3.392943   4.301330   2.143539   2.479468
    10  H    3.362988   3.889261   4.974006   3.403497   4.295054
    11  O    2.350347   3.641307   4.493267   4.170373   5.253650
    12  C    3.637865   4.813755   5.760272   5.042688   6.104415
    13  H    3.991510   5.038060   6.025524   5.088854   6.105979
    14  H    3.987463   5.033642   6.020435   5.085493   6.102356
    15  H    4.363488   5.638600   6.506350   6.020506   7.095700
                    6          7          8          9         10
     6  C    0.000000
     7  C    1.397973   0.000000
     8  C    2.420165   1.399356   0.000000
     9  H    1.083921   2.140589   3.393811   0.000000
    10  H    2.148977   1.083033   2.163045   2.450841   0.000000
    11  O    3.693597   2.445391   1.352558   4.577439   2.741025
    12  C    4.211410   2.814791   2.367218   4.855197   2.526669
    13  H    4.131912   2.795294   2.688360   4.643466   2.313849
    14  H    4.130520   2.795276   2.686342   4.643223   2.317789
    15  H    5.270843   3.880309   3.244225   5.941332   3.605545
                   11         12         13         14         15
    11  O    0.000000
    12  C    1.420708   0.000000
    13  H    2.081520   1.093748   0.000000
    14  H    2.081427   1.093779   1.789055   0.000000
    15  H    2.013158   1.087961   1.781004   1.781109   0.000000
 Symmetry turned off by external request.
 Stoichiometry    C7H7O(1-)
 Framework group  C1[X(C7H7O)]
 Deg. of freedom    39
 Full point group                 C1      NOp   1
 Rotational constants (GHZ):           5.4387366           1.5606851           1.2221554
 Standard basis: 6-311+G(d,p) (5D, 7F)
   218 basis functions,   344 primitive gaussians,   226 cartesian basis functions
    29 alpha electrons       29 beta electrons
       nuclear repulsion energy       334.5954421948 Hartrees.
 NAtoms=   15 NActive=   15 NUniq=   15 SFac= 1.00D+00 NAtFMM=   60 NAOKFM=F Big=F
 Integral buffers will be    131072 words long.
 Raffenetti 2 integral format.
 Two-electron integral symmetry is turned off.
 Force inversion solution in PCM.
 ------------------------------------------------------------------------------
 Polarizable Continuum Model (PCM)
 =================================
 Model                : PCM.
 Atomic radii         : SMD-Coulomb.
 Polarization charges : Total charges.
 Charge compensation  : None.
 Solution method      : Matrix inversion.
 Cavity type          : VdW (van der Waals Surface) (Alpha=1.000).
 Cavity algorithm     : GePol (No added spheres)
                        Default sphere list used, NSphG=   15.
                        Lebedev-Laikov grids with approx.  5.0 points / Ang**2.
                        Smoothing algorithm: York/Karplus (Gamma=1.0000).
                        Polarization charges: spherical gaussians, with
                                              point-specific exponents (IZeta= 3).
                        Self-potential: point-specific (ISelfS= 7).
                        Self-field    : sphere-specific E.n sum rule (ISelfD= 2).
 1st derivatives      : Analytical E(r).r(x)/FMM algorithm (CHGder, D1EAlg=3).
                        Cavity 1st derivative terms included.
 2nd derivatives      : Analytical E(r).r(xy)/FMM algorithm (CHGder, D2EAlg=3).
                        Cavity 2nd derivative terms included.
 Solvent              : TetraHydroFuran, Eps=   7.425700 Eps(inf)=   1.974025
 ------------------------------------------------------------------------------
 Spheres list:
 ISph  on   Nord     Re0    Alpha      Xe            Ye            Ze
    1   C      1    1.8500  1.000      6.137113      6.971240      5.180311
    2   C      2    1.8500  1.000      5.163799      6.132629      5.642914
    3   H      3    1.2000  1.000      5.379045      5.359904      6.373246
    4   C      4    1.8500  1.000      3.866640      6.308316      5.135473
    5   H      5    1.2000  1.000      3.060701      5.667311      5.472507
    6   C      6    1.8500  1.000      3.633847      7.308887      4.201909
    7   C      7    1.8500  1.000      4.659691      8.146670      3.754593
    8   C      8    1.8500  1.000      5.957569      7.983453      4.251655
    9   H      9    1.2000  1.000      2.635650      7.451756      3.804320
   10   H     10    1.2000  1.000      4.439671      8.916294      3.025052
   11   O     11    2.2940  1.000      7.030838      8.727044      3.898696
   12   C     12    1.8500  1.000      6.819223      9.762485      2.949227
   13   H     13    1.2000  1.000      6.465265      9.356956      1.997101
   14   H     14    1.2000  1.000      6.104720     10.500555      3.324846
   15   H     15    1.2000  1.000      7.787212     10.237155      2.803128
 ------------------------------------------------------------------------------
 ------------------------------------------------------------------------------
 Atomic radii for non-electrostatic terms: SMD-CDS.
 ------------------------------------------------------------------------------
 Nuclear repulsion after PCM non-electrostatic terms =      334.5931925139 Hartrees.
 One-electron integrals computed using PRISM.
 NBasis=   218 RedAO= T EigKep=  2.70D-06  NBF=   218
 NBsUse=   218 1.00D-06 EigRej= -1.00D+00 NBFU=   218
 ExpMin= 4.38D-02 ExpMax= 8.59D+03 ExpMxC= 1.30D+03 IAcc=3 IRadAn=         5 AccDes= 0.00D+00
 Harris functional with IExCor= 1009 and IRadAn=       5 diagonalized for initial guess.
 HarFok:  IExCor= 1009 AccDes= 0.00D+00 IRadAn=         5 IDoV= 1 UseB2=F ITyADJ=14
 ICtDFT=  3500011 ScaDFX=  1.000000  1.000000  1.000000  1.000000
 FoFCou: FMM=F IPFlag=           0 FMFlag=      100000 FMFlg1=           0
         NFxFlg=           0 DoJE=T BraDBF=F KetDBF=T FulRan=T
         wScrn=  0.000000 ICntrl=       500 IOpCl=  0 I1Cent=   200000004 NGrid=           0
         NMat0=    1 NMatS0=      1 NMatT0=    0 NMatD0=    1 NMtDS0=    0 NMtDT0=    0
 Symmetry not used in FoFCou.
 Requested convergence on RMS density matrix=1.00D-08 within 128 cycles.
 Requested convergence on MAX density matrix=1.00D-06.
 Requested convergence on             energy=1.00D-06.
 Level shift goal  0.100 maximum shift  0.100.
 No special actions if energy rises.
 Dynamic level shift is on during FON iterations.
 Inv3:  Mode=1 IEnd=     4899852.
 Iteration    1 A*A^-1 deviation from unit magnitude is 6.22D-15 for   1276.
 Iteration    1 A*A^-1 deviation from orthogonality  is 1.90D-15 for   1277   1067.
 Iteration    1 A^-1*A deviation from unit magnitude is 5.77D-15 for   1276.
 Iteration    1 A^-1*A deviation from orthogonality  is 1.64D-15 for   1269   1152.
 Error on total polarization charges =  0.05531
 SCF Done:  E(RM062X) =  -346.148016015     A.U. after   17 cycles
            NFock= 17  Conv=0.46D-08     -V/T= 2.0035
 SMD-CDS (non-electrostatic) energy       (kcal/mol) =      -1.41
 (included in total energy above)
 DoSCS=F DFT=T ScalE2(SS,OS)=  1.000000  1.000000
 Range of M.O.s used for correlation:     1   218
 NBasis=   218 NAE=    29 NBE=    29 NFC=     0 NFV=     0
 NROrb=    218 NOA=    29 NOB=    29 NVA=   189 NVB=   189

 **** Warning!!: The largest alpha MO coefficient is  0.15372529D+03

 Symmetrizing basis deriv contribution to polar:
 IMax=3 JMax=2 DiffMx= 0.00D+00
 G2DrvN: will do    16 centers at a time, making    1 passes.
 Calling FoFCou, ICntrl=  3107 FMM=F I1Cent=   0 AccDes= 0.00D+00.
 NEqPCM:  Using equilibrium solvation (IEInf=0, Eps=   7.4257, EpsInf=   1.9740)
 G2PCM: DoFxE=T DoFxN=T DoGrad=T DoDP/DQ/DG/TGxP=FFFF NFrqRd=   0 IEInf=0 SqF1=F DoCFld=F IF1Alg=4.
 End of G2Drv F.D. properties file   721 does not exist.
 End of G2Drv F.D. properties file   722 does not exist.
 End of G2Drv F.D. properties file   788 does not exist.
          IDoAtm=111111111111111
 NEqPCM:  Using equilibrium solvation (IEInf=0, Eps=   7.4257, EpsInf=   1.9740)
          Differentiating once with respect to nuclear coordinates.
 Keep R1 ints in memory in canonical form, NReq=318622049.
          There are    48 degrees of freedom in the 1st order CPHF.  IDoFFX=6 NUNeed=     0.
     42 vectors produced by pass  0 Test12= 1.14D-14 2.08D-09 XBig12= 1.24D-01 9.77D-02.
 AX will form    42 AO Fock derivatives at one time.
     42 vectors produced by pass  1 Test12= 1.14D-14 2.08D-09 XBig12= 1.10D-02 2.59D-02.
     42 vectors produced by pass  2 Test12= 1.14D-14 2.08D-09 XBig12= 4.69D-04 4.32D-03.
     42 vectors produced by pass  3 Test12= 1.14D-14 2.08D-09 XBig12= 3.91D-06 4.25D-04.
     42 vectors produced by pass  4 Test12= 1.14D-14 2.08D-09 XBig12= 2.62D-08 3.41D-05.
     42 vectors produced by pass  5 Test12= 1.14D-14 2.08D-09 XBig12= 1.44D-10 1.63D-06.
     35 vectors produced by pass  6 Test12= 1.14D-14 2.08D-09 XBig12= 6.03D-13 7.65D-08.
     10 vectors produced by pass  7 Test12= 1.14D-14 2.08D-09 XBig12= 2.45D-15 6.96D-09.
 InvSVY:  IOpt=1 It=  1 EMax= 3.11D-15
 Solved reduced A of dimension   297 with    42 vectors.
 End of Minotr F.D. properties file   721 does not exist.
 End of Minotr F.D. properties file   722 does not exist.
 End of Minotr F.D. properties file   788 does not exist.

 **********************************************************************

            Population analysis using the SCF Density.

 **********************************************************************

 Alpha  occ. eigenvalues --  -19.61132 -10.55565 -10.54605 -10.50081 -10.49944
 Alpha  occ. eigenvalues --  -10.49332 -10.48537 -10.43127  -1.15185  -0.90576
 Alpha  occ. eigenvalues --   -0.80569  -0.78747  -0.74297  -0.62971  -0.62489
 Alpha  occ. eigenvalues --   -0.56499  -0.51369  -0.51029  -0.49772  -0.46653
 Alpha  occ. eigenvalues --   -0.43684  -0.40905  -0.40716  -0.37900  -0.35846
 Alpha  occ. eigenvalues --   -0.35543  -0.26133  -0.22912  -0.17241
 Alpha virt. eigenvalues --    0.03612   0.04578   0.05591   0.06650   0.06770
 Alpha virt. eigenvalues --    0.06820   0.07418   0.07448   0.08469   0.09909
 Alpha virt. eigenvalues --    0.10439   0.10826   0.11976   0.12249   0.14242
 Alpha virt. eigenvalues --    0.15140   0.16065   0.16243   0.17892   0.18191
 Alpha virt. eigenvalues --    0.18599   0.18617   0.19660   0.21232   0.22199
 Alpha virt. eigenvalues --    0.22901   0.23086   0.24815   0.25144   0.25550
 Alpha virt. eigenvalues --    0.26166   0.26764   0.26825   0.27792   0.28570
 Alpha virt. eigenvalues --    0.28851   0.29506   0.30348   0.31030   0.31818
 Alpha virt. eigenvalues --    0.35533   0.37059   0.38486   0.40298   0.41986
 Alpha virt. eigenvalues --    0.42734   0.45358   0.45993   0.48642   0.53307
 Alpha virt. eigenvalues --    0.56901   0.58852   0.60000   0.60769   0.61573
 Alpha virt. eigenvalues --    0.63287   0.64301   0.65869   0.66465   0.68278
 Alpha virt. eigenvalues --    0.68423   0.70095   0.70538   0.70756   0.72794
 Alpha virt. eigenvalues --    0.75281   0.76616   0.78555   0.79215   0.81580
 Alpha virt. eigenvalues --    0.82051   0.84074   0.86133   0.88809   0.89864
 Alpha virt. eigenvalues --    0.90963   0.92489   0.95078   0.96889   0.99783
 Alpha virt. eigenvalues --    1.01817   1.04478   1.07934   1.08047   1.08960
 Alpha virt. eigenvalues --    1.10226   1.12466   1.17716   1.18398   1.20793
 Alpha virt. eigenvalues --    1.25589   1.27140   1.34565   1.36306   1.37258
 Alpha virt. eigenvalues --    1.41715   1.47552   1.51852   1.54704   1.58596
 Alpha virt. eigenvalues --    1.60873   1.62168   1.64703   1.65003   1.67280
 Alpha virt. eigenvalues --    1.67320   1.72996   1.73790   1.75586   1.76820
 Alpha virt. eigenvalues --    1.79131   1.80158   1.81907   1.84894   1.85957
 Alpha virt. eigenvalues --    1.89583   1.93252   1.98239   1.98669   2.00535
 Alpha virt. eigenvalues --    2.02468   2.03919   2.04619   2.09371   2.10399
 Alpha virt. eigenvalues --    2.12643   2.12872   2.17948   2.19687   2.23762
 Alpha virt. eigenvalues --    2.32412   2.36838   2.42763   2.43386   2.48334
 Alpha virt. eigenvalues --    2.50977   2.53500   2.55283   2.57676   2.60520
 Alpha virt. eigenvalues --    2.63419   2.65398   2.71358   2.75011   2.76223
 Alpha virt. eigenvalues --    2.77073   2.79524   2.82026   2.84128   2.87440
 Alpha virt. eigenvalues --    2.88107   2.90225   2.93598   2.98601   2.99005
 Alpha virt. eigenvalues --    3.01033   3.15719   3.16525   3.19400   3.19812
 Alpha virt. eigenvalues --    3.22774   3.28986   3.36014   3.43746   3.49546
 Alpha virt. eigenvalues --    3.50596   3.60140   3.64740   3.75151   3.85843
 Alpha virt. eigenvalues --    3.87871   3.94656   4.11523   4.14676   4.17983
 Alpha virt. eigenvalues --    4.23648   4.32988   4.90992   5.18717   5.54901
 Alpha virt. eigenvalues --    5.91502  23.69485  24.02723  24.05983  24.09829
 Alpha virt. eigenvalues --   24.19453  24.25453  24.34400  50.11342
          Condensed to atoms (all electrons):
               1          2          3          4          5          6
     1  C   13.687928  -1.728218  -0.256552   1.245852  -0.077284  -1.339205
     2  C   -1.728218   6.619254   0.550079  -0.581460   0.088868   0.847849
     3  H   -0.256552   0.550079   0.554638  -0.115190  -0.001488   0.017211
     4  C    1.245852  -0.581460  -0.115190   6.081799   0.287259  -0.063314
     5  H   -0.077284   0.088868  -0.001488   0.287259   0.512390   0.042660
     6  C   -1.339205   0.847849   0.017211  -0.063314   0.042660   6.973775
     7  C   -0.409120  -0.983118  -0.013618   0.641567  -0.048752  -0.765935
     8  C   -2.868233   1.297565   0.113152  -1.219027   0.049378   0.396769
     9  H   -0.000950  -0.018845  -0.000219   0.024207  -0.005907   0.318381
    10  H   -0.128035   0.030846   0.000173  -0.034495  -0.000049   0.060196
    11  O   -1.016657   0.110911   0.000526  -0.066056   0.000367   0.155783
    12  C    0.149166  -0.028488   0.000016   0.018665   0.000142  -0.170408
    13  H    0.007065   0.001112   0.000000   0.000149   0.000000  -0.004527
    14  H    0.009681   0.001124   0.000000   0.000294   0.000000  -0.005294
    15  H   -0.013388   0.000267   0.000000  -0.000987   0.000000   0.010550
               7          8          9         10         11         12
     1  C   -0.409120  -2.868233  -0.000950  -0.128035  -1.016657   0.149166
     2  C   -0.983118   1.297565  -0.018845   0.030846   0.110911  -0.028488
     3  H   -0.013618   0.113152  -0.000219   0.000173   0.000526   0.000016
     4  C    0.641567  -1.219027   0.024207  -0.034495  -0.066056   0.018665
     5  H   -0.048752   0.049378  -0.005907  -0.000049   0.000367   0.000142
     6  C   -0.765935   0.396769   0.318381   0.060196   0.155783  -0.170408
     7  C    7.961505  -1.105489   0.038396   0.347938   0.035037  -0.074507
     8  C   -1.105489   8.647006  -0.010557   0.057435   0.513402  -0.033190
     9  H    0.038396  -0.010557   0.495630  -0.005745  -0.000501   0.001889
    10  H    0.347938   0.057435  -0.005745   0.514897   0.001529   0.001829
    11  O    0.035037   0.513402  -0.000501   0.001529   8.459644   0.078023
    12  C   -0.074507  -0.033190   0.001889   0.001829   0.078023   5.189765
    13  H    0.013617  -0.027132   0.000031  -0.001813  -0.033026   0.413855
    14  H    0.012710  -0.028055   0.000031  -0.001829  -0.032831   0.413936
    15  H    0.000464   0.029407  -0.000003   0.000730  -0.066846   0.412198
              13         14         15
     1  C    0.007065   0.009681  -0.013388
     2  C    0.001112   0.001124   0.000267
     3  H    0.000000   0.000000   0.000000
     4  C    0.000149   0.000294  -0.000987
     5  H    0.000000   0.000000   0.000000
     6  C   -0.004527  -0.005294   0.010550
     7  C    0.013617   0.012710   0.000464
     8  C   -0.027132  -0.028055   0.029407
     9  H    0.000031   0.000031  -0.000003
    10  H   -0.001813  -0.001829   0.000730
    11  O   -0.033026  -0.032831  -0.066846
    12  C    0.413855   0.413936   0.412198
    13  H    0.538230  -0.049571  -0.024689
    14  H   -0.049571   0.537534  -0.024598
    15  H   -0.024689  -0.024598   0.495836
 Mulliken charges:
               1
     1  C   -1.262048
     2  C   -0.207747
     3  H    0.151273
     4  C   -0.219262
     5  H    0.152416
     6  C   -0.474492
     7  C    0.349304
     8  C    0.187569
     9  H    0.164162
    10  H    0.156394
    11  O   -0.139305
    12  C   -0.372892
    13  H    0.166699
    14  H    0.166868
    15  H    0.181060
 Sum of Mulliken charges =  -1.00000
 Mulliken charges with hydrogens summed into heavy atoms:
               1
     1  C   -1.262048
     2  C   -0.056474
     4  C   -0.066846
     6  C   -0.310329
     7  C    0.505698
     8  C    0.187569
    11  O   -0.139305
    12  C    0.141734
 APT charges:
               1
     1  C   -1.736098
     2  C    0.648055
     3  H    0.537503
     4  C   -0.491399
     5  H   -0.465804
     6  C   -0.105309
     7  C   -1.317665
     8  C    1.836512
     9  H   -0.322172
    10  H    0.691438
    11  O   -0.076757
    12  C   -1.913752
    13  H   -0.839120
    14  H    0.689202
    15  H    1.865367
 Sum of APT charges =  -1.00000
 APT charges with hydrogens summed into heavy atoms:
               1
     1  C   -1.736098
     2  C    1.185559
     4  C   -0.957203
     6  C   -0.427482
     7  C   -0.626227
     8  C    1.836512
    11  O   -0.076757
    12  C   -0.198304
 Electronic spatial extent (au):  <R**2>=          23437.3723
 Charge=             -1.0000 electrons
 Dipole moment (field-independent basis, Debye):
    X=            -30.7283    Y=            -32.5450    Z=            -26.0294  Tot=             51.7777
 Quadrupole moment (field-independent basis, Debye-Ang):
   XX=           -255.0115   YY=           -268.7807   ZZ=           -191.4996
   XY=           -208.0470   XZ=           -167.3533   YZ=           -182.8906
 Traceless Quadrupole moment (field-independent basis, Debye-Ang):
   XX=            -16.5809   YY=            -30.3501   ZZ=             46.9310
   XY=           -208.0470   XZ=           -167.3533   YZ=           -182.8906
 Octapole moment (field-independent basis, Debye-Ang**2):
  XXX=          -2225.0005  YYY=          -2595.2916  ZZZ=          -1432.3068  XYY=          -1664.8230
  XXY=          -1775.1899  XXZ=          -1338.8603  XZZ=          -1180.3461  YZZ=          -1398.7396
  YYZ=          -1506.7347  XYZ=          -1171.9260
 Hexadecapole moment (field-independent basis, Debye-Ang**3):
 XXXX=         -19303.7593 YYYY=         -27400.7900 ZZZZ=         -10376.7900 XXXY=         -15994.9666
 XXXZ=         -11222.2939 YYYX=         -15507.7196 YYYZ=         -13935.7606 ZZZX=          -8475.1019
 ZZZY=         -10510.4634 XXYY=         -13929.1190 XXZZ=          -8657.0561 YYZZ=         -11361.8159
 XXYZ=          -9469.2763 YYXZ=          -9384.1917 ZZXY=          -8612.5772
 N-N= 3.345931925139D+02 E-N=-1.486273743971D+03  KE= 3.449363122835D+02
  Exact polarizability:       0.000       0.000       0.000       0.000       0.000       0.000
 Approx polarizability:     135.825      10.691     117.183       5.284     -27.149     107.600
 D2PCM: PCM CHGder 2nd derivatives, FixD1E=F FixD2E=F DoIter=F DoCFld=F I1PDM=0
 Calling FoFJK, ICntrl=    100127 FMM=F ISym2X=0 I1Cent= 0 IOpClX= 0 NMat=1 NMatS=1 NMatT=0.
 -------------------------------------------------------------------
 Center     Atomic                   Forces (Hartrees/Bohr)
 Number     Number              X              Y              Z
 -------------------------------------------------------------------
      1        6           0.069437454   -0.000937709    0.019549714
      2        6          -0.021798542    0.012111658   -0.016646465
      3        1          -0.001728334   -0.002495471    0.001683797
      4        6          -0.006873224   -0.006130245    0.003485041
      5        1          -0.005223714   -0.000352119   -0.001126022
      6        6          -0.005444934   -0.003174306    0.001223820
      7        6           0.008290169    0.012558812   -0.008617023
      8        6          -0.038802779   -0.023534763    0.009810302
      9        1          -0.001032327    0.000287502   -0.000471372
     10        1          -0.004999933    0.001419225   -0.002558412
     11        8           0.008435344    0.013379683   -0.008881696
     12        6           0.000876659   -0.005636863    0.005029087
     13        1          -0.000688236    0.000588057   -0.001096174
     14        1          -0.000828194    0.000942530   -0.000649761
     15        1           0.000380591    0.000974007   -0.000734834
 -------------------------------------------------------------------
 Cartesian Forces:  Max     0.069437454 RMS     0.014272334
 FormGI is forming the generalized inverse of G from B-inverse, IUseBI=4.

 GradGradGradGradGradGradGradGradGradGradGradGradGradGradGradGradGradGrad
 Berny optimization.
 Internal  Forces:  Max     0.046058856 RMS     0.009342367
 Search for a local minimum.
 Step number   1 out of a maximum of   73
 All quantities printed in internal units (Hartrees-Bohrs-Radians)
 Mixed Optimization -- RFO/linear search
 Second derivative matrix not updated -- analytic derivatives used.
 ITU=  0
     Eigenvalues ---    0.00549   0.00883   0.01753   0.01875   0.02302
     Eigenvalues ---    0.02382   0.02792   0.02865   0.03660   0.04443
     Eigenvalues ---    0.08603   0.08695   0.10539   0.11488   0.11953
     Eigenvalues ---    0.12212   0.13330   0.18266   0.18495   0.18663
     Eigenvalues ---    0.19156   0.20251   0.21766   0.27768   0.33355
     Eigenvalues ---    0.33575   0.34493   0.35106   0.35213   0.35827
     Eigenvalues ---    0.36258   0.36390   0.38134   0.40780   0.43699
     Eigenvalues ---    0.46015   0.50038   0.53195   0.57374
 RFO step:  Lambda=-2.23968725D-02 EMin= 5.49014810D-03
 Linear search not attempted -- first point.
 Maximum step size (   0.300) exceeded in Quadratic search.
    -- Step size scaled by   0.953
 Iteration  1 RMS(Cart)=  0.05014744 RMS(Int)=  0.00246067
 Iteration  2 RMS(Cart)=  0.00419904 RMS(Int)=  0.00072638
 Iteration  3 RMS(Cart)=  0.00000355 RMS(Int)=  0.00072637
 Iteration  4 RMS(Cart)=  0.00000000 RMS(Int)=  0.00072637
 Variable       Old X    -DE/DX   Delta X   Delta X   Delta X     New X
                                 (Linear)    (Quad)   (Total)
    R1        2.58043   0.02514   0.00000   0.05602   0.05705   2.63748
    R2        2.61794   0.01229   0.00000   0.03726   0.03841   2.65636
    R3        2.05000   0.00257   0.00000   0.00967   0.00967   2.05967
    R4        2.65302   0.01071   0.00000   0.00366   0.00358   2.65660
    R5        2.04756   0.00374   0.00000   0.00492   0.00492   2.05248
    R6        2.62317  -0.00471   0.00000  -0.00698  -0.00815   2.61501
    R7        2.64179   0.00085   0.00000   0.00202   0.00095   2.64273
    R8        2.04831   0.00116   0.00000   0.00263   0.00263   2.05094
    R9        2.64440   0.00671   0.00000   0.00003   0.00016   2.64456
   R10        2.04664   0.00375   0.00000   0.00158   0.00158   2.04822
   R11        2.55596   0.01378   0.00000   0.04710   0.04710   2.60306
   R12        2.68475  -0.00397   0.00000  -0.02052  -0.02052   2.66422
   R13        2.06688   0.00097   0.00000   0.00426   0.00426   2.07114
   R14        2.06694   0.00093   0.00000   0.00413   0.00413   2.07107
   R15        2.05595   0.00087   0.00000   0.00350   0.00350   2.05945
    A1        2.19375  -0.04606   0.00000  -0.19423  -0.19096   2.00280
    A2        2.12246  -0.00970   0.00000  -0.04431  -0.04470   2.07776
    A3        2.04798   0.02421   0.00000   0.11390   0.11469   2.16267
    A4        2.11274  -0.01451   0.00000  -0.06960  -0.06999   2.04275
    A5        2.09531   0.00406   0.00000   0.00952   0.01027   2.10558
    A6        2.08087  -0.00026   0.00000  -0.00278  -0.00429   2.07658
    A7        2.10701  -0.00380   0.00000  -0.00674  -0.00598   2.10103
    A8        2.12246  -0.00452   0.00000  -0.02938  -0.03187   2.09059
    A9        2.08994   0.00241   0.00000   0.01676   0.01800   2.10795
   A10        2.07078   0.00211   0.00000   0.01262   0.01386   2.08464
   A11        2.09098   0.00016   0.00000  -0.00762  -0.00880   2.08218
   A12        2.08556  -0.00459   0.00000  -0.01386  -0.01328   2.07228
   A13        2.10665   0.00444   0.00000   0.02149   0.02207   2.12873
   A14        2.03033   0.02648   0.00000   0.12011   0.12122   2.15155
   A15        2.06437  -0.00587   0.00000  -0.04403  -0.04459   2.01978
   A16        2.18848  -0.02061   0.00000  -0.07608  -0.07664   2.11185
   A17        2.04529  -0.00279   0.00000   0.01224   0.01224   2.05753
   A18        1.93880   0.00087   0.00000   0.01111   0.01106   1.94985
   A19        1.93863   0.00094   0.00000   0.01167   0.01161   1.95024
   A20        1.84959   0.00116   0.00000   0.00729   0.00724   1.85683
   A21        1.91531  -0.00140   0.00000  -0.01304  -0.01309   1.90222
   A22        1.91007  -0.00079   0.00000  -0.00855  -0.00860   1.90147
   A23        1.91019  -0.00074   0.00000  -0.00833  -0.00838   1.90181
    D1       -3.14158   0.00004   0.00000  -0.00092  -0.00084   3.14077
    D2        0.00007  -0.00001   0.00000  -0.00148  -0.00143  -0.00136
    D3       -0.00023  -0.00004   0.00000   0.00177   0.00172   0.00150
    D4       -3.14144  -0.00004   0.00000   0.00201   0.00195  -3.13949
    D5       -3.14129   0.00004   0.00000   0.00038   0.00043  -3.14086
    D6        0.00021   0.00004   0.00000   0.00020   0.00028   0.00049
    D7        0.00036  -0.00002   0.00000  -0.00017  -0.00015   0.00021
    D8       -3.14132  -0.00001   0.00000  -0.00036  -0.00030   3.14156
    D9       -0.00034  -0.00003   0.00000   0.00065   0.00068   0.00033
   D10        3.14126   0.00000   0.00000   0.00042   0.00040  -3.14153
   D11        3.14116  -0.00002   0.00000   0.00046   0.00052  -3.14150
   D12       -0.00043   0.00001   0.00000   0.00024   0.00025  -0.00018
   D13        0.00019  -0.00002   0.00000  -0.00032  -0.00038  -0.00019
   D14        3.14141   0.00003   0.00000  -0.00062  -0.00069   3.14071
   D15       -3.14141  -0.00005   0.00000  -0.00010  -0.00010  -3.14151
   D16       -0.00020   0.00000   0.00000  -0.00040  -0.00042  -0.00061
   D17        0.00009   0.00006   0.00000  -0.00079  -0.00088  -0.00078
   D18        3.14127   0.00006   0.00000  -0.00104  -0.00110   3.14017
   D19       -3.14112   0.00001   0.00000  -0.00048  -0.00054   3.14152
   D20        0.00006   0.00001   0.00000  -0.00073  -0.00076  -0.00070
   D21       -3.13683  -0.00025   0.00000  -0.00477  -0.00474  -3.14157
   D22        0.00518  -0.00026   0.00000  -0.00454  -0.00457   0.00061
   D23       -1.07090   0.00022   0.00000  -0.00002  -0.00003  -1.07093
   D24        1.06619  -0.00030   0.00000  -0.00074  -0.00074   1.06545
   D25        3.13926   0.00001   0.00000  -0.00010  -0.00010   3.13917
         Item               Value     Threshold  Converged?
 Maximum Force            0.046059     0.000015     NO 
 RMS     Force            0.009342     0.000010     NO 
 Maximum Displacement     0.236805     0.000060     NO 
 RMS     Displacement     0.050253     0.000040     NO 
 Predicted change in Energy=-1.217949D-02
 GradGradGradGradGradGradGradGradGradGradGradGradGradGradGradGradGradGrad

                          Input orientation:                          
 ---------------------------------------------------------------------
 Center     Atomic      Atomic             Coordinates (Angstroms)
 Number     Number       Type             X           Y           Z
 ---------------------------------------------------------------------
      1          6           0        6.262425    6.945421    5.239467
      2          6           0        5.173009    6.160294    5.619880
      3          1           0        5.323162    5.364857    6.349732
      4          6           0        3.871064    6.328934    5.117078
      5          1           0        3.061164    5.686992    5.451202
      6          6           0        3.635164    7.327159    4.188198
      7          6           0        4.687204    8.146450    3.766650
      8          6           0        5.967481    7.942669    4.293713
      9          1           0        2.641350    7.483135    3.780880
     10          1           0        4.483496    8.922441    3.037872
     11          8           0        7.029226    8.727976    3.901993
     12          6           0        6.784516    9.742962    2.954582
     13          1           0        6.424045    9.332503    2.004424
     14          1           0        6.059235   10.476853    3.324056
     15          1           0        7.738442   10.242008    2.785252
 ---------------------------------------------------------------------
                    Distance matrix (angstroms):
                    1          2          3          4          5
     1  C    0.000000
     2  C    1.395696   0.000000
     3  H    2.147810   1.089931   0.000000
     4  C    2.472578   1.405813   2.134822   0.000000
     5  H    3.446237   2.170796   2.455149   1.086124   0.000000
     6  C    2.855414   2.403384   3.372268   1.383806   2.148209
     7  C    2.468397   2.759581   3.848898   2.406887   3.395682
     8  C    1.405684   2.359400   3.359684   2.770746   3.856752
     9  H    3.940659   3.397224   4.275303   2.151697   2.488443
    10  H    3.452566   3.843391   4.932531   3.380007   4.279640
    11  O    2.356761   3.604118   4.495848   4.147990   5.233847
    12  C    3.649590   4.747239   5.729782   4.981985   6.045441
    13  H    4.023653   4.969861   5.986306   5.022723   6.039784
    14  H    4.022573   4.968792   5.985735   5.020782   6.037876
    15  H    4.366839   5.592580   6.505821   5.975465   7.052120
                    6          7          8          9         10
     6  C    0.000000
     7  C    1.398474   0.000000
     8  C    2.414475   1.399440   0.000000
     9  H    1.085312   2.150746   3.396663   0.000000
    10  H    2.141925   1.083871   2.176993   2.452992   0.000000
    11  O    3.682915   2.416932   1.377481   4.562648   2.695415
    12  C    4.156481   2.758083   2.387859   4.791181   2.444358
    13  H    4.070397   2.743862   2.716787   4.569982   2.236491
    14  H    4.067363   2.740281   2.714911   4.566506   2.231827
    15  H    5.225084   3.829434   3.270890   5.880732   3.521328
                   11         12         13         14         15
    11  O    0.000000
    12  C    1.409846   0.000000
    13  H    2.081457   1.096000   0.000000
    14  H    2.081698   1.095965   1.784391   0.000000
    15  H    2.010570   1.089814   1.778913   1.779101   0.000000
 Symmetry turned off by external request.
 Stoichiometry    C7H7O(1-)
 Framework group  C1[X(C7H7O)]
 Deg. of freedom    39
 Full point group                 C1      NOp   1
 Rotational constants (GHZ):           5.2104125           1.5974405           1.2321720
 Standard basis: 6-311+G(d,p) (5D, 7F)
   218 basis functions,   344 primitive gaussians,   226 cartesian basis functions
    29 alpha electrons       29 beta electrons
       nuclear repulsion energy       334.0949953900 Hartrees.
 NAtoms=   15 NActive=   15 NUniq=   15 SFac= 1.00D+00 NAtFMM=   60 NAOKFM=F Big=F
 Integral buffers will be    131072 words long.
 Raffenetti 2 integral format.
 Two-electron integral symmetry is turned off.
 ------------------------------------------------------------------------------
 Polarizable Continuum Model (PCM)
 =================================
 Model                : PCM.
 Atomic radii         : SMD-Coulomb.
 Polarization charges : Total charges.
 Charge compensation  : None.
 Solution method      : Matrix inversion.
 Cavity type          : VdW (van der Waals Surface) (Alpha=1.000).
 Cavity algorithm     : GePol (No added spheres)
                        Default sphere list used, NSphG=   15.
                        Lebedev-Laikov grids with approx.  5.0 points / Ang**2.
                        Smoothing algorithm: York/Karplus (Gamma=1.0000).
                        Polarization charges: spherical gaussians, with
                                              point-specific exponents (IZeta= 3).
                        Self-potential: point-specific (ISelfS= 7).
                        Self-field    : sphere-specific E.n sum rule (ISelfD= 2).
 1st derivatives      : Analytical E(r).r(x)/FMM algorithm (CHGder, D1EAlg=3).
                        Cavity 1st derivative terms included.
 Solvent              : TetraHydroFuran, Eps=   7.425700 Eps(inf)=   1.974025
 ------------------------------------------------------------------------------
 Spheres list:
 ISph  on   Nord     Re0    Alpha      Xe            Ye            Ze
    1   C      1    1.8500  1.000      6.262425      6.945421      5.239467
    2   C      2    1.8500  1.000      5.173009      6.160294      5.619880
    3   H      3    1.2000  1.000      5.323162      5.364857      6.349732
    4   C      4    1.8500  1.000      3.871064      6.328934      5.117078
    5   H      5    1.2000  1.000      3.061164      5.686992      5.451202
    6   C      6    1.8500  1.000      3.635164      7.327159      4.188198
    7   C      7    1.8500  1.000      4.687204      8.146450      3.766650
    8   C      8    1.8500  1.000      5.967481      7.942669      4.293713
    9   H      9    1.2000  1.000      2.641350      7.483135      3.780880
   10   H     10    1.2000  1.000      4.483496      8.922441      3.037872
   11   O     11    2.2940  1.000      7.029226      8.727976      3.901993
   12   C     12    1.8500  1.000      6.784516      9.742962      2.954582
   13   H     13    1.2000  1.000      6.424045      9.332503      2.004424
   14   H     14    1.2000  1.000      6.059235     10.476853      3.324056
   15   H     15    1.2000  1.000      7.738442     10.242008      2.785252
 ------------------------------------------------------------------------------
 ------------------------------------------------------------------------------
 Atomic radii for non-electrostatic terms: SMD-CDS.
 ------------------------------------------------------------------------------
 Nuclear repulsion after PCM non-electrostatic terms =      334.0928626469 Hartrees.
 One-electron integrals computed using PRISM.
 NBasis=   218 RedAO= T EigKep=  3.37D-06  NBF=   218
 NBsUse=   218 1.00D-06 EigRej= -1.00D+00 NBFU=   218
 Initial guess from the checkpoint file:  "2-OMe-ph-anion-opt-freq-thf.chk"
 B after Tr=     0.033543   -0.014484    0.019058
         Rot=    1.000000    0.000070   -0.000278   -0.000501 Ang=   0.07 deg.
 ExpMin= 4.38D-02 ExpMax= 8.59D+03 ExpMxC= 1.30D+03 IAcc=3 IRadAn=         5 AccDes= 0.00D+00
 Harris functional with IExCor= 1009 and IRadAn=       5 diagonalized for initial guess.
 HarFok:  IExCor= 1009 AccDes= 0.00D+00 IRadAn=         5 IDoV= 1 UseB2=F ITyADJ=14
 ICtDFT=  3500011 ScaDFX=  1.000000  1.000000  1.000000  1.000000
 FoFCou: FMM=F IPFlag=           0 FMFlag=      100000 FMFlg1=           0
         NFxFlg=           0 DoJE=T BraDBF=F KetDBF=T FulRan=T
         wScrn=  0.000000 ICntrl=       500 IOpCl=  0 I1Cent=   200000004 NGrid=           0
         NMat0=    1 NMatS0=      1 NMatT0=    0 NMatD0=    1 NMtDS0=    0 NMtDT0=    0
 Symmetry not used in FoFCou.
 Requested convergence on RMS density matrix=1.00D-08 within 128 cycles.
 Requested convergence on MAX density matrix=1.00D-06.
 Requested convergence on             energy=1.00D-06.
 Level shift goal  0.100 maximum shift  0.100.
 No special actions if energy rises.
 Dynamic level shift is on during FON iterations.
 Inv3:  Mode=1 IEnd=     4899852.
 Iteration    1 A*A^-1 deviation from unit magnitude is 4.22D-15 for   1277.
 Iteration    1 A*A^-1 deviation from orthogonality  is 1.97D-15 for    499    116.
 Iteration    1 A^-1*A deviation from unit magnitude is 4.66D-15 for   1277.
 Iteration    1 A^-1*A deviation from orthogonality  is 2.18D-15 for   1270   1268.
 Error on total polarization charges =  0.05325
 SCF Done:  E(RM062X) =  -346.160186440     A.U. after   14 cycles
            NFock= 14  Conv=0.88D-08     -V/T= 2.0039
 SMD-CDS (non-electrostatic) energy       (kcal/mol) =      -1.34
 (included in total energy above)
 D1PCM: PCM CHGder 1st derivatives, ID1Alg=3 FixD1E=F DoIter=F DoCFld=F I1PDM=0.
 Calling FoFJK, ICntrl=      2127 FMM=F ISym2X=0 I1Cent= 0 IOpClX= 0 NMat=1 NMatS=1 NMatT=0.
 -------------------------------------------------------------------
 Center     Atomic                   Forces (Hartrees/Bohr)
 Number     Number              X              Y              Z
 -------------------------------------------------------------------
      1        6           0.010282778   -0.000007315    0.002613296
      2        6          -0.002868441    0.001585958   -0.002097037
      3        1          -0.000613882   -0.000900643    0.000583309
      4        6          -0.001474585   -0.002130223    0.001432397
      5        1          -0.000776294   -0.000116436   -0.000125483
      6        6          -0.001977860    0.000025764   -0.000580790
      7        6           0.001494055    0.002522396   -0.001751833
      8        6          -0.005798436   -0.004675025    0.002312233
      9        1          -0.000126481    0.000104332   -0.000075008
     10        1          -0.000882425    0.000062800   -0.000269706
     11        8           0.001959993    0.003870597   -0.002496087
     12        6           0.000815042   -0.001079423    0.001068229
     13        1          -0.000063557    0.000246863   -0.000241818
     14        1          -0.000036884    0.000271074   -0.000211053
     15        1           0.000066975    0.000219280   -0.000160650
 -------------------------------------------------------------------
 Cartesian Forces:  Max     0.010282778 RMS     0.002331431

 GradGradGradGradGradGradGradGradGradGradGradGradGradGradGradGradGradGrad
 Berny optimization.
 Using GEDIIS/GDIIS optimizer.
 FormGI is forming the generalized inverse of G from B-inverse, IUseBI=4.
 Internal  Forces:  Max     0.005595782 RMS     0.001507078
 Search for a local minimum.
 Step number   2 out of a maximum of   73
 All quantities printed in internal units (Hartrees-Bohrs-Radians)
 Mixed Optimization -- RFO/linear search
 Update second derivatives using D2CorX and points    1    2
 DE= -1.22D-02 DEPred=-1.22D-02 R= 9.99D-01
 TightC=F SS=  1.41D+00  RLast= 3.00D-01 DXNew= 5.0454D-01 8.9980D-01
 Trust test= 9.99D-01 RLast= 3.00D-01 DXMaxT set to 5.05D-01
 ITU=  1  0
 Use linear search instead of GDIIS.
     Eigenvalues ---    0.00549   0.00882   0.01753   0.01874   0.02301
     Eigenvalues ---    0.02379   0.02785   0.02865   0.03647   0.04434
     Eigenvalues ---    0.08603   0.08695   0.10539   0.11493   0.11955
     Eigenvalues ---    0.12214   0.13312   0.18281   0.18495   0.18649
     Eigenvalues ---    0.19439   0.20262   0.21745   0.27766   0.33358
     Eigenvalues ---    0.33575   0.34474   0.35104   0.35215   0.35822
     Eigenvalues ---    0.36251   0.36356   0.38146   0.40809   0.43599
     Eigenvalues ---    0.45969   0.50037   0.52612   0.57259
 RFO step:  Lambda=-7.54707161D-05 EMin= 5.48995768D-03
 Quartic linear search produced a step of  0.16631.
 Iteration  1 RMS(Cart)=  0.00818613 RMS(Int)=  0.00015202
 Iteration  2 RMS(Cart)=  0.00012902 RMS(Int)=  0.00013400
 Iteration  3 RMS(Cart)=  0.00000001 RMS(Int)=  0.00013400
 Variable       Old X    -DE/DX   Delta X   Delta X   Delta X     New X
                                 (Linear)    (Quad)   (Total)
    R1        2.63748   0.00520   0.00949   0.00314   0.01281   2.65029
    R2        2.65636   0.00276   0.00639   0.00042   0.00702   2.66338
    R3        2.05967   0.00096   0.00161   0.00189   0.00350   2.06317
    R4        2.65660   0.00212   0.00060   0.00144   0.00202   2.65862
    R5        2.05248   0.00061   0.00082   0.00017   0.00098   2.05346
    R6        2.61501   0.00093  -0.00136   0.00440   0.00282   2.61784
    R7        2.64273   0.00144   0.00016   0.00281   0.00277   2.64550
    R8        2.05094   0.00016   0.00044  -0.00012   0.00032   2.05126
    R9        2.64456   0.00196   0.00003   0.00188   0.00193   2.64649
   R10        2.04822   0.00039   0.00026  -0.00009   0.00017   2.04839
   R11        2.60306   0.00470   0.00783   0.00622   0.01406   2.61712
   R12        2.66422  -0.00067  -0.00341  -0.00220  -0.00562   2.65861
   R13        2.07114   0.00015   0.00071   0.00033   0.00104   2.07218
   R14        2.07107   0.00013   0.00069   0.00034   0.00103   2.07210
   R15        2.05945   0.00018   0.00058   0.00030   0.00089   2.06034
    A1        2.00280  -0.00560  -0.03176   0.00202  -0.02913   1.97367
    A2        2.07776  -0.00084  -0.00743   0.00425  -0.00325   2.07451
    A3        2.16267   0.00326   0.01907  -0.00071   0.01850   2.18117
    A4        2.04275  -0.00242  -0.01164  -0.00354  -0.01525   2.02750
    A5        2.10558   0.00071   0.00171   0.00031   0.00216   2.10775
    A6        2.07658  -0.00038  -0.00071  -0.00074  -0.00174   2.07484
    A7        2.10103  -0.00032  -0.00099   0.00043  -0.00042   2.10060
    A8        2.09059  -0.00067  -0.00530   0.00008  -0.00568   2.08491
    A9        2.10795   0.00041   0.00299   0.00052   0.00374   2.11169
   A10        2.08464   0.00026   0.00231  -0.00060   0.00194   2.08658
   A11        2.08218   0.00016  -0.00146   0.00052  -0.00116   2.08102
   A12        2.07228  -0.00094  -0.00221  -0.00183  -0.00394   2.06834
   A13        2.12873   0.00078   0.00367   0.00132   0.00509   2.13382
   A14        2.15155   0.00323   0.02016  -0.00116   0.01920   2.17076
   A15        2.01978  -0.00073  -0.00742   0.00189  -0.00563   2.01415
   A16        2.11185  -0.00250  -0.01275  -0.00073  -0.01357   2.09827
   A17        2.05753   0.00195   0.00204   0.00633   0.00837   2.06590
   A18        1.94985   0.00034   0.00184   0.00184   0.00366   1.95352
   A19        1.95024   0.00037   0.00193   0.00245   0.00437   1.95461
   A20        1.85683   0.00017   0.00120   0.00022   0.00142   1.85825
   A21        1.90222  -0.00033  -0.00218  -0.00140  -0.00359   1.89863
   A22        1.90147  -0.00028  -0.00143  -0.00137  -0.00281   1.89866
   A23        1.90181  -0.00029  -0.00139  -0.00190  -0.00330   1.89851
    D1        3.14077   0.00002  -0.00014   0.00064   0.00050   3.14127
    D2       -0.00136   0.00003  -0.00024   0.00143   0.00118  -0.00017
    D3        0.00150  -0.00004   0.00029  -0.00328  -0.00299  -0.00150
    D4       -3.13949  -0.00008   0.00032  -0.00489  -0.00457   3.13913
    D5       -3.14086   0.00000   0.00007   0.00043   0.00050  -3.14035
    D6        0.00049   0.00000   0.00005   0.00072   0.00076   0.00126
    D7        0.00021   0.00000  -0.00002   0.00120   0.00117   0.00139
    D8        3.14156   0.00000  -0.00005   0.00149   0.00144  -3.14019
    D9        0.00033  -0.00001   0.00011  -0.00116  -0.00104  -0.00071
   D10       -3.14153   0.00001   0.00007  -0.00044  -0.00036   3.14129
   D11       -3.14150  -0.00001   0.00009  -0.00087  -0.00078   3.14091
   D12       -0.00018   0.00001   0.00004  -0.00014  -0.00010  -0.00028
   D13       -0.00019   0.00000  -0.00006  -0.00059  -0.00064  -0.00083
   D14        3.14071   0.00003  -0.00012   0.00038   0.00027   3.14098
   D15       -3.14151  -0.00002  -0.00002  -0.00130  -0.00131   3.14036
   D16       -0.00061   0.00001  -0.00007  -0.00033  -0.00039  -0.00101
   D17       -0.00078   0.00002  -0.00015   0.00297   0.00283   0.00205
   D18        3.14017   0.00006  -0.00018   0.00466   0.00448  -3.13854
   D19        3.14152  -0.00001  -0.00009   0.00197   0.00188  -3.13978
   D20       -0.00070   0.00004  -0.00013   0.00365   0.00353   0.00282
   D21       -3.14157  -0.00010  -0.00079  -0.01151  -0.01231   3.12930
   D22        0.00061  -0.00014  -0.00076  -0.01307  -0.01382  -0.01321
   D23       -1.07093  -0.00003   0.00000   0.00695   0.00694  -1.06399
   D24        1.06545   0.00005  -0.00012   0.00825   0.00813   1.07358
   D25        3.13917   0.00001  -0.00002   0.00746   0.00744  -3.13658
         Item               Value     Threshold  Converged?
 Maximum Force            0.005596     0.000015     NO 
 RMS     Force            0.001507     0.000010     NO 
 Maximum Displacement     0.036850     0.000060     NO 
 RMS     Displacement     0.008156     0.000040     NO 
 Predicted change in Energy=-2.899631D-04
 GradGradGradGradGradGradGradGradGradGradGradGradGradGradGradGradGradGrad

                          Input orientation:                          
 ---------------------------------------------------------------------
 Center     Atomic      Atomic             Coordinates (Angstroms)
 Number     Number       Type             X           Y           Z
 ---------------------------------------------------------------------
      1          6           0        6.281925    6.940272    5.247447
      2          6           0        5.174940    6.161954    5.615880
      3          1           0        5.313272    5.360325    6.344056
      4          6           0        3.870202    6.328230    5.116557
      5          1           0        3.060789    5.685106    5.451285
      6          6           0        3.631575    7.328128    4.187945
      7          6           0        4.688022    8.146345    3.770486
      8          6           0        5.966566    7.937090    4.302298
      9          1           0        2.638235    7.486516    3.779957
     10          1           0        4.484137    8.923527    3.042894
     11          8           0        7.025680    8.736842    3.906474
     12          6           0        6.783818    9.742858    2.953201
     13          1           0        6.427378    9.328891    2.002408
     14          1           0        6.056911   10.481594    3.311262
     15          1           0        7.737532   10.242978    2.782830
 ---------------------------------------------------------------------
                    Distance matrix (angstroms):
                    1          2          3          4          5
     1  C    0.000000
     2  C    1.402475   0.000000
     3  H    2.153387   1.091782   0.000000
     4  C    2.491614   1.406881   2.127451   0.000000
     5  H    3.463048   2.173502   2.444627   1.086645   0.000000
     6  C    2.880509   2.404357   3.368853   1.385301   2.149731
     7  C    2.485268   2.753248   3.843971   2.405469   3.395683
     8  C    1.409399   2.345906   3.351908   2.765175   3.851641
     9  H    3.965903   3.399992   4.272132   2.155427   2.493384
    10  H    3.467766   3.837154   4.927631   3.378248   4.279443
    11  O    2.362000   3.602409   4.502779   4.150031   5.236400
    12  C    3.656494   4.743545   5.732975   4.982866   6.047042
    13  H    4.031990   4.965407   5.986708   5.024047   6.042006
    14  H    4.042328   4.974779   5.998187   5.029038   6.046713
    15  H    4.370468   5.589973   6.511503   5.977272   7.054556
                    6          7          8          9         10
     6  C    0.000000
     7  C    1.399939   0.000000
     8  C    2.415801   1.400460   0.000000
     9  H    1.085479   2.153390   3.399065   0.000000
    10  H    2.140865   1.083961   2.180999   2.452675   0.000000
    11  O    3.685600   2.414918   1.384920   4.563880   2.690737
    12  C    4.158383   2.758473   2.397658   4.791708   2.442925
    13  H    4.073836   2.747704   2.727445   4.572924   2.241231
    14  H    4.073718   2.745566   2.732182   4.569192   2.230071
    15  H    5.227770   3.830254   3.280582   5.881766   3.520393
                   11         12         13         14         15
    11  O    0.000000
    12  C    1.406874   0.000000
    13  H    2.081816   1.096551   0.000000
    14  H    2.082535   1.096510   1.782994   0.000000
    15  H    2.009416   1.090283   1.777953   1.777826   0.000000
 Symmetry turned off by external request.
 Stoichiometry    C7H7O(1-)
 Framework group  C1[X(C7H7O)]
 Deg. of freedom    39
 Full point group                 C1      NOp   1
 Rotational constants (GHZ):           5.1736478           1.5975199           1.2301448
 Standard basis: 6-311+G(d,p) (5D, 7F)
   218 basis functions,   344 primitive gaussians,   226 cartesian basis functions
    29 alpha electrons       29 beta electrons
       nuclear repulsion energy       333.6700103390 Hartrees.
 NAtoms=   15 NActive=   15 NUniq=   15 SFac= 1.00D+00 NAtFMM=   60 NAOKFM=F Big=F
 Integral buffers will be    131072 words long.
 Raffenetti 2 integral format.
 Two-electron integral symmetry is turned off.
 ------------------------------------------------------------------------------
 Polarizable Continuum Model (PCM)
 =================================
 Model                : PCM.
 Atomic radii         : SMD-Coulomb.
 Polarization charges : Total charges.
 Charge compensation  : None.
 Solution method      : Matrix inversion.
 Cavity type          : VdW (van der Waals Surface) (Alpha=1.000).
 Cavity algorithm     : GePol (No added spheres)
                        Default sphere list used, NSphG=   15.
                        Lebedev-Laikov grids with approx.  5.0 points / Ang**2.
                        Smoothing algorithm: York/Karplus (Gamma=1.0000).
                        Polarization charges: spherical gaussians, with
                                              point-specific exponents (IZeta= 3).
                        Self-potential: point-specific (ISelfS= 7).
                        Self-field    : sphere-specific E.n sum rule (ISelfD= 2).
 1st derivatives      : Analytical E(r).r(x)/FMM algorithm (CHGder, D1EAlg=3).
                        Cavity 1st derivative terms included.
 Solvent              : TetraHydroFuran, Eps=   7.425700 Eps(inf)=   1.974025
 ------------------------------------------------------------------------------
 Spheres list:
 ISph  on   Nord     Re0    Alpha      Xe            Ye            Ze
    1   C      1    1.8500  1.000      6.281925      6.940272      5.247447
    2   C      2    1.8500  1.000      5.174940      6.161954      5.615880
    3   H      3    1.2000  1.000      5.313272      5.360325      6.344056
    4   C      4    1.8500  1.000      3.870202      6.328230      5.116557
    5   H      5    1.2000  1.000      3.060789      5.685106      5.451285
    6   C      6    1.8500  1.000      3.631575      7.328128      4.187945
    7   C      7    1.8500  1.000      4.688022      8.146345      3.770486
    8   C      8    1.8500  1.000      5.966566      7.937090      4.302298
    9   H      9    1.2000  1.000      2.638235      7.486516      3.779957
   10   H     10    1.2000  1.000      4.484137      8.923527      3.042894
   11   O     11    2.2940  1.000      7.025680      8.736842      3.906474
   12   C     12    1.8500  1.000      6.783818      9.742858      2.953201
   13   H     13    1.2000  1.000      6.427378      9.328891      2.002408
   14   H     14    1.2000  1.000      6.056911     10.481594      3.311262
   15   H     15    1.2000  1.000      7.737532     10.242978      2.782830
 ------------------------------------------------------------------------------
 ------------------------------------------------------------------------------
 Atomic radii for non-electrostatic terms: SMD-CDS.
 ------------------------------------------------------------------------------
 Nuclear repulsion after PCM non-electrostatic terms =      333.6679069813 Hartrees.
 One-electron integrals computed using PRISM.
 NBasis=   218 RedAO= T EigKep=  3.50D-06  NBF=   218
 NBsUse=   218 1.00D-06 EigRej= -1.00D+00 NBFU=   218
 Initial guess from the checkpoint file:  "2-OMe-ph-anion-opt-freq-thf.chk"
 B after Tr=     0.015586   -0.005752   -0.002547
         Rot=    1.000000   -0.000170    0.000047   -0.000441 Ang=  -0.05 deg.
 ExpMin= 4.38D-02 ExpMax= 8.59D+03 ExpMxC= 1.30D+03 IAcc=3 IRadAn=         5 AccDes= 0.00D+00
 Harris functional with IExCor= 1009 and IRadAn=       5 diagonalized for initial guess.
 HarFok:  IExCor= 1009 AccDes= 0.00D+00 IRadAn=         5 IDoV= 1 UseB2=F ITyADJ=14
 ICtDFT=  3500011 ScaDFX=  1.000000  1.000000  1.000000  1.000000
 FoFCou: FMM=F IPFlag=           0 FMFlag=      100000 FMFlg1=           0
         NFxFlg=           0 DoJE=T BraDBF=F KetDBF=T FulRan=T
         wScrn=  0.000000 ICntrl=       500 IOpCl=  0 I1Cent=   200000004 NGrid=           0
         NMat0=    1 NMatS0=      1 NMatT0=    0 NMatD0=    1 NMtDS0=    0 NMtDT0=    0
 Symmetry not used in FoFCou.
 Requested convergence on RMS density matrix=1.00D-08 within 128 cycles.
 Requested convergence on MAX density matrix=1.00D-06.
 Requested convergence on             energy=1.00D-06.
 Level shift goal  0.100 maximum shift  0.100.
 No special actions if energy rises.
 Dynamic level shift is on during FON iterations.
 Inv3:  Mode=1 IEnd=     4899852.
 Iteration    1 A*A^-1 deviation from unit magnitude is 3.77D-15 for   1277.
 Iteration    1 A*A^-1 deviation from orthogonality  is 1.78D-15 for    626     53.
 Iteration    1 A^-1*A deviation from unit magnitude is 3.55D-15 for   1277.
 Iteration    1 A^-1*A deviation from orthogonality  is 2.40D-15 for    631    626.
 Error on total polarization charges =  0.05291
 SCF Done:  E(RM062X) =  -346.160485014     A.U. after   13 cycles
            NFock= 13  Conv=0.55D-08     -V/T= 2.0040
 SMD-CDS (non-electrostatic) energy       (kcal/mol) =      -1.32
 (included in total energy above)
 D1PCM: PCM CHGder 1st derivatives, ID1Alg=3 FixD1E=F DoIter=F DoCFld=F I1PDM=0.
 Calling FoFJK, ICntrl=      2127 FMM=F ISym2X=0 I1Cent= 0 IOpClX= 0 NMat=1 NMatS=1 NMatT=0.
 -------------------------------------------------------------------
 Center     Atomic                   Forces (Hartrees/Bohr)
 Number     Number              X              Y              Z
 -------------------------------------------------------------------
      1        6           0.000506907    0.000461615   -0.000176446
      2        6          -0.000210678   -0.000530859    0.000301575
      3        1           0.000008519   -0.000096019    0.000061282
      4        6          -0.000229019   -0.000093921    0.000007707
      5        1          -0.000040467   -0.000022006   -0.000017617
      6        6          -0.000136783    0.000025835   -0.000065089
      7        6          -0.000030739    0.000113035   -0.000070325
      8        6          -0.000295030   -0.000389580    0.000207278
      9        1           0.000000959    0.000016333    0.000000821
     10        1           0.000003279    0.000078570   -0.000017184
     11        8           0.000391686    0.000398259   -0.000237803
     12        6           0.000034272   -0.000002330   -0.000015236
     13        1          -0.000016613    0.000010071   -0.000003883
     14        1          -0.000000168    0.000014122    0.000026611
     15        1           0.000013876    0.000016874   -0.000001690
 -------------------------------------------------------------------
 Cartesian Forces:  Max     0.000530859 RMS     0.000194234

 GradGradGradGradGradGradGradGradGradGradGradGradGradGradGradGradGradGrad
 Berny optimization.
 Using GEDIIS/GDIIS optimizer.
 FormGI is forming the generalized inverse of G from B-inverse, IUseBI=4.
 Internal  Forces:  Max     0.000746487 RMS     0.000145686
 Search for a local minimum.
 Step number   3 out of a maximum of   73
 All quantities printed in internal units (Hartrees-Bohrs-Radians)
 Mixed Optimization -- En-DIIS/RFO-DIIS
 Update second derivatives using D2CorX and points    1    2    3
 DE= -2.99D-04 DEPred=-2.90D-04 R= 1.03D+00
 TightC=F SS=  1.41D+00  RLast= 5.77D-02 DXNew= 8.4853D-01 1.7323D-01
 Trust test= 1.03D+00 RLast= 5.77D-02 DXMaxT set to 5.05D-01
 ITU=  1  1  0
 Use linear search instead of GDIIS.
     Eigenvalues ---    0.00548   0.00882   0.01753   0.01874   0.02301
     Eigenvalues ---    0.02378   0.02782   0.02865   0.03643   0.04432
     Eigenvalues ---    0.08602   0.08695   0.10554   0.11494   0.11952
     Eigenvalues ---    0.12216   0.13298   0.18333   0.18495   0.18599
     Eigenvalues ---    0.19720   0.20211   0.21735   0.27735   0.33361
     Eigenvalues ---    0.33575   0.34409   0.35096   0.35215   0.35783
     Eigenvalues ---    0.36231   0.36327   0.38156   0.40839   0.43411
     Eigenvalues ---    0.45935   0.50035   0.51562   0.56721
 RFO step:  Lambda=-3.25767038D-06 EMin= 5.48206031D-03
 Quartic linear search produced a step of  0.03002.
 Iteration  1 RMS(Cart)=  0.00235667 RMS(Int)=  0.00000219
 Iteration  2 RMS(Cart)=  0.00000306 RMS(Int)=  0.00000054
 Iteration  3 RMS(Cart)=  0.00000000 RMS(Int)=  0.00000054
 Variable       Old X    -DE/DX   Delta X   Delta X   Delta X     New X
                                 (Linear)    (Quad)   (Total)
    R1        2.65029   0.00075   0.00038   0.00128   0.00166   2.65195
    R2        2.66338   0.00008   0.00021  -0.00040  -0.00019   2.66319
    R3        2.06317   0.00011   0.00010   0.00014   0.00024   2.06341
    R4        2.65862   0.00033   0.00006   0.00055   0.00061   2.65923
    R5        2.05346   0.00004   0.00003   0.00009   0.00012   2.05358
    R6        2.61784   0.00024   0.00008   0.00050   0.00059   2.61843
    R7        2.64550   0.00021   0.00008   0.00016   0.00024   2.64575
    R8        2.05126   0.00000   0.00001   0.00000   0.00001   2.05127
    R9        2.64649   0.00015   0.00006   0.00025   0.00030   2.64679
   R10        2.04839   0.00007   0.00001   0.00018   0.00018   2.04857
   R11        2.61712   0.00065   0.00042   0.00131   0.00174   2.61885
   R12        2.65861   0.00000  -0.00017   0.00001  -0.00015   2.65845
   R13        2.07218   0.00001   0.00003   0.00002   0.00005   2.07223
   R14        2.07210   0.00001   0.00003   0.00004   0.00007   2.07217
   R15        2.06034   0.00002   0.00003   0.00006   0.00009   2.06043
    A1        1.97367   0.00005  -0.00087   0.00081  -0.00006   1.97361
    A2        2.07451   0.00010  -0.00010   0.00031   0.00022   2.07472
    A3        2.18117  -0.00017   0.00056  -0.00106  -0.00050   2.18067
    A4        2.02750   0.00007  -0.00046   0.00074   0.00028   2.02779
    A5        2.10775   0.00004   0.00006   0.00027   0.00033   2.10808
    A6        2.07484  -0.00002  -0.00005   0.00015   0.00009   2.07493
    A7        2.10060  -0.00002  -0.00001  -0.00042  -0.00043   2.10018
    A8        2.08491   0.00008  -0.00017   0.00036   0.00019   2.08510
    A9        2.11169  -0.00002   0.00011  -0.00015  -0.00004   2.11166
   A10        2.08658  -0.00006   0.00006  -0.00021  -0.00015   2.08643
   A11        2.08102   0.00004  -0.00003  -0.00017  -0.00021   2.08081
   A12        2.06834   0.00001  -0.00012   0.00043   0.00032   2.06866
   A13        2.13382  -0.00005   0.00015  -0.00026  -0.00011   2.13371
   A14        2.17076   0.00002   0.00058  -0.00009   0.00049   2.17125
   A15        2.01415   0.00002  -0.00017   0.00020   0.00003   2.01418
   A16        2.09827  -0.00004  -0.00041  -0.00011  -0.00052   2.09776
   A17        2.06590   0.00015   0.00025   0.00003   0.00029   2.06618
   A18        1.95352   0.00000   0.00011  -0.00001   0.00010   1.95362
   A19        1.95461  -0.00001   0.00013  -0.00003   0.00011   1.95472
   A20        1.85825   0.00000   0.00004  -0.00007  -0.00002   1.85822
   A21        1.89863   0.00001  -0.00011   0.00011   0.00000   1.89863
   A22        1.89866   0.00000  -0.00008   0.00006  -0.00003   1.89863
   A23        1.89851   0.00000  -0.00010  -0.00007  -0.00016   1.89834
    D1        3.14127  -0.00001   0.00001   0.00008   0.00009   3.14136
    D2       -0.00017  -0.00002   0.00004  -0.00041  -0.00038  -0.00055
    D3       -0.00150   0.00003  -0.00009   0.00243   0.00234   0.00084
    D4        3.13913   0.00005  -0.00014   0.00240   0.00227   3.14140
    D5       -3.14035   0.00000   0.00002  -0.00102  -0.00100  -3.14136
    D6        0.00126   0.00000   0.00002  -0.00128  -0.00125   0.00000
    D7        0.00139  -0.00001   0.00004  -0.00149  -0.00146  -0.00007
    D8       -3.14019  -0.00001   0.00004  -0.00175  -0.00171   3.14129
    D9       -0.00071   0.00001  -0.00003   0.00105   0.00102   0.00032
   D10        3.14129   0.00001  -0.00001   0.00093   0.00092  -3.14097
   D11        3.14091   0.00001  -0.00002   0.00079   0.00077  -3.14151
   D12       -0.00028   0.00000   0.00000   0.00067   0.00067   0.00039
   D13       -0.00083   0.00000  -0.00002   0.00081   0.00079  -0.00004
   D14        3.14098  -0.00001   0.00001   0.00056   0.00057   3.14155
   D15        3.14036   0.00001  -0.00004   0.00093   0.00089   3.14125
   D16       -0.00101   0.00000  -0.00001   0.00068   0.00067  -0.00034
   D17        0.00205  -0.00003   0.00008  -0.00272  -0.00263  -0.00059
   D18       -3.13854  -0.00004   0.00013  -0.00269  -0.00256  -3.14109
   D19       -3.13978  -0.00002   0.00006  -0.00246  -0.00240   3.14101
   D20        0.00282  -0.00003   0.00011  -0.00243  -0.00233   0.00050
   D21        3.12930  -0.00002  -0.00037  -0.00155  -0.00192   3.12738
   D22       -0.01321  -0.00001  -0.00041  -0.00157  -0.00199  -0.01520
   D23       -1.06399   0.00001   0.00021   0.00223   0.00244  -1.06155
   D24        1.07358   0.00002   0.00024   0.00235   0.00259   1.07617
   D25       -3.13658   0.00001   0.00022   0.00221   0.00243  -3.13414
         Item               Value     Threshold  Converged?
 Maximum Force            0.000746     0.000015     NO 
 RMS     Force            0.000146     0.000010     NO 
 Maximum Displacement     0.006458     0.000060     NO 
 RMS     Displacement     0.002357     0.000040     NO 
 Predicted change in Energy=-1.882220D-06
 GradGradGradGradGradGradGradGradGradGradGradGradGradGradGradGradGradGrad

                          Input orientation:                          
 ---------------------------------------------------------------------
 Center     Atomic      Atomic             Coordinates (Angstroms)
 Number     Number       Type             X           Y           Z
 ---------------------------------------------------------------------
      1          6           0        6.281792    6.941749    5.249296
      2          6           0        5.174804    6.161269    5.616486
      3          1           0        5.313202    5.359591    6.344788
      4          6           0        3.870250    6.326620    5.115468
      5          1           0        3.060945    5.682049    5.447867
      6          6           0        3.631362    7.328017    4.188077
      7          6           0        4.687349    8.147949    3.772391
      8          6           0        5.966054    7.938218    4.304053
      9          1           0        2.638157    7.486163    3.779654
     10          1           0        4.483309    8.926569    3.046236
     11          8           0        7.025693    8.738361    3.907210
     12          6           0        6.784294    9.742601    2.952069
     13          1           0        6.426404    9.327170    2.002431
     14          1           0        6.058803   10.483233    3.309195
     15          1           0        7.738565   10.241096    2.779758
 ---------------------------------------------------------------------
                    Distance matrix (angstroms):
                    1          2          3          4          5
     1  C    0.000000
     2  C    1.403354   0.000000
     3  H    2.154413   1.091909   0.000000
     4  C    2.492354   1.407203   2.128023   0.000000
     5  H    3.464120   2.174047   2.445630   1.086708   0.000000
     6  C    2.881002   2.404968   3.369672   1.385611   2.149804
     7  C    2.485642   2.754124   3.844979   2.405982   3.396038
     8  C    1.409300   2.346510   3.352631   2.765509   3.852047
     9  H    3.966398   3.400570   4.272948   2.155688   2.493293
    10  H    3.468073   3.838130   4.928743   3.378949   4.279937
    11  O    2.362710   3.604001   4.504498   4.151289   5.237737
    12  C    3.657121   4.745052   5.734582   4.984062   6.048175
    13  H    4.031536   4.964960   5.986399   5.022770   6.040219
    14  H    4.044234   4.978396   6.001871   5.032874   6.050821
    15  H    4.371098   5.591502   6.513135   5.978506   7.055767
                    6          7          8          9         10
     6  C    0.000000
     7  C    1.400069   0.000000
     8  C    2.415902   1.400621   0.000000
     9  H    1.085484   2.153416   3.399154   0.000000
    10  H    2.141257   1.084058   2.181164   2.453010   0.000000
    11  O    3.686386   2.415495   1.385838   4.564509   2.690802
    12  C    4.159196   2.759171   2.398578   4.792376   2.443217
    13  H    4.072581   2.747295   2.727375   4.571503   2.241791
    14  H    4.076799   2.747542   2.734126   4.572153   2.230366
    15  H    5.228624   3.830993   3.281542   5.882483   3.520751
                   11         12         13         14         15
    11  O    0.000000
    12  C    1.406793   0.000000
    13  H    2.081833   1.096577   0.000000
    14  H    2.082565   1.096545   1.783043   0.000000
    15  H    2.009365   1.090331   1.777995   1.777789   0.000000
 Symmetry turned off by external request.
 Stoichiometry    C7H7O(1-)
 Framework group  C1[X(C7H7O)]
 Deg. of freedom    39
 Full point group                 C1      NOp   1
 Rotational constants (GHZ):           5.1720408           1.5966472           1.2295426
 Standard basis: 6-311+G(d,p) (5D, 7F)
   218 basis functions,   344 primitive gaussians,   226 cartesian basis functions
    29 alpha electrons       29 beta electrons
       nuclear repulsion energy       333.5972057337 Hartrees.
 NAtoms=   15 NActive=   15 NUniq=   15 SFac= 1.00D+00 NAtFMM=   60 NAOKFM=F Big=F
 Integral buffers will be    131072 words long.
 Raffenetti 2 integral format.
 Two-electron integral symmetry is turned off.
 ------------------------------------------------------------------------------
 Polarizable Continuum Model (PCM)
 =================================
 Model                : PCM.
 Atomic radii         : SMD-Coulomb.
 Polarization charges : Total charges.
 Charge compensation  : None.
 Solution method      : Matrix inversion.
 Cavity type          : VdW (van der Waals Surface) (Alpha=1.000).
 Cavity algorithm     : GePol (No added spheres)
                        Default sphere list used, NSphG=   15.
                        Lebedev-Laikov grids with approx.  5.0 points / Ang**2.
[...]
 ! D24   D(8,11,12,14)          61.7095         -DE/DX =    0.0                 !
 ! D25   D(8,11,12,15)        -179.5233         -DE/DX =    0.0                 !
 --------------------------------------------------------------------------------
 GradGradGradGradGradGradGradGradGradGradGradGradGradGradGradGradGradGrad


 ----------------------------------------------------------------------

 Electric dipole moment (input orientation):
 (Debye = 10**-18 statcoulomb cm , SI units = C m)
                  (au)            (Debye)         (10**-30 SI)
   Tot        0.205311D+02      0.521848D+02      0.174070D+03
   x         -0.122782D+02     -0.312082D+02     -0.104099D+03
   y         -0.128620D+02     -0.326919D+02     -0.109048D+03
   z         -0.102635D+02     -0.260872D+02     -0.870177D+02

 Dipole polarizability, Alpha (input orientation).
 (esu units = cm**3 , SI units = C**2 m**2 J**-1)
 Alpha(0;0):
               (au)            (10**-24 esu)      (10**-40 SI)
   iso        0.133089D+03      0.197217D+02      0.219434D+02
   aniso      0.678593D+02      0.100557D+02      0.111885D+02
   xx         0.153887D+03      0.228038D+02      0.253726D+02
   yx         0.108340D+02      0.160544D+01      0.178629D+01
   yy         0.127873D+03      0.189488D+02      0.210834D+02
   zx         0.860034D+01      0.127444D+01      0.141800D+01
   zy        -0.315012D+02     -0.466799D+01     -0.519384D+01
   zz         0.117507D+03      0.174127D+02      0.193742D+02

 ----------------------------------------------------------------------

 Dipole orientation:
     6         -0.16861101         -0.50629207        -20.27603390
     6         -1.80788752          0.49512478        -18.44731779
     1         -2.05231709          2.54124736        -18.34187743
     6         -3.19764837         -0.94464551        -16.69611535
     1         -4.43397528         -0.03383837        -15.33263814
     6         -2.96618509         -3.55251745        -16.73577075
     6         -1.36359373         -4.69012242        -18.50696821
     6         -0.02565994         -3.16454975        -20.20632429
     1         -4.00886677         -4.72553054        -15.41496705
     1         -1.20393344         -6.73244881        -18.51222175
     8          1.56902168         -4.25076258        -21.97746943
     6          1.82871702         -6.89650690        -21.98943630
     1          2.58388616         -7.60818302        -20.19573795
     1          0.03197087         -7.85101800        -22.38252130
     1          3.16134482         -7.34581336        -23.49528386

 Electric dipole moment (dipole orientation):
 (Debye = 10**-18 statcoulomb cm , SI units = C m)
                  (au)            (Debye)         (10**-30 SI)
   Tot        0.205311D+02      0.521848D+02      0.174070D+03
   x          0.000000D+00      0.000000D+00      0.000000D+00
   y          0.000000D+00      0.000000D+00      0.000000D+00
   z          0.205311D+02      0.521848D+02      0.174070D+03

 Dipole polarizability, Alpha (dipole orientation).
 (esu units = cm**3 , SI units = C**2 m**2 J**-1)
 Alpha(0;0):
               (au)            (10**-24 esu)      (10**-40 SI)
   iso        0.133089D+03      0.197217D+02      0.219434D+02
   aniso      0.678593D+02      0.100557D+02      0.111885D+02
   xx         0.117887D+03      0.174690D+02      0.194369D+02
   yx        -0.409750D+01     -0.607187D+00     -0.675586D+00
   yy         0.153264D+03      0.227115D+02      0.252699D+02
   zx        -0.344309D+02     -0.510214D+01     -0.567690D+01
   zy        -0.111135D+01     -0.164685D+00     -0.183236D+00
   zz         0.128116D+03      0.189848D+02      0.211235D+02

 ----------------------------------------------------------------------
 Unable to Open any file for archive entry.
 1\1\GINC-CN013\Freq\RM062X\6-311+G(d,p)\C7H7O1(1-)\TAHMINAAFROZ\30-May
 -2025\0\\#N Geom=AllCheck Guess=TCheck SCRF=Check GenChk RM062X/6-311+
 G(d,p) Freq\\2-OMe-ph-anion-opt-freq-thf\\-1,1\C,6.2817848341,6.941811
 6768,5.2492676427\C,5.1747999935,6.1609807743,5.6162590645\H,5.3133791
 671,5.3588825016,6.3440298395\C,3.8702290628,6.3266757628,5.1155146454
 \H,3.0608873721,5.6822178544,5.4480212139\C,3.631355056,7.3281637261,4
 .1882191744\C,4.687352166,8.1479863993,3.7724738111\C,5.9659704966,7.9
 384298809,4.3043487833\H,2.6381218856,7.4864378726,3.7799251662\H,4.48
 34072766,8.926593123,3.04628496\O,7.0255563411,8.7392009958,3.90812974
 45\C,6.7842914563,9.7425756045,2.9520201172\H,6.4269125961,9.326192908
 ,2.0026092154\H,6.0584386914,10.4833195355,3.3081826874\H,7.7384976047
 ,10.2411863845,2.7796919345\\Version=AS64L-G16RevC.01\HF=-346.160487\R
 MSD=2.578e-09\RMSF=8.119e-06\ZeroPoint=0.1199515\Thermal=0.1267045\ETo
 t=-346.0337825\HTot=-346.0328383\GTot=-346.071559\Dipole=-1.9908816,1.
 8228052,-2.1356221\DipoleDeriv=-0.4054423,0.0003164,0.1016626,-0.21207
 36,-0.9978533,0.1291061,0.285239,0.1829247,-0.8686371,0.1235764,0.1233
 85,-0.0068225,0.1990341,0.1232236,-0.2575118,-0.0679249,-0.2789075,-0.
 0202529,0.0581008,0.0119131,-0.0215426,-0.0413382,-0.1291053,0.1869566
 ,0.0238371,0.2002988,-0.0639957,-0.2191617,-0.0835453,0.0609154,-0.001
 2807,-0.1291346,-0.0254782,-0.0128407,-0.0472672,-0.1199941,-0.1229829
 ,-0.1513746,0.0425015,-0.1517851,0.028721,0.1027376,0.0431741,0.103219
 9,0.1202643,-0.0927107,0.1176162,-0.0564765,-0.0092097,-0.0501368,-0.1
 901504,0.0490679,-0.1569038,-0.1196629,-0.1629546,-0.2022225,0.1844595
 ,0.1706282,-0.2226359,0.0540256,-0.1316523,-0.0537422,-0.2085206,0.759
 843,0.9649406,-0.65168,0.6801344,1.0378752,-0.5987072,-0.4018264,-0.51
 00628,0.4603839,-0.1259252,0.0136168,-0.0952933,0.0243811,0.1196383,0.
 060553,-0.1044958,0.0581805,0.1037468,0.0660452,0.0579847,-0.0859944,0
 .0266008,0.0032922,0.1759284,-0.0589027,0.1843907,0.0241731,-1.1185432
 ,-0.8046711,0.4935377,-0.6939237,-1.4358763,0.701504,0.387438,0.670815
 9,-0.8769104,0.3081423,-0.1238315,0.0798371,0.1060312,0.8034468,-0.315
 5512,-0.1202438,-0.3813037,0.7087538,0.063118,0.0261893,-0.1170722,-0.
 060453,-0.0460772,-0.1053278,-0.0122835,0.0198643,-0.174113,-0.0171919
 ,0.1914523,0.0080349,0.0477234,-0.1087448,0.0155864,0.1080896,-0.04191
 24,-0.0299267,-0.1139132,-0.1417693,0.0639326,-0.0844692,0.0033669,0.0
 66329,0.0133245,0.0504049,0.0646917\Polar=153.8874577,10.8340253,127.8
 727115,8.6003365,-31.501186,117.5066902\Quadrupole=-13.8797149,-22.534
 3277,36.4140426,-158.1588657,-126.1577623,-136.3078968\PG=C01 [X(C7H7O
 1)]\NImag=0\\0.37784885,0.10470187,0.34919012,-0.00795972,-0.21326813,
 0.24321442,-0.23293002,-0.09530973,0.03292157,0.58549663,-0.10820247,-
 0.14966281,0.05569857,0.05721553,0.46056345,0.04409147,0.05932565,-0.0
 8877895,0.07199198,-0.25885684,0.38408454,0.00233570,-0.01779401,0.016
 99924,-0.05913961,0.02536341,-0.02757251,0.06468098,-0.00176179,-0.013
 41342,0.00776560,0.02928342,-0.18421922,0.13300975,-0.02382912,0.19502
 271,0.00321221,0.00333749,-0.00579699,-0.03088915,0.13195856,-0.161102
 33,0.03137753,-0.15216087,0.16538687,-0.04467124,-0.04489727,0.0207814
 2,-0.27281725,0.04067320,-0.09232656,-0.00195873,-0.00137472,-0.000594
 22,0.64922897,-0.00759480,0.03654600,-0.01565004,-0.01397590,-0.102666
 73,0.02850421,0.02242446,-0.00120586,0.01099145,0.10249093,0.48313450,
 -0.01146179,-0.02590525,0.03997522,-0.04511432,0.04348265,-0.11564718,
 -0.02102211,0.00446487,-0.00519048,0.05571811,-0.27910943,0.38269878,-
 0.00423228,0.00036973,-0.00304577,-0.01422885,-0.01879333,0.01164679,0
 .00087707,0.00082552,0.00045679,-0.21005116,-0.12563093,0.05967597,0.2
 1892167,-0.00012493,0.00292359,0.00232447,0.00463900,0.00500635,-0.001
 07323,0.00001284,-0.00101966,-0.00201802,-0.12427369,-0.14531719,0.062
 14095,0.13636207,0.14846171,-0.00259340,0.00246634,0.00282356,-0.00856
 683,-0.00748489,0.00637045,0.00115161,-0.00179916,-0.00149934,0.058551
 55,0.06171555,-0.07054599,-0.06385979,-0.06967439,0.06642488,-0.004370
 32,-0.01534624,0.01328564,0.01019598,0.02505125,-0.02074780,-0.0048284
 4,0.00097480,-0.00412823,-0.12805284,0.04592326,-0.05784048,0.00716957
 ,-0.01830573,0.01720764,0.69637297,-0.01611193,-0.04173473,0.02739344,
 0.06808000,0.00937276,0.01715447,-0.00053837,0.00425373,0.00238455,-0.
 00386157,-0.22187164,0.13644608,0.00530335,-0.00904525,0.01089814,0.04
 914660,0.45634869,0.01393565,0.02755636,-0.02473028,-0.05783407,0.0055
 0622,-0.01280212,-0.00284140,0.00279257,0.00400808,-0.01476801,0.15038
 643,-0.19584633,-0.00312469,0.00434882,-0.00275861,0.11270626,-0.26565
 911,0.39213062,0.01562353,0.05234787,-0.04518635,-0.06236128,-0.008126
 13,-0.00881326,-0.00098203,-0.00060644,0.00057583,0.04338737,-0.044211
 66,0.04791693,0.00143219,0.00106339,-0.00266710,-0.23748223,-0.0765335
 0,0.01662285,0.63471617,0.02248184,0.01489316,0.00730961,-0.02173129,-
 0.00771532,-0.00350890,-0.00055926,-0.00040399,-0.00086573,-0.00483802
 ,-0.03144206,0.03190304,0.00025480,0.00085328,0.00594048,-0.12574344,-
 0.16773831,0.05898891,0.07007125,0.48113214,-0.01955872,0.01543598,-0.
 00247015,0.00301481,0.00025189,-0.00440452,0.00055282,-0.00088295,-0.0
 0032369,0.01401012,0.02091779,-0.00720795,-0.00193847,0.00616800,0.001
 85480,0.05901753,0.07286554,-0.10530606,0.08136630,-0.28974600,0.39492
 980,-0.11260699,0.03083476,-0.04159159,0.03672250,-0.01577011,0.026039
 55,-0.00125286,-0.00363788,-0.00036095,-0.02386052,0.02709717,-0.02775
 858,-0.00041809,0.00069344,-0.00093688,-0.05481055,-0.04331527,0.02162
 096,-0.25884249,0.05226997,-0.09847274,0.59966300,0.03815520,-0.156394
 53,0.09581178,-0.03617629,-0.03454063,0.01217677,-0.00566759,0.0030193
 9,0.00581208,0.02740817,-0.02293774,0.02060854,0.00135565,0.00033940,0
 .00081353,0.00017940,0.03830907,-0.03044946,-0.00462424,-0.10996019,0.
 03568525,0.02873931,0.40705800,-0.04781525,0.09392506,-0.15119987,0.04
 333083,0.01749755,-0.01183520,0.00135143,0.00634182,0.00643552,-0.0280
 1400,0.02044159,-0.03287859,-0.00150995,0.00065178,-0.00008777,-0.0156
 5423,-0.04233648,0.03481965,-0.04943800,0.05136012,-0.12527051,0.09607
 678,-0.20408188,0.36436706,0.00005576,0.00005532,0.00076508,0.00211601
 ,0.00023819,-0.00166911,-0.00028501,-0.00003967,-0.00012456,-0.0012377
 3,-0.00148715,0.00002888,0.00041345,0.00101148,0.00045961,-0.29114163,
 0.03401494,-0.09977653,-0.01644843,0.00577285,-0.01025470,0.00012249,-
 0.00385468,0.00142988,0.30757144,0.00011813,-0.00147910,-0.00120219,-0
 .00121009,-0.00015101,0.00622258,0.00112127,-0.00015150,0.00069584,0.0
 2186505,0.00195754,0.00721826,0.00011789,-0.00114675,-0.00279932,0.034
 38169,-0.05478311,0.02684274,-0.01705571,0.00587324,-0.00729560,-0.003
 06321,0.00100349,0.00434478,-0.03611949,0.04972598,0.00072181,-0.00120
 522,-0.00167611,-0.00045073,0.00661840,0.00165069,-0.00112433,0.000374
 98,-0.00033435,-0.02006454,0.00080149,-0.00281774,0.00123251,-0.002545
 17,-0.00190212,-0.10004628,0.02675617,-0.08491176,0.00936171,-0.001044
 53,0.00627123,0.00073811,0.00411767,0.00368223,0.10875623,-0.03138381,
 0.08151207,-0.00564131,0.00126430,-0.00384654,-0.00123270,-0.00089700,
 0.00034242,0.00014827,0.00029995,0.00029831,-0.00263379,-0.00378226,0.
 00035215,0.00021424,-0.00100405,0.00072730,0.00796022,-0.01759919,0.01
 684961,-0.06699025,0.03676842,-0.04104922,0.00338665,0.01935693,-0.016
 68253,0.00086033,0.00115729,0.00036688,0.06714424,0.00066296,0.0022374
 6,0.00198206,0.00001904,0.00058421,-0.00017778,0.00027847,-0.00082725,
 -0.00082493,-0.00451247,0.00265002,0.00328929,0.00021111,-0.00025396,0
 .00090022,0.00521606,-0.00996976,0.01153530,0.03648986,-0.19133381,0.1
 4689558,-0.00026468,-0.00026905,0.00311164,0.00055554,-0.00100095,-0.0
 0252422,-0.03314382,0.20229313,-0.00332094,0.00212392,0.00158680,-0.00
 044528,-0.00041498,0.00061193,0.00031578,-0.00081633,-0.00108014,0.000
 98562,0.00349533,0.00516860,-0.00032022,0.00056321,0.00014589,-0.00280
 432,0.00526222,-0.00351443,-0.04083044,0.14702389,-0.17007295,0.000254
 30,0.00857237,-0.00383891,0.00089126,-0.00235808,-0.00183395,0.0406138
 6,-0.16381260,0.17474484,0.01158841,-0.01461421,0.01694235,0.00751772,
 0.00472924,-0.00397494,0.00067059,0.00004202,0.00001690,-0.00726572,-0
 .00130986,-0.00041706,-0.00010675,-0.00005906,0.00039424,-0.00179192,0
 .00242865,-0.00433629,-0.04664971,-0.03159682,0.01181496,-0.19604746,-
 0.04441876,-0.00463275,-0.00206678,-0.00138328,0.00054312,0.00222869,0
 .00061700,0.00060840,0.32486010,-0.02947769,-0.04272021,0.03017001,0.0
 0930741,0.00377635,0.00572443,-0.00071058,-0.00097009,0.00090922,-0.00
 953891,-0.00004560,-0.00380690,-0.00040165,-0.00066381,-0.00073279,-0.
 00132788,-0.00175200,0.00648273,-0.01023389,0.00289816,0.00223639,-0.0
 7774133,-0.10296700,0.03062021,-0.00056004,0.00000471,0.00011261,0.000
 18456,-0.00128753,-0.00049058,0.07665412,0.32541527,0.02978172,0.03421
 194,-0.01378181,-0.00769064,0.00463034,0.00137100,0.00072431,0.0011490
 4,-0.00044076,0.00641174,-0.00146242,0.00153929,0.00069024,-0.00063512
 ,-0.00064587,-0.00121580,0.00730565,-0.00035236,-0.00625308,-0.0034204
 6,0.00971788,0.02480518,0.04045517,-0.07098839,-0.00017246,-0.00011489
 ,0.00036727,0.00100731,-0.00036881,-0.00133114,0.00417149,-0.20359212,
 0.24388426,-0.00341011,-0.00236881,0.00041613,0.00048595,-0.00129906,0
 .00075555,-0.00030769,-0.00025200,0.00020671,-0.00025184,-0.00046464,0
 .00027681,-0.00001554,0.00003201,0.00009086,0.00067350,-0.00006360,0.0
 0011996,-0.00462252,-0.00451297,0.00289154,0.00777963,-0.01946316,0.02
 106060,-0.00006622,0.00003149,-0.00000825,-0.00347847,-0.00316308,0.00
 203634,-0.10059474,0.02772689,-0.03607809,0.61066410,-0.00078354,0.003
 29767,-0.00088049,-0.00196916,-0.00052525,0.00129329,-0.00000808,0.000
 08683,-0.00030535,0.00226383,0.00067096,0.00022379,0.00014017,-0.00012
 730,-0.00022715,0.00079335,-0.00045123,0.00095397,0.00210943,0.0023233
 4,-0.00198519,-0.00906726,-0.03100214,0.01993192,0.00056190,0.00019280
 ,-0.00013394,-0.00106015,-0.00201489,0.00077106,0.00835896,-0.13893162
 ,0.07076675,0.03392189,0.51979972,-0.00101534,-0.00145782,0.00333927,0
 .00129800,0.00147232,0.00075359,-0.00001685,-0.00038110,0.00006645,-0.
 00206879,-0.00059075,0.00012243,-0.00000982,-0.00025874,-0.00021155,-0
 .00057882,0.00076627,-0.00046396,-0.00306858,-0.00388026,0.00194770,0.
 01173827,0.01663721,-0.01680689,-0.00047978,-0.00027938,-0.00001903,0.
 00022612,0.00020776,-0.00089724,-0.01881617,0.07669459,-0.13454357,-0.
 01755038,0.05294657,0.51618650,0.00013707,0.00016665,-0.00020926,0.000
 15704,-0.00004079,0.00012506,0.00001294,0.00004801,-0.00001798,0.00014
 114,0.00025013,-0.00033816,0.00000149,0.00003603,0.00002656,-0.0001252
 4,-0.00052466,0.00007957,0.00005163,0.00085801,0.00017238,-0.00059946,
 -0.00044018,0.00151745,0.00004895,0.00004639,0.00003879,-0.00136195,-0
 .00025056,0.00147199,-0.00047025,0.00280067,-0.00922345,-0.07691437,-0
 .03514341,-0.06828919,0.07908678,-0.00021706,-0.00127144,0.00031703,0.
 00063692,-0.00004536,-0.00015263,-0.00000023,-0.00000055,0.00003707,-0
 .00048384,0.00026504,-0.00038385,-0.00005522,0.00003454,0.00010310,-0.
 00007620,-0.00084581,0.00031134,-0.00111247,0.00066411,-0.00090598,0.0
 0326237,0.00365436,-0.00035597,-0.00003078,0.00001957,0.00002406,-0.00
 063214,-0.00022848,0.00114091,0.00966613,0.00739773,0.03241377,-0.0354
 4629,-0.09818098,-0.09498502,0.03522194,0.10064667,0.00080120,0.001693
 24,-0.00094975,-0.00086488,-0.00021418,0.00019666,0.00002514,0.0000466
 1,-0.00005513,0.00077948,-0.00019817,0.00029975,0.00006183,-0.00005550
 ,-0.00001403,0.00043017,0.00033429,0.00004748,-0.00006135,0.00029338,-
 0.00011691,-0.00524584,-0.00477165,0.00229258,0.00007430,0.00003950,-0
 .00001717,0.00074895,-0.00039098,0.00008299,-0.00833660,0.00811672,-0.
 03013235,-0.06610534,-0.09033815,-0.22964167,0.07997123,0.09093819,0.2
 5996782,0.00024310,0.00052832,-0.00015819,0.00006317,-0.00013868,0.000
 10146,0.00002628,0.00003653,-0.00004842,0.00016670,0.00040663,-0.00011
 562,0.00002693,-0.00004154,-0.00002673,-0.00009204,-0.00027228,0.00058
 026,-0.00009133,0.00024482,-0.00107261,-0.00085454,-0.00233150,0.00030
 907,0.00008022,-0.00001102,-0.00004522,-0.00077444,-0.00212377,-0.0000
 7353,-0.00122763,0.00940984,-0.00601590,-0.16175278,0.10929526,0.06275
 298,0.00700119,-0.00792842,-0.00361299,0.17365411,-0.00089836,-0.00136
 453,0.00134634,0.00085015,0.00045023,0.00013853,-0.00001196,-0.0000629
 4,0.00001760,-0.00074861,0.00025788,-0.00046665,-0.00003328,-0.0000392
 0,-0.00009100,-0.00057119,-0.00022101,0.00040529,-0.00007311,-0.000025
 34,-0.00005123,0.00567854,0.00401882,-0.00290629,-0.00005351,-0.000049
 59,0.00000005,-0.00097158,-0.00081093,-0.00066504,0.01641392,-0.028149
 38,0.00607781,0.10584061,-0.15625923,-0.06021040,0.00875205,-0.0073385
 8,-0.00663608,-0.12517867,0.17786579,0.00040792,0.00057119,-0.00099782
 ,-0.00039200,-0.00028729,-0.00021282,-0.00000522,0.00004040,-0.0000067
 1,0.00045325,-0.00013869,0.00026512,0.00001394,0.00009615,0.00004136,0
 .00007507,0.00037876,-0.00057483,0.00120793,-0.00068195,0.00061320,-0.
 00334365,-0.00199027,0.00209890,0.00003212,0.00001837,0.00001982,-0.00
 000629,0.00074120,-0.00003976,-0.01914530,0.02651447,0.00625987,0.0638
 7766,-0.06377300,-0.08628948,0.01863603,-0.01732187,-0.00829218,-0.063
 32500,0.05834807,0.08803378,0.00002987,0.00006146,-0.00011401,-0.00004
 528,-0.00000325,0.00000990,0.00000255,-0.00000862,0.00001922,-0.000123
 37,-0.00013539,0.00009929,-0.00000394,-0.00004126,0.00004136,0.0003229
 7,-0.00015318,0.00016587,-0.00074064,0.00025983,-0.00049400,0.00161868
 ,0.00178173,-0.00132933,-0.00002285,0.00000360,-0.00001982,0.00017028,
 -0.00059167,0.00061719,0.00935546,0.00390848,-0.00094256,-0.26818890,-
 0.10941320,0.03587833,-0.00716697,-0.00280471,0.00133469,-0.01646894,-
 0.00899499,0.00151354,0.28126109,-0.00094745,-0.00104723,0.00088196,0.
 00034100,-0.00022703,0.00021969,-0.00008124,-0.00010818,0.00003103,-0.
 00017209,0.00000487,-0.00010540,-0.00002588,-0.00000576,-0.00002867,-0
 .00029572,0.00012859,-0.00000210,0.00049535,-0.00001844,0.00041052,0.0
 0428419,0.00066875,0.00145414,-0.00006492,-0.00001532,0.00003147,0.000
 05874,0.00023177,-0.00039530,-0.02552805,-0.02200499,0.01258335,-0.100
 51930,-0.09887867,0.01331874,-0.01178028,-0.00477082,0.00114278,0.0181
 0449,0.01172801,-0.00251553,0.11613116,0.11431442,0.00077319,0.0011892
 5,-0.00055753,-0.00030929,0.00014167,-0.00025574,0.00008456,0.00005477
 ,-0.00006701,0.00014484,-0.00010433,0.00006506,0.00003063,-0.00003321,
 0.00000434,0.00029365,0.00005002,0.00025492,-0.00073339,0.00032839,-0.
 00016187,-0.00356294,0.00060289,-0.00078979,0.00003977,0.00005120,0.00
 000892,0.00005166,-0.00056373,0.00026748,0.02516767,0.02104102,-0.0109
 2333,0.02800989,0.01075593,-0.05354253,-0.02396103,-0.01118018,0.00633
 190,0.01075045,0.00469301,-0.00091844,-0.03677966,-0.02702670,0.060283
 62\\-0.00000601,0.00000946,0.00001230,-0.00000857,0.00001054,0.0000122
 4,-0.00001182,0.00001649,0.00001888,-0.00000482,0.00000677,0.00000341,
 -0.00000661,0.00000873,0.00000350,0.00000021,-0.00000023,-0.00000516,0
 .00000203,-0.00000304,-0.00000480,-0.00000162,0.00000120,0.00000431,0.
 00000217,-0.00000364,-0.00001208,0.00000582,-0.00000828,-0.00001179,0.
 00000127,-0.00000087,0.00000411,0.00000593,-0.00000781,-0.00000456,0.0
 0001170,-0.00001496,-0.00000356,0.00000358,-0.00000562,-0.00001416,0.0
 0000673,-0.00000874,-0.00000264\\\@
 The archive entry for this job was punched.


 THE CHYMISTS ARE A STRANGE CLASS OF MORTALS IMPELLED
 BY AN ALMOST INSANE IMPULSE TO SEEK THEIR PLEASURE
 AMONG SMOKE AND VAPOR, SOOT AND FLAME, POISONS AND
 POVERTY; YET AMONG ALL THESE EVILS I SEEM TO LIVE
 SO SWEETLY, THAT I MAY DIE IF I WOULD CHANGE PLACES
 WITH THE PERSIAN KING.
   --  JOHANN JOACHIM BECHER, 1635-1682
 ACTA LABORATORII CHYMICA MONACENSIS, 1669
 Job cpu time:       0 days  0 hours 29 minutes 45.2 seconds.
 Elapsed time:       0 days  0 hours  0 minutes 58.9 seconds.
 File lengths (MBytes):  RWF=    102 Int=      0 D2E=      0 Chk=     13 Scr=      1
 Normal termination of Gaussian 16 at Fri May 30 05:07:50 2025.
