/home/tahminaafroz
cn014.cluster.local
tahminaafroz
Wed Apr 30 05:28:33 CDT 2025
 Entering Gaussian System, Link 0=g16
 Initial command:
 /home/apps/g16/l1.exe "/tmp/2-OMe-phboh2-opt-freq-thf/Gau-1149540.inp" -scrdir="/tmp/2-OMe-phboh2-opt-freq-thf/"
 Entering Link 1 = /home/apps/g16/l1.exe PID=   1149541.
  
 Copyright (c) 1988-2019, Gaussian, Inc.  All Rights Reserved.
  
 This is part of the Gaussian(R) 16 program.  It is based on
 the Gaussian(R) 09 system (copyright 2009, Gaussian, Inc.),
 the Gaussian(R) 03 system (copyright 2003, Gaussian, Inc.),
 the Gaussian(R) 98 system (copyright 1998, Gaussian, Inc.),
 the Gaussian(R) 94 system (copyright 1995, Gaussian, Inc.),
 the Gaussian 92(TM) system (copyright 1992, Gaussian, Inc.),
 the Gaussian 90(TM) system (copyright 1990, Gaussian, Inc.),
 the Gaussian 88(TM) system (copyright 1988, Gaussian, Inc.),
 the Gaussian 86(TM) system (copyright 1986, Carnegie Mellon
 University), and the Gaussian 82(TM) system (copyright 1983,
 Carnegie Mellon University). Gaussian is a federally registered
 trademark of Gaussian, Inc.
  
 This software contains proprietary and confidential information,
 including trade secrets, belonging to Gaussian, Inc.
  
 This software is provided under written license and may be
 used, copied, transmitted, or stored only in accord with that
 written license.
  
 The following legend is applicable only to US Government
 contracts under FAR:
  
                    RESTRICTED RIGHTS LEGEND
  
 Use, reproduction and disclosure by the US Government is
 subject to restrictions as set forth in subparagraphs (a)
 and (c) of the Commercial Computer Software - Restricted
 Rights clause in FAR 52.227-19.
  
 Gaussian, Inc.
 340 Quinnipiac St., Bldg. 40, Wallingford CT 06492
  
  
 ---------------------------------------------------------------
 Warning -- This program may not be used in any manner that
 competes with the business of Gaussian, Inc. or will provide
 assistance to any competitor of Gaussian, Inc.  The licensee
 of this program is prohibited from giving any competitor of
 Gaussian, Inc. access to this program.  By using this program,
 the user acknowledges that Gaussian, Inc. is engaged in the
 business of creating and licensing software in the field of
 computational chemistry and represents and warrants to the
 licensee that it is not a competitor of Gaussian, Inc. and that
 it will not use this program in any manner prohibited above.
 ---------------------------------------------------------------
  

 Cite this work as:
 Gaussian 16, Revision C.01,
 M. J. Frisch, G. W. Trucks, H. B. Schlegel, G. E. Scuseria, 
 M. A. Robb, J. R. Cheeseman, G. Scalmani, V. Barone, 
 G. A. Petersson, H. Nakatsuji, X. Li, M. Caricato, A. V. Marenich, 
 J. Bloino, B. G. Janesko, R. Gomperts, B. Mennucci, H. P. Hratchian, 
 J. V. Ortiz, A. F. Izmaylov, J. L. Sonnenberg, D. Williams-Young, 
 F. Ding, F. Lipparini, F. Egidi, J. Goings, B. Peng, A. Petrone, 
 T. Henderson, D. Ranasinghe, V. G. Zakrzewski, J. Gao, N. Rega, 
 G. Zheng, W. Liang, M. Hada, M. Ehara, K. Toyota, R. Fukuda, 
 J. Hasegawa, M. Ishida, T. Nakajima, Y. Honda, O. Kitao, H. Nakai, 
 T. Vreven, K. Throssell, J. A. Montgomery, Jr., J. E. Peralta, 
 F. Ogliaro, M. J. Bearpark, J. J. Heyd, E. N. Brothers, K. N. Kudin, 
 V. N. Staroverov, T. A. Keith, R. Kobayashi, J. Normand, 
 K. Raghavachari, A. P. Rendell, J. C. Burant, S. S. Iyengar, 
 J. Tomasi, M. Cossi, J. M. Millam, M. Klene, C. Adamo, R. Cammi, 
 J. W. Ochterski, R. L. Martin, K. Morokuma, O. Farkas, 
 J. B. Foresman, and D. J. Fox, Gaussian, Inc., Wallingford CT, 2019.
 
 ******************************************
 Gaussian 16:  AS64L-G16RevC.01  3-Jul-2019
                30-Apr-2025 
 ******************************************
 %mem=20GB
 %nprocshared=32
 Will use up to   32 processors via shared memory.
 %chk=2-OMe-phboh2-opt-freq-thf.chk
 ----------------------------------------------------------------------
 # opt=(calcfc,tight) freq 6-311+g(d,p) scrf=(smd,solvent=thf) nosymm s
 cf=(qc,fermi,xqc) geom=connectivity int=ultrafine m062x
 ----------------------------------------------------------------------
 1/7=10,10=4,18=20,19=15,26=6,38=1,57=2/1,3;
 2/9=110,12=2,15=1,17=6,18=5,40=1/2;
 3/5=4,6=6,7=111,11=2,25=1,30=1,70=32201,71=2,72=20,74=-55,75=-5,140=1/1,2,3;
 4//1;
 5/5=2,22=13,38=5,53=20/2;
 8/6=4,10=90,11=11/1;
 11/6=1,8=1,9=11,15=111,16=1,31=1/1,2,10;
 10/6=1,13=1,31=1/2;
 6/7=2,8=2,9=2,10=2,28=1/1;
 7/10=1,25=1,30=1/1,2,3,16;
 1/7=10,10=4,18=20,19=15,26=6/3(2);
 2/9=110,15=1/2;
 99//99;
 2/9=110,15=1/2;
 3/5=4,6=6,7=111,11=2,25=1,30=1,70=32205,71=1,72=20,74=-55,75=-5/1,2,3;
 4/5=5,16=3,69=1/1;
 5/5=2,22=13,38=5,53=20/2;
 7/30=1/1,2,3,16;
 1/7=10,18=20,19=15,26=6/3(-5);
 2/9=110,15=1/2;
 6/7=2,8=2,9=2,10=2,19=2,28=1/1;
 99/9=1/99;
 -------------------------
 2-OMe-phboh2-opt-freq-thf
 -------------------------
 Symbolic Z-matrix:
 Charge =  0 Multiplicity = 1
 O                     8.39591   7.80313   6.27984 
 H                     9.22634   7.50755   6.66496 
 C                     6.22038   6.96609   5.2249 
 B                     7.63874   6.7546    5.86847 
 O                     8.12355   5.49033   6.09685 
 H                     7.57434   4.80015   5.71965 
 C                     5.16166   6.14783   5.62029 
 H                     5.34117   5.37572   6.36361 
 C                     3.87186   6.30953   5.11897 
 H                     3.06671   5.66836   5.45477 
 C                     3.63716   7.30929   4.18758 
 C                     4.67069   8.13793   3.7557 
 C                     5.95541   7.96645   4.27217 
 H                     2.64219   7.45388   3.7827 
 H                     4.46313   8.90422   3.0215 
 O                     7.01873   8.71146   3.88425 
 C                     6.80239   9.76066   2.96626 
 H                     6.44127   9.38044   2.00527 
 H                     6.08932   10.49087   3.36128 
 H                     7.7688    10.23913   2.82572 
 

 GradGradGradGradGradGradGradGradGradGradGradGradGradGradGradGradGradGrad
 Berny optimization.
 Initialization pass.
                           ----------------------------
                           !    Initial Parameters    !
                           ! (Angstroms and Degrees)  !
 --------------------------                            --------------------------
 ! Name  Definition              Value          Derivative Info.                !
 --------------------------------------------------------------------------------
 ! R1    R(1,2)                  0.9619         calculate D2E/DX2 analytically  !
 ! R2    R(1,4)                  1.3572         calculate D2E/DX2 analytically  !
 ! R3    R(3,4)                  1.5718         calculate D2E/DX2 analytically  !
 ! R4    R(3,7)                  1.3953         calculate D2E/DX2 analytically  !
 ! R5    R(3,13)                 1.4066         calculate D2E/DX2 analytically  !
 ! R6    R(4,5)                  1.3732         calculate D2E/DX2 analytically  !
 ! R7    R(5,6)                  0.9593         calculate D2E/DX2 analytically  !
 ! R8    R(7,8)                  1.0867         calculate D2E/DX2 analytically  !
 ! R9    R(7,9)                  1.3932         calculate D2E/DX2 analytically  !
 ! R10   R(9,10)                 1.0826         calculate D2E/DX2 analytically  !
 ! R11   R(9,11)                 1.3864         calculate D2E/DX2 analytically  !
 ! R12   R(11,12)                1.3933         calculate D2E/DX2 analytically  !
 ! R13   R(11,14)                1.0839         calculate D2E/DX2 analytically  !
 ! R14   R(12,13)                1.3952         calculate D2E/DX2 analytically  !
 ! R15   R(12,15)                1.0814         calculate D2E/DX2 analytically  !
 ! R16   R(13,16)                1.3551         calculate D2E/DX2 analytically  !
 ! R17   R(16,17)                1.4108         calculate D2E/DX2 analytically  !
 ! R18   R(17,18)                1.0947         calculate D2E/DX2 analytically  !
 ! R19   R(17,19)                1.0944         calculate D2E/DX2 analytically  !
 ! R20   R(17,20)                1.0875         calculate D2E/DX2 analytically  !
 ! A1    A(2,1,4)              111.4439         calculate D2E/DX2 analytically  !
 ! A2    A(4,3,7)              119.3259         calculate D2E/DX2 analytically  !
 ! A3    A(4,3,13)             122.8871         calculate D2E/DX2 analytically  !
 ! A4    A(7,3,13)             117.7793         calculate D2E/DX2 analytically  !
 ! A5    A(1,4,3)              121.5729         calculate D2E/DX2 analytically  !
 ! A6    A(1,4,5)              117.6404         calculate D2E/DX2 analytically  !
 ! A7    A(3,4,5)              120.7016         calculate D2E/DX2 analytically  !
 ! A8    A(4,5,6)              113.2587         calculate D2E/DX2 analytically  !
 ! A9    A(3,7,8)              119.0235         calculate D2E/DX2 analytically  !
 ! A10   A(3,7,9)              122.1708         calculate D2E/DX2 analytically  !
 ! A11   A(8,7,9)              118.7847         calculate D2E/DX2 analytically  !
 ! A12   A(7,9,10)             120.5411         calculate D2E/DX2 analytically  !
 ! A13   A(7,9,11)             118.8259         calculate D2E/DX2 analytically  !
 ! A14   A(10,9,11)            120.6324         calculate D2E/DX2 analytically  !
 ! A15   A(9,11,12)            120.7656         calculate D2E/DX2 analytically  !
 ! A16   A(9,11,14)            120.1691         calculate D2E/DX2 analytically  !
 ! A17   A(12,11,14)           119.065          calculate D2E/DX2 analytically  !
 ! A18   A(11,12,13)           119.6822         calculate D2E/DX2 analytically  !
 ! A19   A(11,12,15)           119.3086         calculate D2E/DX2 analytically  !
 ! A20   A(13,12,15)           121.009          calculate D2E/DX2 analytically  !
 ! A21   A(3,13,12)            120.7691         calculate D2E/DX2 analytically  !
 ! A22   A(3,13,16)            115.918          calculate D2E/DX2 analytically  !
 ! A23   A(12,13,16)           123.2993         calculate D2E/DX2 analytically  !
 ! A24   A(13,16,17)           118.3485         calculate D2E/DX2 analytically  !
 ! A25   A(16,17,18)           111.3135         calculate D2E/DX2 analytically  !
 ! A26   A(16,17,19)           111.1775         calculate D2E/DX2 analytically  !
 ! A27   A(16,17,20)           105.9636         calculate D2E/DX2 analytically  !
 ! A28   A(18,17,19)           109.4903         calculate D2E/DX2 analytically  !
 ! A29   A(18,17,20)           109.4214         calculate D2E/DX2 analytically  !
 ! A30   A(19,17,20)           109.3968         calculate D2E/DX2 analytically  !
 ! D1    D(2,1,4,3)            178.9354         calculate D2E/DX2 analytically  !
 ! D2    D(2,1,4,5)              2.2672         calculate D2E/DX2 analytically  !
 ! D3    D(7,3,4,1)           -135.9732         calculate D2E/DX2 analytically  !
 ! D4    D(7,3,4,5)             40.594          calculate D2E/DX2 analytically  !
 ! D5    D(13,3,4,1)            42.9889         calculate D2E/DX2 analytically  !
 ! D6    D(13,3,4,5)          -140.4439         calculate D2E/DX2 analytically  !
 ! D7    D(4,3,7,8)             -0.2989         calculate D2E/DX2 analytically  !
 ! D8    D(4,3,7,9)            178.0141         calculate D2E/DX2 analytically  !
 ! D9    D(13,3,7,8)          -179.3138         calculate D2E/DX2 analytically  !
 ! D10   D(13,3,7,9)            -1.0008         calculate D2E/DX2 analytically  !
 ! D11   D(4,3,13,12)         -178.2788         calculate D2E/DX2 analytically  !
 ! D12   D(4,3,13,16)            3.0213         calculate D2E/DX2 analytically  !
 ! D13   D(7,3,13,12)            0.6984         calculate D2E/DX2 analytically  !
 ! D14   D(7,3,13,16)         -178.0015         calculate D2E/DX2 analytically  !
 ! D15   D(1,4,5,6)           -175.3732         calculate D2E/DX2 analytically  !
 ! D16   D(3,4,5,6)              7.928          calculate D2E/DX2 analytically  !
 ! D17   D(3,7,9,10)          -179.1258         calculate D2E/DX2 analytically  !
 ! D18   D(3,7,9,11)             0.5929         calculate D2E/DX2 analytically  !
 ! D19   D(8,7,9,10)            -0.8088         calculate D2E/DX2 analytically  !
 ! D20   D(8,7,9,11)           178.9098         calculate D2E/DX2 analytically  !
 ! D21   D(7,9,11,12)            0.1394         calculate D2E/DX2 analytically  !
 ! D22   D(7,9,11,14)          179.9561         calculate D2E/DX2 analytically  !
 ! D23   D(10,9,11,12)         179.8578         calculate D2E/DX2 analytically  !
 ! D24   D(10,9,11,14)          -0.3255         calculate D2E/DX2 analytically  !
 ! D25   D(9,11,12,13)          -0.4229         calculate D2E/DX2 analytically  !
 ! D26   D(9,11,12,15)         179.4312         calculate D2E/DX2 analytically  !
 ! D27   D(14,11,12,13)        179.7583         calculate D2E/DX2 analytically  !
 ! D28   D(14,11,12,15)         -0.3876         calculate D2E/DX2 analytically  !
 ! D29   D(11,12,13,3)          -0.0084         calculate D2E/DX2 analytically  !
 ! D30   D(11,12,13,16)        178.5925         calculate D2E/DX2 analytically  !
 ! D31   D(15,12,13,3)        -179.86           calculate D2E/DX2 analytically  !
 ! D32   D(15,12,13,16)         -1.259          calculate D2E/DX2 analytically  !
 ! D33   D(3,13,16,17)        -177.7739         calculate D2E/DX2 analytically  !
 ! D34   D(12,13,16,17)          3.5627         calculate D2E/DX2 analytically  !
 ! D35   D(13,16,17,18)        -63.0881         calculate D2E/DX2 analytically  !
 ! D36   D(13,16,17,19)         59.2718         calculate D2E/DX2 analytically  !
 ! D37   D(13,16,17,20)        178.0404         calculate D2E/DX2 analytically  !
 --------------------------------------------------------------------------------
 Trust Radius=3.00D-01 FncErr=5.00D-06 GrdErr=5.00D-06 EigMax=2.50D+02 EigMin=1.00D-04
 Number of steps in this run=     97 maximum allowed number of steps=    120.
 GradGradGradGradGradGradGradGradGradGradGradGradGradGradGradGradGradGrad

                          Input orientation:                          
 ---------------------------------------------------------------------
 Center     Atomic      Atomic             Coordinates (Angstroms)
 Number     Number       Type             X           Y           Z
 ---------------------------------------------------------------------
      1          8           0        8.395911    7.803129    6.279845
      2          1           0        9.226335    7.507547    6.664964
      3          6           0        6.220377    6.966094    5.224903
      4          5           0        7.638737    6.754604    5.868468
      5          8           0        8.123552    5.490334    6.096846
      6          1           0        7.574343    4.800146    5.719647
      7          6           0        5.161657    6.147835    5.620286
      8          1           0        5.341173    5.375722    6.363607
      9          6           0        3.871864    6.309526    5.118975
     10          1           0        3.066707    5.668361    5.454767
     11          6           0        3.637158    7.309290    4.187584
     12          6           0        4.670692    8.137929    3.755697
     13          6           0        5.955406    7.966451    4.272165
     14          1           0        2.642188    7.453878    3.782700
     15          1           0        4.463126    8.904217    3.021496
     16          8           0        7.018726    8.711462    3.884245
     17          6           0        6.802390    9.760665    2.966257
     18          1           0        6.441267    9.380442    2.005274
     19          1           0        6.089315   10.490869    3.361277
     20          1           0        7.768797   10.239131    2.825721
 ---------------------------------------------------------------------
                    Distance matrix (angstroms):
                    1          2          3          4          5
     1  O    0.000000
     2  H    0.961920   0.000000
     3  C    2.558609   3.376793   0.000000
     4  B    1.357184   1.929196   1.571830   0.000000
     5  O    2.335956   2.368129   2.561294   1.373164   0.000000
     6  H    3.163337   3.309490   2.601793   1.961173   0.959307
     7  C    3.692616   4.411550   1.395265   2.562360   3.071195
     8  H    3.902659   4.441844   2.144511   2.724936   2.797486
     9  C    4.903618   5.700500   2.440864   3.866415   4.438937
    10  H    5.799862   6.541269   3.417979   4.717471   5.100553
    11  C    5.221797   6.116831   2.804788   4.375578   5.204000
    12  C    4.512280   5.441976   2.435834   3.897009   4.940949
    13  C    3.164414   4.078610   1.406639   2.617319   3.763173
    14  H    6.281961   7.187581   3.888614   5.459388   6.265471
    15  H    5.224560   6.157411   3.420417   4.776043   5.874614
    16  O    2.908712   3.749046   2.341161   2.854969   4.061023
    17  C    4.165468   4.963112   3.640034   4.261304   5.457269
    18  H    4.957873   5.742565   4.030370   4.822160   5.891009
    19  H    4.589376   5.445682   3.989275   4.758822   6.052009
    20  H    4.272979   4.932115   4.343553   4.627867   5.777299
                    6          7          8          9         10
     6  H    0.000000
     7  C    2.765356   0.000000
     8  H    2.394373   1.086697   0.000000
     9  C    4.043190   1.393206   2.140086   0.000000
    10  H    4.598124   2.155483   2.466743   1.082648   0.000000
    11  C    4.913700   2.392846   3.373044   1.386400   2.150306
    12  C    4.840360   2.770959   3.857529   2.416549   3.399761
    13  C    3.839485   2.398923   3.385748   2.793499   3.876125
    14  H    5.926231   3.380857   4.273679   2.146456   2.482760
    15  H    5.814042   3.852181   4.938719   3.388426   4.282705
    16  O    4.356123   3.610364   4.482029   4.146878   5.229288
    17  C    5.725715   4.773721   5.736276   5.013236   6.074122
    18  H    6.004960   5.015522   6.020221   5.072227   6.088202
    19  H    6.336525   4.982531   5.978163   5.048784   6.064276
    20  H    6.164023   5.598703   6.485580   5.990567   7.064947
                   11         12         13         14         15
    11  C    0.000000
    12  C    1.393327   0.000000
    13  C    2.411076   1.395218   0.000000
    14  H    1.083883   2.140907   3.388174   0.000000
    15  H    2.141443   1.081357   2.161129   2.449230   0.000000
    16  O    3.673296   2.420481   1.355055   4.554768   2.704179
    17  C    4.185639   2.792960   2.375286   4.826502   2.491728
    18  H    4.112806   2.782581   2.715553   4.615614   2.274322
    19  H    4.101012   2.775677   2.687068   4.613415   2.297261
    20  H    5.244910   3.857222   3.247408   5.912323   3.570404
                   16         17         18         19         20
    16  O    0.000000
    17  C    1.410791   0.000000
    18  H    2.076421   1.094745   0.000000
    19  H    2.074509   1.094401   1.787642   0.000000
    20  H    2.004209   1.087485   1.781240   1.780689   0.000000
 Symmetry turned off by external request.
 Stoichiometry    C7H9BO3
 Framework group  C1[X(C7H9BO3)]
 Deg. of freedom    54
 Full point group                 C1      NOp   1
 Rotational constants (GHZ):           1.3782823           1.0438460           0.6263618
 Standard basis: 6-311+G(d,p) (5D, 7F)
   296 basis functions,   468 primitive gaussians,   307 cartesian basis functions
    40 alpha electrons       40 beta electrons
       nuclear repulsion energy       582.5291054318 Hartrees.
 NAtoms=   20 NActive=   20 NUniq=   20 SFac= 1.00D+00 NAtFMM=   60 NAOKFM=F Big=F
 Integral buffers will be    131072 words long.
 Raffenetti 2 integral format.
 Two-electron integral symmetry is turned off.
 Force inversion solution in PCM.
 ------------------------------------------------------------------------------
 Polarizable Continuum Model (PCM)
 =================================
 Model                : PCM.
 Atomic radii         : SMD-Coulomb.
 Polarization charges : Total charges.
 Charge compensation  : None.
 Solution method      : Matrix inversion.
 Cavity type          : VdW (van der Waals Surface) (Alpha=1.000).
 Cavity algorithm     : GePol (No added spheres)
                        Default sphere list used, NSphG=   20.
                        Lebedev-Laikov grids with approx.  5.0 points / Ang**2.
                        Smoothing algorithm: York/Karplus (Gamma=1.0000).
                        Polarization charges: spherical gaussians, with
                                              point-specific exponents (IZeta= 3).
                        Self-potential: point-specific (ISelfS= 7).
                        Self-field    : sphere-specific E.n sum rule (ISelfD= 2).
 1st derivatives      : Analytical E(r).r(x)/FMM algorithm (CHGder, D1EAlg=3).
                        Cavity 1st derivative terms included.
 2nd derivatives      : Analytical E(r).r(xy)/FMM algorithm (CHGder, D2EAlg=3).
                        Cavity 2nd derivative terms included.
 Solvent              : TetraHydroFuran, Eps=   7.425700 Eps(inf)=   1.974025
 ------------------------------------------------------------------------------
 Spheres list:
 ISph  on   Nord     Re0    Alpha      Xe            Ye            Ze
    1   O      1    2.2940  1.000      8.395911      7.803129      6.279845
    2   H      2    1.2000  1.000      9.226335      7.507547      6.664964
    3   C      3    1.8500  1.000      6.220377      6.966094      5.224903
    4   B      4    1.8000  1.000      7.638737      6.754604      5.868468
    5   O      5    2.2940  1.000      8.123552      5.490334      6.096846
    6   H      6    1.2000  1.000      7.574343      4.800146      5.719647
    7   C      7    1.8500  1.000      5.161657      6.147835      5.620286
    8   H      8    1.2000  1.000      5.341173      5.375722      6.363607
    9   C      9    1.8500  1.000      3.871864      6.309526      5.118975
   10   H     10    1.2000  1.000      3.066707      5.668361      5.454767
   11   C     11    1.8500  1.000      3.637158      7.309290      4.187584
   12   C     12    1.8500  1.000      4.670692      8.137929      3.755697
   13   C     13    1.8500  1.000      5.955406      7.966451      4.272165
   14   H     14    1.2000  1.000      2.642188      7.453878      3.782700
   15   H     15    1.2000  1.000      4.463126      8.904217      3.021496
   16   O     16    2.2940  1.000      7.018726      8.711462      3.884245
   17   C     17    1.8500  1.000      6.802390      9.760665      2.966257
   18   H     18    1.2000  1.000      6.441267      9.380442      2.005274
   19   H     19    1.2000  1.000      6.089315     10.490869      3.361277
   20   H     20    1.2000  1.000      7.768797     10.239131      2.825721
 ------------------------------------------------------------------------------
 ------------------------------------------------------------------------------
 Atomic radii for non-electrostatic terms: SMD-CDS.
 ------------------------------------------------------------------------------
 Nuclear repulsion after PCM non-electrostatic terms =      582.5256976664 Hartrees.
 One-electron integrals computed using PRISM.
 NBasis=   296 RedAO= T EigKep=  1.44D-06  NBF=   296
 NBsUse=   296 1.00D-06 EigRej= -1.00D+00 NBFU=   296
 ExpMin= 3.15D-02 ExpMax= 8.59D+03 ExpMxC= 1.30D+03 IAcc=3 IRadAn=         5 AccDes= 0.00D+00
 Harris functional with IExCor= 1009 and IRadAn=       5 diagonalized for initial guess.
 HarFok:  IExCor= 1009 AccDes= 0.00D+00 IRadAn=         5 IDoV= 1 UseB2=F ITyADJ=14
 ICtDFT=  3500011 ScaDFX=  1.000000  1.000000  1.000000  1.000000
 FoFCou: FMM=F IPFlag=           0 FMFlag=      100000 FMFlg1=           0
         NFxFlg=           0 DoJE=T BraDBF=F KetDBF=T FulRan=T
         wScrn=  0.000000 ICntrl=       500 IOpCl=  0 I1Cent=   200000004 NGrid=           0
         NMat0=    1 NMatS0=      1 NMatT0=    0 NMatD0=    1 NMtDS0=    0 NMtDT0=    0
 Symmetry not used in FoFCou.
 Requested convergence on RMS density matrix=1.00D-08 within 128 cycles.
 Requested convergence on MAX density matrix=1.00D-06.
 Requested convergence on             energy=1.00D-06.
 Level shift goal  0.100 maximum shift  0.100.
 No special actions if energy rises.
 Dynamic level shift is on during FON iterations.
 Inv3:  Mode=1 IEnd=     8426928.
 Iteration    1 A*A^-1 deviation from unit magnitude is 5.55D-15 for   1667.
 Iteration    1 A*A^-1 deviation from orthogonality  is 3.00D-15 for   1654   1420.
 Iteration    1 A^-1*A deviation from unit magnitude is 5.33D-15 for   1667.
 Iteration    1 A^-1*A deviation from orthogonality  is 1.78D-15 for    712    707.
 Error on total polarization charges =  0.02872
 SCF Done:  E(RM062X) =  -522.748864283     A.U. after   14 cycles
            NFock= 14  Conv=0.75D-08     -V/T= 2.0036
 SMD-CDS (non-electrostatic) energy       (kcal/mol) =      -2.14
 (included in total energy above)
 DoSCS=F DFT=T ScalE2(SS,OS)=  1.000000  1.000000
 Range of M.O.s used for correlation:     1   296
 NBasis=   296 NAE=    40 NBE=    40 NFC=     0 NFV=     0
 NROrb=    296 NOA=    40 NOB=    40 NVA=   256 NVB=   256

 **** Warning!!: The largest alpha MO coefficient is  0.16227710D+03

 Symmetrizing basis deriv contribution to polar:
 IMax=3 JMax=2 DiffMx= 0.00D+00
 G2DrvN: will do    21 centers at a time, making    1 passes.
 Calling FoFCou, ICntrl=  3107 FMM=F I1Cent=   0 AccDes= 0.00D+00.
 NEqPCM:  Using equilibrium solvation (IEInf=0, Eps=   7.4257, EpsInf=   1.9740)
 G2PCM: DoFxE=T DoFxN=T DoGrad=T DoDP/DQ/DG/TGxP=FFFF NFrqRd=   0 IEInf=0 SqF1=F DoCFld=F IF1Alg=4.
 End of G2Drv F.D. properties file   721 does not exist.
 End of G2Drv F.D. properties file   722 does not exist.
 End of G2Drv F.D. properties file   788 does not exist.
          IDoAtm=11111111111111111111
 NEqPCM:  Using equilibrium solvation (IEInf=0, Eps=   7.4257, EpsInf=   1.9740)
          Differentiating once with respect to nuclear coordinates.
 Keep R1 ints in memory in canonical form, NReq=1002449809.
          There are    63 degrees of freedom in the 1st order CPHF.  IDoFFX=6 NUNeed=     0.
     57 vectors produced by pass  0 Test12= 1.63D-14 1.59D-09 XBig12= 2.36D-01 8.97D-02.
 AX will form    57 AO Fock derivatives at one time.
     57 vectors produced by pass  1 Test12= 1.63D-14 1.59D-09 XBig12= 1.68D-02 3.01D-02.
     57 vectors produced by pass  2 Test12= 1.63D-14 1.59D-09 XBig12= 5.00D-04 3.29D-03.
     57 vectors produced by pass  3 Test12= 1.63D-14 1.59D-09 XBig12= 3.17D-06 2.36D-04.
     57 vectors produced by pass  4 Test12= 1.63D-14 1.59D-09 XBig12= 1.88D-08 1.41D-05.
     57 vectors produced by pass  5 Test12= 1.63D-14 1.59D-09 XBig12= 1.07D-10 8.75D-07.
     48 vectors produced by pass  6 Test12= 1.63D-14 1.59D-09 XBig12= 4.43D-13 7.34D-08.
      7 vectors produced by pass  7 Test12= 1.63D-14 1.59D-09 XBig12= 1.71D-15 3.46D-09.
 InvSVY:  IOpt=1 It=  1 EMax= 3.89D-16
 Solved reduced A of dimension   397 with    63 vectors.
 End of Minotr F.D. properties file   721 does not exist.
 End of Minotr F.D. properties file   722 does not exist.
 End of Minotr F.D. properties file   788 does not exist.

 **********************************************************************

            Population analysis using the SCF Density.

 **********************************************************************

 Alpha  occ. eigenvalues --  -19.65010 -19.63175 -19.62590 -10.60765 -10.57855
 Alpha  occ. eigenvalues --  -10.54750 -10.54659 -10.53994 -10.53541 -10.52669
 Alpha  occ. eigenvalues --   -7.08227  -1.19394  -1.16332  -1.12615  -0.95923
 Alpha  occ. eigenvalues --   -0.85522  -0.84517  -0.78399  -0.69944  -0.67283
 Alpha  occ. eigenvalues --   -0.64677  -0.62304  -0.60547  -0.55974  -0.54855
 Alpha  occ. eigenvalues --   -0.54509  -0.51433  -0.50664  -0.47797  -0.47057
 Alpha  occ. eigenvalues --   -0.45314  -0.44915  -0.44522  -0.41796  -0.41381
 Alpha  occ. eigenvalues --   -0.39800  -0.39128  -0.37354  -0.31314  -0.27877
 Alpha virt. eigenvalues --    0.00252   0.00362   0.02151   0.02220   0.02460
 Alpha virt. eigenvalues --    0.03326   0.03924   0.04144   0.04863   0.06267
 Alpha virt. eigenvalues --    0.07048   0.07546   0.08131   0.08730   0.10186
 Alpha virt. eigenvalues --    0.10404   0.10907   0.11367   0.12558   0.12854
 Alpha virt. eigenvalues --    0.13358   0.14204   0.15222   0.16179   0.17035
 Alpha virt. eigenvalues --    0.17219   0.17879   0.18123   0.18745   0.19560
 Alpha virt. eigenvalues --    0.20552   0.21022   0.21134   0.21423   0.22057
 Alpha virt. eigenvalues --    0.22482   0.23003   0.23564   0.24002   0.24351
 Alpha virt. eigenvalues --    0.25146   0.25617   0.26074   0.27014   0.27905
 Alpha virt. eigenvalues --    0.28098   0.28202   0.28895   0.29620   0.30447
 Alpha virt. eigenvalues --    0.30882   0.31884   0.32956   0.33574   0.34816
 Alpha virt. eigenvalues --    0.35902   0.37425   0.38029   0.38867   0.39611
 Alpha virt. eigenvalues --    0.41068   0.42740   0.43182   0.44356   0.46470
 Alpha virt. eigenvalues --    0.47734   0.50759   0.51840   0.52402   0.54946
 Alpha virt. eigenvalues --    0.56053   0.57039   0.58018   0.58236   0.59214
 Alpha virt. eigenvalues --    0.59587   0.61595   0.62118   0.62808   0.64399
 Alpha virt. eigenvalues --    0.65273   0.66317   0.67436   0.68874   0.69613
 Alpha virt. eigenvalues --    0.70450   0.70529   0.71242   0.73479   0.75008
 Alpha virt. eigenvalues --    0.76655   0.77922   0.79605   0.80839   0.81843
 Alpha virt. eigenvalues --    0.83026   0.86149   0.87447   0.88412   0.90221
 Alpha virt. eigenvalues --    0.90698   0.94604   0.95549   0.96777   1.00514
 Alpha virt. eigenvalues --    1.02582   1.04305   1.05949   1.06369   1.06681
 Alpha virt. eigenvalues --    1.08322   1.09355   1.10268   1.11916   1.13677
 Alpha virt. eigenvalues --    1.15546   1.16415   1.17129   1.18466   1.20072
 Alpha virt. eigenvalues --    1.21660   1.23703   1.26046   1.31109   1.31717
 Alpha virt. eigenvalues --    1.34102   1.36006   1.38599   1.43011   1.45252
 Alpha virt. eigenvalues --    1.47689   1.48787   1.50190   1.51593   1.53525
 Alpha virt. eigenvalues --    1.54535   1.58490   1.59799   1.59984   1.60725
 Alpha virt. eigenvalues --    1.62358   1.62795   1.63757   1.66374   1.68576
 Alpha virt. eigenvalues --    1.72294   1.73479   1.74164   1.75621   1.76310
 Alpha virt. eigenvalues --    1.77905   1.78853   1.81621   1.83848   1.85477
 Alpha virt. eigenvalues --    1.88077   1.89969   1.93608   1.94925   1.96254
 Alpha virt. eigenvalues --    1.98192   1.99637   2.01064   2.01835   2.05682
 Alpha virt. eigenvalues --    2.08101   2.09457   2.09759   2.13038   2.14690
 Alpha virt. eigenvalues --    2.16386   2.19797   2.21777   2.24814   2.30104
 Alpha virt. eigenvalues --    2.35133   2.36951   2.41873   2.45947   2.49280
 Alpha virt. eigenvalues --    2.50836   2.54130   2.54903   2.55019   2.58098
 Alpha virt. eigenvalues --    2.60272   2.61502   2.63029   2.65495   2.68342
 Alpha virt. eigenvalues --    2.70932   2.74038   2.74253   2.76551   2.78828
 Alpha virt. eigenvalues --    2.79341   2.81719   2.84161   2.87442   2.88029
 Alpha virt. eigenvalues --    2.91168   2.94967   2.95649   2.98944   3.08974
 Alpha virt. eigenvalues --    3.12383   3.12986   3.15920   3.17056   3.18329
 Alpha virt. eigenvalues --    3.25809   3.26114   3.27357   3.29852   3.33048
 Alpha virt. eigenvalues --    3.38883   3.43524   3.46642   3.49494   3.54366
 Alpha virt. eigenvalues --    3.58200   3.59583   3.61583   3.66040   3.73286
 Alpha virt. eigenvalues --    3.83907   3.90029   3.92448   3.95005   4.04333
 Alpha virt. eigenvalues --    4.08851   4.14311   4.18589   4.21640   4.28749
 Alpha virt. eigenvalues --    4.86721   5.13614   5.14027   5.16690   5.33534
 Alpha virt. eigenvalues --    5.49771   5.54932   5.67097   5.75043   5.89361
 Alpha virt. eigenvalues --   14.81697  23.68364  24.01401  24.01760  24.05084
 Alpha virt. eigenvalues --   24.15095  24.17342  24.27276  50.01105  50.04253
 Alpha virt. eigenvalues --   50.08891
          Condensed to atoms (all electrons):
               1          2          3          4          5          6
     1  O    7.823708   0.279659   0.064841   0.431127  -0.113355   0.014361
     2  H    0.279659   0.415431   0.037309  -0.001890  -0.012912   0.001913
     3  C    0.064841   0.037309  20.419048   0.603823  -0.150336   0.090393
     4  B    0.431127  -0.001890   0.603823   3.430123   0.368293  -0.001345
     5  O   -0.113355  -0.012912  -0.150336   0.368293   7.876743   0.287688
     6  H    0.014361   0.001913   0.090393  -0.001345   0.287688   0.412075
     7  C    0.085695   0.006723  -3.552631  -0.196368  -0.038287  -0.060152
     8  H    0.002251  -0.000043  -0.107024  -0.003138   0.003794   0.001964
     9  C    0.010158   0.001822  -0.959032   0.035291   0.047084   0.016142
    10  H   -0.000005  -0.000001  -0.025666  -0.000241   0.000161  -0.000029
    11  C   -0.001346  -0.000392  -1.324596  -0.029955   0.002663  -0.004859
    12  C   -0.039430  -0.007764  -3.038163   0.026066   0.037808   0.006598
    13  C   -0.169172  -0.023503  -5.075220  -0.073282   0.043623  -0.051417
    14  H   -0.000004   0.000000  -0.010263  -0.000174  -0.000006   0.000000
    15  H    0.000069  -0.000001  -0.095473  -0.001834  -0.000012   0.000002
    16  O   -0.032729   0.000412  -0.618721  -0.020589  -0.002058   0.000717
    17  C    0.003914   0.001482   0.059133  -0.014714  -0.003701  -0.000145
    18  H   -0.000687  -0.000013   0.024078  -0.000831   0.000033   0.000001
    19  H    0.000363   0.000016  -0.029138   0.000115  -0.000017   0.000000
    20  H    0.000156   0.000002  -0.006880  -0.001035   0.000019  -0.000001
               7          8          9         10         11         12
     1  O    0.085695   0.002251   0.010158  -0.000005  -0.001346  -0.039430
     2  H    0.006723  -0.000043   0.001822  -0.000001  -0.000392  -0.007764
     3  C   -3.552631  -0.107024  -0.959032  -0.025666  -1.324596  -3.038163
     4  B   -0.196368  -0.003138   0.035291  -0.000241  -0.029955   0.026066
     5  O   -0.038287   0.003794   0.047084   0.000161   0.002663   0.037808
     6  H   -0.060152   0.001964   0.016142  -0.000029  -0.004859   0.006598
     7  C   12.049327   0.406707  -0.839618   0.030896   0.500985  -2.969460
     8  H    0.406707   0.473579   0.042088  -0.005102  -0.012896   0.020416
     9  C   -0.839618   0.042088   7.456419   0.342760   0.513639   0.939931
    10  H    0.030896  -0.005102   0.342760   0.467875   0.017299  -0.029144
    11  C    0.500985  -0.012896   0.513639   0.017299   7.082713  -0.421767
    12  C   -2.969460   0.020416   0.939931  -0.029144  -0.421767  13.617162
    13  C    0.803188  -0.005831  -1.426230   0.022078  -0.138530  -2.651607
    14  H   -0.020471  -0.000218   0.014121  -0.005671   0.339008   0.025269
    15  H    0.022328   0.000038  -0.024508  -0.000161   0.014118   0.418015
    16  O   -0.130912  -0.000427  -0.010487   0.000167   0.031130   0.129750
    17  C    0.109782   0.000253  -0.026166   0.000221  -0.157959  -0.512884
    18  H   -0.002524   0.000001   0.002200   0.000000  -0.014765   0.059063
    19  H   -0.005737   0.000001   0.001234   0.000000  -0.003788   0.002833
    20  H    0.000711   0.000000  -0.001053   0.000000   0.011738   0.004476
              13         14         15         16         17         18
     1  O   -0.169172  -0.000004   0.000069  -0.032729   0.003914  -0.000687
     2  H   -0.023503   0.000000  -0.000001   0.000412   0.001482  -0.000013
     3  C   -5.075220  -0.010263  -0.095473  -0.618721   0.059133   0.024078
     4  B   -0.073282  -0.000174  -0.001834  -0.020589  -0.014714  -0.000831
     5  O    0.043623  -0.000006  -0.000012  -0.002058  -0.003701   0.000033
     6  H   -0.051417   0.000000   0.000002   0.000717  -0.000145   0.000001
     7  C    0.803188  -0.020471   0.022328  -0.130912   0.109782  -0.002524
     8  H   -0.005831  -0.000218   0.000038  -0.000427   0.000253   0.000001
     9  C   -1.426230   0.014121  -0.024508  -0.010487  -0.026166   0.002200
    10  H    0.022078  -0.005671  -0.000161   0.000167   0.000221   0.000000
    11  C   -0.138530   0.339008   0.014118   0.031130  -0.157959  -0.014765
    12  C   -2.651607   0.025269   0.418015   0.129750  -0.512884   0.059063
    13  C   14.442924   0.006580   0.029519   0.571150   0.267984  -0.064363
    14  H    0.006580   0.463582  -0.005188  -0.000440   0.001791   0.000037
    15  H    0.029519  -0.005188   0.463186  -0.016610   0.003792  -0.001639
    16  O    0.571150  -0.000440  -0.016610   8.218193   0.106013  -0.040700
    17  C    0.267984   0.001791   0.003792   0.106013   5.277921   0.407119
    18  H   -0.064363   0.000037  -0.001639  -0.040700   0.407119   0.519767
    19  H    0.018017   0.000034  -0.000763  -0.035782   0.423903  -0.045150
    20  H    0.017465  -0.000003   0.000572  -0.063264   0.409892  -0.022045
              19         20
     1  O    0.000363   0.000156
     2  H    0.000016   0.000002
     3  C   -0.029138  -0.006880
     4  B    0.000115  -0.001035
     5  O   -0.000017   0.000019
     6  H    0.000000  -0.000001
     7  C   -0.005737   0.000711
     8  H    0.000001   0.000000
     9  C    0.001234  -0.001053
    10  H    0.000000   0.000000
    11  C   -0.003788   0.011738
    12  C    0.002833   0.004476
    13  C    0.018017   0.017465
    14  H    0.000034  -0.000003
    15  H   -0.000763   0.000572
    16  O   -0.035782  -0.063264
    17  C    0.423903   0.409892
    18  H   -0.045150  -0.022045
    19  H    0.511719  -0.021657
    20  H   -0.021657   0.474553
 Mulliken charges:
               1
     1  O   -0.359577
     2  H    0.301750
     3  C   -0.305481
     4  B    0.450556
     5  O   -0.347226
     6  H    0.286094
     7  C   -0.200182
     8  H    0.183586
     9  C   -0.135795
    10  H    0.184562
    11  C   -0.402438
    12  C    0.382831
    13  C   -0.543371
    14  H    0.192017
    15  H    0.194548
    16  O   -0.084813
    17  C   -0.357630
    18  H    0.180418
    19  H    0.183798
    20  H    0.196354
 Sum of Mulliken charges =   0.00000
 Mulliken charges with hydrogens summed into heavy atoms:
               1
     1  O   -0.057827
     3  C   -0.305481
     4  B    0.450556
     5  O   -0.061131
     7  C   -0.016597
     9  C    0.048768
    11  C   -0.210421
    12  C    0.577378
    13  C   -0.543371
    16  O   -0.084813
    17  C    0.202939
 APT charges:
               1
     1  O   -0.444420
     2  H    2.208725
     3  C    2.786286
     4  B   -0.745666
     5  O    1.845723
     6  H   -1.649372
     7  C   -1.045022
     8  H    0.347964
     9  C    0.131005
    10  H   -0.525199
    11  C   -0.620366
    12  C   -0.270209
    13  C   -2.519809
    14  H   -0.336529
    15  H    0.695591
    16  O    0.341731
    17  C   -2.038648
    18  H   -0.820692
    19  H    0.721036
    20  H    1.937871
 Sum of APT charges =   0.00000
 APT charges with hydrogens summed into heavy atoms:
               1
     1  O    1.764305
     3  C    2.786286
     4  B   -0.745666
     5  O    0.196351
     7  C   -0.697058
     9  C   -0.394194
    11  C   -0.956895
    12  C    0.425382
    13  C   -2.519809
    16  O    0.341731
    17  C   -0.200434
 Electronic spatial extent (au):  <R**2>=          35291.5189
 Charge=              0.0000 electrons
 Dipole moment (field-independent basis, Debye):
    X=             -1.3238    Y=             -0.1770    Z=             -1.7798  Tot=              2.2252
 Quadrupole moment (field-independent basis, Debye-Ang):
   XX=            -76.1976   YY=            -59.4166   ZZ=            -78.7581
   XY=             -9.9234   XZ=            -15.9702   YZ=            -21.9155
 Traceless Quadrupole moment (field-independent basis, Debye-Ang):
   XX=             -4.7402   YY=             12.0408   ZZ=             -7.3007
   XY=             -9.9234   XZ=            -15.9702   YZ=            -21.9155
 Octapole moment (field-independent basis, Debye-Ang**2):
  XXX=          -1250.9593  YYY=          -1295.5408  ZZZ=          -1018.9136  XYY=           -425.1046
  XXY=           -557.6507  XXZ=           -414.9401  XZZ=           -495.2266  YZZ=           -653.0455
  YYZ=           -510.8648  XYZ=           -160.5468
 Hexadecapole moment (field-independent basis, Debye-Ang**3):
 XXXX=         -15653.1475 YYYY=         -19730.0506 ZZZZ=          -9997.0284 XXXY=          -9163.5818
 XXXZ=          -6301.3170 YYYX=          -8406.9328 YYYZ=          -8313.5977 ZZZX=          -6340.5794
 ZZZY=          -7767.1210 XXYY=          -6558.3923 XXZZ=          -4722.7253 YYZZ=          -6962.9895
 XXYZ=          -3187.0740 YYXZ=          -3326.5646 ZZXY=          -4010.8243
 N-N= 5.825256976664D+02 E-N=-2.388009419481D+03  KE= 5.208853093349D+02
  Exact polarizability:       0.000       0.000       0.000       0.000       0.000       0.000
 Approx polarizability:     144.107      10.564     123.540       9.384     -25.074     108.711
 D2PCM: PCM CHGder 2nd derivatives, FixD1E=F FixD2E=F DoIter=F DoCFld=F I1PDM=0
 Calling FoFJK, ICntrl=    100127 FMM=F ISym2X=0 I1Cent= 0 IOpClX= 0 NMat=1 NMatS=1 NMatT=0.
 -------------------------------------------------------------------
 Center     Atomic                   Forces (Hartrees/Bohr)
 Number     Number              X              Y              Z
 -------------------------------------------------------------------
      1        8          -0.000663891    0.002278331    0.000117885
      2        1           0.002442040   -0.000530781    0.001274539
      3        6           0.000392278    0.000543855    0.000036355
      4        5          -0.001547559   -0.002985640   -0.000631964
      5        8           0.002169128    0.002876264    0.000793955
      6        1          -0.001915104   -0.002374803   -0.000822475
      7        6          -0.000027492   -0.001062897    0.001445319
      8        1          -0.000197732   -0.000359373   -0.000261281
      9        6           0.000052821   -0.000463657    0.000511707
     10        1          -0.000223358   -0.000323411    0.000184011
     11        6          -0.000323639    0.000435297   -0.000482267
     12        6          -0.000274198    0.000824281   -0.000709790
     13        6           0.001621145    0.000674907   -0.000393200
     14        1          -0.000281342    0.000129463   -0.000214412
     15        1          -0.000012612    0.000289500   -0.000300134
     16        8          -0.000241961   -0.003226151    0.002558074
     17        6          -0.001716881    0.002146496   -0.002403711
     18        1           0.000222482    0.000333702   -0.000043550
     19        1           0.000177193    0.000266893   -0.000230633
     20        1           0.000348682    0.000527727   -0.000428427
 -------------------------------------------------------------------
 Cartesian Forces:  Max     0.003226151 RMS     0.001224578
 FormGI is forming the generalized inverse of G from B-inverse, IUseBI=4.

 GradGradGradGradGradGradGradGradGradGradGradGradGradGradGradGradGradGrad
 Berny optimization.
 Internal  Forces:  Max     0.004596827 RMS     0.000906744
 Search for a local minimum.
 Step number   1 out of a maximum of   97
 All quantities printed in internal units (Hartrees-Bohrs-Radians)
 Mixed Optimization -- En-DIIS/RFO-DIIS
 Second derivative matrix not updated -- analytic derivatives used.
 ITU=  0
     Eigenvalues ---    0.00107   0.00447   0.01083   0.01244   0.01467
     Eigenvalues ---    0.01553   0.01774   0.02028   0.02249   0.02402
     Eigenvalues ---    0.02512   0.02817   0.02900   0.03413   0.03922
     Eigenvalues ---    0.08672   0.08737   0.10713   0.10853   0.11457
     Eigenvalues ---    0.11573   0.12112   0.12535   0.13408   0.14862
     Eigenvalues ---    0.16032   0.18480   0.18693   0.18976   0.19007
     Eigenvalues ---    0.19197   0.19911   0.22285   0.27819   0.28192
     Eigenvalues ---    0.33466   0.33586   0.34385   0.35379   0.35654
     Eigenvalues ---    0.36393   0.36561   0.36916   0.38252   0.38394
     Eigenvalues ---    0.40601   0.43774   0.47260   0.48250   0.49358
     Eigenvalues ---    0.51258   0.54451   0.55290   0.58284
 RFO step:  Lambda=-2.33441129D-04 EMin= 1.07065040D-03
 Linear search not attempted -- first point.
 Iteration  1 RMS(Cart)=  0.03349757 RMS(Int)=  0.00059661
 Iteration  2 RMS(Cart)=  0.00090060 RMS(Int)=  0.00000285
 Iteration  3 RMS(Cart)=  0.00000065 RMS(Int)=  0.00000282
 Variable       Old X    -DE/DX   Delta X   Delta X   Delta X     New X
                                 (Linear)    (Quad)   (Total)
    R1        1.81776   0.00278   0.00000   0.00491   0.00491   1.82267
    R2        2.56471   0.00276   0.00000   0.00690   0.00690   2.57161
    R3        2.97033   0.00083   0.00000   0.00160   0.00160   2.97193
    R4        2.63667   0.00146   0.00000   0.00282   0.00283   2.63949
    R5        2.65816   0.00210   0.00000   0.00220   0.00220   2.66036
    R6        2.59490  -0.00037   0.00000  -0.00328  -0.00328   2.59163
    R7        1.81283   0.00313   0.00000   0.00584   0.00584   1.81867
    R8        2.05356   0.00004   0.00000   0.00007   0.00007   2.05363
    R9        2.63278   0.00059   0.00000   0.00133   0.00133   2.63411
   R10        2.04591   0.00041   0.00000   0.00118   0.00118   2.04708
   R11        2.61992   0.00149   0.00000   0.00295   0.00295   2.62287
   R12        2.63301   0.00060   0.00000   0.00112   0.00112   2.63413
   R13        2.04824   0.00036   0.00000   0.00097   0.00097   2.04921
   R14        2.63658   0.00087   0.00000   0.00250   0.00250   2.63908
   R15        2.04347   0.00041   0.00000   0.00082   0.00082   2.04429
   R16        2.56068  -0.00075   0.00000  -0.00118  -0.00118   2.55950
   R17        2.66601   0.00460   0.00000   0.01380   0.01380   2.67981
   R18        2.06877  -0.00016   0.00000  -0.00128  -0.00128   2.06749
   R19        2.06812  -0.00002   0.00000  -0.00087  -0.00087   2.06725
   R20        2.05505   0.00060   0.00000   0.00148   0.00148   2.05652
    A1        1.94506   0.00062   0.00000   0.00397   0.00397   1.94903
    A2        2.08263  -0.00109   0.00000  -0.00218  -0.00218   2.08045
    A3        2.14478   0.00116   0.00000  -0.00004  -0.00005   2.14474
    A4        2.05564  -0.00007   0.00000   0.00227   0.00227   2.05791
    A5        2.12185   0.00019   0.00000  -0.00633  -0.00633   2.11551
    A6        2.05321  -0.00072   0.00000  -0.00075  -0.00075   2.05246
    A7        2.10664   0.00053   0.00000   0.00696   0.00696   2.11360
    A8        1.97674   0.00027   0.00000   0.00095   0.00095   1.97769
    A9        2.07735   0.00045   0.00000   0.00325   0.00324   2.08059
   A10        2.13228  -0.00028   0.00000  -0.00274  -0.00275   2.12953
   A11        2.07318  -0.00017   0.00000  -0.00031  -0.00032   2.07287
   A12        2.10384  -0.00025   0.00000  -0.00122  -0.00122   2.10261
   A13        2.07390   0.00026   0.00000   0.00118   0.00118   2.07508
   A14        2.10543  -0.00001   0.00000   0.00006   0.00005   2.10549
   A15        2.10776   0.00017   0.00000   0.00072   0.00072   2.10847
   A16        2.09735   0.00005   0.00000   0.00033   0.00033   2.09768
   A17        2.07808  -0.00022   0.00000  -0.00106  -0.00106   2.07702
   A18        2.08885  -0.00009   0.00000  -0.00078  -0.00078   2.08807
   A19        2.08233   0.00011   0.00000   0.00038   0.00038   2.08271
   A20        2.11201  -0.00002   0.00000   0.00039   0.00039   2.11240
   A21        2.10782   0.00001   0.00000  -0.00070  -0.00071   2.10711
   A22        2.02315   0.00174   0.00000   0.00254   0.00255   2.02570
   A23        2.15198  -0.00175   0.00000  -0.00186  -0.00186   2.15012
   A24        2.06557  -0.00076   0.00000  -0.00268  -0.00268   2.06289
   A25        1.94279   0.00031   0.00000  -0.00070  -0.00070   1.94209
   A26        1.94041   0.00040   0.00000   0.00046   0.00046   1.94087
   A27        1.84941   0.00047   0.00000  -0.00017  -0.00017   1.84925
   A28        1.91097  -0.00021   0.00000   0.00282   0.00282   1.91378
   A29        1.90976  -0.00052   0.00000  -0.00142  -0.00142   1.90834
   A30        1.90933  -0.00046   0.00000  -0.00118  -0.00118   1.90815
    D1        3.12301  -0.00018   0.00000  -0.00712  -0.00711   3.11590
    D2        0.03957  -0.00002   0.00000  -0.00494  -0.00495   0.03462
    D3       -2.37318   0.00019   0.00000   0.05939   0.05940  -2.31379
    D4        0.70850  -0.00001   0.00000   0.05688   0.05688   0.76538
    D5        0.75030   0.00028   0.00000   0.06291   0.06291   0.81321
    D6       -2.45121   0.00008   0.00000   0.06040   0.06040  -2.39081
    D7       -0.00522  -0.00013   0.00000  -0.00875  -0.00875  -0.01397
    D8        3.10693   0.00002   0.00000  -0.00092  -0.00092   3.10601
    D9       -3.12962  -0.00024   0.00000  -0.01207  -0.01207   3.14149
   D10       -0.01747  -0.00008   0.00000  -0.00424  -0.00424  -0.02171
   D11       -3.11155   0.00000   0.00000   0.00050   0.00050  -3.11105
   D12        0.05273   0.00011   0.00000   0.00127   0.00127   0.05400
   D13        0.01219   0.00008   0.00000   0.00393   0.00393   0.01612
   D14       -3.10671   0.00019   0.00000   0.00470   0.00470  -3.10201
   D15       -3.06084  -0.00043   0.00000  -0.03388  -0.03389  -3.09473
   D16        0.13837  -0.00027   0.00000  -0.03126  -0.03126   0.10711
   D17       -3.12633  -0.00004   0.00000  -0.00104  -0.00104  -3.12737
   D18        0.01035   0.00003   0.00000   0.00175   0.00175   0.01210
   D19       -0.01412   0.00012   0.00000   0.00682   0.00682  -0.00730
   D20        3.12257   0.00019   0.00000   0.00962   0.00961   3.13217
   D21        0.00243   0.00003   0.00000   0.00115   0.00114   0.00357
   D22        3.14083  -0.00004   0.00000  -0.00093  -0.00093   3.13989
   D23        3.13911   0.00010   0.00000   0.00394   0.00393  -3.14014
   D24       -0.00568   0.00003   0.00000   0.00186   0.00186  -0.00382
   D25       -0.00738  -0.00003   0.00000  -0.00142  -0.00142  -0.00880
   D26        3.13166  -0.00008   0.00000  -0.00265  -0.00265   3.12902
   D27        3.13738   0.00003   0.00000   0.00063   0.00063   3.13800
   D28       -0.00676  -0.00001   0.00000  -0.00060  -0.00060  -0.00736
   D29       -0.00015  -0.00002   0.00000  -0.00117  -0.00117  -0.00132
   D30        3.11703  -0.00009   0.00000  -0.00194  -0.00194   3.11509
   D31       -3.13915   0.00002   0.00000   0.00008   0.00008  -3.13907
   D32       -0.02197  -0.00005   0.00000  -0.00069  -0.00069  -0.02266
   D33       -3.10274  -0.00020   0.00000  -0.02002  -0.02002  -3.12276
   D34        0.06218  -0.00012   0.00000  -0.01925  -0.01925   0.04293
   D35       -1.10109  -0.00011   0.00000   0.01173   0.01173  -1.08936
   D36        1.03449   0.00013   0.00000   0.01519   0.01519   1.04968
   D37        3.10739   0.00007   0.00000   0.01392   0.01392   3.12131
         Item               Value     Threshold  Converged?
 Maximum Force            0.004597     0.000015     NO 
 RMS     Force            0.000907     0.000010     NO 
 Maximum Displacement     0.137541     0.000060     NO 
 RMS     Displacement     0.033594     0.000040     NO 
 Predicted change in Energy=-1.189235D-04
 GradGradGradGradGradGradGradGradGradGradGradGradGradGradGradGradGradGrad

                          Input orientation:                          
 ---------------------------------------------------------------------
 Center     Atomic      Atomic             Coordinates (Angstroms)
 Number     Number       Type             X           Y           Z
 ---------------------------------------------------------------------
      1          8           0        8.363722    7.800180    6.350921
      2          1           0        9.199619    7.509654    6.734540
      3          6           0        6.219028    6.968308    5.232248
      4          5           0        7.637945    6.752001    5.875056
      5          8           0        8.155804    5.493051    6.041462
      6          1           0        7.613428    4.802883    5.646864
      7          6           0        5.159718    6.148123    5.627337
      8          1           0        5.338854    5.367415    6.361773
      9          6           0        3.869442    6.315208    5.127077
     10          1           0        3.063448    5.672944    5.460759
     11          6           0        3.635357    7.318879    4.197404
     12          6           0        4.670182    8.146248    3.764265
     13          6           0        5.956369    7.970676    4.279266
     14          1           0        2.639967    7.466428    3.793252
     15          1           0        4.463342    8.913389    3.030111
     16          8           0        7.019546    8.712895    3.887803
     17          6           0        6.801852    9.750916    2.946468
     18          1           0        6.437649    9.353469    1.994430
     19          1           0        6.094356   10.491533    3.330716
     20          1           0        7.770092   10.223433    2.792976
 ---------------------------------------------------------------------
                    Distance matrix (angstroms):
                    1          2          3          4          5
     1  O    0.000000
     2  H    0.964516   0.000000
     3  C    2.557959   3.381399   0.000000
     4  B    1.360837   1.936898   1.572678   0.000000
     5  O    2.337057   2.374151   2.565601   1.371431   0.000000
     6  H    3.168979   3.320490   2.608701   1.962584   0.962399
     7  C    3.676753   4.404596   1.396760   2.562742   3.094697
     8  H    3.881789   4.430988   2.147881   2.727598   2.837885
     9  C    4.888915   5.693981   2.440933   3.866766   4.459253
    10  H    5.780175   6.530591   3.418753   4.718266   5.128515
    11  C    5.217923   6.118371   2.805202   4.376823   5.212354
    12  C    4.522476   5.453768   2.437507   3.899613   4.937068
    13  C    3.180593   4.093847   1.407802   2.619048   3.752529
    14  H    6.278091   7.189024   3.889538   5.461144   6.274800
    15  H    5.242135   6.174592   3.422745   4.779479   5.865255
    16  O    2.950730   3.782118   2.343490   2.859492   4.036920
    17  C    4.223163   5.012188   3.647928   4.274245   5.435217
    18  H    5.010138   5.787640   4.027438   4.823651   5.850927
    19  H    4.638431   5.488194   4.005557   4.779167   6.048349
    20  H    4.345518   4.994403   4.353354   4.644084   5.751343
                    6          7          8          9         10
     6  H    0.000000
     7  C    2.798348   0.000000
     8  H    2.450200   1.086734   0.000000
     9  C    4.071209   1.393911   2.140551   0.000000
    10  H    4.636158   2.155897   2.466303   1.083270   0.000000
    11  C    4.925061   2.395632   3.375590   1.387963   2.152265
    12  C    4.835801   2.775461   3.862134   2.418914   3.402486
    13  C    3.827674   2.402842   3.390447   2.795465   3.878723
    14  H    5.938490   3.383923   4.276347   2.148489   2.485256
    15  H    5.802301   3.857100   4.943726   3.391243   4.285818
    16  O    4.328416   3.614277   4.487481   4.148235   5.231272
    17  C    5.695070   4.781608   5.746281   5.015792   6.076774
    18  H    5.952358   5.010525   6.014122   5.063614   6.078399
    19  H    6.327153   5.001323   6.001223   5.061506   6.078017
    20  H    6.127935   5.608548   6.498318   5.994774   7.069407
                   11         12         13         14         15
    11  C    0.000000
    12  C    1.393919   0.000000
    13  C    2.412185   1.396542   0.000000
    14  H    1.084394   2.141206   3.389542   0.000000
    15  H    2.142568   1.081791   2.162920   2.449648   0.000000
    16  O    3.673128   2.419889   1.354429   4.554485   2.703704
    17  C    4.184057   2.790658   2.379169   4.822573   2.485373
    18  H    4.104326   2.777344   2.713710   4.606416   2.272486
    19  H    4.106526   2.777877   2.696944   4.614976   2.289347
    20  H    5.244510   3.855846   3.251701   5.909299   3.564694
                   16         17         18         19         20
    16  O    0.000000
    17  C    1.418094   0.000000
    18  H    2.081778   1.094068   0.000000
    19  H    2.080836   1.093943   1.788491   0.000000
    20  H    2.010893   1.088265   1.780427   1.780206   0.000000
 Symmetry turned off by external request.
 Stoichiometry    C7H9BO3
 Framework group  C1[X(C7H9BO3)]
 Deg. of freedom    54
 Full point group                 C1      NOp   1
 Rotational constants (GHZ):           1.3760155           1.0353429           0.6276216
 Standard basis: 6-311+G(d,p) (5D, 7F)
   296 basis functions,   468 primitive gaussians,   307 cartesian basis functions
    40 alpha electrons       40 beta electrons
       nuclear repulsion energy       581.7617620653 Hartrees.
 NAtoms=   20 NActive=   20 NUniq=   20 SFac= 1.00D+00 NAtFMM=   60 NAOKFM=F Big=F
 Integral buffers will be    131072 words long.
 Raffenetti 2 integral format.
 Two-electron integral symmetry is turned off.
 ------------------------------------------------------------------------------
 Polarizable Continuum Model (PCM)
 =================================
 Model                : PCM.
 Atomic radii         : SMD-Coulomb.
 Polarization charges : Total charges.
 Charge compensation  : None.
 Solution method      : Matrix inversion.
 Cavity type          : VdW (van der Waals Surface) (Alpha=1.000).
 Cavity algorithm     : GePol (No added spheres)
                        Default sphere list used, NSphG=   20.
                        Lebedev-Laikov grids with approx.  5.0 points / Ang**2.
                        Smoothing algorithm: York/Karplus (Gamma=1.0000).
                        Polarization charges: spherical gaussians, with
                                              point-specific exponents (IZeta= 3).
                        Self-potential: point-specific (ISelfS= 7).
                        Self-field    : sphere-specific E.n sum rule (ISelfD= 2).
 1st derivatives      : Analytical E(r).r(x)/FMM algorithm (CHGder, D1EAlg=3).
                        Cavity 1st derivative terms included.
 Solvent              : TetraHydroFuran, Eps=   7.425700 Eps(inf)=   1.974025
 ------------------------------------------------------------------------------
 Spheres list:
 ISph  on   Nord     Re0    Alpha      Xe            Ye            Ze
    1   O      1    2.2940  1.000      8.363722      7.800180      6.350921
    2   H      2    1.2000  1.000      9.199619      7.509654      6.734540
    3   C      3    1.8500  1.000      6.219028      6.968308      5.232248
    4   B      4    1.8000  1.000      7.637945      6.752001      5.875056
    5   O      5    2.2940  1.000      8.155804      5.493051      6.041462
    6   H      6    1.2000  1.000      7.613428      4.802883      5.646864
    7   C      7    1.8500  1.000      5.159718      6.148123      5.627337
    8   H      8    1.2000  1.000      5.338854      5.367415      6.361773
    9   C      9    1.8500  1.000      3.869442      6.315208      5.127077
   10   H     10    1.2000  1.000      3.063448      5.672944      5.460759
   11   C     11    1.8500  1.000      3.635357      7.318879      4.197404
   12   C     12    1.8500  1.000      4.670182      8.146248      3.764265
   13   C     13    1.8500  1.000      5.956369      7.970676      4.279266
   14   H     14    1.2000  1.000      2.639967      7.466428      3.793252
   15   H     15    1.2000  1.000      4.463342      8.913389      3.030111
   16   O     16    2.2940  1.000      7.019546      8.712895      3.887803
   17   C     17    1.8500  1.000      6.801852      9.750916      2.946468
   18   H     18    1.2000  1.000      6.437649      9.353469      1.994430
   19   H     19    1.2000  1.000      6.094356     10.491533      3.330716
   20   H     20    1.2000  1.000      7.770092     10.223433      2.792976
 ------------------------------------------------------------------------------
 ------------------------------------------------------------------------------
 Atomic radii for non-electrostatic terms: SMD-CDS.
 ------------------------------------------------------------------------------
 Nuclear repulsion after PCM non-electrostatic terms =      581.7583261541 Hartrees.
 One-electron integrals computed using PRISM.
 NBasis=   296 RedAO= T EigKep=  1.45D-06  NBF=   296
 NBsUse=   296 1.00D-06 EigRej= -1.00D+00 NBFU=   296
 Initial guess from the checkpoint file:  "2-OMe-phboh2-opt-freq-thf.chk"
 B after Tr=     0.018102    0.016387   -0.038746
         Rot=    0.999999   -0.001464    0.000202   -0.000542 Ang=  -0.18 deg.
 ExpMin= 3.15D-02 ExpMax= 8.59D+03 ExpMxC= 1.30D+03 IAcc=3 IRadAn=         5 AccDes= 0.00D+00
 Harris functional with IExCor= 1009 and IRadAn=       5 diagonalized for initial guess.
 HarFok:  IExCor= 1009 AccDes= 0.00D+00 IRadAn=         5 IDoV= 1 UseB2=F ITyADJ=14
 ICtDFT=  3500011 ScaDFX=  1.000000  1.000000  1.000000  1.000000
 FoFCou: FMM=F IPFlag=           0 FMFlag=      100000 FMFlg1=           0
         NFxFlg=           0 DoJE=T BraDBF=F KetDBF=T FulRan=T
         wScrn=  0.000000 ICntrl=       500 IOpCl=  0 I1Cent=   200000004 NGrid=           0
         NMat0=    1 NMatS0=      1 NMatT0=    0 NMatD0=    1 NMtDS0=    0 NMtDT0=    0
 Symmetry not used in FoFCou.
 Requested convergence on RMS density matrix=1.00D-08 within 128 cycles.
 Requested convergence on MAX density matrix=1.00D-06.
 Requested convergence on             energy=1.00D-06.
 Level shift goal  0.100 maximum shift  0.100.
 No special actions if energy rises.
 Dynamic level shift is on during FON iterations.
 Inv3:  Mode=1 IEnd=     8426928.
 Iteration    1 A*A^-1 deviation from unit magnitude is 6.22D-15 for   1673.
 Iteration    1 A*A^-1 deviation from orthogonality  is 2.57D-15 for    336     65.
 Iteration    1 A^-1*A deviation from unit magnitude is 6.44D-15 for   1673.
 Iteration    1 A^-1*A deviation from orthogonality  is 2.50D-15 for    708    704.
 Error on total polarization charges =  0.02862
 SCF Done:  E(RM062X) =  -522.748979667     A.U. after   11 cycles
            NFock= 11  Conv=0.81D-08     -V/T= 2.0037
 SMD-CDS (non-electrostatic) energy       (kcal/mol) =      -2.16
 (included in total energy above)
 D1PCM: PCM CHGder 1st derivatives, ID1Alg=3 FixD1E=F DoIter=F DoCFld=F I1PDM=0.
 Calling FoFJK, ICntrl=      2127 FMM=F ISym2X=0 I1Cent= 0 IOpClX= 0 NMat=1 NMatS=1 NMatT=0.
 -------------------------------------------------------------------
 Center     Atomic                   Forces (Hartrees/Bohr)
 Number     Number              X              Y              Z
 -------------------------------------------------------------------
      1        8          -0.000010079   -0.000004728   -0.000055592
      2        1           0.000028699   -0.000013185    0.000006491
      3        6           0.000002163    0.000010443   -0.000030709
      4        5          -0.000043028    0.000022704    0.000064832
      5        8           0.000049120   -0.000017726    0.000036478
      6        1          -0.000007843   -0.000027293   -0.000023783
      7        6          -0.000018169    0.000007084    0.000022374
      8        1           0.000031355    0.000008370   -0.000018367
      9        6           0.000009358   -0.000008184    0.000006091
     10        1           0.000003094   -0.000004480    0.000003958
     11        6          -0.000002505    0.000006405   -0.000003539
     12        6          -0.000015740   -0.000001267    0.000003389
     13        6           0.000007566   -0.000043003   -0.000027872
     14        1          -0.000002239   -0.000001871    0.000006781
     15        1          -0.000001194    0.000003922    0.000002180
     16        8          -0.000008489    0.000038187    0.000045350
     17        6          -0.000010168    0.000014364   -0.000021561
     18        1          -0.000006647    0.000002893   -0.000003918
     19        1           0.000000199    0.000003469   -0.000002064
     20        1          -0.000005451    0.000003895   -0.000010519
 -------------------------------------------------------------------
 Cartesian Forces:  Max     0.000064832 RMS     0.000021409

 GradGradGradGradGradGradGradGradGradGradGradGradGradGradGradGradGradGrad
 Berny optimization.
 Using GEDIIS/GDIIS optimizer.
 FormGI is forming the generalized inverse of G from B-inverse, IUseBI=4.
 Internal  Forces:  Max     0.000074531 RMS     0.000019602
 Search for a local minimum.
 Step number   2 out of a maximum of   97
 All quantities printed in internal units (Hartrees-Bohrs-Radians)
 Mixed Optimization -- En-DIIS/RFO-DIIS
 Swapping is turned off.
 Update second derivatives using D2CorX and points    1    2
 DE= -1.15D-04 DEPred=-1.19D-04 R= 9.70D-01
 TightC=F SS=  1.41D+00  RLast= 1.37D-01 DXNew= 5.0454D-01 4.1223D-01
 Trust test= 9.70D-01 RLast= 1.37D-01 DXMaxT set to 4.12D-01
 ITU=  1  0
     Eigenvalues ---    0.00116   0.00444   0.01084   0.01247   0.01467
     Eigenvalues ---    0.01552   0.01774   0.02029   0.02248   0.02401
     Eigenvalues ---    0.02511   0.02817   0.02900   0.03415   0.03929
     Eigenvalues ---    0.08669   0.08736   0.10714   0.10851   0.11454
     Eigenvalues ---    0.11567   0.12112   0.12542   0.13398   0.14772
     Eigenvalues ---    0.16012   0.18470   0.18678   0.18976   0.19005
     Eigenvalues ---    0.19200   0.19906   0.22272   0.27772   0.28203
     Eigenvalues ---    0.33354   0.33553   0.34398   0.35344   0.35655
     Eigenvalues ---    0.36365   0.36528   0.36887   0.37937   0.38319
     Eigenvalues ---    0.40602   0.43715   0.47248   0.48163   0.49321
     Eigenvalues ---    0.51057   0.54183   0.55157   0.58284
 En-DIIS/RFO-DIIS/Sim-DIIS IScMMF=       -3 using points:     2    1
 RFO step:  Lambda=-2.77948538D-06.
 DidBck=T Rises=F RFO-DIIS coefs:    0.71044    0.28956
 Iteration  1 RMS(Cart)=  0.01168763 RMS(Int)=  0.00007205
 Iteration  2 RMS(Cart)=  0.00011112 RMS(Int)=  0.00000090
 Iteration  3 RMS(Cart)=  0.00000001 RMS(Int)=  0.00000090
 Variable       Old X    -DE/DX   Delta X   Delta X   Delta X     New X
                                 (Linear)    (Quad)   (Total)
    R1        1.82267   0.00003  -0.00142   0.00156   0.00014   1.82281
    R2        2.57161  -0.00002  -0.00200   0.00209   0.00009   2.57170
    R3        2.97193   0.00003  -0.00046   0.00054   0.00008   2.97201
    R4        2.63949  -0.00002  -0.00082   0.00115   0.00033   2.63982
    R5        2.66036   0.00003  -0.00064   0.00111   0.00047   2.66083
    R6        2.59163   0.00006   0.00095  -0.00046   0.00048   2.59211
    R7        1.81867   0.00004  -0.00169   0.00182   0.00012   1.81879
    R8        2.05363  -0.00001  -0.00002  -0.00006  -0.00008   2.05355
    R9        2.63411  -0.00001  -0.00039   0.00013  -0.00026   2.63385
   R10        2.04708   0.00000  -0.00034   0.00034   0.00000   2.04709
   R11        2.62287   0.00001  -0.00086   0.00094   0.00008   2.62295
   R12        2.63413   0.00000  -0.00032   0.00014  -0.00019   2.63394
   R13        2.04921   0.00000  -0.00028   0.00030   0.00002   2.04923
   R14        2.63908   0.00001  -0.00072   0.00103   0.00030   2.63939
   R15        2.04429   0.00000  -0.00024   0.00022  -0.00001   2.04427
   R16        2.55950   0.00002   0.00034  -0.00080  -0.00046   2.55904
   R17        2.67981   0.00004  -0.00400   0.00431   0.00031   2.68012
   R18        2.06749   0.00000   0.00037  -0.00040  -0.00002   2.06746
   R19        2.06725   0.00000   0.00025  -0.00027  -0.00002   2.06724
   R20        2.05652   0.00000  -0.00043   0.00045   0.00003   2.05655
    A1        1.94903  -0.00001  -0.00115   0.00040  -0.00075   1.94828
    A2        2.08045  -0.00007   0.00063  -0.00262  -0.00199   2.07846
    A3        2.14474   0.00007   0.00001   0.00256   0.00257   2.14731
    A4        2.05791  -0.00001  -0.00066   0.00006  -0.00060   2.05731
    A5        2.11551   0.00001   0.00183  -0.00033   0.00150   2.11701
    A6        2.05246  -0.00003   0.00022  -0.00135  -0.00113   2.05133
    A7        2.11360   0.00002  -0.00202   0.00168  -0.00034   2.11326
    A8        1.97769   0.00001  -0.00028   0.00112   0.00085   1.97854
    A9        2.08059  -0.00004  -0.00094   0.00066  -0.00027   2.08031
   A10        2.12953   0.00002   0.00080  -0.00005   0.00075   2.13028
   A11        2.07287   0.00002   0.00009  -0.00057  -0.00047   2.07239
   A12        2.10261   0.00000   0.00035  -0.00027   0.00008   2.10270
   A13        2.07508   0.00000  -0.00034   0.00008  -0.00026   2.07482
   A14        2.10549   0.00000  -0.00002   0.00020   0.00018   2.10567
   A15        2.10847   0.00000  -0.00021   0.00008  -0.00013   2.10834
   A16        2.09768   0.00000  -0.00010   0.00018   0.00009   2.09777
   A17        2.07702   0.00000   0.00031  -0.00026   0.00005   2.07707
   A18        2.08807   0.00001   0.00023   0.00022   0.00044   2.08851
   A19        2.08271   0.00000  -0.00011  -0.00006  -0.00017   2.08254
   A20        2.11240  -0.00001  -0.00011  -0.00016  -0.00027   2.11213
   A21        2.10711  -0.00001   0.00020  -0.00039  -0.00019   2.10692
   A22        2.02570   0.00005  -0.00074   0.00177   0.00103   2.02673
   A23        2.15012  -0.00003   0.00054  -0.00136  -0.00083   2.14929
   A24        2.06289   0.00000   0.00078  -0.00063   0.00014   2.06304
   A25        1.94209   0.00000   0.00020  -0.00013   0.00008   1.94217
   A26        1.94087   0.00000  -0.00013   0.00021   0.00008   1.94095
   A27        1.84925   0.00001   0.00005  -0.00014  -0.00009   1.84915
   A28        1.91378   0.00000  -0.00082   0.00087   0.00005   1.91383
   A29        1.90834  -0.00001   0.00041  -0.00047  -0.00006   1.90829
   A30        1.90815   0.00000   0.00034  -0.00041  -0.00007   1.90809
    D1        3.11590   0.00001   0.00206  -0.00273  -0.00067   3.11523
    D2        0.03462  -0.00001   0.00143  -0.00276  -0.00133   0.03330
    D3       -2.31379  -0.00003  -0.01720  -0.00520  -0.02240  -2.33619
    D4        0.76538  -0.00001  -0.01647  -0.00528  -0.02174   0.74363
    D5        0.81321  -0.00003  -0.01822  -0.00528  -0.02350   0.78971
    D6       -2.39081  -0.00001  -0.01749  -0.00536  -0.02284  -2.41366
    D7       -0.01397  -0.00001   0.00253  -0.00289  -0.00035  -0.01432
    D8        3.10601   0.00000   0.00027  -0.00053  -0.00026   3.10575
    D9        3.14149  -0.00001   0.00350  -0.00284   0.00066  -3.14103
   D10       -0.02171   0.00001   0.00123  -0.00048   0.00075  -0.02096
   D11       -3.11105   0.00000  -0.00014   0.00054   0.00040  -3.11065
   D12        0.05400  -0.00002  -0.00037   0.00003  -0.00034   0.05366
   D13        0.01612   0.00000  -0.00114   0.00044  -0.00070   0.01542
   D14       -3.10201  -0.00002  -0.00136  -0.00007  -0.00144  -3.10345
   D15       -3.09473   0.00002   0.00981  -0.00641   0.00341  -3.09132
   D16        0.10711   0.00000   0.00905  -0.00636   0.00269   0.10980
   D17       -3.12737   0.00000   0.00030  -0.00053  -0.00023  -3.12760
   D18        0.01210   0.00000  -0.00051   0.00015  -0.00036   0.01174
   D19       -0.00730   0.00001  -0.00197   0.00184  -0.00013  -0.00743
   D20        3.13217   0.00001  -0.00278   0.00251  -0.00027   3.13191
   D21        0.00357   0.00000  -0.00033   0.00023  -0.00010   0.00347
   D22        3.13989   0.00000   0.00027  -0.00011   0.00016   3.14005
   D23       -3.14014   0.00000  -0.00114   0.00090  -0.00023  -3.14038
   D24       -0.00382   0.00000  -0.00054   0.00056   0.00003  -0.00380
   D25       -0.00880   0.00000   0.00041  -0.00026   0.00015  -0.00865
   D26        3.12902   0.00001   0.00077  -0.00025   0.00051   3.12953
   D27        3.13800   0.00000  -0.00018   0.00008  -0.00011   3.13790
   D28       -0.00736   0.00000   0.00017   0.00008   0.00025  -0.00711
   D29       -0.00132   0.00000   0.00034  -0.00009   0.00025  -0.00107
   D30        3.11509   0.00002   0.00056   0.00051   0.00107   3.11616
   D31       -3.13907  -0.00001  -0.00002  -0.00009  -0.00011  -3.13918
   D32       -0.02266   0.00001   0.00020   0.00051   0.00071  -0.02196
   D33       -3.12276   0.00000   0.00580  -0.00775  -0.00196  -3.12472
   D34        0.04293  -0.00002   0.00557  -0.00830  -0.00272   0.04020
   D35       -1.08936   0.00000  -0.00340   0.00529   0.00190  -1.08746
   D36        1.04968   0.00001  -0.00440   0.00647   0.00208   1.05175
   D37        3.12131   0.00001  -0.00403   0.00601   0.00198   3.12329
         Item               Value     Threshold  Converged?
 Maximum Force            0.000075     0.000015     NO 
 RMS     Force            0.000020     0.000010     NO 
 Maximum Displacement     0.061558     0.000060     NO 
 RMS     Displacement     0.011693     0.000040     NO 
 Predicted change in Energy=-1.389947D-06
 GradGradGradGradGradGradGradGradGradGradGradGradGradGradGradGradGradGrad

                          Input orientation:                          
 ---------------------------------------------------------------------
 Center     Atomic      Atomic             Coordinates (Angstroms)
 Number     Number       Type             X           Y           Z
 ---------------------------------------------------------------------
      1          8           0        8.377021    7.798425    6.331330
      2          1           0        9.209798    7.504725    6.719477
      3          6           0        6.221441    6.968355    5.229739
      4          5           0        7.639000    6.750061    5.874966
      5          8           0        8.144822    5.488998    6.063089
      6          1           0        7.596977    4.796888    5.679439
      7          6           0        5.162454    6.146590    5.623020
      8          1           0        5.342130    5.364928    6.356244
      9          6           0        3.872108    6.312600    5.122966
     10          1           0        3.066960    5.668666    5.455477
     11          6           0        3.636959    7.317676    4.195015
     12          6           0        4.670840    8.147102    3.763884
     13          6           0        5.957421    7.972546    4.278684
     14          1           0        2.641478    7.464826    3.790913
     15          1           0        4.463057    8.915589    3.031417
     16          8           0        7.018372    8.718387    3.888911
     17          6           0        6.798460    9.756369    2.947803
     18          1           0        6.434885    9.358564    1.995689
     19          1           0        6.089722   10.495618    3.332373
     20          1           0        7.765816   10.230719    2.794289
 ---------------------------------------------------------------------
                    Distance matrix (angstroms):
                    1          2          3          4          5
     1  O    0.000000
     2  H    0.964591   0.000000
     3  C    2.559110   3.381906   0.000000
     4  B    1.360886   1.936523   1.572719   0.000000
     5  O    2.336519   2.372377   2.565612   1.371687   0.000000
     6  H    3.169015   3.318923   2.609521   1.963385   0.962465
     7  C    3.682894   4.407692   1.396933   2.561433   3.085549
     8  H    3.890128   4.435034   2.147831   2.725038   2.820712
     9  C    4.895106   5.697451   2.441472   3.866052   4.451769
    10  H    5.787896   6.534774   3.419196   4.716878   5.117241
    11  C    5.221413   6.120820   2.805749   4.377300   5.211007
    12  C    4.522072   5.454386   2.437733   3.901073   4.941702
    13  C    3.177757   4.093200   1.408052   2.621125   3.759898
    14  H    6.281836   7.191725   3.890096   5.461630   6.273235
    15  H    5.239904   6.174454   3.422902   4.781412   5.872645
    16  O    2.942391   3.779871   2.344254   2.864245   4.052763
    17  C    4.215881   5.010986   3.648727   4.279332   5.452353
    18  H    5.000371   5.783687   4.027125   4.827316   5.868660
    19  H    4.636844   5.491156   4.007360   4.784793   6.061888
    20  H    4.335929   4.992317   4.354254   4.649907   5.771709
                    6          7          8          9         10
     6  H    0.000000
     7  C    2.784203   0.000000
     8  H    2.421791   1.086691   0.000000
     9  C    4.059766   1.393774   2.140099   0.000000
    10  H    4.618573   2.155824   2.465773   1.083272   0.000000
    11  C    4.923376   2.395365   3.375166   1.388007   2.152416
    12  C    4.843095   2.774909   3.861535   2.418775   3.402435
    13  C    3.838628   2.402774   3.390355   2.795847   3.879106
    14  H    5.936447   3.383738   4.275982   2.148590   2.485558
    15  H    5.813534   3.856542   4.943120   3.391069   4.285751
    16  O    4.349589   3.614651   4.488118   4.148455   5.231499
    17  C    5.718034   4.781611   5.746575   5.015418   6.076334
    18  H    5.977405   5.009330   6.013126   5.062172   6.076874
    19  H    6.344766   5.002093   6.002222   5.061786   6.078168
    20  H    6.154602   5.608861   6.499054   5.994611   7.069194
                   11         12         13         14         15
    11  C    0.000000
    12  C    1.393819   0.000000
    13  C    2.412550   1.396703   0.000000
    14  H    1.084405   2.141154   3.389864   0.000000
    15  H    2.142365   1.081783   2.162898   2.449428   0.000000
    16  O    3.672826   2.419278   1.354186   4.553923   2.702558
    17  C    4.183044   2.789712   2.379205   4.821048   2.483548
    18  H    4.102518   2.775970   2.713132   4.604238   2.270917
    19  H    4.106034   2.777581   2.697944   4.613713   2.287598
    20  H    5.243598   3.854926   3.251626   5.907814   3.562866
                   16         17         18         19         20
    16  O    0.000000
    17  C    1.418257   0.000000
    18  H    2.081964   1.094055   0.000000
    19  H    2.081028   1.093934   1.788505   0.000000
    20  H    2.010975   1.088280   1.780392   1.780167   0.000000
 Symmetry turned off by external request.
 Stoichiometry    C7H9BO3
 Framework group  C1[X(C7H9BO3)]
 Deg. of freedom    54
 Full point group                 C1      NOp   1
 Rotational constants (GHZ):           1.3761219           1.0363667           0.6263213
 Standard basis: 6-311+G(d,p) (5D, 7F)
   296 basis functions,   468 primitive gaussians,   307 cartesian basis functions
    40 alpha electrons       40 beta electrons
       nuclear repulsion energy       581.7381932180 Hartrees.
 NAtoms=   20 NActive=   20 NUniq=   20 SFac= 1.00D+00 NAtFMM=   60 NAOKFM=F Big=F
 Integral buffers will be    131072 words long.
 Raffenetti 2 integral format.
 Two-electron integral symmetry is turned off.
 ------------------------------------------------------------------------------
 Polarizable Continuum Model (PCM)
 =================================
 Model                : PCM.
 Atomic radii         : SMD-Coulomb.
 Polarization charges : Total charges.
 Charge compensation  : None.
 Solution method      : Matrix inversion.
 Cavity type          : VdW (van der Waals Surface) (Alpha=1.000).
 Cavity algorithm     : GePol (No added spheres)
                        Default sphere list used, NSphG=   20.
                        Lebedev-Laikov grids with approx.  5.0 points / Ang**2.
                        Smoothing algorithm: York/Karplus (Gamma=1.0000).
                        Polarization charges: spherical gaussians, with
                                              point-specific exponents (IZeta= 3).
                        Self-potential: point-specific (ISelfS= 7).
                        Self-field    : sphere-specific E.n sum rule (ISelfD= 2).
 1st derivatives      : Analytical E(r).r(x)/FMM algorithm (CHGder, D1EAlg=3).
                        Cavity 1st derivative terms included.
 Solvent              : TetraHydroFuran, Eps=   7.425700 Eps(inf)=   1.974025
 ------------------------------------------------------------------------------
 Spheres list:
 ISph  on   Nord     Re0    Alpha      Xe            Ye            Ze
    1   O      1    2.2940  1.000      8.377021      7.798425      6.331330
    2   H      2    1.2000  1.000      9.209798      7.504725      6.719477
[...]
 04535,-0.00003356,-0.00000751,0.00734502,-0.01654572,0.01576696,-0.000
 49108,-0.00119506,0.00125027,-0.00043146,0.00035135,-0.00063564,-0.000
 88242,0.00061775,0.00076391,-0.06634912,0.03008726,-0.03421627,0.06834
 410,-0.00065747,0.00017493,-0.00028289,-0.00013400,-0.00008561,0.00006
 781,0.00300984,-0.00904404,0.01069378,0.00130174,-0.00271682,-0.000702
 63,0.00081157,0.00060378,-0.00040658,-0.00038772,0.00015866,0.00022344
 ,0.03190290,-0.19376036,0.14298615,-0.03138374,0.19955591,-0.00027779,
 -0.00017943,-0.00006178,-0.00002871,-0.00001076,0.00010091,-0.00212804
 ,0.00519729,-0.00286060,-0.00015119,-0.00088607,-0.00200392,-0.0001799
 8,-0.00112622,0.00074467,0.00099211,-0.00020631,-0.00026126,-0.0347278
 0,0.14416412,-0.17534656,0.03859531,-0.15927451,0.17700171,-0.00256342
 ,-0.00024142,-0.00138491,-0.00006682,-0.00013688,0.00004325,-0.0512034
 9,-0.04494980,0.02014951,0.00351516,-0.00576711,0.00421230,-0.00018341
 ,0.00163872,-0.00061769,-0.00027426,0.00004110,-0.00005340,-0.30367602
 ,0.04136117,-0.10116625,0.00006153,-0.00136660,-0.00002038,0.68945094,
 0.00094910,0.00030203,-0.00027293,0.00017140,0.00005038,-0.00048549,-0
 .00678077,0.03269676,-0.01944631,-0.00411211,0.00096723,0.00308347,0.0
 0027485,0.00040830,-0.00056397,-0.00052730,0.00014526,0.00035211,-0.01
 355894,-0.10488937,0.03011408,0.02170873,0.00115004,0.00868168,0.11090
 159,0.48521625,-0.00007400,-0.00069989,0.00004012,0.00018036,0.0001025
 8,0.00018968,-0.01331947,-0.03326030,0.03412942,0.00364582,0.00285146,
 0.00522978,-0.00090697,0.00117440,-0.00118366,-0.00003238,-0.00009590,
 -0.00014633,-0.05407459,0.04650535,-0.11954054,-0.02032365,0.00292748,
 -0.00298165,0.05923275,-0.27573256,0.38408973,-0.00067387,-0.00012568,
 -0.00042187,0.00001123,-0.00003663,-0.00004985,-0.00386917,0.00085711,
 -0.00338619,0.00066694,-0.00093502,0.00097627,-0.00029346,0.00044446,-
 0.00020628,0.00000835,-0.00016725,-0.00001003,-0.01551875,-0.01768842,
 0.01038366,0.00088037,0.00078173,0.00068234,-0.21647612,-0.13060189,0.
 06252672,0.22543134,0.00001289,-0.00007002,-0.00001225,0.00003104,0.00
 000092,0.00003481,0.00038586,0.00344319,0.00282502,0.00025236,0.000294
 87,0.00018131,-0.00004500,0.00000838,-0.00006326,0.00003207,-0.0000139
 1,0.00001070,0.00516303,0.00570436,-0.00153425,0.00022151,-0.00131240,
 -0.00223107,-0.13043768,-0.15038148,0.06366405,0.14017096,0.15260211,-
 0.00011840,-0.00008496,-0.00016596,0.00001991,-0.00001216,-0.00002055,
 -0.00348499,0.00308634,0.00307898,-0.00006506,-0.00014858,0.00058271,0
 .00001635,0.00008119,-0.00010858,0.00000567,-0.00000853,0.00003536,-0.
 00950575,-0.00766210,0.00621629,0.00120701,-0.00213188,-0.00180694,0.0
 6251076,0.06369097,-0.07247088,-0.06574751,-0.07113447,0.06841386,-0.0
 0149828,-0.00049915,-0.00071894,0.00002396,-0.00005457,0.00020330,-0.0
 0982024,-0.01478989,0.01105039,0.00384345,-0.00090130,0.00260628,-0.00
 086964,0.00098684,-0.00075423,0.00005971,-0.00041024,-0.00008410,0.015
 57641,0.02865275,-0.02204779,-0.00511377,0.00026391,-0.00325223,-0.134
 02990,0.04572502,-0.05878946,0.00822103,-0.01754833,0.01657685,0.70978
 469,-0.00117464,-0.00021540,-0.00045378,-0.00007211,-0.00005281,0.0001
 1971,-0.01960198,-0.04406811,0.02750558,0.00216246,-0.00233906,0.00212
 770,-0.00016285,0.00066569,-0.00024539,-0.00000098,0.00011692,-0.00009
 022,0.07239128,0.01257223,0.01593162,-0.00048568,0.00410536,0.00257728
 ,-0.00913921,-0.21919818,0.13125260,0.00557555,-0.00888320,0.01107472,
 0.05568983,0.46265111,0.00047386,0.00009542,0.00020704,0.00002947,0.00
 001537,-0.00002814,0.01547797,0.03082528,-0.02464594,-0.00059939,0.001
 14892,-0.00210364,-0.00007830,-0.00037533,0.00029262,0.00015317,-0.000
 24039,-0.00003395,-0.06050624,0.00277311,-0.01279982,-0.00294953,0.002
 66358,0.00387196,-0.01111488,0.14612710,-0.19307645,-0.00317908,0.0048
 8319,-0.00254900,0.10974384,-0.26126976,0.39750307,0.00079112,0.000250
 74,0.00010626,0.00007958,0.00004682,-0.00006862,0.01689599,0.05797207,
 -0.04583404,-0.00064152,0.00068983,-0.00262466,0.00032969,-0.00039384,
 0.00044931,0.00005287,-0.00017142,0.00005002,-0.07194651,-0.01567788,-
 0.00594506,-0.00091582,-0.00041633,0.00024149,0.05298423,-0.04560719,0
 .05187208,0.00116526,0.00108531,-0.00237354,-0.24289086,-0.07681890,0.
 01462693,0.64841655,0.00116941,0.00056146,0.00009878,0.00014039,0.0000
 3960,-0.00007539,0.02540112,0.01528358,0.00392298,-0.00287869,-0.00038
 761,0.00336532,0.00135426,-0.00068466,-0.00065867,-0.00019005,0.000100
 53,0.00024812,-0.02163061,-0.00796794,-0.00255483,-0.00034583,-0.00029
 808,-0.00069623,-0.00325744,-0.03033486,0.03116115,0.00047342,0.000794
 05,0.00568099,-0.13083499,-0.17530450,0.06411215,0.07102082,0.49022977
 ,0.00022602,-0.00044324,-0.00007629,0.00015606,0.00003415,-0.00009628,
 -0.01993445,0.01032093,-0.00601254,0.00020122,0.00477441,0.00119128,-0
 .00184691,0.00082203,-0.00070759,0.00010555,-0.00043579,-0.00012137,-0
 .00094146,-0.00096562,-0.00352664,0.00035253,-0.00076883,-0.00040279,0
 .01612992,0.01927413,-0.00480755,-0.00207290,0.00586173,0.00168716,0.0
 6235568,0.08025047,-0.11186184,0.08477468,-0.30148005,0.41211870,-0.00
 282466,-0.00320370,0.00103898,-0.00078098,-0.00043096,0.00083914,-0.13
 591401,0.00884611,-0.03161963,0.01011620,0.01987381,-0.01193970,-0.007
 62921,0.00323441,-0.00226807,0.00022939,-0.00138824,-0.00039178,0.0590
 4663,-0.00652088,0.02273313,-0.00289692,-0.00363115,-0.00011406,-0.031
 81830,0.03193432,-0.03433752,-0.00016799,0.00075710,-0.00077357,-0.055
 13169,-0.05043455,0.02852632,-0.26590137,0.05071299,-0.09986259,0.6609
 3935,-0.00416869,-0.00394468,-0.00026561,-0.00010030,-0.00046472,0.000
 36772,0.04766732,-0.17372569,0.10704558,0.01426870,0.00384742,0.004903
 60,-0.00379388,0.00341596,-0.00202886,0.00023268,-0.00128736,0.0001137
 9,-0.04780056,-0.03238527,0.01560527,-0.00351552,0.00328847,0.00359016
 ,0.03072394,-0.02067496,0.02132800,0.00092526,-0.00037361,0.00021336,-
 0.00544065,0.03635954,-0.03307815,-0.00312267,-0.11466080,0.04003668,0
 .05725168,0.45969478,0.00298333,0.00126047,0.00038307,0.00007285,0.000
 12776,0.00008821,-0.06476962,0.09634977,-0.17335140,-0.00732260,0.0057
 8864,-0.00391754,0.00182132,-0.00155132,0.00147392,-0.00009018,0.00109
 167,-0.00009326,0.05748665,0.02665373,-0.00659041,-0.00026971,0.003437
 26,0.00540506,-0.03412408,0.02204536,-0.03389664,-0.00075986,0.0002611
 9,-0.00066508,-0.01067856,-0.04569218,0.03698399,-0.05385093,0.0550126
 9,-0.13107720,0.08417393,-0.24262557,0.40604414,-0.00009572,-0.0000288
 3,-0.00009431,0.00002312,0.00000548,-0.00000064,0.00006242,-0.00025182
 ,0.00063886,0.00021350,0.00004415,0.00023576,-0.00013499,0.00013436,-0
 .00005491,0.00002053,-0.00004632,-0.00001318,0.00205860,-0.00004807,-0
 .00148249,-0.00018883,-0.00005783,0.00004247,-0.00026739,-0.00135395,-
 0.00025707,0.00030468,0.00083742,0.00056330,-0.29830795,0.03305950,-0.
 10039997,-0.01592928,0.00441879,-0.00953851,-0.00005748,-0.00364035,0.
 00103166,0.31311161,-0.00004667,0.00004026,0.00001400,-0.00002933,-0.0
 0000228,0.00001799,-0.00016684,-0.00098211,-0.00059017,0.00007280,-0.0
 0033249,-0.00036944,0.00006983,-0.00002642,0.00005673,-0.00004076,0.00
 002721,0.00002405,-0.00045779,-0.00019052,0.00648364,0.00114477,-0.000
 19708,0.00034636,0.02125835,0.00239051,0.00803371,0.00019562,-0.001064
 42,-0.00270423,0.03332599,-0.05673633,0.02341793,-0.01776590,0.0062624
 2,-0.00665841,-0.00365968,0.00118928,0.00483627,-0.03393535,0.05075901
 ,-0.00014894,-0.00003725,-0.00003290,-0.00002285,-0.00000462,0.0000089
 6,0.00069498,-0.00024455,-0.00108862,0.00014160,-0.00029324,-0.0003770
 1,0.00000745,-0.00008445,0.00010504,0.00006493,-0.00003634,-0.00002963
 ,-0.00113484,0.00646570,0.00162743,-0.00098276,0.00001705,-0.00038470,
 -0.01961053,0.00163791,-0.00207514,0.00109028,-0.00253723,-0.00177649,
 -0.10064804,0.02336446,-0.08836579,0.00987478,-0.00023011,0.00730852,0
 .00073264,0.00478176,0.00391392,0.10900512,-0.02986516,0.08299671,-0.0
 0027490,-0.00020701,-0.00006521,-0.00000097,-0.00000679,0.00002290,-0.
 00506135,-0.00010448,-0.00317546,0.00093848,0.00081972,-0.00029640,-0.
 00060824,0.00038278,-0.00010619,0.00001623,-0.00012540,-0.00003935,-0.
 00151590,-0.00064291,0.00032944,0.00010442,0.00016709,0.00013909,-0.00
 259085,-0.00379514,0.00051450,0.00027646,-0.00091467,0.00071644,0.0083
 6283,-0.01731547,0.01693544,-0.06841307,0.03860048,-0.04355698,0.00177
 265,0.02056467,-0.01854799,0.00081685,0.00115518,0.00040421,0.06841414
 ,0.00011363,0.00005867,0.00005061,-0.00001578,0.00000144,-0.00000342,-
 0.00016518,0.00300296,0.00224985,-0.00040876,-0.00007176,-0.00017740,0
 .00008501,-0.00010180,0.00003616,-0.00003571,0.00002279,0.00000185,0.0
 0003050,-0.00006373,-0.00064759,0.00019210,-0.00042315,-0.00039194,-0.
 00410877,0.00236557,0.00324780,0.00022396,-0.00033880,0.00067333,0.004
 77650,-0.00917986,0.01152415,0.03943058,-0.19284076,0.15161187,-0.0004
 2301,0.00127556,0.00180857,0.00075228,-0.00116586,-0.00255780,-0.03608
 863,0.20190467,-0.00023585,-0.00009984,-0.00012932,-0.00000544,-0.0000
 0445,0.00002117,-0.00289719,0.00223646,0.00274242,0.00067344,0.0001512
 3,0.00009724,-0.00030341,0.00020668,-0.00012452,-0.00002322,-0.0000957
 6,-0.00002311,0.00021203,-0.00078494,-0.00007457,0.00012476,-0.0003898
 0,-0.00053587,0.00051734,0.00342434,0.00450937,-0.00022547,0.00037422,
 -0.00000547,-0.00275638,0.00492205,-0.00267621,-0.04368084,0.15148482,
 -0.17836718,-0.00082937,0.00771711,-0.00352435,0.00074514,-0.00242313,
 -0.00196435,0.04423005,-0.16692633,0.18258896,0.00277817,0.00325534,-0
 .00193157,0.00043774,0.00034679,-0.00017789,0.01075492,-0.01332210,0.0
 1236698,-0.00897846,-0.00150889,-0.00251227,0.00194664,-0.00101676,0.0
 0156841,-0.00021271,0.00074505,-0.00003918,-0.00109150,0.00240515,-0.0
 0456041,0.00047529,-0.00005492,0.00006520,-0.00273708,-0.00553227,0.00
 435363,0.00005152,-0.00000009,0.00036562,0.00122727,0.00737888,-0.0080
 4439,-0.05062781,-0.03119015,0.01202965,-0.23398671,-0.07358745,0.0183
 0580,-0.00169107,-0.00119298,0.00056726,0.00185143,0.00053012,0.000862
 55,0.36819285,0.00366135,0.00149131,0.00215041,-0.00036734,0.00014977,
 0.00018269,-0.03249856,-0.03324448,0.02487624,-0.00681144,-0.00049057,
 -0.00504398,0.00188649,-0.00163263,0.00159382,-0.00024653,0.00089649,-
 0.00002968,0.00655460,0.00193911,0.00458224,-0.00105770,-0.00117280,0.
 00064979,-0.00581842,-0.00246973,-0.00034931,-0.00013710,-0.00030369,-
 0.00042435,0.00185083,0.00241401,0.00453821,-0.01458850,0.00563567,0.0
 0096222,-0.10126270,-0.13507539,0.05241894,-0.00023699,-0.00015945,-0.
 00035665,-0.00020154,-0.00175553,-0.00061944,0.10032482,0.35505369,-0.
 00395488,0.00101088,-0.00348323,0.00041668,0.00032128,-0.00034405,0.03
 064971,0.03141569,-0.01322875,0.00399068,-0.00315450,-0.00013670,-0.00
 093401,0.00147833,-0.00018003,0.00023289,-0.00049262,-0.00007343,-0.00
 780266,0.00309295,0.00005079,0.00099073,0.00115308,-0.00040039,0.00501
 619,-0.00021315,0.00043643,0.00035428,-0.00041690,-0.00031621,-0.00333
 872,0.00619303,0.00071850,-0.00364569,-0.00448375,0.01266252,0.0407789
 5,0.05834004,-0.08663345,-0.00014176,-0.00050832,0.00009683,0.00130890
 ,-0.00055747,-0.00172312,-0.01309005,-0.22211354,0.26000343,0.00001764
 ,0.00023523,-0.00029634,0.00010786,0.00008061,-0.00009422,-0.00368185,
 -0.00165869,-0.00026681,-0.00077971,-0.00063091,0.00018190,0.00018229,
 -0.00004202,0.00014262,-0.00002650,0.00006611,0.00000039,-0.00023607,-
 0.00132210,0.00065124,-0.00031007,-0.00022683,0.00014771,0.00031808,-0
 .00061491,0.00057566,-0.00002920,0.00003022,0.00006494,0.00077794,0.00
 031323,-0.00020723,-0.00348223,-0.00420134,0.00282609,0.00417899,-0.02
 625672,0.02480774,-0.00001639,0.00004588,-0.00002487,-0.00224971,-0.00
 244051,0.00172454,-0.09606196,0.03506635,-0.03785094,0.62450455,-0.001
 51415,0.00014956,-0.00148082,0.00032781,0.00016480,0.00000444,-0.00187
 368,0.00381643,-0.00166101,0.00228740,-0.00217795,0.00178395,-0.000877
 17,0.00126780,-0.00048359,0.00007130,-0.00037538,-0.00000381,0.0008996
 0,0.00038823,0.00149240,0.00000094,0.00012759,-0.00027645,0.00049661,0
 .00200711,-0.00141058,0.00011087,-0.00012540,-0.00018432,-0.00023535,-
 0.00222562,0.00241093,0.00517999,0.00314841,-0.00217283,-0.01455679,-0
 .03262758,0.01954531,0.00047292,0.00021879,-0.00007505,-0.00070028,-0.
 00194710,0.00050291,0.01318657,-0.14598500,0.07824469,0.02930706,0.527
 05703,0.00094170,-0.00003515,0.00089222,-0.00018788,-0.00005972,-0.000
 07500,0.00008518,-0.00189669,0.00455631,-0.00220882,0.00110755,-0.0018
 2295,0.00081992,-0.00113171,0.00041574,-0.00004717,0.00035166,0.000035
 96,-0.00099137,0.00095873,0.00040908,0.00002512,-0.00034634,0.00001503
 ,-0.00063550,-0.00158843,0.00134732,-0.00000843,-0.00016408,-0.0001695
 4,0.00009447,0.00226580,-0.00142803,-0.00478646,-0.00466066,0.00202682
 ,0.01467907,0.01765868,-0.01692145,-0.00038816,-0.00021279,0.00001349,
 0.00033784,0.00012823,-0.00114084,-0.01927714,0.08215433,-0.13541924,-
 0.01571873,0.05542238,0.53198466,-0.00013857,0.00002712,-0.00014560,0.
 00002658,0.00000569,0.00000453,-0.00015538,-0.00019192,-0.00004584,0.0
 0026904,-0.00025057,0.00019668,-0.00010287,0.00015556,-0.00003843,0.00
 000627,-0.00003735,-0.00001161,0.00054523,0.00010475,0.00007843,0.0000
 1155,0.00003873,-0.00000481,-0.00019430,0.00040987,-0.00049621,-0.0000
 0779,0.00003685,0.00003275,-0.00019441,-0.00078021,0.00022699,0.000398
 69,0.00084108,-0.00008031,-0.00045474,-0.00033110,0.00129506,0.0000296
 4,0.00003988,0.00003943,-0.00144717,-0.00026449,0.00159007,-0.00032207
 ,0.00277069,-0.00711782,-0.08019005,-0.03525050,-0.07317536,0.08129869
 ,0.00021520,-0.00004111,0.00021936,-0.00005901,-0.00004336,0.00002311,
 -0.00022172,-0.00133450,0.00023545,-0.00017734,0.00039760,-0.00015567,
 0.00006735,-0.00013542,0.00001885,-0.00001144,0.00003229,0.00000938,0.
 00077644,0.00002819,-0.00015567,-0.00001461,0.00001116,0.00006308,-0.0
 0055827,0.00020837,-0.00036414,-0.00003468,0.00003286,0.00008467,0.000
 00737,-0.00087525,0.00022906,-0.00122694,0.00080862,-0.00119629,0.0038
 5704,0.00391527,-0.00025987,-0.00003595,0.00001758,0.00002644,-0.00074
 385,-0.00016905,0.00126159,0.00973904,0.00454234,0.03452862,-0.0366033
 4,-0.09581610,-0.09587662,0.03592645,0.09869813,-0.00026592,0.00011304
 ,-0.00028173,0.00007714,0.00003665,-0.00000945,0.00049316,0.00115170,-
 0.00064160,0.00032865,-0.00062317,0.00031814,-0.00012536,0.00027335,-0
 .00004534,0.00000601,-0.00006144,-0.00001691,-0.00042862,-0.00007813,0
 .00021665,0.00003241,0.00003417,-0.00004947,0.00037676,0.00003565,0.00
 000133,0.00003034,-0.00004503,0.00000434,0.00017581,-0.00006619,0.0002
 7844,0.00031007,0.00008816,-0.00029555,-0.00516584,-0.00398126,0.00163
 500,0.00005085,0.00003369,-0.00000577,0.00079233,-0.00017956,0.0001073
 6,-0.00702944,0.00818708,-0.02760865,-0.07074734,-0.08930104,-0.239658
 21,0.08369213,0.08934535,0.26769811,-0.00016234,-0.00004496,-0.0001571
 9,0.00002004,0.00000525,0.00000209,-0.00010522,0.00009423,0.00011880,0
 .00031922,-0.00017312,0.00029986,-0.00010133,0.00013234,-0.00007332,0.
 00000299,-0.00004576,0.00000420,0.00055603,0.00008173,0.00010673,0.000
 02393,0.00002841,-0.00002953,-0.00021554,0.00053925,-0.00041381,0.0000
 1706,-0.00004633,-0.00004062,-0.00028953,-0.00049812,0.00080327,0.0003
 0084,0.00017512,-0.00088625,-0.00039717,-0.00188236,-0.00005532,0.0000
 5504,-0.00001721,-0.00003474,-0.00058414,-0.00180357,-0.00020166,-0.00
 067533,0.00716735,-0.00461780,-0.16209093,0.11201017,0.06635076,0.0075
 6089,-0.00843849,-0.00404101,0.17129587,0.00014979,-0.00001310,0.00023
 955,-0.00004297,-0.00001969,-0.00000647,-0.00064970,-0.00110493,0.0011
 9222,-0.00029913,0.00030947,-0.00046442,0.00012872,-0.00019152,0.00007
 603,-0.00000327,0.00006050,-0.00000318,0.00065827,0.00046269,0.0001132
 5,-0.00000547,-0.00006777,-0.00000782,-0.00055612,0.00010346,-0.000295
 56,-0.00001270,-0.00001478,-0.00006760,-0.00035479,-0.00001586,0.00028
 086,-0.00035932,-0.00029391,-0.00023402,0.00572023,0.00339932,-0.00267
 871,-0.00003860,-0.00003664,-0.00000240,-0.00089723,-0.00080819,-0.000
 54789,0.01571678,-0.02889143,0.00445845,0.10734128,-0.16155052,-0.0654
 0678,0.00784917,-0.00625574,-0.00591214,-0.12587064,0.18313180,-0.0001
 1529,-0.00000342,-0.00015926,0.00002947,0.00001199,-0.00001259,0.00032
 968,0.00045623,-0.00104555,0.00022158,-0.00017150,0.00032664,-0.000115
 42,0.00013136,-0.00002978,0.00001028,-0.00004203,-0.00000985,-0.000491
 05,-0.00031641,-0.00017410,-0.00001277,0.00005201,0.00001607,0.0004709
 4,-0.00012757,0.00022546,-0.00000020,0.00007011,0.00003192,0.00006818,
 0.00029102,-0.00058609,0.00115359,-0.00065469,0.00064023,-0.00361448,-
 0.00183700,0.00243826,0.00002694,0.00002359,0.00002164,-0.00002499,0.0
 0062546,-0.00002300,-0.01842799,0.02739896,0.00550268,0.06930004,-0.07
 094931,-0.09208252,0.01848038,-0.01712257,-0.00800984,-0.06831091,0.06
 443262,0.09365428,0.00006544,-0.00000388,0.00008725,-0.00001753,-0.000
 01034,0.00000152,0.00026222,0.00008463,-0.00007316,-0.00010749,0.00006
 943,-0.00007708,0.00004888,-0.00005765,0.00001755,-0.00000818,0.000020
 12,0.00000121,-0.00013743,-0.00002173,-0.00003185,0.00001536,0.0000106
 6,0.00000878,-0.00003305,-0.00012967,0.00012360,0.00000208,-0.00002453
 ,0.00002985,0.00026897,-0.00008602,0.00008176,-0.00066634,0.00022125,-
 0.00043705,0.00167802,0.00200598,-0.00150951,-0.00000686,0.00000425,-0
 .00001510,0.00019283,-0.00038026,0.00047889,0.00866888,0.00394435,-0.0
 0124468,-0.28093268,-0.10934332,0.03409095,-0.00693925,-0.00246327,0.0
 0143788,-0.01553036,-0.00847431,0.00102199,0.29317650,0.00020704,0.000
 05686,0.00007111,-0.00001105,-0.00000621,0.00001045,-0.00100784,-0.000
 68712,0.00052886,-0.00044185,0.00005254,-0.00017728,0.00015688,-0.0001
 2973,0.00004950,-0.00002048,0.00004883,0.00000852,0.00029797,-0.000154
 53,0.00023250,-0.00007673,-0.00009779,0.00001704,-0.00008377,-0.000062
 69,-0.00004035,-0.00001956,0.00000096,-0.00002238,-0.00020977,0.000209
 30,-0.00008162,0.00047274,-0.00009100,0.00040647,0.00332397,-0.0011655
 5,0.00217002,-0.00005083,-0.00001147,0.00003154,0.00005349,0.00023390,
 -0.00038981,-0.02622293,-0.02094170,0.01170323,-0.09848859,-0.09551511
 ,0.01133161,-0.01109972,-0.00402189,0.00094911,0.01858671,0.01179685,-
 0.00226885,0.11463431,0.11048553,-0.00016826,-0.00013062,-0.00004105,0
 .00000525,0.00000929,-0.00000682,0.00087682,0.00078753,-0.00022843,0.0
 0035717,0.00004947,0.00019645,-0.00010543,0.00006214,-0.00005897,0.000
 01118,-0.00003764,-0.00000390,-0.00027656,0.00014959,-0.00019838,0.000
 08513,0.00004768,-0.00005948,0.00006789,-0.00003638,-0.00001980,0.0000
 2378,-0.00002780,0.00000406,0.00019365,-0.00005850,0.00029927,-0.00064
 937,0.00031920,-0.00028242,-0.00258556,0.00211469,-0.00169482,0.000030
 91,0.00004367,0.00000787,0.00008141,-0.00051636,0.00024540,0.02460523,
 0.01924201,-0.00992395,0.02478360,0.00859179,-0.05297885,-0.02452046,-
 0.01091412,0.00636316,0.01117644,0.00483401,-0.00072460,-0.03399282,-0
 .02452967,0.05910528\\-0.00000216,-0.00000186,0.00000334,-0.00000293,-
 0.00000255,0.00000443,-0.00000127,-0.00000020,0.00000022,-0.00000233,-
 0.00000142,0.00000213,-0.00000350,-0.00000165,0.00000274,-0.00000343,-
 0.00000126,0.00000188,-0.00000244,0.00000051,-0.00000136,-0.00000399,0
 .00000029,-0.00000119,-0.00000157,0.00000145,-0.00000305,-0.00000252,0
 .00000203,-0.00000428,0.00000046,0.00000179,-0.00000333,0.00000156,0.0
 0000107,-0.00000180,0.00000083,0.00000005,0.00000007,0.00000108,0.0000
 0253,-0.00000467,0.00000317,0.00000128,-0.00000198,0.00000185,-0.00000
 072,0.00000151,0.00000389,-0.00000034,0.00000133,0.00000492,-0.0000000
 2,0.00000080,0.00000391,0.00000008,0.00000045,0.00000446,-0.00000107,0
 .00000275\\\@
 The archive entry for this job was punched.


 In the beginning there was nothing, which exploded.
 Job cpu time:       0 days  1 hours  4 minutes 26.3 seconds.
 Elapsed time:       0 days  0 hours  2 minutes  6.5 seconds.
 File lengths (MBytes):  RWF=    218 Int=      0 D2E=      0 Chk=     17 Scr=      1
 Normal termination of Gaussian 16 at Wed Apr 30 05:33:55 2025.
