/home/tahminaafroz
cn013.cluster.local
tahminaafroz
Tue May  6 17:46:48 CDT 2025
 Entering Gaussian System, Link 0=g16
 Initial command:
 /home/apps/g16/l1.exe "/tmp/3-Me-ph-opt-freq-thf/Gau-827742.inp" -scrdir="/tmp/3-Me-ph-opt-freq-thf/"
 Entering Link 1 = /home/apps/g16/l1.exe PID=    827743.
  
 Copyright (c) 1988-2019, Gaussian, Inc.  All Rights Reserved.
  
 This is part of the Gaussian(R) 16 program.  It is based on
 the Gaussian(R) 09 system (copyright 2009, Gaussian, Inc.),
 the Gaussian(R) 03 system (copyright 2003, Gaussian, Inc.),
 the Gaussian(R) 98 system (copyright 1998, Gaussian, Inc.),
 the Gaussian(R) 94 system (copyright 1995, Gaussian, Inc.),
 the Gaussian 92(TM) system (copyright 1992, Gaussian, Inc.),
 the Gaussian 90(TM) system (copyright 1990, Gaussian, Inc.),
 the Gaussian 88(TM) system (copyright 1988, Gaussian, Inc.),
 the Gaussian 86(TM) system (copyright 1986, Carnegie Mellon
 University), and the Gaussian 82(TM) system (copyright 1983,
 Carnegie Mellon University). Gaussian is a federally registered
 trademark of Gaussian, Inc.
  
 This software contains proprietary and confidential information,
 including trade secrets, belonging to Gaussian, Inc.
  
 This software is provided under written license and may be
 used, copied, transmitted, or stored only in accord with that
 written license.
  
 The following legend is applicable only to US Government
 contracts under FAR:
  
                    RESTRICTED RIGHTS LEGEND
  
 Use, reproduction and disclosure by the US Government is
 subject to restrictions as set forth in subparagraphs (a)
 and (c) of the Commercial Computer Software - Restricted
 Rights clause in FAR 52.227-19.
  
 Gaussian, Inc.
 340 Quinnipiac St., Bldg. 40, Wallingford CT 06492
  
  
 ---------------------------------------------------------------
 Warning -- This program may not be used in any manner that
 competes with the business of Gaussian, Inc. or will provide
 assistance to any competitor of Gaussian, Inc.  The licensee
 of this program is prohibited from giving any competitor of
 Gaussian, Inc. access to this program.  By using this program,
 the user acknowledges that Gaussian, Inc. is engaged in the
 business of creating and licensing software in the field of
 computational chemistry and represents and warrants to the
 licensee that it is not a competitor of Gaussian, Inc. and that
 it will not use this program in any manner prohibited above.
 ---------------------------------------------------------------
  

 Cite this work as:
 Gaussian 16, Revision C.01,
 M. J. Frisch, G. W. Trucks, H. B. Schlegel, G. E. Scuseria, 
 M. A. Robb, J. R. Cheeseman, G. Scalmani, V. Barone, 
 G. A. Petersson, H. Nakatsuji, X. Li, M. Caricato, A. V. Marenich, 
 J. Bloino, B. G. Janesko, R. Gomperts, B. Mennucci, H. P. Hratchian, 
 J. V. Ortiz, A. F. Izmaylov, J. L. Sonnenberg, D. Williams-Young, 
 F. Ding, F. Lipparini, F. Egidi, J. Goings, B. Peng, A. Petrone, 
 T. Henderson, D. Ranasinghe, V. G. Zakrzewski, J. Gao, N. Rega, 
 G. Zheng, W. Liang, M. Hada, M. Ehara, K. Toyota, R. Fukuda, 
 J. Hasegawa, M. Ishida, T. Nakajima, Y. Honda, O. Kitao, H. Nakai, 
 T. Vreven, K. Throssell, J. A. Montgomery, Jr., J. E. Peralta, 
 F. Ogliaro, M. J. Bearpark, J. J. Heyd, E. N. Brothers, K. N. Kudin, 
 V. N. Staroverov, T. A. Keith, R. Kobayashi, J. Normand, 
 K. Raghavachari, A. P. Rendell, J. C. Burant, S. S. Iyengar, 
 J. Tomasi, M. Cossi, J. M. Millam, M. Klene, C. Adamo, R. Cammi, 
 J. W. Ochterski, R. L. Martin, K. Morokuma, O. Farkas, 
 J. B. Foresman, and D. J. Fox, Gaussian, Inc., Wallingford CT, 2019.
 
 ******************************************
 Gaussian 16:  AS64L-G16RevC.01  3-Jul-2019
                 6-May-2025 
 ******************************************
 %mem=20GB
 %nprocshared=32
 Will use up to   32 processors via shared memory.
 %chk=3-Me-ph-opt-freq-thf.chk
 ----------------------------------------------------------------------
 # opt=(calcfc,tight) freq 6-311+g(d,p) scrf=(smd,solvent=thf) nosymm s
 cf=(qc,fermi,xqc) geom=connectivity int=ultrafine m062x
 ----------------------------------------------------------------------
 1/7=10,10=4,18=20,19=15,26=6,38=1,57=2/1,3;
 2/9=110,12=2,15=1,17=6,18=5,40=1/2;
 3/5=4,6=6,7=111,11=2,25=1,30=1,70=32201,71=2,72=20,74=-55,75=-5,140=1/1,2,3;
 4//1;
 5/5=2,22=13,38=5,53=20/2;
 8/6=4,10=90,11=11/1;
 11/6=1,8=1,9=11,15=111,16=1,31=1/1,2,10;
 10/6=1,13=1,31=1/2;
 6/7=2,8=2,9=2,10=2,28=1/1;
 7/10=1,25=1,30=1/1,2,3,16;
 1/7=10,10=4,18=20,19=15,26=6/3(2);
 2/9=110,15=1/2;
 99//99;
 2/9=110,15=1/2;
 3/5=4,6=6,7=111,11=2,25=1,30=1,70=32205,71=1,72=20,74=-55,75=-5/1,2,3;
 4/5=5,16=3,69=1/1;
 5/5=2,22=13,38=5,53=20/2;
 7/30=1/1,2,3,16;
 1/7=10,18=20,19=15,26=6/3(-5);
 2/9=110,15=1/2;
 6/7=2,8=2,9=2,10=2,19=2,28=1/1;
 99/9=1/99;
 --------------------
 3-Me-ph-opt-freq-thf
 --------------------
 Symbolic Z-matrix:
 Charge =  0 Multiplicity = 2
 C                     6.24106   7.00456   5.19922 
 C                     5.13341   6.15516   5.28607 
 H                     5.19594   5.20552   5.81085 
 C                     3.91964   6.50895   4.70212 
 H                     3.06656   5.84376   4.77565 
 C                     3.80063   7.7166    4.02434 
 C                     4.88806   8.58982   3.91781 
 C                     6.09314   8.21686   4.5101 
 H                     6.94534   8.88585   4.43643 
 H                     2.85267   7.98956   3.57008 
 C                     4.74774   9.89259   3.1755 
 H                     5.66607   10.47856   3.23229 
 H                     4.52101   9.71545   2.12068 
 H                     3.93225   10.49129   3.5891 
 

 GradGradGradGradGradGradGradGradGradGradGradGradGradGradGradGradGradGrad
 Berny optimization.
 Initialization pass.
                           ----------------------------
                           !    Initial Parameters    !
                           ! (Angstroms and Degrees)  !
 --------------------------                            --------------------------
 ! Name  Definition              Value          Derivative Info.                !
 --------------------------------------------------------------------------------
 ! R1    R(1,2)                  1.3985         calculate D2E/DX2 analytically  !
 ! R2    R(1,8)                  1.4023         calculate D2E/DX2 analytically  !
 ! R3    R(2,3)                  1.0868         calculate D2E/DX2 analytically  !
 ! R4    R(2,4)                  1.3926         calculate D2E/DX2 analytically  !
 ! R5    R(4,5)                  1.0843         calculate D2E/DX2 analytically  !
 ! R6    R(4,6)                  1.39           calculate D2E/DX2 analytically  !
 ! R7    R(6,7)                  1.3987         calculate D2E/DX2 analytically  !
 ! R8    R(6,10)                 1.086          calculate D2E/DX2 analytically  !
 ! R9    R(7,8)                  1.3936         calculate D2E/DX2 analytically  !
 ! R10   R(7,11)                 1.506          calculate D2E/DX2 analytically  !
 ! R11   R(8,9)                  1.0859         calculate D2E/DX2 analytically  !
 ! R12   R(11,12)                1.0908         calculate D2E/DX2 analytically  !
 ! R13   R(11,13)                1.0934         calculate D2E/DX2 analytically  !
 ! R14   R(11,14)                1.093          calculate D2E/DX2 analytically  !
 ! A1    A(2,1,8)              118.1664         calculate D2E/DX2 analytically  !
 ! A2    A(1,2,3)              121.0055         calculate D2E/DX2 analytically  !
 ! A3    A(1,2,4)              120.6612         calculate D2E/DX2 analytically  !
 ! A4    A(3,2,4)              118.3331         calculate D2E/DX2 analytically  !
 ! A5    A(2,4,5)              120.0961         calculate D2E/DX2 analytically  !
 ! A6    A(2,4,6)              119.9878         calculate D2E/DX2 analytically  !
 ! A7    A(5,4,6)              119.9161         calculate D2E/DX2 analytically  !
 ! A8    A(4,6,7)              120.8633         calculate D2E/DX2 analytically  !
 ! A9    A(4,6,10)             119.806          calculate D2E/DX2 analytically  !
 ! A10   A(7,6,10)             119.3306         calculate D2E/DX2 analytically  !
 ! A11   A(6,7,8)              118.2189         calculate D2E/DX2 analytically  !
 ! A12   A(6,7,11)             120.3424         calculate D2E/DX2 analytically  !
 ! A13   A(8,7,11)             121.4382         calculate D2E/DX2 analytically  !
 ! A14   A(1,8,7)              122.1023         calculate D2E/DX2 analytically  !
 ! A15   A(1,8,9)              118.8915         calculate D2E/DX2 analytically  !
 ! A16   A(7,8,9)              119.0062         calculate D2E/DX2 analytically  !
 ! A17   A(7,11,12)            111.1367         calculate D2E/DX2 analytically  !
 ! A18   A(7,11,13)            110.7757         calculate D2E/DX2 analytically  !
 ! A19   A(7,11,14)            110.9084         calculate D2E/DX2 analytically  !
 ! A20   A(12,11,13)           108.1695         calculate D2E/DX2 analytically  !
 ! A21   A(12,11,14)           108.3118         calculate D2E/DX2 analytically  !
 ! A22   A(13,11,14)           107.4037         calculate D2E/DX2 analytically  !
 ! D1    D(8,1,2,3)           -179.8738         calculate D2E/DX2 analytically  !
 ! D2    D(8,1,2,4)              0.0069         calculate D2E/DX2 analytically  !
 ! D3    D(2,1,8,7)             -0.0502         calculate D2E/DX2 analytically  !
 ! D4    D(2,1,8,9)            179.9318         calculate D2E/DX2 analytically  !
 ! D5    D(1,2,4,5)           -179.957          calculate D2E/DX2 analytically  !
 ! D6    D(1,2,4,6)              0.0159         calculate D2E/DX2 analytically  !
 ! D7    D(3,2,4,5)             -0.0732         calculate D2E/DX2 analytically  !
 ! D8    D(3,2,4,6)            179.8997         calculate D2E/DX2 analytically  !
 ! D9    D(2,4,6,7)              0.0032         calculate D2E/DX2 analytically  !
 ! D10   D(2,4,6,10)          -179.9981         calculate D2E/DX2 analytically  !
 ! D11   D(5,4,6,7)            179.9762         calculate D2E/DX2 analytically  !
 ! D12   D(5,4,6,10)            -0.0251         calculate D2E/DX2 analytically  !
 ! D13   D(4,6,7,8)             -0.0444         calculate D2E/DX2 analytically  !
 ! D14   D(4,6,7,11)           179.7287         calculate D2E/DX2 analytically  !
 ! D15   D(10,6,7,8)           179.9569         calculate D2E/DX2 analytically  !
 ! D16   D(10,6,7,11)           -0.2701         calculate D2E/DX2 analytically  !
 ! D17   D(6,7,8,1)              0.0686         calculate D2E/DX2 analytically  !
 ! D18   D(6,7,8,9)           -179.9133         calculate D2E/DX2 analytically  !
 ! D19   D(11,7,8,1)          -179.7018         calculate D2E/DX2 analytically  !
 ! D20   D(11,7,8,9)             0.3163         calculate D2E/DX2 analytically  !
 ! D21   D(6,7,11,12)          176.8584         calculate D2E/DX2 analytically  !
 ! D22   D(6,7,11,13)          -62.8606         calculate D2E/DX2 analytically  !
 ! D23   D(6,7,11,14)           56.3084         calculate D2E/DX2 analytically  !
 ! D24   D(8,7,11,12)           -3.376          calculate D2E/DX2 analytically  !
 ! D25   D(8,7,11,13)          116.905          calculate D2E/DX2 analytically  !
 ! D26   D(8,7,11,14)         -123.926          calculate D2E/DX2 analytically  !
 --------------------------------------------------------------------------------
 Trust Radius=3.00D-01 FncErr=5.00D-06 GrdErr=5.00D-06 EigMax=2.50D+02 EigMin=1.00D-04
 Number of steps in this run=     72 maximum allowed number of steps=    100.
 GradGradGradGradGradGradGradGradGradGradGradGradGradGradGradGradGradGrad

                          Input orientation:                          
 ---------------------------------------------------------------------
 Center     Atomic      Atomic             Coordinates (Angstroms)
 Number     Number       Type             X           Y           Z
 ---------------------------------------------------------------------
      1          6           0        6.241060    7.004557    5.199217
      2          6           0        5.133412    6.155162    5.286066
      3          1           0        5.195935    5.205517    5.810854
      4          6           0        3.919637    6.508945    4.702115
      5          1           0        3.066555    5.843762    4.775649
      6          6           0        3.800625    7.716604    4.024339
      7          6           0        4.888064    8.589818    3.917810
      8          6           0        6.093144    8.216859    4.510103
      9          1           0        6.945341    8.885850    4.436431
     10          1           0        2.852669    7.989562    3.570082
     11          6           0        4.747740    9.892589    3.175504
     12          1           0        5.666074   10.478562    3.232291
     13          1           0        4.521008    9.715453    2.120677
     14          1           0        3.932245   10.491294    3.589099
 ---------------------------------------------------------------------
                    Distance matrix (angstroms):
                    1          2          3          4          5
     1  C    0.000000
     2  C    1.398534   0.000000
     3  H    2.168624   1.086801   0.000000
     4  C    2.425231   1.392627   2.134751   0.000000
     5  H    3.406514   2.151603   2.452196   1.084262   0.000000
     6  C    2.800549   2.409643   3.382911   1.389958   2.147292
     7  C    2.446560   2.803546   3.889973   2.425493   3.405085
     8  C    1.402296   2.402873   3.400753   2.770915   3.855171
     9  H    2.148748   3.385502   4.300501   3.856832   4.941088
    10  H    3.886581   3.392847   4.273507   2.147591   2.470546
    11  C    3.829641   4.309475   5.395794   3.803333   4.666888
    12  H    4.033375   4.815964   5.888550   4.579114   5.533609
    13  H    4.448027   4.803165   5.866213   4.160188   4.914703
    14  H    4.481121   4.808798   5.871333   4.134981   4.874102
                    6          7          8          9         10
     6  C    0.000000
     7  C    1.398705   0.000000
     8  C    2.396219   1.393602   0.000000
     9  H    3.380265   2.142193   1.085917   0.000000
    10  H    1.086037   2.150362   3.381713   4.278301   0.000000
    11  C    2.520408   1.505962   2.529691   2.726336   2.714498
    12  H    3.425734   2.154667   2.632583   2.371331   3.771534
    13  H    2.852767   2.152085   3.229048   3.453744   2.804074
    14  H    2.811701   2.153428   3.269677   3.517694   2.724795
                   11         12         13         14
    11  C    0.000000
    12  H    1.090838   0.000000
    13  H    1.093364   1.768954   0.000000
    14  H    1.092950   1.770208   1.762054   0.000000
 Symmetry turned off by external request.
 Stoichiometry    C7H7(2)
 Framework group  C1[X(C7H7)]
 Deg. of freedom    36
 Full point group                 C1      NOp   1
 Rotational constants (GHZ):           5.8340321           2.5640671           1.8010842
 Standard basis: 6-311+G(d,p) (5D, 7F)
   196 basis functions,   308 primitive gaussians,   203 cartesian basis functions
    25 alpha electrons       24 beta electrons
       nuclear repulsion energy       258.9920079865 Hartrees.
 NAtoms=   14 NActive=   14 NUniq=   14 SFac= 1.00D+00 NAtFMM=   60 NAOKFM=F Big=F
 Integral buffers will be    131072 words long.
 Raffenetti 2 integral format.
 Two-electron integral symmetry is turned off.
 Force inversion solution in PCM.
 ------------------------------------------------------------------------------
 Polarizable Continuum Model (PCM)
 =================================
 Model                : PCM.
 Atomic radii         : SMD-Coulomb.
 Polarization charges : Total charges.
 Charge compensation  : None.
 Solution method      : Matrix inversion.
 Cavity type          : VdW (van der Waals Surface) (Alpha=1.000).
 Cavity algorithm     : GePol (No added spheres)
                        Default sphere list used, NSphG=   14.
                        Lebedev-Laikov grids with approx.  5.0 points / Ang**2.
                        Smoothing algorithm: York/Karplus (Gamma=1.0000).
                        Polarization charges: spherical gaussians, with
                                              point-specific exponents (IZeta= 3).
                        Self-potential: point-specific (ISelfS= 7).
                        Self-field    : sphere-specific E.n sum rule (ISelfD= 2).
 1st derivatives      : Analytical E(r).r(x)/FMM algorithm (CHGder, D1EAlg=3).
                        Cavity 1st derivative terms included.
 2nd derivatives      : Analytical E(r).r(xy)/FMM algorithm (CHGder, D2EAlg=3).
                        Cavity 2nd derivative terms included.
 Solvent              : TetraHydroFuran, Eps=   7.425700 Eps(inf)=   1.974025
 ------------------------------------------------------------------------------
 Spheres list:
 ISph  on   Nord     Re0    Alpha      Xe            Ye            Ze
    1   C      1    1.8500  1.000      6.241060      7.004557      5.199217
    2   C      2    1.8500  1.000      5.133412      6.155162      5.286066
    3   H      3    1.2000  1.000      5.195935      5.205517      5.810854
    4   C      4    1.8500  1.000      3.919637      6.508945      4.702115
    5   H      5    1.2000  1.000      3.066555      5.843762      4.775649
    6   C      6    1.8500  1.000      3.800625      7.716604      4.024339
    7   C      7    1.8500  1.000      4.888064      8.589818      3.917810
    8   C      8    1.8500  1.000      6.093144      8.216859      4.510103
    9   H      9    1.2000  1.000      6.945341      8.885850      4.436431
   10   H     10    1.2000  1.000      2.852669      7.989562      3.570082
   11   C     11    1.8500  1.000      4.747740      9.892589      3.175504
   12   H     12    1.2000  1.000      5.666074     10.478562      3.232291
   13   H     13    1.2000  1.000      4.521008      9.715453      2.120677
   14   H     14    1.2000  1.000      3.932245     10.491294      3.589099
 ------------------------------------------------------------------------------
 ------------------------------------------------------------------------------
 Atomic radii for non-electrostatic terms: SMD-CDS.
 ------------------------------------------------------------------------------
 Nuclear repulsion after PCM non-electrostatic terms =      258.9890633546 Hartrees.
 One-electron integrals computed using PRISM.
 NBasis=   196 RedAO= T EigKep=  3.70D-06  NBF=   196
 NBsUse=   196 1.00D-06 EigRej= -1.00D+00 NBFU=   196
 ExpMin= 4.38D-02 ExpMax= 4.56D+03 ExpMxC= 6.82D+02 IAcc=3 IRadAn=         5 AccDes= 0.00D+00
 Harris functional with IExCor= 1009 and IRadAn=       5 diagonalized for initial guess.
 HarFok:  IExCor= 1009 AccDes= 0.00D+00 IRadAn=         5 IDoV= 1 UseB2=F ITyADJ=14
 ICtDFT=  3500011 ScaDFX=  1.000000  1.000000  1.000000  1.000000
 FoFCou: FMM=F IPFlag=           0 FMFlag=      100000 FMFlg1=           0
         NFxFlg=           0 DoJE=T BraDBF=F KetDBF=T FulRan=T
         wScrn=  0.000000 ICntrl=       500 IOpCl=  0 I1Cent=   200000004 NGrid=           0
         NMat0=    1 NMatS0=      1 NMatT0=    0 NMatD0=    1 NMtDS0=    0 NMtDT0=    0
 Symmetry not used in FoFCou.
 Initial guess <Sx>= 0.0000 <Sy>= 0.0000 <Sz>= 0.5000 <S**2>= 0.7500 S= 0.5000
 Requested convergence on RMS density matrix=1.00D-08 within 128 cycles.
 Requested convergence on MAX density matrix=1.00D-06.
 Requested convergence on             energy=1.00D-06.
 Level shift goal  0.100 maximum shift  0.100.
 No special actions if energy rises.
 Dynamic level shift is on during FON iterations.
 Inv3:  Mode=1 IEnd=     4099683.
 Iteration    1 A*A^-1 deviation from unit magnitude is 4.00D-15 for   1155.
 Iteration    1 A*A^-1 deviation from orthogonality  is 2.58D-15 for    824     45.
 Iteration    1 A^-1*A deviation from unit magnitude is 4.22D-15 for   1155.
 Iteration    1 A^-1*A deviation from orthogonality  is 1.58D-15 for   1057   1012.
 Error on total polarization charges =  0.04077
 SCF Done:  E(UM062X) =  -270.823621224     A.U. after   16 cycles
            NFock= 16  Conv=0.97D-08     -V/T= 2.0045
 <Sx>= 0.0000 <Sy>= 0.0000 <Sz>= 0.5000 <S**2>= 0.7635 S= 0.5067
 <L.S>=  0.00000000000    
 SMD-CDS (non-electrostatic) energy       (kcal/mol) =      -1.85
 (included in total energy above)
 Annihilation of the first spin contaminant:
 S**2 before annihilation     0.7635,   after     0.7501
 DoSCS=F DFT=T ScalE2(SS,OS)=  1.000000  1.000000
 Range of M.O.s used for correlation:     1   196
 NBasis=   196 NAE=    25 NBE=    24 NFC=     0 NFV=     0
 NROrb=    196 NOA=    25 NOB=    24 NVA=   171 NVB=   172

 **** Warning!!: The largest alpha MO coefficient is  0.12134060D+03


 **** Warning!!: The largest beta MO coefficient is  0.14395145D+03

 Symmetrizing basis deriv contribution to polar:
 IMax=3 JMax=2 DiffMx= 0.00D+00
 G2DrvN: will do    15 centers at a time, making    1 passes.
 Calling FoFCou, ICntrl=  3107 FMM=F I1Cent=   0 AccDes= 0.00D+00.
 NEqPCM:  Using equilibrium solvation (IEInf=0, Eps=   7.4257, EpsInf=   1.9740)
 G2PCM: DoFxE=T DoFxN=T DoGrad=T DoDP/DQ/DG/TGxP=FFFF NFrqRd=   0 IEInf=0 SqF1=F DoCFld=F IF1Alg=4.
 End of G2Drv F.D. properties file   721 does not exist.
 End of G2Drv F.D. properties file   722 does not exist.
 End of G2Drv F.D. properties file   788 does not exist.
          IDoAtm=11111111111111
 NEqPCM:  Using equilibrium solvation (IEInf=0, Eps=   7.4257, EpsInf=   1.9740)
          Differentiating once with respect to nuclear coordinates.
 Keep R1 and R2 ints in memory in canonical form, NReq=405643473.
          There are    45 degrees of freedom in the 1st order CPHF.  IDoFFX=6 NUNeed=     0.
     39 vectors produced by pass  0 Test12= 1.87D-14 2.22D-09 XBig12= 2.07D-01 1.03D-01.
 AX will form    39 AO Fock derivatives at one time.
     39 vectors produced by pass  1 Test12= 1.87D-14 2.22D-09 XBig12= 2.87D-02 6.01D-02.
     39 vectors produced by pass  2 Test12= 1.87D-14 2.22D-09 XBig12= 6.57D-04 6.83D-03.
     39 vectors produced by pass  3 Test12= 1.87D-14 2.22D-09 XBig12= 1.52D-05 1.38D-03.
     39 vectors produced by pass  4 Test12= 1.87D-14 2.22D-09 XBig12= 2.09D-07 1.09D-04.
     39 vectors produced by pass  5 Test12= 1.87D-14 2.22D-09 XBig12= 2.19D-09 7.82D-06.
     35 vectors produced by pass  6 Test12= 1.87D-14 2.22D-09 XBig12= 1.31D-11 4.20D-07.
     19 vectors produced by pass  7 Test12= 1.87D-14 2.22D-09 XBig12= 7.49D-14 2.83D-08.
 InvSVY:  IOpt=1 It=  1 EMax= 2.00D-15
 Solved reduced A of dimension   288 with    39 vectors.
 End of Minotr F.D. properties file   721 does not exist.
 End of Minotr F.D. properties file   722 does not exist.
 End of Minotr F.D. properties file   788 does not exist.

 **********************************************************************

            Population analysis using the SCF Density.

 **********************************************************************

 Alpha  occ. eigenvalues --  -10.57827 -10.55789 -10.54891 -10.54796 -10.54791
 Alpha  occ. eigenvalues --  -10.54056 -10.52822  -0.96987  -0.87398  -0.84403
 Alpha  occ. eigenvalues --   -0.77647  -0.68714  -0.66183  -0.58320  -0.53482
 Alpha  occ. eigenvalues --   -0.51101  -0.48812  -0.47545  -0.45324  -0.44275
 Alpha  occ. eigenvalues --   -0.43189  -0.40132  -0.32271  -0.31690  -0.30257
 Alpha virt. eigenvalues --    0.00929   0.01847   0.02039   0.03247   0.03924
 Alpha virt. eigenvalues --    0.05349   0.05598   0.06115   0.07203   0.08379
 Alpha virt. eigenvalues --    0.08543   0.08881   0.09741   0.11051   0.12740
 Alpha virt. eigenvalues --    0.13907   0.14166   0.14600   0.15571   0.16169
 Alpha virt. eigenvalues --    0.16322   0.18298   0.18994   0.19231   0.20202
 Alpha virt. eigenvalues --    0.21039   0.21842   0.22537   0.23101   0.24247
 Alpha virt. eigenvalues --    0.25010   0.25176   0.25517   0.25716   0.26058
 Alpha virt. eigenvalues --    0.27722   0.28252   0.28802   0.32723   0.35804
 Alpha virt. eigenvalues --    0.36610   0.37853   0.39883   0.45705   0.47564
 Alpha virt. eigenvalues --    0.50804   0.52034   0.55034   0.56221   0.57879
 Alpha virt. eigenvalues --    0.58977   0.60196   0.60385   0.61713   0.62927
 Alpha virt. eigenvalues --    0.63259   0.65199   0.66756   0.67384   0.67609
 Alpha virt. eigenvalues --    0.69265   0.70747   0.72899   0.73641   0.74553
 Alpha virt. eigenvalues --    0.78170   0.78730   0.80562   0.83748   0.86264
 Alpha virt. eigenvalues --    0.87569   0.89507   0.90625   0.91011   0.93557
 Alpha virt. eigenvalues --    0.96410   0.98885   0.99320   1.04360   1.05904
 Alpha virt. eigenvalues --    1.07880   1.10023   1.16068   1.18529   1.22586
 Alpha virt. eigenvalues --    1.23507   1.39474   1.41609   1.43371   1.51217
 Alpha virt. eigenvalues --    1.51730   1.53285   1.55587   1.57390   1.59082
 Alpha virt. eigenvalues --    1.61731   1.64121   1.64487   1.67826   1.68094
 Alpha virt. eigenvalues --    1.72312   1.72930   1.75335   1.77967   1.79318
 Alpha virt. eigenvalues --    1.84540   1.86067   1.89479   1.93711   1.94371
 Alpha virt. eigenvalues --    1.94511   1.95980   1.99714   2.02620   2.02745
 Alpha virt. eigenvalues --    2.04159   2.06001   2.11938   2.17208   2.22589
 Alpha virt. eigenvalues --    2.25503   2.33398   2.36086   2.41199   2.41476
 Alpha virt. eigenvalues --    2.44561   2.49242   2.51394   2.54203   2.54847
 Alpha virt. eigenvalues --    2.61663   2.63618   2.66238   2.69286   2.71783
 Alpha virt. eigenvalues --    2.73025   2.75073   2.75488   2.76649   2.77873
 Alpha virt. eigenvalues --    2.84996   2.87525   2.87999   2.92575   2.95303
 Alpha virt. eigenvalues --    2.98179   2.98352   3.08849   3.13699   3.20821
 Alpha virt. eigenvalues --    3.27050   3.40840   3.42585   3.56088   3.60151
 Alpha virt. eigenvalues --    3.69945   3.78546   3.84580   3.88748   4.04974
 Alpha virt. eigenvalues --    4.14405   4.17373   4.36852   4.83078  23.61481
 Alpha virt. eigenvalues --   23.97329  24.00918  24.05509  24.13499  24.16290
 Alpha virt. eigenvalues --   24.24121
  Beta  occ. eigenvalues --  -10.56781 -10.55715 -10.54878 -10.54787 -10.54730
  Beta  occ. eigenvalues --  -10.54090 -10.52818  -0.96314  -0.86912  -0.83114
  Beta  occ. eigenvalues --   -0.77432  -0.67869  -0.64769  -0.57723  -0.52724
  Beta  occ. eigenvalues --   -0.50377  -0.48693  -0.47163  -0.44561  -0.42940
  Beta  occ. eigenvalues --   -0.42534  -0.39660  -0.30893  -0.29801
  Beta virt. eigenvalues --   -0.06286   0.01809   0.02079   0.02124   0.03254
  Beta virt. eigenvalues --    0.04098   0.05354   0.05717   0.06615   0.07227
  Beta virt. eigenvalues --    0.08490   0.08822   0.09256   0.09512   0.11297
  Beta virt. eigenvalues --    0.12794   0.14034   0.14225   0.14432   0.15311
  Beta virt. eigenvalues --    0.16207   0.16430   0.18505   0.18994   0.19150
  Beta virt. eigenvalues --    0.20335   0.21561   0.21814   0.22795   0.23162
  Beta virt. eigenvalues --    0.24262   0.24763   0.25358   0.25579   0.25928
  Beta virt. eigenvalues --    0.26062   0.27684   0.28218   0.29025   0.32756
  Beta virt. eigenvalues --    0.36034   0.36785   0.38912   0.40602   0.45704
  Beta virt. eigenvalues --    0.47202   0.48988   0.51164   0.55008   0.56408
  Beta virt. eigenvalues --    0.57952   0.58735   0.60321   0.60464   0.60750
  Beta virt. eigenvalues --    0.62543   0.62849   0.65240   0.66861   0.67492
  Beta virt. eigenvalues --    0.67806   0.69483   0.71969   0.72711   0.73574
  Beta virt. eigenvalues --    0.74332   0.77965   0.79122   0.80155   0.83947
  Beta virt. eigenvalues --    0.85601   0.87426   0.88952   0.90583   0.91223
  Beta virt. eigenvalues --    0.93783   0.96262   0.99246   0.99718   1.04221
  Beta virt. eigenvalues --    1.06435   1.07915   1.10230   1.16496   1.18971
  Beta virt. eigenvalues --    1.23292   1.24269   1.39851   1.41836   1.43389
  Beta virt. eigenvalues --    1.51471   1.51869   1.55209   1.55835   1.57815
  Beta virt. eigenvalues --    1.59120   1.62072   1.64134   1.64593   1.68358
  Beta virt. eigenvalues --    1.68661   1.72548   1.73127   1.75679   1.78211
  Beta virt. eigenvalues --    1.79354   1.84588   1.86808   1.90033   1.93895
  Beta virt. eigenvalues --    1.94814   1.94907   1.96267   1.99606   2.03028
  Beta virt. eigenvalues --    2.03179   2.04357   2.06045   2.12019   2.17410
  Beta virt. eigenvalues --    2.22742   2.25720   2.33633   2.36786   2.41396
  Beta virt. eigenvalues --    2.41733   2.44682   2.49291   2.51475   2.54604
  Beta virt. eigenvalues --    2.55020   2.61629   2.63611   2.66262   2.69486
  Beta virt. eigenvalues --    2.72088   2.73101   2.75098   2.75884   2.76793
  Beta virt. eigenvalues --    2.78162   2.85358   2.87701   2.87747   2.92727
  Beta virt. eigenvalues --    2.95418   2.98206   2.98415   3.10892   3.13752
  Beta virt. eigenvalues --    3.21240   3.27346   3.41245   3.42917   3.56167
  Beta virt. eigenvalues --    3.60980   3.69959   3.79065   3.84608   3.88770
  Beta virt. eigenvalues --    4.05055   4.14381   4.17723   4.36940   4.83360
  Beta virt. eigenvalues --   23.61732  23.97794  24.01054  24.05524  24.13717
  Beta virt. eigenvalues --   24.16278  24.24161
          Condensed to atoms (all electrons):
               1          2          3          4          5          6
     1  C    5.698564   0.048188   0.017229   0.519967  -0.004962  -0.556210
     2  C    0.048188   5.623309   0.366276  -0.010610   0.011692   0.351763
     3  H    0.017229   0.366276   0.461990  -0.002343  -0.005743  -0.033139
     4  C    0.519967  -0.010610  -0.002343   5.783370   0.381816  -0.277992
     5  H   -0.004962   0.011692  -0.005743   0.381816   0.457406  -0.026795
     6  C   -0.556210   0.351763  -0.033139  -0.277992  -0.026795   7.158754
     7  C    0.556583  -0.701848   0.021869   0.684920   0.002191  -0.302961
     8  C   -0.337425   0.586665  -0.025563  -0.744795  -0.013753  -0.248384
     9  H    0.028928  -0.015576  -0.000069   0.005983   0.000045  -0.014293
    10  H    0.008904  -0.023533  -0.000137   0.019050  -0.004848   0.298025
    11  C   -0.267669   0.201728   0.000174  -0.374621   0.007151  -0.025445
    12  H    0.032351   0.000476  -0.000001  -0.001716   0.000006  -0.098614
    13  H    0.002567  -0.003852   0.000000   0.008168   0.000004  -0.002936
    14  H    0.000826  -0.002247  -0.000001   0.015985   0.000006   0.049827
               7          8          9         10         11         12
     1  C    0.556583  -0.337425   0.028928   0.008904  -0.267669   0.032351
     2  C   -0.701848   0.586665  -0.015576  -0.023533   0.201728   0.000476
     3  H    0.021869  -0.025563  -0.000069  -0.000137   0.000174  -0.000001
     4  C    0.684920  -0.744795   0.005983   0.019050  -0.374621  -0.001716
     5  H    0.002191  -0.013753   0.000045  -0.004848   0.007151   0.000006
     6  C   -0.302961  -0.248384  -0.014293   0.298025  -0.025445  -0.098614
     7  C    7.293599  -1.205125   0.036278   0.035025  -1.110403  -0.183627
     8  C   -1.205125   8.077210   0.277962  -0.017877   0.577313   0.166446
     9  H    0.036278   0.277962   0.466146  -0.000143   0.019014   0.001048
    10  H    0.035025  -0.017877  -0.000143   0.458194   0.034666   0.000314
    11  C   -1.110403   0.577313   0.019014   0.034666   6.523232   0.454297
    12  H   -0.183627   0.166446   0.001048   0.000314   0.454297   0.490914
    13  H    0.042136  -0.055769   0.000195  -0.000320   0.369447  -0.022010
    14  H   -0.003537  -0.080753   0.000209  -0.000538   0.379569  -0.023500
              13         14
     1  C    0.002567   0.000826
     2  C   -0.003852  -0.002247
     3  H    0.000000  -0.000001
     4  C    0.008168   0.015985
     5  H    0.000004   0.000006
     6  C   -0.002936   0.049827
     7  C    0.042136  -0.003537
     8  C   -0.055769  -0.080753
     9  H    0.000195   0.000209
    10  H   -0.000320  -0.000538
    11  C    0.369447   0.379569
    12  H   -0.022010  -0.023500
    13  H    0.488750  -0.030744
    14  H   -0.030744   0.496851
          Atomic-Atomic Spin Densities.
               1          2          3          4          5          6
     1  C    1.203777  -0.273586   0.012172   0.152275   0.005220  -0.045464
     2  C   -0.273586   0.272835  -0.009118  -0.185768  -0.007645   0.068183
     3  H    0.012172  -0.009118   0.021957   0.006309   0.001127  -0.005335
     4  C    0.152275  -0.185768   0.006309   0.211521   0.006011  -0.054334
     5  H    0.005220  -0.007645   0.001127   0.006011   0.004715  -0.002213
     6  C   -0.045464   0.068183  -0.005335  -0.054334  -0.002213  -0.031838
     7  C    0.122920  -0.107633   0.000667   0.079591   0.000890  -0.019931
     8  C   -0.241556   0.240490  -0.011787  -0.128589  -0.002668   0.025805
     9  H    0.011717  -0.013654   0.000114   0.006368   0.000015  -0.001499
    10  H   -0.000516  -0.000380  -0.000023  -0.003041  -0.000531   0.006869
    11  C   -0.126563   0.084613  -0.001545  -0.071693  -0.000881   0.023534
    12  H    0.000389  -0.000466   0.000001   0.000416   0.000001   0.000905
    13  H   -0.001005   0.000704  -0.000001  -0.000954  -0.000003   0.000329
    14  H   -0.001024   0.000728  -0.000001  -0.001023  -0.000004   0.000327
               7          8          9         10         11         12
     1  C    0.122920  -0.241556   0.011717  -0.000516  -0.126563   0.000389
     2  C   -0.107633   0.240490  -0.013654  -0.000380   0.084613  -0.000466
     3  H    0.000667  -0.011787   0.000114  -0.000023  -0.001545   0.000001
     4  C    0.079591  -0.128589   0.006368  -0.003041  -0.071693   0.000416
     5  H    0.000890  -0.002668   0.000015  -0.000531  -0.000881   0.000001
     6  C   -0.019931   0.025805  -0.001499   0.006869   0.023534   0.000905
     7  C    0.326205  -0.194310   0.011542  -0.004218  -0.190292   0.003723
     8  C   -0.194310   0.237404  -0.008067  -0.000275   0.150100  -0.002387
     9  H    0.011542  -0.008067   0.021516  -0.000021  -0.014034   0.000323
    10  H   -0.004218  -0.000275  -0.000021   0.005403   0.001049  -0.000017
    11  C   -0.190292   0.150100  -0.014034   0.001049   0.143501  -0.002679
    12  H    0.003723  -0.002387   0.000323  -0.000017  -0.002679   0.000283
    13  H   -0.005788   0.002674  -0.000076   0.000058   0.003763  -0.000171
    14  H   -0.006144   0.002731  -0.000077   0.000078   0.004141  -0.000163
              13         14
     1  C   -0.001005  -0.001024
     2  C    0.000704   0.000728
     3  H   -0.000001  -0.000001
     4  C   -0.000954  -0.001023
     5  H   -0.000003  -0.000004
     6  C    0.000329   0.000327
     7  C   -0.005788  -0.006144
     8  C    0.002674   0.002731
     9  H   -0.000076  -0.000077
    10  H    0.000058   0.000078
    11  C    0.003763   0.004141
    12  H   -0.000171  -0.000163
    13  H    0.001847  -0.000199
    14  H   -0.000199   0.001838
 Mulliken charges and spin densities:
               1          2
     1  C    0.252161   0.818755
     2  C   -0.432433   0.069304
     3  H    0.199457   0.014536
     4  C   -0.007182   0.017089
     5  H    0.195785   0.004032
     6  C   -0.271601  -0.034664
     7  C    0.834900   0.017223
     8  C   -0.956151   0.069566
     9  H    0.194273   0.014168
    10  H    0.193217   0.004434
    11  C   -0.788453   0.003013
    12  H    0.183614   0.000158
    13  H    0.204364   0.001178
    14  H    0.198049   0.001208
 Sum of Mulliken charges =   0.00000   1.00000
 Mulliken charges and spin densities with hydrogens summed into heavy atoms:
               1          2
     1  C    0.252161   0.818755
     2  C   -0.232976   0.083840
     4  C    0.188603   0.021121
     6  C   -0.078384  -0.030230
     7  C    0.834900   0.017223
     8  C   -0.761878   0.083734
    11  C   -0.202426   0.005557
 APT charges:
               1
     1  C    1.388268
     2  C   -1.326980
     3  H   -0.102291
     4  C    0.784049
     5  H   -0.820022
     6  C   -0.890107
     7  C    1.594370
     8  C   -1.589198
     9  H    1.902351
    10  H   -0.201266
    11  C   -2.729721
    12  H    1.703001
    13  H   -0.474192
    14  H    0.761737
 Sum of APT charges =   0.00000
 APT charges with hydrogens summed into heavy atoms:
               1
     1  C    1.388268
     2  C   -1.429271
     4  C   -0.035973
     6  C   -1.091373
     7  C    1.594370
     8  C    0.313154
    11  C   -0.739175
 Electronic spatial extent (au):  <R**2>=          18916.5216
 Charge=              0.0000 electrons
 Dipole moment (field-independent basis, Debye):
    X=             -1.2002    Y=              0.8160    Z=             -0.8349  Tot=              1.6744
 Quadrupole moment (field-independent basis, Debye-Ang):
   XX=            -51.8152   YY=            -25.2939   ZZ=            -51.3483
   XY=             -2.7667   XZ=             -8.6666   YZ=             -6.4616
 Traceless Quadrupole moment (field-independent basis, Debye-Ang):
   XX=             -8.9961   YY=             17.5252   ZZ=             -8.5291
   XY=             -2.7667   XZ=             -8.6666   YZ=             -6.4616
 Octapole moment (field-independent basis, Debye-Ang**2):
  XXX=           -686.7189  YYY=           -742.5481  ZZZ=           -628.2348  XYY=           -161.1698
  XXY=           -356.2408  XXZ=           -241.8753  XZZ=           -272.1816  YZZ=           -414.8432
  YYZ=           -212.0775  XYZ=            -55.2517
 Hexadecapole moment (field-independent basis, Debye-Ang**3):
 XXXX=          -6830.9139 YYYY=         -12858.1233 ZZZZ=          -5581.6124 XXXY=          -5021.9338
 XXXZ=          -3111.3692 YYYX=          -3843.1190 YYYZ=          -4091.1980 ZZZX=          -3219.2776
 ZZZY=          -4910.9062 XXYY=          -3484.4985 XXZZ=          -2302.1187 YYZZ=          -4149.4117
 XXYZ=          -1717.2375 YYXZ=          -1162.2928 ZZXY=          -2141.5426
 N-N= 2.589890633546D+02 E-N=-1.145747908477D+03  KE= 2.695992599315D+02
  Exact polarizability:       0.000       0.000       0.000       0.000       0.000       0.000
 Approx polarizability:     109.008       4.840     105.163      12.309     -20.522      78.529
                          Isotropic Fermi Contact Couplings
        Atom                 a.u.       MegaHertz       Gauss      10(-4) cm-1
     1  C(13)              0.53498     601.42074     214.60187     200.61236
     2  C(13)              0.02063      23.19744       8.27742       7.73783
     3  H(1)               0.00931      41.60564      14.84593      13.87815
     4  C(13)              0.04034      45.35194      16.18270      15.12778
     5  H(1)               0.00222       9.90500       3.53435       3.30395
     6  C(13)             -0.00955     -10.73362      -3.83002      -3.58035
     7  C(13)              0.03746      42.11466      15.02756      14.04794
     8  C(13)              0.02079      23.37428       8.34053       7.79682
     9  H(1)               0.00954      42.63251      15.21234      14.22067
    10  H(1)               0.00148       6.63298       2.36681       2.21252
    11  C(13)              0.00252       2.83038       1.00995       0.94411
    12  H(1)               0.00009       0.39071       0.13942       0.13033
    13  H(1)               0.00059       2.62609       0.93705       0.87597
    14  H(1)               0.00060       2.69520       0.96172       0.89902
 --------------------------------------------------------
       Center         ----  Spin Dipole Couplings  ----
                      3XX-RR        3YY-RR        3ZZ-RR
 --------------------------------------------------------
     1   Atom        0.576521     -0.416430     -0.160091
     2   Atom        0.090258     -0.010521     -0.079737
     3   Atom        0.001562      0.009223     -0.010785
     4   Atom        0.036063     -0.031316     -0.004748
     5   Atom        0.006581     -0.001640     -0.004942
     6   Atom        0.024980      0.007038     -0.032018
     7   Atom        0.026079     -0.025330     -0.000748
     8   Atom       -0.004367      0.046182     -0.041814
     9   Atom       -0.010146      0.016801     -0.006655
    10   Atom        0.000648      0.000782     -0.001430
    11   Atom       -0.005263      0.006546     -0.001283
    12   Atom       -0.001668      0.002732     -0.001064
    13   Atom       -0.001320     -0.000150      0.001470
    14   Atom       -0.000094      0.001185     -0.001092
 --------------------------------------------------------
                        XY            XZ            YZ
 --------------------------------------------------------
     1   Atom       -0.329838      0.482198     -0.078541
     2   Atom        0.060606      0.032075     -0.031221
     3   Atom        0.016387     -0.003963     -0.006372
     4   Atom       -0.018557      0.024831      0.005198
     5   Atom        0.005869      0.000726      0.000067
     6   Atom        0.006982      0.022713     -0.031073
     7   Atom       -0.027986      0.026546     -0.000892
     8   Atom       -0.024862      0.045500     -0.086890
     9   Atom        0.006248     -0.002302     -0.013796
    10   Atom        0.000685      0.000628     -0.001459
    11   Atom       -0.003621      0.002293     -0.008004
    12   Atom       -0.000319      0.000508     -0.002832
    13   Atom       -0.001262      0.001590     -0.001867
    14   Atom       -0.002524      0.000549     -0.001140
 --------------------------------------------------------


 ---------------------------------------------------------------------------------
              Anisotropic Spin Dipole Couplings in Principal Axis System
 ---------------------------------------------------------------------------------

       Atom             a.u.   MegaHertz   Gauss  10(-4) cm-1        Axes

              Baa    -0.5383   -72.230   -25.774   -24.093  0.3948  0.8594 -0.3249
     1 C(13)  Bbb    -0.3601   -48.317   -17.241   -16.117 -0.2789  0.4491  0.8489
              Bcc     0.8983   120.547    43.014    40.210  0.8754 -0.2445  0.4170
 
              Baa    -0.1067   -14.322    -5.110    -4.777 -0.2767  0.4499  0.8492
     2 C(13)  Bbb    -0.0133    -1.782    -0.636    -0.594 -0.3049  0.7969 -0.5215
              Bcc     0.1200    16.104     5.746     5.372  0.9113  0.4032  0.0833
 
              Baa    -0.0129    -6.871    -2.452    -2.292 -0.2819  0.4529  0.8458
     3 H(1)   Bbb    -0.0110    -5.843    -2.085    -1.949  0.7459 -0.4510  0.4901
              Bcc     0.0238    12.713     4.536     4.241  0.6035  0.7690 -0.2107
 
              Baa    -0.0404    -5.420    -1.934    -1.808  0.3281  0.8749 -0.3562
     4 C(13)  Bbb    -0.0101    -1.352    -0.483    -0.451 -0.2764  0.4494  0.8495
              Bcc     0.0505     6.772     2.416     2.259  0.9033 -0.1802  0.3893
 
              Baa    -0.0051    -2.744    -0.979    -0.915 -0.2765  0.4471  0.8507
     5 H(1)   Bbb    -0.0045    -2.414    -0.861    -0.805 -0.3710  0.7669 -0.5236
              Bcc     0.0097     5.158     1.841     1.721  0.8865  0.4604  0.0462
 
              Baa    -0.0559    -7.502    -2.677    -2.502 -0.2772  0.4499  0.8490
     6 C(13)  Bbb     0.0220     2.948     1.052     0.983  0.4137  0.8534 -0.3172
              Bcc     0.0339     4.553     1.625     1.519  0.8672 -0.2632  0.4227
 
              Baa    -0.0406    -5.454    -1.946    -1.819  0.4663  0.8352 -0.2916
     7 C(13)  Bbb    -0.0099    -1.323    -0.472    -0.441 -0.2762  0.4506  0.8489
              Bcc     0.0505     6.777     2.418     2.261  0.8404 -0.3153  0.4408
 
              Baa    -0.1027   -13.783    -4.918    -4.598 -0.2793  0.4487  0.8489
     8 C(13)  Bbb    -0.0140    -1.883    -0.672    -0.628  0.8917  0.4491  0.0560
              Bcc     0.1167    15.666     5.590     5.226 -0.3561  0.7726 -0.5256
 
              Baa    -0.0132    -7.037    -2.511    -2.347 -0.2786  0.4487  0.8491
     9 H(1)   Bbb    -0.0113    -6.010    -2.145    -2.005  0.9417 -0.0458  0.3332
              Bcc     0.0245    13.047     4.656     4.352  0.1884  0.8925 -0.4098
 
              Baa    -0.0024    -1.282    -0.458    -0.428 -0.2757  0.4486  0.8502
    10 H(1)   Bbb     0.0008     0.404     0.144     0.135  0.8814 -0.2349  0.4098
              Bcc     0.0016     0.878     0.313     0.293  0.3836  0.8623 -0.3306
 
              Baa    -0.0063    -0.847    -0.302    -0.283  0.7698 -0.1668 -0.6162
    11 C(13)  Bbb    -0.0063    -0.840    -0.300    -0.280  0.5940  0.5405  0.5959
              Bcc     0.0126     1.687     0.602     0.563 -0.2336  0.8247 -0.5151
 
              Baa    -0.0027    -1.423    -0.508    -0.475 -0.2964  0.4298  0.8529
    12 H(1)   Bbb    -0.0016    -0.865    -0.309    -0.289  0.9511  0.2145  0.2224
              Bcc     0.0043     2.288     0.816     0.763 -0.0873  0.8771 -0.4723
 
              Baa    -0.0022    -1.172    -0.418    -0.391  0.9051  0.3740 -0.2021
    13 H(1)   Bbb    -0.0013    -0.716    -0.255    -0.239 -0.1809  0.7691  0.6131
              Bcc     0.0035     1.887     0.673     0.630  0.3847 -0.5183  0.7638
 
              Baa    -0.0022    -1.147    -0.409    -0.383  0.6968  0.6388  0.3262
    14 H(1)   Bbb    -0.0013    -0.712    -0.254    -0.237 -0.4181 -0.0079  0.9084
              Bcc     0.0035     1.859     0.663     0.620 -0.5828  0.7694 -0.2616
 

 ---------------------------------------------------------------------------------

 D2PCM: PCM CHGder 2nd derivatives, FixD1E=F FixD2E=F DoIter=F DoCFld=F I1PDM=0
 Calling FoFJK, ICntrl=    100127 FMM=F ISym2X=0 I1Cent= 0 IOpClX= 1 NMat=1 NMatS=1 NMatT=0.
 -------------------------------------------------------------------
 Center     Atomic                   Forces (Hartrees/Bohr)
 Number     Number              X              Y              Z
 -------------------------------------------------------------------
      1        6          -0.046377975    0.012268778   -0.021626493
      2        6           0.022502615   -0.010167189    0.012811118
      3        1           0.001277470    0.000590962    0.000043283
      4        6           0.000431450    0.007903852   -0.004063381
      5        1           0.001112962   -0.000889943    0.000814201
      6        6          -0.000742353   -0.000017162   -0.000244583
      7        6          -0.005900111   -0.004063624    0.000245387
      8        6           0.025735365   -0.007453005    0.012328027
      9        1          -0.000004405    0.001819917   -0.000943287
     10        1           0.000323873    0.000038898    0.000080248
     11        6           0.001506875    0.000583830    0.000151728
     12        1          -0.000103856    0.000088810   -0.000070218
     13        1           0.000119395   -0.000334731    0.000217010
     14        1           0.000118694   -0.000369393    0.000256959
 -------------------------------------------------------------------
 Cartesian Forces:  Max     0.046377975 RMS     0.010415246
 FormGI is forming the generalized inverse of G from B-inverse, IUseBI=4.

 GradGradGradGradGradGradGradGradGradGradGradGradGradGradGradGradGradGrad
 Berny optimization.
 Internal  Forces:  Max     0.028638074 RMS     0.006015685
 Search for a local minimum.
 Step number   1 out of a maximum of   72
 All quantities printed in internal units (Hartrees-Bohrs-Radians)
 Mixed Optimization -- RFO/linear search
 Second derivative matrix not updated -- analytic derivatives used.
 ITU=  0
     Eigenvalues ---    0.00014   0.01658   0.01848   0.02039   0.02104
     Eigenvalues ---    0.02563   0.02683   0.02948   0.03188   0.05589
     Eigenvalues ---    0.05751   0.10626   0.11325   0.11517   0.12044
     Eigenvalues ---    0.12212   0.14292   0.14529   0.17182   0.18490
     Eigenvalues ---    0.19077   0.20505   0.25765   0.32401   0.33928
     Eigenvalues ---    0.34397   0.35061   0.35510   0.35734   0.36050
     Eigenvalues ---    0.36379   0.39394   0.41840   0.45755   0.47370
     Eigenvalues ---    0.50896
 RFO step:  Lambda=-9.15566281D-03 EMin= 1.42974576D-04
 Linear search not attempted -- first point.
 Iteration  1 RMS(Cart)=  0.02419576 RMS(Int)=  0.00106810
 Iteration  2 RMS(Cart)=  0.00161344 RMS(Int)=  0.00037535
 Iteration  3 RMS(Cart)=  0.00000075 RMS(Int)=  0.00037535
 Variable       Old X    -DE/DX   Delta X   Delta X   Delta X     New X
                                 (Linear)    (Quad)   (Total)
    R1        2.64285  -0.01960   0.00000  -0.05275  -0.05213   2.59072
    R2        2.64995  -0.01877   0.00000  -0.05454  -0.05393   2.59602
    R3        2.05376  -0.00042   0.00000  -0.00536  -0.00536   2.04840
    R4        2.63168   0.00235   0.00000   0.01320   0.01320   2.64488
    R5        2.04896  -0.00028   0.00000   0.00073   0.00073   2.04969
    R6        2.62664   0.00227   0.00000   0.00141   0.00081   2.62745
    R7        2.64317   0.00203   0.00000   0.00189   0.00129   2.64446
    R8        2.05231  -0.00031   0.00000  -0.00103  -0.00103   2.05128
    R9        2.63353   0.00210   0.00000   0.01384   0.01384   2.64737
   R10        2.84586  -0.00045   0.00000  -0.00039  -0.00039   2.84547
   R11        2.05209   0.00118   0.00000  -0.00086  -0.00086   2.05123
   R12        2.06138  -0.00005   0.00000  -0.00036  -0.00036   2.06103
   R13        2.06616  -0.00017   0.00000  -0.00028  -0.00028   2.06588
   R14        2.06538  -0.00019   0.00000  -0.00031  -0.00031   2.06507
    A1        2.06239   0.02864   0.00000   0.12631   0.12791   2.19030
    A2        2.11195   0.00613   0.00000   0.02771   0.02744   2.13939
    A3        2.10594  -0.01503   0.00000  -0.07624  -0.07571   2.03023
    A4        2.06530   0.00890   0.00000   0.04854   0.04827   2.11357
    A5        2.09607  -0.00187   0.00000  -0.00843  -0.00809   2.08798
    A6        2.09418   0.00042   0.00000   0.00718   0.00650   2.10068
    A7        2.09293   0.00145   0.00000   0.00125   0.00159   2.09452
    A8        2.10946   0.00056   0.00000   0.01189   0.01061   2.12007
    A9        2.09101  -0.00014   0.00000  -0.00535  -0.00471   2.08630
   A10        2.08271  -0.00042   0.00000  -0.00653  -0.00590   2.07682
   A11        2.06331  -0.00038   0.00000   0.00433   0.00364   2.06695
   A12        2.10037   0.00202   0.00000   0.00328   0.00363   2.10400
   A13        2.11950  -0.00165   0.00000  -0.00762  -0.00727   2.11223
   A14        2.13109  -0.01421   0.00000  -0.07346  -0.07295   2.05814
   A15        2.07505   0.00883   0.00000   0.05009   0.04983   2.12488
   A16        2.07705   0.00538   0.00000   0.02337   0.02311   2.10016
   A17        1.93970   0.00042   0.00000   0.00129   0.00129   1.94099
   A18        1.93340  -0.00049   0.00000  -0.00223  -0.00224   1.93116
   A19        1.93572  -0.00057   0.00000  -0.00224  -0.00224   1.93348
   A20        1.88791   0.00010   0.00000   0.00101   0.00101   1.88892
   A21        1.89040   0.00011   0.00000   0.00096   0.00096   1.89136
   A22        1.87455   0.00044   0.00000   0.00136   0.00135   1.87590
    D1       -3.13939  -0.00003   0.00000  -0.00101  -0.00101  -3.14040
    D2        0.00012   0.00000   0.00000  -0.00002  -0.00002   0.00010
    D3       -0.00088   0.00001   0.00000   0.00012   0.00012  -0.00076
    D4        3.14040   0.00000   0.00000  -0.00013  -0.00013   3.14027
    D5       -3.14084  -0.00001   0.00000  -0.00025  -0.00025  -3.14109
    D6        0.00028   0.00000   0.00000  -0.00011  -0.00011   0.00017
    D7       -0.00128   0.00002   0.00000   0.00069   0.00070  -0.00058
    D8        3.13984   0.00002   0.00000   0.00084   0.00084   3.14068
    D9        0.00006   0.00001   0.00000   0.00019   0.00020   0.00025
   D10       -3.14156   0.00000   0.00000   0.00009   0.00009  -3.14147
   D11        3.14118   0.00001   0.00000   0.00033   0.00034   3.14151
   D12       -0.00044   0.00000   0.00000   0.00023   0.00023  -0.00021
   D13       -0.00077  -0.00001   0.00000  -0.00014  -0.00014  -0.00091
   D14        3.13686  -0.00002   0.00000  -0.00034  -0.00034   3.13652
   D15        3.14084   0.00000   0.00000  -0.00004  -0.00003   3.14081
   D16       -0.00471  -0.00001   0.00000  -0.00024  -0.00023  -0.00495
   D17        0.00120  -0.00001   0.00000  -0.00008  -0.00007   0.00112
   D18       -3.14008   0.00000   0.00000   0.00017   0.00017  -3.13991
   D19       -3.13639  -0.00001   0.00000   0.00010   0.00010  -3.13629
   D20        0.00552   0.00000   0.00000   0.00034   0.00034   0.00586
   D21        3.08676  -0.00001   0.00000  -0.00008  -0.00008   3.08669
   D22       -1.09712   0.00007   0.00000   0.00055   0.00055  -1.09657
   D23        0.98277  -0.00005   0.00000  -0.00065  -0.00065   0.98212
   D24       -0.05892  -0.00001   0.00000  -0.00026  -0.00026  -0.05918
   D25        2.04038   0.00007   0.00000   0.00038   0.00037   2.04075
   D26       -2.16292  -0.00006   0.00000  -0.00083  -0.00083  -2.16374
         Item               Value     Threshold  Converged?
 Maximum Force            0.028638     0.000015     NO 
 RMS     Force            0.006016     0.000010     NO 
 Maximum Displacement     0.141464     0.000060     NO 
 RMS     Displacement     0.024083     0.000040     NO 
 Predicted change in Energy=-4.760533D-03
 GradGradGradGradGradGradGradGradGradGradGradGradGradGradGradGradGradGrad

                          Input orientation:                          
 ---------------------------------------------------------------------
 Center     Atomic      Atomic             Coordinates (Angstroms)
 Number     Number       Type             X           Y           Z
 ---------------------------------------------------------------------
      1          6           0        6.166200    7.022164    5.165621
      2          6           0        5.129455    6.134637    5.295812
      3          1           0        5.228948    5.194694    5.826464
      4          6           0        3.916901    6.505439    4.703249
      5          1           0        3.060808    5.843198    4.773964
      6          6           0        3.806125    7.715311    4.027145
      7          6           0        4.890662    8.592805    3.917290
      8          6           0        6.106743    8.227425    4.509100
      9          1           0        6.967546    8.885474    4.444122
     10          1           0        2.859288    7.989591    3.572650
     11          6           0        4.749373    9.895030    3.174627
     12          1           0        5.666576   10.482531    3.230249
     13          1           0        4.522021    9.714976    2.120583
     14          1           0        3.932862   10.491259    3.589360
 ---------------------------------------------------------------------
                    Distance matrix (angstroms):
                    1          2          3          4          5
     1  C    0.000000
     2  C    1.370947   0.000000
     3  H    2.157499   1.083966   0.000000
     4  C    2.353750   1.399612   2.168209   0.000000
     5  H    3.344670   2.153267   2.495825   1.084647   0.000000
     6  C    2.710449   2.420589   3.408149   1.390388   2.148963
     7  C    2.377444   2.828416   3.912357   2.433729   3.412124
     8  C    1.373756   2.440035   3.421027   2.792550   3.877165
     9  H    2.152821   3.416294   4.307603   3.877905   4.962544
    10  H    3.795937   3.400559   4.301908   2.144646   2.467948
    11  C    3.771580   4.334103   5.418061   3.810384   4.671881
    12  H    3.996176   4.843474   5.907035   4.587848   5.540442
    13  H    4.384839   4.823887   5.887804   4.163827   4.915916
    14  H    4.416675   4.829490   5.893901   4.138570   4.875268
                    6          7          8          9         10
     6  C    0.000000
     7  C    1.399387   0.000000
     8  C    2.405698   1.400927   0.000000
     9  H    3.396725   2.162558   1.085465   0.000000
    10  H    1.085493   2.146887   3.388136   4.294165   0.000000
    11  C    2.523426   1.505756   2.530648   2.747929   2.713216
    12  H    3.428386   2.155257   2.629584   2.390942   3.769994
    13  H    2.854145   2.150190   3.229422   3.473831   2.801808
    14  H    2.813113   2.151522   3.270570   3.538145   2.722349
                   11         12         13         14
    11  C    0.000000
    12  H    1.090648   0.000000
    13  H    1.093214   1.769324   0.000000
    14  H    1.092787   1.770537   1.762676   0.000000
 Symmetry turned off by external request.
 Stoichiometry    C7H7(2)
 Framework group  C1[X(C7H7)]
 Deg. of freedom    36
 Full point group                 C1      NOp   1
 Rotational constants (GHZ):           5.9606578           2.5573105           1.8096085
 Standard basis: 6-311+G(d,p) (5D, 7F)
   196 basis functions,   308 primitive gaussians,   203 cartesian basis functions
    25 alpha electrons       24 beta electrons
       nuclear repulsion energy       259.7610860649 Hartrees.
 NAtoms=   14 NActive=   14 NUniq=   14 SFac= 1.00D+00 NAtFMM=   60 NAOKFM=F Big=F
 Integral buffers will be    131072 words long.
 Raffenetti 2 integral format.
 Two-electron integral symmetry is turned off.
 ------------------------------------------------------------------------------
 Polarizable Continuum Model (PCM)
 =================================
 Model                : PCM.
 Atomic radii         : SMD-Coulomb.
 Polarization charges : Total charges.
 Charge compensation  : None.
 Solution method      : Matrix inversion.
 Cavity type          : VdW (van der Waals Surface) (Alpha=1.000).
 Cavity algorithm     : GePol (No added spheres)
                        Default sphere list used, NSphG=   14.
                        Lebedev-Laikov grids with approx.  5.0 points / Ang**2.
                        Smoothing algorithm: York/Karplus (Gamma=1.0000).
                        Polarization charges: spherical gaussians, with
                                              point-specific exponents (IZeta= 3).
                        Self-potential: point-specific (ISelfS= 7).
                        Self-field    : sphere-specific E.n sum rule (ISelfD= 2).
 1st derivatives      : Analytical E(r).r(x)/FMM algorithm (CHGder, D1EAlg=3).
                        Cavity 1st derivative terms included.
 Solvent              : TetraHydroFuran, Eps=   7.425700 Eps(inf)=   1.974025
 ------------------------------------------------------------------------------
 Spheres list:
 ISph  on   Nord     Re0    Alpha      Xe            Ye            Ze
    1   C      1    1.8500  1.000      6.166200      7.022164      5.165621
    2   C      2    1.8500  1.000      5.129455      6.134637      5.295812
    3   H      3    1.2000  1.000      5.228948      5.194694      5.826464
    4   C      4    1.8500  1.000      3.916901      6.505439      4.703249
    5   H      5    1.2000  1.000      3.060808      5.843198      4.773964
    6   C      6    1.8500  1.000      3.806125      7.715311      4.027145
    7   C      7    1.8500  1.000      4.890662      8.592805      3.917290
    8   C      8    1.8500  1.000      6.106743      8.227425      4.509100
    9   H      9    1.2000  1.000      6.967546      8.885474      4.444122
   10   H     10    1.2000  1.000      2.859288      7.989591      3.572650
   11   C     11    1.8500  1.000      4.749373      9.895030      3.174627
   12   H     12    1.2000  1.000      5.666576     10.482531      3.230249
   13   H     13    1.2000  1.000      4.522021      9.714976      2.120583
   14   H     14    1.2000  1.000      3.932862     10.491259      3.589360
 ------------------------------------------------------------------------------
 ------------------------------------------------------------------------------
 Atomic radii for non-electrostatic terms: SMD-CDS.
 ------------------------------------------------------------------------------
 Nuclear repulsion after PCM non-electrostatic terms =      259.7580697988 Hartrees.
 One-electron integrals computed using PRISM.
 NBasis=   196 RedAO= T EigKep=  3.71D-06  NBF=   196
 NBsUse=   196 1.00D-06 EigRej= -1.00D+00 NBFU=   196
 Initial guess from the checkpoint file:  "3-Me-ph-opt-freq-thf.chk"
 B after Tr=    -0.025680    0.017896   -0.017255
         Rot=    1.000000   -0.000209    0.000364    0.000691 Ang=  -0.09 deg.
 Initial guess <Sx>= 0.0000 <Sy>= 0.0000 <Sz>= 0.5000 <S**2>= 0.7631 S= 0.5065
 ExpMin= 4.38D-02 ExpMax= 4.56D+03 ExpMxC= 6.82D+02 IAcc=3 IRadAn=         5 AccDes= 0.00D+00
 Harris functional with IExCor= 1009 and IRadAn=       5 diagonalized for initial guess.
 HarFok:  IExCor= 1009 AccDes= 0.00D+00 IRadAn=         5 IDoV= 1 UseB2=F ITyADJ=14
 ICtDFT=  3500011 ScaDFX=  1.000000  1.000000  1.000000  1.000000
 FoFCou: FMM=F IPFlag=           0 FMFlag=      100000 FMFlg1=           0
         NFxFlg=           0 DoJE=T BraDBF=F KetDBF=T FulRan=T
         wScrn=  0.000000 ICntrl=       500 IOpCl=  0 I1Cent=   200000004 NGrid=           0
         NMat0=    1 NMatS0=      1 NMatT0=    0 NMatD0=    1 NMtDS0=    0 NMtDT0=    0
 Symmetry not used in FoFCou.
 Requested convergence on RMS density matrix=1.00D-08 within 128 cycles.
 Requested convergence on MAX density matrix=1.00D-06.
 Requested convergence on             energy=1.00D-06.
 Level shift goal  0.100 maximum shift  0.100.
 No special actions if energy rises.
 Dynamic level shift is on during FON iterations.
 Inv3:  Mode=1 IEnd=     4071675.
 Iteration    1 A*A^-1 deviation from unit magnitude is 3.44D-15 for   1136.
 Iteration    1 A*A^-1 deviation from orthogonality  is 2.46D-15 for   1161   1018.
 Iteration    1 A^-1*A deviation from unit magnitude is 3.55D-15 for   1133.
 Iteration    1 A^-1*A deviation from orthogonality  is 2.14D-15 for   1148   1008.
 Error on total polarization charges =  0.04083
 SCF Done:  E(UM062X) =  -270.828378487     A.U. after   15 cycles
            NFock= 15  Conv=0.33D-08     -V/T= 2.0042
 <Sx>= 0.0000 <Sy>= 0.0000 <Sz>= 0.5000 <S**2>= 0.7618 S= 0.5059
 <L.S>=  0.00000000000    
 SMD-CDS (non-electrostatic) energy       (kcal/mol) =      -1.89
 (included in total energy above)
 Annihilation of the first spin contaminant:
 S**2 before annihilation     0.7618,   after     0.7501
 D1PCM: PCM CHGder 1st derivatives, ID1Alg=3 FixD1E=F DoIter=F DoCFld=F I1PDM=0.
 Calling FoFJK, ICntrl=      2127 FMM=F ISym2X=0 I1Cent= 0 IOpClX= 1 NMat=1 NMatS=1 NMatT=0.
 -------------------------------------------------------------------
 Center     Atomic                   Forces (Hartrees/Bohr)
 Number     Number              X              Y              Z
 -------------------------------------------------------------------
      1        6          -0.001118980    0.000307917   -0.000485616
      2        6           0.000295583   -0.002139623    0.001251294
      3        1           0.000042548   -0.000130849    0.000052766
      4        6          -0.000593010    0.000157440   -0.000288858
      5        1          -0.000033407   -0.000060512    0.000005746
      6        6          -0.000344304    0.000108230   -0.000175330
      7        6          -0.000510113    0.000317330   -0.000328058
      8        6           0.002261497    0.001092241    0.000129260
      9        1          -0.000051869    0.000306717   -0.000162776
     10        1           0.000025721   -0.000006911    0.000003444
     11        6           0.000041339    0.000077034   -0.000027652
     12        1          -0.000005601   -0.000002476    0.000013194
     13        1           0.000003157   -0.000011957    0.000002040
     14        1          -0.000012560   -0.000014580    0.000010547
 -------------------------------------------------------------------
 Cartesian Forces:  Max     0.002261497 RMS     0.000605276

 GradGradGradGradGradGradGradGradGradGradGradGradGradGradGradGradGradGrad
 Berny optimization.
 Using GEDIIS/GDIIS optimizer.
 FormGI is forming the generalized inverse of G from B-inverse, IUseBI=4.
 Internal  Forces:  Max     0.001501355 RMS     0.000428965
 Search for a local minimum.
 Step number   2 out of a maximum of   72
 All quantities printed in internal units (Hartrees-Bohrs-Radians)
 Mixed Optimization -- En-DIIS/RFO-DIIS
 Update second derivatives using D2CorX and points    1    2
 DE= -4.76D-03 DEPred=-4.76D-03 R= 9.99D-01
 TightC=F SS=  1.41D+00  RLast= 2.00D-01 DXNew= 5.0454D-01 5.9939D-01
 Trust test= 9.99D-01 RLast= 2.00D-01 DXMaxT set to 5.05D-01
 ITU=  1  0
 Use linear search instead of GDIIS.
     Eigenvalues ---    0.00014   0.01658   0.01848   0.02038   0.02102
     Eigenvalues ---    0.02563   0.02683   0.02942   0.03186   0.05589
     Eigenvalues ---    0.05751   0.10623   0.11321   0.11518   0.12044
     Eigenvalues ---    0.12212   0.14291   0.14529   0.17181   0.18492
     Eigenvalues ---    0.18888   0.20138   0.25759   0.32402   0.33928
     Eigenvalues ---    0.34397   0.35062   0.35540   0.35746   0.36050
     Eigenvalues ---    0.36381   0.40119   0.41849   0.45788   0.47397
     Eigenvalues ---    0.51265
 RFO step:  Lambda=-2.69449440D-05 EMin= 1.42974554D-04
 Quartic linear search produced a step of  0.04118.
 Iteration  1 RMS(Cart)=  0.00385919 RMS(Int)=  0.00002010
 Iteration  2 RMS(Cart)=  0.00001209 RMS(Int)=  0.00001659
 Iteration  3 RMS(Cart)=  0.00000000 RMS(Int)=  0.00001659
 Variable       Old X    -DE/DX   Delta X   Delta X   Delta X     New X
                                 (Linear)    (Quad)   (Total)
    R1        2.59072   0.00110  -0.00215   0.00428   0.00216   2.59288
    R2        2.59602   0.00106  -0.00222   0.00398   0.00179   2.59781
    R3        2.04840   0.00014  -0.00022   0.00019  -0.00003   2.04837
    R4        2.64488   0.00087   0.00054   0.00159   0.00213   2.64702
    R5        2.04969   0.00006   0.00003   0.00022   0.00025   2.04994
    R6        2.62745   0.00077   0.00003   0.00103   0.00103   2.62849
    R7        2.64446   0.00077   0.00005   0.00101   0.00104   2.64550
    R8        2.05128  -0.00003  -0.00004  -0.00003  -0.00008   2.05121
    R9        2.64737   0.00085   0.00057   0.00177   0.00234   2.64971
   R10        2.84547   0.00004  -0.00002   0.00015   0.00014   2.84560
   R11        2.05123   0.00016  -0.00004   0.00002  -0.00001   2.05122
   R12        2.06103  -0.00001  -0.00001  -0.00001  -0.00003   2.06100
   R13        2.06588   0.00000  -0.00001   0.00007   0.00006   2.06594
   R14        2.06507   0.00001  -0.00001  -0.00003  -0.00004   2.06503
    A1        2.19030   0.00150   0.00527   0.00230   0.00763   2.19794
    A2        2.13939   0.00051   0.00113   0.00058   0.00169   2.14108
    A3        2.03023  -0.00108  -0.00312  -0.00218  -0.00528   2.02495
    A4        2.11357   0.00057   0.00199   0.00161   0.00358   2.11715
    A5        2.08798  -0.00007  -0.00033   0.00032   0.00001   2.08799
    A6        2.10068   0.00009   0.00027   0.00030   0.00054   2.10122
    A7        2.09452  -0.00002   0.00007  -0.00062  -0.00054   2.09398
    A8        2.12007   0.00047   0.00044   0.00152   0.00190   2.12197
    A9        2.08630  -0.00023  -0.00019  -0.00083  -0.00099   2.08530
   A10        2.07682  -0.00023  -0.00024  -0.00069  -0.00090   2.07591
   A11        2.06695   0.00011   0.00015   0.00058   0.00070   2.06764
   A12        2.10400  -0.00005   0.00015  -0.00058  -0.00041   2.10359
   A13        2.11223  -0.00006  -0.00030  -0.00001  -0.00029   2.11194
   A14        2.05814  -0.00109  -0.00300  -0.00251  -0.00549   2.05265
   A15        2.12488   0.00087   0.00205   0.00292   0.00496   2.12985
   A16        2.10016   0.00022   0.00095  -0.00042   0.00052   2.10069
   A17        1.94099   0.00001   0.00005  -0.00007  -0.00002   1.94097
   A18        1.93116  -0.00002  -0.00009  -0.00014  -0.00023   1.93093
   A19        1.93348  -0.00003  -0.00009  -0.00001  -0.00011   1.93337
   A20        1.88892   0.00001   0.00004  -0.00003   0.00001   1.88893
   A21        1.89136   0.00001   0.00004   0.00025   0.00029   1.89165
   A22        1.87590   0.00001   0.00006   0.00002   0.00008   1.87598
    D1       -3.14040  -0.00002  -0.00004  -0.00074  -0.00078  -3.14118
    D2        0.00010  -0.00001   0.00000  -0.00040  -0.00040  -0.00031
    D3       -0.00076   0.00001   0.00000   0.00046   0.00046  -0.00030
    D4        3.14027   0.00000  -0.00001   0.00011   0.00010   3.14038
    D5       -3.14109   0.00000  -0.00001   0.00009   0.00008  -3.14102
    D6        0.00017   0.00000   0.00000   0.00003   0.00003   0.00019
    D7       -0.00058   0.00001   0.00003   0.00042   0.00044  -0.00014
    D8        3.14068   0.00001   0.00003   0.00036   0.00039   3.14107
    D9        0.00025   0.00000   0.00001   0.00026   0.00027   0.00052
   D10       -3.14147   0.00000   0.00000   0.00024   0.00024  -3.14122
   D11        3.14151   0.00001   0.00001   0.00021   0.00022  -3.14145
   D12       -0.00021   0.00000   0.00001   0.00018   0.00019  -0.00001
   D13       -0.00091   0.00000  -0.00001  -0.00021  -0.00022  -0.00113
   D14        3.13652   0.00000  -0.00001  -0.00070  -0.00072   3.13580
   D15        3.14081   0.00000   0.00000  -0.00019  -0.00019   3.14062
   D16       -0.00495   0.00000  -0.00001  -0.00068  -0.00069  -0.00564
   D17        0.00112  -0.00001   0.00000  -0.00013  -0.00013   0.00099
   D18       -3.13991   0.00000   0.00001   0.00021   0.00022  -3.13970
   D19       -3.13629  -0.00001   0.00000   0.00036   0.00037  -3.13592
   D20        0.00586   0.00000   0.00001   0.00071   0.00072   0.00658
   D21        3.08669   0.00000   0.00000  -0.00785  -0.00785   3.07883
   D22       -1.09657   0.00000   0.00002  -0.00803  -0.00801  -1.10458
   D23        0.98212  -0.00001  -0.00003  -0.00811  -0.00813   0.97399
   D24       -0.05918   0.00000  -0.00001  -0.00835  -0.00836  -0.06754
   D25        2.04075   0.00001   0.00002  -0.00853  -0.00852   2.03223
   D26       -2.16374  -0.00001  -0.00003  -0.00861  -0.00864  -2.17239
         Item               Value     Threshold  Converged?
 Maximum Force            0.001501     0.000015     NO 
 RMS     Force            0.000429     0.000010     NO 
 Maximum Displacement     0.012253     0.000060     NO 
 RMS     Displacement     0.003858     0.000040     NO 
 Predicted change in Energy=-2.094655D-05
 GradGradGradGradGradGradGradGradGradGradGradGradGradGradGradGradGradGrad

                          Input orientation:                          
 ---------------------------------------------------------------------
 Center     Atomic      Atomic             Coordinates (Angstroms)
 Number     Number       Type             X           Y           Z
 ---------------------------------------------------------------------
      1          6           0        6.163762    7.021602    5.163440
      2          6           0        5.128625    6.130919    5.296900
      3          1           0        5.230051    5.191019    5.827224
      4          6           0        3.915782    6.505035    4.704342
      5          1           0        3.058199    5.844468    4.774691
      6          6           0        3.806673    7.716012    4.028821
      7          6           0        4.891604    8.593700    3.917425
      8          6           0        6.109907    8.228700    4.507830
      9          1           0        6.970545    8.886843    4.441738
     10          1           0        2.859645    7.991308    3.575438
     11          6           0        4.749075    9.895542    3.174181
     12          1           0        5.663515   10.486792    3.235029
     13          1           0        4.528505    9.714502    2.118832
     14          1           0        3.927622   10.488092    3.584345
 ---------------------------------------------------------------------
                    Distance matrix (angstroms):
                    1          2          3          4          5
     1  C    0.000000
     2  C    1.372092   0.000000
     3  H    2.159504   1.083948   0.000000
     4  C    2.351813   1.400741   2.171360   0.000000
     5  H    3.343843   2.154395   2.500352   1.084779   0.000000
     6  C    2.706554   2.422416   3.411136   1.390934   2.149235
     7  C    2.375381   2.832741   3.916647   2.435978   3.413877
     8  C    1.374704   2.446677   3.426726   2.797110   3.881842
     9  H    2.156590   3.423316   4.313700   3.882467   4.967229
    10  H    3.792001   3.401874   4.304763   2.144495   2.467094
    11  C    3.770680   4.338477   5.422409   3.811995   4.672461
    12  H    3.997069   4.848819   5.912070   4.589971   5.541606
    13  H    4.381257   4.827248   5.891200   4.166649   4.918592
    14  H    4.417060   4.833240   5.897950   4.137545   4.871967
                    6          7          8          9         10
     6  C    0.000000
     7  C    1.399936   0.000000
     8  C    2.407735   1.402165   0.000000
     9  H    3.398740   2.163986   1.085458   0.000000
    10  H    1.085452   2.146786   3.389678   4.295575   0.000000
    11  C    2.523665   1.505828   2.531570   2.749383   2.712391
    12  H    3.428584   2.155297   2.630260   2.392553   3.768953
    13  H    2.857107   2.150110   3.227345   3.470515   2.806455
    14  H    2.810092   2.151493   3.274149   3.543798   2.715619
                   11         12         13         14
    11  C    0.000000
    12  H    1.090632   0.000000
    13  H    1.093246   1.769344   0.000000
    14  H    1.092765   1.770691   1.762734   0.000000
 Symmetry turned off by external request.
 Stoichiometry    C7H7(2)
 Framework group  C1[X(C7H7)]
 Deg. of freedom    36
 Full point group                 C1      NOp   1
 Rotational constants (GHZ):           5.9599434           2.5537768           1.8077747
 Standard basis: 6-311+G(d,p) (5D, 7F)
   196 basis functions,   308 primitive gaussians,   203 cartesian basis functions
    25 alpha electrons       24 beta electrons
       nuclear repulsion energy       259.6378493481 Hartrees.
 NAtoms=   14 NActive=   14 NUniq=   14 SFac= 1.00D+00 NAtFMM=   60 NAOKFM=F Big=F
 Integral buffers will be    131072 words long.
 Raffenetti 2 integral format.
 Two-electron integral symmetry is turned off.
 ------------------------------------------------------------------------------
 Polarizable Continuum Model (PCM)
 =================================
 Model                : PCM.
 Atomic radii         : SMD-Coulomb.
 Polarization charges : Total charges.
 Charge compensation  : None.
 Solution method      : Matrix inversion.
 Cavity type          : VdW (van der Waals Surface) (Alpha=1.000).
 Cavity algorithm     : GePol (No added spheres)
                        Default sphere list used, NSphG=   14.
                        Lebedev-Laikov grids with approx.  5.0 points / Ang**2.
                        Smoothing algorithm: York/Karplus (Gamma=1.0000).
                        Polarization charges: spherical gaussians, with
                                              point-specific exponents (IZeta= 3).
                        Self-potential: point-specific (ISelfS= 7).
                        Self-field    : sphere-specific E.n sum rule (ISelfD= 2).
 1st derivatives      : Analytical E(r).r(x)/FMM algorithm (CHGder, D1EAlg=3).
                        Cavity 1st derivative terms included.
 Solvent              : TetraHydroFuran, Eps=   7.425700 Eps(inf)=   1.974025
 ------------------------------------------------------------------------------
 Spheres list:
 ISph  on   Nord     Re0    Alpha      Xe            Ye            Ze
    1   C      1    1.8500  1.000      6.163762      7.021602      5.163440
    2   C      2    1.8500  1.000      5.128625      6.130919      5.296900
    3   H      3    1.2000  1.000      5.230051      5.191019      5.827224
    4   C      4    1.8500  1.000      3.915782      6.505035      4.704342
    5   H      5    1.2000  1.000      3.058199      5.844468      4.774691
    6   C      6    1.8500  1.000      3.806673      7.716012      4.028821
    7   C      7    1.8500  1.000      4.891604      8.593700      3.917425
    8   C      8    1.8500  1.000      6.109907      8.228700      4.507830
    9   H      9    1.2000  1.000      6.970545      8.886843      4.441738
   10   H     10    1.2000  1.000      2.859645      7.991308      3.575438
   11   C     11    1.8500  1.000      4.749075      9.895542      3.174181
   12   H     12    1.2000  1.000      5.663515     10.486792      3.235029
   13   H     13    1.2000  1.000      4.528505      9.714502      2.118832
   14   H     14    1.2000  1.000      3.927622     10.488092      3.584345
 ------------------------------------------------------------------------------
 ------------------------------------------------------------------------------
 Atomic radii for non-electrostatic terms: SMD-CDS.
 ------------------------------------------------------------------------------
 Nuclear repulsion after PCM non-electrostatic terms =      259.6348386612 Hartrees.
 One-electron integrals computed using PRISM.
 NBasis=   196 RedAO= T EigKep=  3.75D-06  NBF=   196
 NBsUse=   196 1.00D-06 EigRej= -1.00D+00 NBFU=   196
 Initial guess from the checkpoint file:  "3-Me-ph-opt-freq-thf.chk"
 B after Tr=    -0.010362    0.004114    0.003896
         Rot=    1.000000   -0.000033   -0.000261    0.000206 Ang=  -0.04 deg.
 Initial guess <Sx>= 0.0000 <Sy>= 0.0000 <Sz>= 0.5000 <S**2>= 0.7618 S= 0.5059
 Requested convergence on RMS density matrix=1.00D-08 within 128 cycles.
 Requested convergence on MAX density matrix=1.00D-06.
 Requested convergence on             energy=1.00D-06.
 Level shift goal  0.100 maximum shift  0.100.
 No special actions if energy rises.
 Dynamic level shift is on during FON iterations.
 Inv3:  Mode=1 IEnd=     4057707.
 Iteration    1 A*A^-1 deviation from unit magnitude is 4.00D-15 for   1157.
 Iteration    1 A*A^-1 deviation from orthogonality  is 2.67D-15 for   1159   1016.
 Iteration    1 A^-1*A deviation from unit magnitude is 3.55D-15 for   1157.
 Iteration    1 A^-1*A deviation from orthogonality  is 1.47D-15 for   1162   1087.
 Error on total polarization charges =  0.04085
 SCF Done:  E(UM062X) =  -270.828399482     A.U. after   12 cycles
            NFock= 12  Conv=0.62D-08     -V/T= 2.0043
 <Sx>= 0.0000 <Sy>= 0.0000 <Sz>= 0.5000 <S**2>= 0.7619 S= 0.5059
 <L.S>=  0.00000000000    
 SMD-CDS (non-electrostatic) energy       (kcal/mol) =      -1.89
 (included in total energy above)
 Annihilation of the first spin contaminant:
 S**2 before annihilation     0.7619,   after     0.7501
 D1PCM: PCM CHGder 1st derivatives, ID1Alg=3 FixD1E=F DoIter=F DoCFld=F I1PDM=0.
 Calling FoFJK, ICntrl=      2127 FMM=F ISym2X=0 I1Cent= 0 IOpClX= 1 NMat=1 NMatS=1 NMatT=0.
 -------------------------------------------------------------------
 Center     Atomic                   Forces (Hartrees/Bohr)
 Number     Number              X              Y              Z
 -------------------------------------------------------------------
      1        6          -0.000169786    0.000028318   -0.000065925
      2        6           0.000204272    0.000111119    0.000007257
      3        1          -0.000004292   -0.000021989    0.000006063
      4        6          -0.000067521   -0.000037542   -0.000009597
      5        1          -0.000006912   -0.000000628   -0.000015755
      6        6          -0.000027494    0.000010219   -0.000019867
      7        6          -0.000015182    0.000062937   -0.000042301
      8        6           0.000080378   -0.000188320    0.000136168
      9        1           0.000000505    0.000026633    0.000000726
     10        1           0.000003351   -0.000002405   -0.000009444
     11        6          -0.000006158    0.000005463    0.000004592
     12        1           0.000001554    0.000001199    0.000009255
     13        1           0.000008410    0.000002152    0.000001864
     14        1          -0.000001124    0.000002843   -0.000003035
 -------------------------------------------------------------------
 Cartesian Forces:  Max     0.000204272 RMS     0.000062449

 GradGradGradGradGradGradGradGradGradGradGradGradGradGradGradGradGradGrad
 Berny optimization.
 Using GEDIIS/GDIIS optimizer.
 FormGI is forming the generalized inverse of G from B-inverse, IUseBI=4.
 Internal  Forces:  Max     0.000159360 RMS     0.000033376
 Search for a local minimum.
[...]
 ! A21   A(12,11,14)           108.3874         -DE/DX =    0.0                 !
 ! A22   A(13,11,14)           107.4856         -DE/DX =    0.0                 !
 ! D1    D(8,1,2,3)           -179.9753         -DE/DX =    0.0                 !
 ! D2    D(8,1,2,4)             -0.0179         -DE/DX =    0.0                 !
 ! D3    D(2,1,8,7)             -0.0204         -DE/DX =    0.0                 !
 ! D4    D(2,1,8,9)            179.9268         -DE/DX =    0.0                 !
 ! D5    D(1,2,4,5)           -179.9637         -DE/DX =    0.0                 !
 ! D6    D(1,2,4,6)              0.0127         -DE/DX =    0.0                 !
 ! D7    D(3,2,4,5)             -0.0056         -DE/DX =    0.0                 !
 ! D8    D(3,2,4,6)            179.9708         -DE/DX =    0.0                 !
 ! D9    D(2,4,6,7)              0.0307         -DE/DX =    0.0                 !
 ! D10   D(2,4,6,10)          -179.978          -DE/DX =    0.0                 !
 ! D11   D(5,4,6,7)           -179.9929         -DE/DX =    0.0                 !
 ! D12   D(5,4,6,10)            -0.0017         -DE/DX =    0.0                 !
 ! D13   D(4,6,7,8)             -0.0691         -DE/DX =    0.0                 !
 ! D14   D(4,6,7,11)           179.652          -DE/DX =    0.0                 !
 ! D15   D(10,6,7,8)           179.9396         -DE/DX =    0.0                 !
 ! D16   D(10,6,7,11)           -0.3393         -DE/DX =    0.0                 !
 ! D17   D(6,7,8,1)              0.0625         -DE/DX =    0.0                 !
 ! D18   D(6,7,8,9)           -179.8856         -DE/DX =    0.0                 !
 ! D19   D(11,7,8,1)          -179.6572         -DE/DX =    0.0                 !
 ! D20   D(11,7,8,9)             0.3947         -DE/DX =    0.0                 !
 ! D21   D(6,7,11,12)          176.2277         -DE/DX =    0.0                 !
 ! D22   D(6,7,11,13)          -63.4737         -DE/DX =    0.0                 !
 ! D23   D(6,7,11,14)           55.6207         -DE/DX =    0.0                 !
 ! D24   D(8,7,11,12)           -4.0584         -DE/DX =    0.0                 !
 ! D25   D(8,7,11,13)          116.2402         -DE/DX =    0.0                 !
 ! D26   D(8,7,11,14)         -124.6654         -DE/DX =    0.0                 !
 --------------------------------------------------------------------------------
 GradGradGradGradGradGradGradGradGradGradGradGradGradGradGradGradGradGrad


 ----------------------------------------------------------------------

 Electric dipole moment (input orientation):
 (Debye = 10**-18 statcoulomb cm , SI units = C m)
                  (au)            (Debye)         (10**-30 SI)
   Tot        0.642937D+00      0.163418D+01      0.545105D+01
   x         -0.450896D+00     -0.114606D+01     -0.382285D+01
   y          0.323993D+00      0.823509D+00      0.274693D+01
   z         -0.324175D+00     -0.823971D+00     -0.274847D+01

 Dipole polarizability, Alpha (input orientation).
 (esu units = cm**3 , SI units = C**2 m**2 J**-1)
 Alpha(0;0):
               (au)            (10**-24 esu)      (10**-40 SI)
   iso        0.103265D+03      0.153024D+02      0.170262D+02
   aniso      0.586621D+02      0.869283D+01      0.967207D+01
   xx         0.111163D+03      0.164727D+02      0.183283D+02
   yx         0.606982D+01      0.899454D+00      0.100078D+01
   yy         0.116261D+03      0.172282D+02      0.191689D+02
   zx         0.117735D+02      0.174465D+01      0.194118D+01
   zy        -0.252530D+02     -0.374211D+01     -0.416366D+01
   zz         0.823717D+02      0.122062D+02      0.135813D+02

 ----------------------------------------------------------------------

 Dipole orientation:
     6          4.11464110        -18.68140979         -6.40164420
     6          2.22548600        -16.95072337         -6.00553637
     1          1.23461239        -16.02423245         -7.54041488
     6          1.63317671        -16.43634307         -3.47724240
     1          0.15542182        -15.08561511         -3.03676802
     6          2.92710423        -17.64704512         -1.53574345
     6          4.84498923        -19.40060483         -2.03161153
     6          5.45066991        -19.92944540         -4.55659201
     1          6.92553986        -21.28201480         -5.00718359
     1          2.44497606        -17.22801174          0.41346360
     6          6.22690501        -20.67419621          0.10512369
     1          7.56811429        -22.07041134         -0.60159601
     1          7.26901852        -19.28736527          1.22712414
     1          4.90154065        -21.62630226          1.37048907

 Electric dipole moment (dipole orientation):
 (Debye = 10**-18 statcoulomb cm , SI units = C m)
                  (au)            (Debye)         (10**-30 SI)
   Tot        0.642937D+00      0.163418D+01      0.545105D+01
   x          0.000000D+00      0.000000D+00      0.000000D+00
   y          0.000000D+00      0.000000D+00      0.000000D+00
   z          0.642937D+00      0.163418D+01      0.545105D+01

 Dipole polarizability, Alpha (dipole orientation).
 (esu units = cm**3 , SI units = C**2 m**2 J**-1)
 Alpha(0;0):
               (au)            (10**-24 esu)      (10**-40 SI)
   iso        0.103265D+03      0.153024D+02      0.170262D+02
   aniso      0.586621D+02      0.869283D+01      0.967207D+01
   xx         0.964113D+02      0.142867D+02      0.158961D+02
   yx        -0.286848D+02     -0.425066D+01     -0.472949D+01
   yy         0.913778D+02      0.135408D+02      0.150662D+02
   zx         0.519265D+01      0.769471D+00      0.856152D+00
   zy        -0.524628D+01     -0.777419D+00     -0.864995D+00
   zz         0.122007D+03      0.180796D+02      0.201163D+02

 ----------------------------------------------------------------------
 Unable to Open any file for archive entry.
 1\1\GINC-CN013\Freq\UM062X\6-311+G(d,p)\C7H7(2)\TAHMINAAFROZ\06-May-20
 25\0\\#N Geom=AllCheck Guess=TCheck SCRF=Check GenChk UM062X/6-311+G(d
 ,p) Freq\\3-Me-ph-opt-freq-thf\\0,2\C,6.1638046727,7.0213068564,5.1627
 66393\C,5.1288032982,6.1308345804,5.2966561549\H,5.2303293595,5.190831
 9579,5.8268506778\C,3.9156107767,6.5051603815,4.7047131398\H,3.0579049
 131,5.8447889154,4.7754105751\C,3.8064504415,7.7162808127,4.0293474011
 \C,4.8915503644,8.5937828865,3.9175127371\C,6.1100732743,8.228363336,4
 .50746541\H,6.9707352442,8.886488145,4.4410290997\H,2.8592614258,7.991
 8194708,3.5764501419\C,4.7490910116,9.8955670078,3.1741715011\H,5.6626
 288115,10.4879704319,3.2373167062\H,4.5314294447,9.7143457813,2.118237
 7821\H,3.9258359618,10.4869934365,3.5823092802\\Version=AS64L-G16RevC.
 01\HF=-270.8283996\S2=0.761843\S2-1=0.\S2A=0.750066\RMSD=1.197e-09\RMS
 F=4.501e-06\ZeroPoint=0.1153262\Thermal=0.1214788\ETot=-270.7069207\HT
 ot=-270.7059766\GTot=-270.7441445\Dipole=-0.4508957,0.3239934,-0.32417
 51\DipoleDeriv=-0.0657432,0.0911026,-0.0271434,0.1013317,0.0820296,-0.
 077437,-0.0344106,-0.0794528,-0.0947941,-0.2373878,-0.0199578,-0.01720
 7,0.0270471,-0.1187397,-0.0067763,-0.0409801,-0.0238294,-0.1519573,0.1
 387382,-0.0024548,-0.0218944,0.0034426,0.0282845,0.0967747,-0.0254462,
 0.0956653,0.1512118,0.102823,-0.0126771,0.1012448,-0.0474441,0.0510307
 ,-0.1467231,0.1176602,-0.1362326,-0.0845382,-0.0119284,-0.1039471,-0.0
 060456,-0.0803236,0.0453308,0.0440042,-0.0168051,0.0369567,0.1522004,-
 0.0078076,-0.1204555,0.1282752,0.0106271,-0.3252305,0.0719049,0.060340
 8,0.0335503,-0.1977778,0.1109898,-0.0490989,0.0937931,-0.0399415,0.367
 9497,-0.2653312,0.0878381,-0.2828563,0.0910016,-0.1250074,0.1980028,-0
 .1020812,0.0426921,-0.2083491,0.0482053,-0.0198749,0.0991436,-0.204253
 8,0.0451352,-0.0854465,-0.0045483,-0.0947548,0.0737748,0.0364178,0.001
 2295,0.039029,0.1799067,-0.028485,0.0354715,-0.0897707,0.0406772,0.104
 7978,0.0584134,-0.0919612,0.0558735,0.1315404,0.0460088,0.1315155,-0.0
 772916,0.0250239,-0.0384989,0.067901,-0.0249489,0.1330811,-0.0136772,-
 0.0669377,-0.1314422,-0.0018993,-0.0508463,-0.0080726,0.040389,-0.0421
 981,0.003689,0.0887304,0.1117437,-0.0170617,-0.0385256,-0.0060854,-0.0
 090529,-0.0067925,-0.0460334,0.0371739,-0.1047272,-0.0121414,0.0864494
 ,0.063094,0.068554,-0.0452543,0.0390497,0.0755901,-0.0117913,0.0571342
 \Polar=111.1631338,6.069817,116.2614155,11.773473,-25.2529923,82.37166
 03\Quadrupole=-6.6529447,13.122147,-6.4692023,-1.6069392,-6.3488254,-4
 .7884745\PG=C01 [X(C7H7)]\NImag=0\\0.38493740,0.15051687,0.53673107,0.
 02068362,-0.19452075,0.18633222,-0.23917717,-0.11795147,0.00188189,0.5
 7255642,-0.14964550,-0.20730905,0.03306782,0.07600503,0.62897395,0.018
 66683,0.04335533,-0.06976354,0.10532816,-0.24218833,0.28625458,0.00505
 856,-0.01907003,0.01218807,-0.05424831,0.01899098,-0.01666252,0.053500
 87,0.00016878,-0.01393740,0.00666820,0.02357955,-0.26658191,0.13043365
 ,-0.02023721,0.28015226,0.00201056,0.00040814,-0.00097494,-0.01910683,
 0.12892446,-0.10901537,0.02080730,-0.14256221,0.10533959,-0.06298888,-
 0.05464517,0.00413288,-0.26187305,0.07663010,-0.10516816,0.00231279,-0
 .00191057,0.00006835,0.65986474,0.00326780,0.05190064,-0.01944249,0.00
 353580,-0.12366134,0.03371485,0.02432201,-0.00186589,0.01169748,0.1080
 8217,0.58710391,-0.02646866,-0.03824950,0.02482895,-0.06650113,0.05744
 693,-0.11371783,-0.01383582,0.00316586,-0.00086389,0.11297210,-0.20403
 720,0.27879508,-0.00416054,0.00034438,-0.00379734,-0.01576647,-0.01661
 124,0.00217182,0.00090161,0.00061806,0.00129269,-0.23471322,-0.1404857
 9,0.01086228,0.24485575,0.00129130,0.00252179,0.00274845,0.00889403,0.
 00810373,0.00106302,-0.00014391,-0.00040083,-0.00199953,-0.13961254,-0
 .15967707,0.01866242,0.15068895,0.16338103,-0.00426213,0.00245316,0.00
 425265,-0.01132487,-0.00722430,0.00477127,0.00168973,-0.00175321,-0.00
 260682,0.01037796,0.01836642,-0.04501001,-0.00884202,-0.02374533,0.035
 67410,-0.01757488,-0.02692578,0.01041077,0.02435955,0.02922385,-0.0098
 1523,-0.00362114,0.00060008,-0.00367850,-0.12585843,0.03664870,-0.0400
 4707,0.00601672,-0.02210725,0.01238310,0.67357549,-0.02803714,-0.06258
 021,0.02091927,0.07878717,0.00440593,0.02683500,-0.00005305,0.00276313
 ,0.00210583,-0.02577675,-0.27906674,0.10608666,0.00383482,-0.01064241,
 0.00899257,0.03922286,0.57349222,0.01094221,0.02113419,-0.01336558,-0.
 03580317,0.01083108,-0.01043507,-0.00333933,0.00230973,0.00443701,-0.0
 0713074,0.12645912,-0.13164918,-0.00136741,0.00055732,0.00322058,0.153
 15058,-0.21876038,0.30186141,0.03039493,0.08763324,-0.04007541,-0.0756
 0690,-0.01709142,-0.01450829,-0.00140181,-0.00050550,-0.00011693,0.047
 15490,-0.06231490,0.04715863,0.00185844,0.00069310,-0.00222269,-0.2376
 3358,-0.06590519,-0.01951808,0.61459021,0.02995299,-0.00289169,0.01727
 862,-0.02033822,0.00014148,-0.00829988,-0.00002907,0.00011336,-0.00020
 958,-0.01265031,-0.04125136,0.01956114,0.00021733,-0.00181275,0.004953
 40,-0.12829772,-0.18443614,0.01984983,0.05984734,0.54883318,-0.0098441
 9,0.03584861,-0.01080881,-0.01272188,-0.00738701,-0.00341381,-0.000370
 96,-0.00033437,-0.00014280,0.02107971,0.00342960,0.00834121,-0.0019528
 6,0.00515765,0.00414182,0.01317218,0.04007453,-0.08543635,0.11217789,-
 0.18137214,0.30404306,-0.09856202,-0.01901584,-0.00500624,0.04402840,-
 0.01888145,0.02263597,-0.00288433,-0.00258479,-0.00151883,-0.02092414,
 0.02959421,-0.02159355,0.00067568,0.00054959,0.00030207,-0.05212565,-0
 .03775816,0.00068974,-0.25974568,0.06962521,-0.10009231,0.62460445,0.0
 1211432,-0.28889822,0.12903851,-0.05417420,-0.03772432,0.00508772,-0.0
 0432112,0.00051270,0.00146117,0.02958181,-0.03427813,0.02637509,0.0010
 1395,-0.00068307,0.00009175,0.00826840,0.05142156,-0.02071523,-0.00585
 575,-0.11832872,0.02646132,0.12539492,0.59222082,-0.02138823,0.1190777
 2,-0.12287226,0.04112365,0.01649044,0.00988464,-0.00059159,0.00203150,
 0.00467190,-0.02150832,0.02624557,-0.02344792,0.00004949,-0.00005280,-
 0.00106698,-0.02348587,-0.03561229,0.01798485,-0.06050501,0.05090015,-
 0.11115080,0.09634211,-0.20604110,0.26577858,0.00536281,0.00029653,0.0
 0203120,0.00172261,0.00145024,-0.00213894,0.00022931,0.00019361,-0.000
 00965,-0.00033871,0.00068089,-0.00036848,-0.00009100,-0.00000151,0.000
 21438,-0.00267605,0.00157922,-0.00382916,-0.01651273,-0.01768912,0.001
 89636,-0.23126249,-0.13651344,0.00817143,0.24315366,-0.01859332,-0.014
 45396,0.00091284,-0.00031007,-0.00228805,0.00421282,-0.00075696,-0.000
 38460,-0.00007755,0.00090289,-0.00040211,0.00034126,-0.00001596,-0.000
 12418,-0.00033049,0.00137312,0.00186065,0.00286059,0.00675393,0.007276
 99,0.00163822,-0.14193944,-0.15299694,0.01596773,0.15073405,0.16080156
 ,0.01202141,0.00706465,-0.00113278,-0.00120681,0.00479299,0.00296868,0
 .00049162,0.00023750,-0.00001655,-0.00047862,0.00026798,-0.00061374,0.
 00021897,-0.00032570,-0.00049563,-0.00365688,0.00295474,0.00369178,-0.
 01092237,-0.00643720,0.00611830,0.01084827,0.01773390,-0.04076600,-0.0
 0789032,-0.02354191,0.03291177,0.00016793,-0.00074331,0.00083507,0.002
 40126,-0.00055357,-0.00119685,-0.00004212,-0.00008890,0.00007018,0.001
 83902,-0.00167902,0.00025055,0.00020347,0.00086878,0.00100412,-0.27195
 407,0.05984639,-0.10761078,-0.01642724,0.00785204,-0.01076373,-0.00196
 521,-0.00399358,-0.00056619,-0.00086213,0.00038500,-0.00042474,0.28589
 907,-0.00055617,-0.00140725,-0.00007481,-0.00062409,-0.00270424,0.0049
 2696,0.00115266,-0.00026449,0.00045149,0.02435331,-0.00250644,0.011228
 61,0.00025436,0.00003175,-0.00220759,0.05977548,-0.07157745,0.03736498
 ,-0.01696942,0.00785452,-0.00754077,-0.00425173,-0.00058031,0.00225045
 ,-0.00082527,0.00033524,-0.00053690,-0.06262890,0.07042439,0.00073911,
 -0.00014300,-0.00088992,-0.00115026,0.00494272,0.00402137,-0.00058330,
 0.00005180,-0.00032262,-0.01349078,0.00276037,-0.00212446,0.00133321,-
 0.00201061,-0.00281289,-0.10751334,0.03747197,-0.09211392,0.00234443,0
 .00038281,0.00461065,-0.00046756,0.00234431,0.00489814,0.00022198,-0.0
 0014408,-0.00004289,0.11741335,-0.04393907,0.08688589,-0.00276679,0.00
 012513,-0.00379545,-0.00016926,0.00072161,-0.00002253,0.00015302,0.000
 08353,0.00014792,-0.00389030,-0.00380835,-0.00049948,0.00025725,-0.001
 21666,0.00066664,0.00711828,-0.02196830,0.01300359,-0.08681995,0.00519
 733,-0.00807739,-0.00224311,0.02400162,-0.01590627,0.00066883,0.001609
 45,0.00104252,0.00069252,0.00000224,0.00091921,0.58627287,-0.00097655,
 0.00189489,0.00274643,0.00156463,-0.00084655,0.00028483,0.00011708,-0.
 00008257,-0.00015881,-0.00332156,0.00301922,-0.00012014,0.00020992,-0.
 00025807,0.00026853,-0.00074189,-0.02235910,0.01383966,0.01032035,-0.1
 8879460,0.06649128,0.00182169,-0.00757861,0.00832040,-0.00073366,-0.00
 004603,-0.00249529,0.00143437,0.00043739,-0.00108945,0.02028044,0.5169
 2538,-0.00280518,0.00304355,0.00536972,-0.00061223,0.00028906,-0.00155
 742,0.00016142,-0.00021370,-0.00037692,-0.00116086,-0.00059678,0.00495
 343,-0.00004693,-0.00023853,0.00018129,0.00172024,0.00681012,0.0006663
 4,-0.01079992,0.06391857,-0.10823607,-0.00390987,0.01538659,-0.0026745
 8,0.00200990,-0.00181641,-0.00293899,0.00041659,-0.00158729,-0.0016437
 9,0.00107803,0.02558320,0.53313553,0.00025341,0.00001415,0.00024360,0.
 00007744,0.00002060,0.00002464,0.00002139,-0.00000658,0.00000132,0.000
 10905,0.00019602,-0.00029430,-0.00001279,0.00002951,0.00003502,0.00053
 521,0.00035490,-0.00052542,0.00328150,0.00365436,0.00035436,0.00072567
 ,0.00173288,-0.00061521,0.00017393,-0.00023686,0.00004565,0.00016527,0
 .00017362,0.00004347,-0.24311572,-0.12600021,-0.01412801,0.25976819,-0
 .00012116,-0.00011454,-0.00001100,0.00044506,-0.00002756,0.00013150,0.
 00007061,-0.00000486,0.00000351,-0.00163084,-0.00001718,-0.00012152,0.
 00005387,-0.00042080,0.00016122,0.00184363,-0.00431947,0.00344378,-0.0
 2422059,-0.01514274,-0.00282754,-0.00144362,0.00120208,-0.00107185,0.0
 0084648,0.00026121,0.00016237,0.00007846,0.00001301,-0.00012399,-0.121
 45054,-0.12603067,-0.00851132,0.13452306,0.13730897,0.00017928,-0.0001
 0089,-0.00007505,-0.00008034,0.00000135,-0.00002693,-0.00002041,-0.000
 01322,-0.00003276,0.00067112,0.00053764,0.00041124,0.00001717,0.000158
 35,-0.00023700,-0.00123026,0.00302627,-0.00080190,0.01509534,0.0088795
 6,-0.00038760,0.00101732,-0.00007402,0.00048038,-0.00041541,-0.0001718
 3,0.00010703,0.00004373,-0.00005345,-0.00015160,-0.01657357,-0.0104596
 7,-0.04777744,0.01744471,0.00664849,0.04811811,-0.00061574,-0.00013666
 ,0.00054666,0.00086554,-0.00008994,0.00031277,0.00004737,-0.00002895,-
 0.00011444,-0.00052051,0.00110877,-0.00045473,-0.00000939,0.00001783,-
 0.00001076,-0.00010511,-0.00192909,0.00074528,-0.00158509,0.00101096,-
 0.00348405,-0.00041127,0.00144870,-0.00070108,0.00028376,-0.00009508,-
 0.00037290,-0.00001346,-0.00013893,-0.00023470,-0.05532558,-0.01175061
 ,-0.05140848,-0.00402509,-0.00373567,-0.02644448,0.05561482,0.00048689
 ,-0.00133633,-0.00056524,0.00042007,-0.00019785,0.00042301,-0.00001413
 ,-0.00000150,-0.00001538,0.00011972,0.00027097,-0.00078358,-0.00006722
 ,0.00000172,-0.00000566,0.00061502,-0.00008900,-0.00003451,0.00656532,
 0.00413143,0.03008545,-0.00028012,-0.00196538,0.00049257,-0.00011131,0
 .00025652,0.00043443,-0.00039764,0.00021640,-0.00002143,-0.01149541,-0
 .05307119,-0.04614075,-0.00166647,-0.00338680,-0.01615097,0.01023554,0
 .05857928,-0.00043141,0.00048266,0.00027204,0.00033281,-0.00003088,0.0
 0001124,0.00006019,-0.00003487,-0.00010370,-0.00037094,0.00086109,0.00
 024355,0.00002749,0.00004370,-0.00003200,-0.00101310,-0.00051899,0.001
 35947,-0.00319573,-0.00043986,-0.01361689,0.00082346,0.00122859,-0.000
 51669,0.00015096,-0.00011469,-0.00019288,0.00042030,-0.00012476,-0.000
 49379,-0.05156468,-0.04708288,-0.29652117,-0.00003048,-0.00027183,0.00
 007863,0.05724249,0.04827329,0.32072314,-0.00032903,-0.00044205,-0.000
 27931,0.00082993,-0.00016929,0.00037233,-0.00002721,0.00011887,0.00014
 685,-0.00017326,0.00085169,-0.00118034,-0.00001552,0.00004880,-0.00001
 057,-0.00005635,-0.00219769,0.00059270,-0.00154700,0.00164688,-0.00137
 315,0.00008968,0.00130150,-0.00041890,0.00014822,0.00018926,0.00028421
 ,-0.00010433,0.00028284,0.00042520,-0.20083204,0.10777598,0.07948532,-
 0.01795746,0.01474124,0.01029580,0.00579975,-0.00441027,-0.00245135,0.
 21417462,0.00013088,-0.00011974,0.00123415,0.00016670,-0.00028421,0.00
 001951,-0.00002787,-0.00001741,-0.00002901,-0.00012227,0.00043151,0.00
 044397,-0.00005542,-0.00002082,-0.00002046,0.00050149,0.00112704,0.000
 85985,0.02104948,-0.01569295,-0.00972485,-0.00083048,-0.00232345,0.001
 00150,0.00009330,-0.00009629,-0.00031158,-0.00038013,-0.00027253,-0.00
 048236,0.10791790,-0.12320947,-0.05592630,-0.01278897,0.01067936,0.007
 77240,0.00408313,-0.00340827,-0.00227057,-0.11973775,0.13320724,-0.000
 04321,0.00014616,-0.00117271,-0.00015899,0.00004367,0.00001819,0.00000
 561,0.00001333,0.00000788,0.00000631,-0.00026365,-0.00014642,0.0000334
 4,-0.00001841,0.00001965,-0.00039661,-0.00038530,0.00058055,-0.0149118
 5,0.01103458,0.00593810,-0.00007059,0.00162139,-0.00120323,-0.00004426
 ,0.00026349,0.00040190,0.00010841,-0.00015786,0.00017985,0.07958146,-0
 .05612810,-0.08257993,-0.00259934,0.00238818,0.00029491,0.02437841,-0.
 01599122,-0.01121093,-0.08588877,0.05743374,0.08887219\\0.00000361,0.0
 0000002,-0.00000489,0.00000320,0.00000164,0.00000182,0.00000459,0.0000
 0247,0.00000304,0.00000068,0.00000208,0.00000708,0.00000022,0.00000328
 ,0.00001255,-0.00000110,0.00000098,0.00000544,-0.00000055,-0.00000059,
 -0.00000151,0.00000190,-0.00000098,-0.00000688,0.00000239,-0.00000224,
 -0.00001230,-0.00000299,0.00000134,0.00000961,-0.00000258,-0.00000178,
 -0.00000320,-0.00000153,-0.00000280,-0.00000877,-0.00000802,-0.0000034
 2,-0.00000179,0.00000017,0.,-0.00000020\\\@
 The archive entry for this job was punched.


 "PERFECTION IS NOT AN ACCIDENT"
         --  EAGLE ELECTRIC MANUFACTURING CO.,INC. NY
 Job cpu time:       0 days  0 hours 39 minutes 35.3 seconds.
 Elapsed time:       0 days  0 hours  1 minutes 17.7 seconds.
 File lengths (MBytes):  RWF=    126 Int=      0 D2E=      0 Chk=     12 Scr=      1
 Normal termination of Gaussian 16 at Tue May  6 17:50:22 2025.
