/home/tahminaafroz
cn007.cluster.local
tahminaafroz
Mon Jun  2 11:49:50 CDT 2025
 Entering Gaussian System, Link 0=g16
 Initial command:
 /home/apps/g16/l1.exe "/tmp/3-5-diMe-ph-anion-opt-freq-thf-3/Gau-1808775.inp" -scrdir="/tmp/3-5-diMe-ph-anion-opt-freq-thf-3/"
 Entering Link 1 = /home/apps/g16/l1.exe PID=   1808776.
  
 Copyright (c) 1988-2019, Gaussian, Inc.  All Rights Reserved.
  
 This is part of the Gaussian(R) 16 program.  It is based on
 the Gaussian(R) 09 system (copyright 2009, Gaussian, Inc.),
 the Gaussian(R) 03 system (copyright 2003, Gaussian, Inc.),
 the Gaussian(R) 98 system (copyright 1998, Gaussian, Inc.),
 the Gaussian(R) 94 system (copyright 1995, Gaussian, Inc.),
 the Gaussian 92(TM) system (copyright 1992, Gaussian, Inc.),
 the Gaussian 90(TM) system (copyright 1990, Gaussian, Inc.),
 the Gaussian 88(TM) system (copyright 1988, Gaussian, Inc.),
 the Gaussian 86(TM) system (copyright 1986, Carnegie Mellon
 University), and the Gaussian 82(TM) system (copyright 1983,
 Carnegie Mellon University). Gaussian is a federally registered
 trademark of Gaussian, Inc.
  
 This software contains proprietary and confidential information,
 including trade secrets, belonging to Gaussian, Inc.
  
 This software is provided under written license and may be
 used, copied, transmitted, or stored only in accord with that
 written license.
  
 The following legend is applicable only to US Government
 contracts under FAR:
  
                    RESTRICTED RIGHTS LEGEND
  
 Use, reproduction and disclosure by the US Government is
 subject to restrictions as set forth in subparagraphs (a)
 and (c) of the Commercial Computer Software - Restricted
 Rights clause in FAR 52.227-19.
  
 Gaussian, Inc.
 340 Quinnipiac St., Bldg. 40, Wallingford CT 06492
  
  
 ---------------------------------------------------------------
 Warning -- This program may not be used in any manner that
 competes with the business of Gaussian, Inc. or will provide
 assistance to any competitor of Gaussian, Inc.  The licensee
 of this program is prohibited from giving any competitor of
 Gaussian, Inc. access to this program.  By using this program,
 the user acknowledges that Gaussian, Inc. is engaged in the
 business of creating and licensing software in the field of
 computational chemistry and represents and warrants to the
 licensee that it is not a competitor of Gaussian, Inc. and that
 it will not use this program in any manner prohibited above.
 ---------------------------------------------------------------
  

 Cite this work as:
 Gaussian 16, Revision C.01,
 M. J. Frisch, G. W. Trucks, H. B. Schlegel, G. E. Scuseria, 
 M. A. Robb, J. R. Cheeseman, G. Scalmani, V. Barone, 
 G. A. Petersson, H. Nakatsuji, X. Li, M. Caricato, A. V. Marenich, 
 J. Bloino, B. G. Janesko, R. Gomperts, B. Mennucci, H. P. Hratchian, 
 J. V. Ortiz, A. F. Izmaylov, J. L. Sonnenberg, D. Williams-Young, 
 F. Ding, F. Lipparini, F. Egidi, J. Goings, B. Peng, A. Petrone, 
 T. Henderson, D. Ranasinghe, V. G. Zakrzewski, J. Gao, N. Rega, 
 G. Zheng, W. Liang, M. Hada, M. Ehara, K. Toyota, R. Fukuda, 
 J. Hasegawa, M. Ishida, T. Nakajima, Y. Honda, O. Kitao, H. Nakai, 
 T. Vreven, K. Throssell, J. A. Montgomery, Jr., J. E. Peralta, 
 F. Ogliaro, M. J. Bearpark, J. J. Heyd, E. N. Brothers, K. N. Kudin, 
 V. N. Staroverov, T. A. Keith, R. Kobayashi, J. Normand, 
 K. Raghavachari, A. P. Rendell, J. C. Burant, S. S. Iyengar, 
 J. Tomasi, M. Cossi, J. M. Millam, M. Klene, C. Adamo, R. Cammi, 
 J. W. Ochterski, R. L. Martin, K. Morokuma, O. Farkas, 
 J. B. Foresman, and D. J. Fox, Gaussian, Inc., Wallingford CT, 2019.
 
 ******************************************
 Gaussian 16:  AS64L-G16RevC.01  3-Jul-2019
                 2-Jun-2025 
 ******************************************
 %oldchk=3-5-diMe-ph-anion-opt-freq-thf-2.chk
 %nprocshared=32
 Will use up to   32 processors via shared memory.
 %mem=20GB
 %chk=3-5-diMe-ph-anion-opt-freq-thf-3.chk
 Copying data from "3-5-diMe-ph-anion-opt-freq-thf-2.chk" to current chk file "3-5-diMe-ph-anion-opt-freq-thf-3.chk"
 IOpt=  2 FromEx=T IUOpen= 4 IOptOp= 5 NList=   0 IFRang= 0 IUIn= 4 IUOut= 2.
 ----------------------------------------------------------------------
 # opt=(calcfc,tight) freq 6-311+g(d,p) scrf=(smd,solvent=thf) nosymm s
 cf=(qc,fermi,xqc) geom=connectivity int=ultrafine m062x guess=read
 ----------------------------------------------------------------------
 1/7=10,10=4,18=20,19=15,26=6,38=1,57=2/1,3;
 2/9=110,12=2,15=1,17=6,18=5,40=1/2;
 3/5=4,6=6,7=111,11=2,25=1,30=1,70=32201,71=2,72=20,74=-55,75=-5,116=-2,140=1/1,2,3;
 4/5=1/1;
 5/5=2,22=13,38=6,53=20/2;
 8/6=4,10=90,11=11/1;
 11/6=1,8=1,9=11,15=111,16=1,31=1/1,2,10;
 10/6=1,13=1,31=1/2;
 6/7=2,8=2,9=2,10=2,28=1/1;
 7/10=1,25=1,30=1/1,2,3,16;
 1/7=10,10=4,18=20,19=15,26=6/3(2);
 2/9=110,15=1/2;
 99//99;
 2/9=110,15=1/2;
 3/5=4,6=6,7=111,11=2,25=1,30=1,70=32205,71=1,72=20,74=-55,75=-5/1,2,3;
 4/5=5,16=3,69=1/1;
 5/5=2,22=13,38=5,53=20/2;
 7/30=1/1,2,3,16;
 1/7=10,18=20,19=15,26=6/3(-5);
 2/9=110,15=1/2;
 6/7=2,8=2,9=2,10=2,19=2,28=1/1;
 99/9=1/99;
 --------------------------------
 3-5-diMe-ph-anion-opt-freq-thf-2
 --------------------------------
 Symbolic Z-matrix:
 Charge = -1 Multiplicity = 1
 C                     6.30822   6.97572   5.19773 
 C                     5.15293   6.16338   5.24363 
 H                     5.2021    5.18751   5.73404 
 C                     3.90519   6.50948   4.70223 
 C                     3.77858   7.73577   4.04789 
 C                     4.87515   8.59598   3.9488 
 C                     6.09055   8.20142   4.52578 
 H                     6.91444   8.91339   4.43008 
 H                     2.82269   8.02289   3.6128 
 C                     4.74405   9.9068    3.20984 
 H                     5.57783   10.5733   3.44166 
 H                     4.73811   9.74962   2.12621 
 H                     3.81429   10.4212   3.46793 
 C                     2.71063   5.59653   4.8471 
 H                     3.02208   4.55532   4.9589 
 H                     2.12115   5.85849   5.73206 
 H                     2.04675   5.6644    3.98138 
 

 GradGradGradGradGradGradGradGradGradGradGradGradGradGradGradGradGradGrad
 Berny optimization.
 Initialization pass.
                           ----------------------------
                           !    Initial Parameters    !
                           ! (Angstroms and Degrees)  !
 --------------------------                            --------------------------
 ! Name  Definition              Value          Derivative Info.                !
 --------------------------------------------------------------------------------
 ! R1    R(1,2)                  1.4131         calculate D2E/DX2 analytically  !
 ! R2    R(1,7)                  1.4146         calculate D2E/DX2 analytically  !
 ! R3    R(2,3)                  1.0933         calculate D2E/DX2 analytically  !
 ! R4    R(2,4)                  1.4035         calculate D2E/DX2 analytically  !
 ! R5    R(4,5)                  1.3957         calculate D2E/DX2 analytically  !
 ! R6    R(4,14)                 1.5104         calculate D2E/DX2 analytically  !
 ! R7    R(5,6)                  1.3972         calculate D2E/DX2 analytically  !
 ! R8    R(5,9)                  1.0888         calculate D2E/DX2 analytically  !
 ! R9    R(6,7)                  1.4021         calculate D2E/DX2 analytically  !
 ! R10   R(6,10)                 1.5105         calculate D2E/DX2 analytically  !
 ! R11   R(7,8)                  1.0931         calculate D2E/DX2 analytically  !
 ! R12   R(10,11)                1.0923         calculate D2E/DX2 analytically  !
 ! R13   R(10,12)                1.095          calculate D2E/DX2 analytically  !
 ! R14   R(10,13)                1.0935         calculate D2E/DX2 analytically  !
 ! R15   R(14,15)                1.0925         calculate D2E/DX2 analytically  !
 ! R16   R(14,16)                1.0951         calculate D2E/DX2 analytically  !
 ! R17   R(14,17)                1.0931         calculate D2E/DX2 analytically  !
 ! A1    A(2,1,7)              112.8132         calculate D2E/DX2 analytically  !
 ! A2    A(1,2,3)              119.4033         calculate D2E/DX2 analytically  !
 ! A3    A(1,2,4)              124.929          calculate D2E/DX2 analytically  !
 ! A4    A(3,2,4)              115.6674         calculate D2E/DX2 analytically  !
 ! A5    A(2,4,5)              118.5659         calculate D2E/DX2 analytically  !
 ! A6    A(2,4,14)             121.1346         calculate D2E/DX2 analytically  !
 ! A7    A(5,4,14)             120.2841         calculate D2E/DX2 analytically  !
 ! A8    A(4,5,6)              120.1974         calculate D2E/DX2 analytically  !
 ! A9    A(4,5,9)              119.9129         calculate D2E/DX2 analytically  !
 ! A10   A(6,5,9)              119.8897         calculate D2E/DX2 analytically  !
 ! A11   A(5,6,7)              118.5481         calculate D2E/DX2 analytically  !
 ! A12   A(5,6,10)             120.0568         calculate D2E/DX2 analytically  !
 ! A13   A(7,6,10)             121.3848         calculate D2E/DX2 analytically  !
 ! A14   A(1,7,6)              124.9375         calculate D2E/DX2 analytically  !
 ! A15   A(1,7,8)              119.3368         calculate D2E/DX2 analytically  !
 ! A16   A(6,7,8)              115.7253         calculate D2E/DX2 analytically  !
 ! A17   A(6,10,11)            111.0661         calculate D2E/DX2 analytically  !
 ! A18   A(6,10,12)            111.1038         calculate D2E/DX2 analytically  !
 ! A19   A(6,10,13)            111.5051         calculate D2E/DX2 analytically  !
 ! A20   A(11,10,12)           107.5627         calculate D2E/DX2 analytically  !
 ! A21   A(11,10,13)           108.1734         calculate D2E/DX2 analytically  !
 ! A22   A(12,10,13)           107.2473         calculate D2E/DX2 analytically  !
 ! A23   A(4,14,15)            111.1249         calculate D2E/DX2 analytically  !
 ! A24   A(4,14,16)            111.016          calculate D2E/DX2 analytically  !
 ! A25   A(4,14,17)            111.5209         calculate D2E/DX2 analytically  !
 ! A26   A(15,14,16)           107.3814         calculate D2E/DX2 analytically  !
 ! A27   A(15,14,17)           108.2619         calculate D2E/DX2 analytically  !
 ! A28   A(16,14,17)           107.3516         calculate D2E/DX2 analytically  !
 ! D1    D(7,1,2,3)            179.6665         calculate D2E/DX2 analytically  !
 ! D2    D(7,1,2,4)             -0.5583         calculate D2E/DX2 analytically  !
 ! D3    D(2,1,7,6)             -0.372          calculate D2E/DX2 analytically  !
 ! D4    D(2,1,7,8)            179.8692         calculate D2E/DX2 analytically  !
 ! D5    D(1,2,4,5)              0.9765         calculate D2E/DX2 analytically  !
 ! D6    D(1,2,4,14)          -177.6048         calculate D2E/DX2 analytically  !
 ! D7    D(3,2,4,5)           -179.2408         calculate D2E/DX2 analytically  !
 ! D8    D(3,2,4,14)             2.1779         calculate D2E/DX2 analytically  !
 ! D9    D(2,4,5,6)             -0.4521         calculate D2E/DX2 analytically  !
 ! D10   D(2,4,5,9)            179.5137         calculate D2E/DX2 analytically  !
 ! D11   D(14,4,5,6)           178.1417         calculate D2E/DX2 analytically  !
 ! D12   D(14,4,5,9)            -1.8925         calculate D2E/DX2 analytically  !
 ! D13   D(2,4,14,15)          -26.5427         calculate D2E/DX2 analytically  !
 ! D14   D(2,4,14,16)           92.8972         calculate D2E/DX2 analytically  !
 ! D15   D(2,4,14,17)         -147.438          calculate D2E/DX2 analytically  !
 ! D16   D(5,4,14,15)          154.9001         calculate D2E/DX2 analytically  !
 ! D17   D(5,4,14,16)          -85.6599         calculate D2E/DX2 analytically  !
 ! D18   D(5,4,14,17)           34.0049         calculate D2E/DX2 analytically  !
 ! D19   D(4,5,6,7)             -0.3927         calculate D2E/DX2 analytically  !
 ! D20   D(4,5,6,10)           178.4575         calculate D2E/DX2 analytically  !
 ! D21   D(9,5,6,7)            179.6415         calculate D2E/DX2 analytically  !
 ! D22   D(9,5,6,10)            -1.5083         calculate D2E/DX2 analytically  !
 ! D23   D(5,6,7,1)              0.8437         calculate D2E/DX2 analytically  !
 ! D24   D(5,6,7,8)           -179.3897         calculate D2E/DX2 analytically  !
 ! D25   D(10,6,7,1)          -177.9905         calculate D2E/DX2 analytically  !
 ! D26   D(10,6,7,8)             1.776          calculate D2E/DX2 analytically  !
 ! D27   D(5,6,10,11)          164.8568         calculate D2E/DX2 analytically  !
 ! D28   D(5,6,10,12)          -75.4557         calculate D2E/DX2 analytically  !
 ! D29   D(5,6,10,13)           44.1257         calculate D2E/DX2 analytically  !
 ! D30   D(7,6,10,11)          -16.3263         calculate D2E/DX2 analytically  !
 ! D31   D(7,6,10,12)          103.3612         calculate D2E/DX2 analytically  !
 ! D32   D(7,6,10,13)         -137.0574         calculate D2E/DX2 analytically  !
 --------------------------------------------------------------------------------
 Trust Radius=3.00D-01 FncErr=5.00D-06 GrdErr=5.00D-06 EigMax=2.50D+02 EigMin=1.00D-04
 Number of steps in this run=     87 maximum allowed number of steps=    102.
 GradGradGradGradGradGradGradGradGradGradGradGradGradGradGradGradGradGrad

                          Input orientation:                          
 ---------------------------------------------------------------------
 Center     Atomic      Atomic             Coordinates (Angstroms)
 Number     Number       Type             X           Y           Z
 ---------------------------------------------------------------------
      1          6           0        6.308224    6.975725    5.197727
      2          6           0        5.152933    6.163375    5.243626
      3          1           0        5.202102    5.187515    5.734041
      4          6           0        3.905189    6.509481    4.702227
      5          6           0        3.778580    7.735773    4.047887
      6          6           0        4.875147    8.595977    3.948799
      7          6           0        6.090549    8.201418    4.525778
      8          1           0        6.914444    8.913390    4.430083
      9          1           0        2.822693    8.022892    3.612799
     10          6           0        4.744050    9.906797    3.209838
     11          1           0        5.577830   10.573297    3.441658
     12          1           0        4.738113    9.749625    2.126213
     13          1           0        3.814295   10.421203    3.467927
     14          6           0        2.710635    5.596528    4.847099
     15          1           0        3.022080    4.555320    4.958899
     16          1           0        2.121152    5.858495    5.732064
     17          1           0        2.046748    5.664401    3.981379
 ---------------------------------------------------------------------
                    Distance matrix (angstroms):
                    1          2          3          4          5
     1  C    0.000000
     2  C    1.413052   0.000000
     3  H    2.169984   1.093265   0.000000
     4  C    2.497495   1.403484   2.119957   0.000000
     5  C    2.880781   2.406464   3.370927   1.395701   0.000000
     6  C    2.497749   2.769710   3.861555   2.421144   1.397221
     7  C    1.414646   2.355430   3.366430   2.769402   2.406326
     8  H    2.170559   3.365614   4.302856   3.861147   3.371423
     9  H    3.969570   3.398149   4.266219   2.156169   1.088789
    10  C    3.871632   4.279800   5.371502   3.804296   2.519485
    11  H    4.069371   4.782785   5.865394   4.571801   3.414140
    12  H    4.426508   4.769856   5.834772   4.222339   2.944340
    13  H    4.591646   4.803557   5.869649   4.102844   2.747574
    14  C    3.868821   2.538379   2.676073   1.510441   2.521035
    15  H    4.088293   2.684669   2.398544   2.159747   3.393747
    16  H    4.366382   3.085971   3.153168   2.160355   3.017895
    17  H    4.621607   3.389783   3.640811   2.165083   2.700787
                    6          7          8          9         10
     6  C    0.000000
     7  C    1.402065   0.000000
     8  H    2.119226   1.093098   0.000000
     9  H    2.157288   3.397689   4.266540   0.000000
    10  C    1.510463   2.540291   2.680758   2.720862   0.000000
    11  H    2.158877   2.657820   2.349215   3.758276   1.092315
    12  H    2.161366   3.159738   3.277731   2.976639   1.094980
    13  H    2.165201   3.350795   3.579130   2.599261   1.093466
    14  C    3.806409   4.279314   5.370986   2.724573   5.039228
    15  H    4.558626   4.785095   5.867105   3.725023   5.887504
    16  H    4.272977   4.764507   5.831225   3.109350   5.443341
    17  H    4.073701   4.804701   5.869559   2.510064   5.086122
                   11         12         13         14         15
    11  H    0.000000
    12  H    1.764640   0.000000
    13  H    1.770276   1.762003   0.000000
    14  C    5.913062   5.363032   5.137867   0.000000
    15  H    6.711924   6.160332   6.104030   1.092525   0.000000
    16  H    6.278848   5.915365   5.367621   1.095116   1.762872
    17  H    6.071005   5.232031   5.100492   1.093080   1.771123
                   16         17
    16  H    0.000000
    17  H    1.762982   0.000000
 Symmetry turned off by external request.
 Stoichiometry    C8H9(1-)
 Framework group  C1[X(C8H9)]
 Deg. of freedom    45
 Full point group                 C1      NOp   1
 Rotational constants (GHZ):           3.6898649           1.7819703           1.2199151
 Standard basis: 6-311+G(d,p) (5D, 7F)
   230 basis functions,   360 primitive gaussians,   238 cartesian basis functions
    29 alpha electrons       29 beta electrons
       nuclear repulsion energy       329.0442383894 Hartrees.
 NAtoms=   17 NActive=   17 NUniq=   17 SFac= 1.00D+00 NAtFMM=   60 NAOKFM=F Big=F
 Integral buffers will be    131072 words long.
 Raffenetti 2 integral format.
 Two-electron integral symmetry is turned off.
 Force inversion solution in PCM.
 ------------------------------------------------------------------------------
 Polarizable Continuum Model (PCM)
 =================================
 Model                : PCM.
 Atomic radii         : SMD-Coulomb.
 Polarization charges : Total charges.
 Charge compensation  : None.
 Solution method      : Matrix inversion.
 Cavity type          : VdW (van der Waals Surface) (Alpha=1.000).
 Cavity algorithm     : GePol (No added spheres)
                        Default sphere list used, NSphG=   17.
                        Lebedev-Laikov grids with approx.  5.0 points / Ang**2.
                        Smoothing algorithm: York/Karplus (Gamma=1.0000).
                        Polarization charges: spherical gaussians, with
                                              point-specific exponents (IZeta= 3).
                        Self-potential: point-specific (ISelfS= 7).
                        Self-field    : sphere-specific E.n sum rule (ISelfD= 2).
 1st derivatives      : Analytical E(r).r(x)/FMM algorithm (CHGder, D1EAlg=3).
                        Cavity 1st derivative terms included.
 2nd derivatives      : Analytical E(r).r(xy)/FMM algorithm (CHGder, D2EAlg=3).
                        Cavity 2nd derivative terms included.
 Solvent              : TetraHydroFuran, Eps=   7.425700 Eps(inf)=   1.974025
 ------------------------------------------------------------------------------
 Spheres list:
 ISph  on   Nord     Re0    Alpha      Xe            Ye            Ze
    1   C      1    1.8500  1.000      6.308224      6.975725      5.197727
    2   C      2    1.8500  1.000      5.152933      6.163375      5.243626
    3   H      3    1.2000  1.000      5.202102      5.187515      5.734041
    4   C      4    1.8500  1.000      3.905189      6.509481      4.702227
    5   C      5    1.8500  1.000      3.778580      7.735773      4.047887
    6   C      6    1.8500  1.000      4.875147      8.595977      3.948799
    7   C      7    1.8500  1.000      6.090549      8.201418      4.525778
    8   H      8    1.2000  1.000      6.914444      8.913390      4.430083
    9   H      9    1.2000  1.000      2.822693      8.022892      3.612799
   10   C     10    1.8500  1.000      4.744050      9.906797      3.209838
   11   H     11    1.2000  1.000      5.577830     10.573297      3.441658
   12   H     12    1.2000  1.000      4.738113      9.749625      2.126213
   13   H     13    1.2000  1.000      3.814295     10.421203      3.467927
   14   C     14    1.8500  1.000      2.710635      5.596528      4.847099
   15   H     15    1.2000  1.000      3.022080      4.555320      4.958899
   16   H     16    1.2000  1.000      2.121152      5.858495      5.732064
   17   H     17    1.2000  1.000      2.046748      5.664401      3.981379
 ------------------------------------------------------------------------------
 ------------------------------------------------------------------------------
 Atomic radii for non-electrostatic terms: SMD-CDS.
 ------------------------------------------------------------------------------
 Nuclear repulsion after PCM non-electrostatic terms =      329.0411465724 Hartrees.
 One-electron integrals computed using PRISM.
 NBasis=   230 RedAO= T EigKep=  2.59D-06  NBF=   230
 NBsUse=   230 1.00D-06 EigRej= -1.00D+00 NBFU=   230
 Initial guess from the checkpoint file:  "3-5-diMe-ph-anion-opt-freq-thf-3.chk"
 B after Tr=     0.000000    0.000000    0.000000
         Rot=    1.000000    0.000000    0.000000    0.000000 Ang=   0.00 deg.
 Requested convergence on RMS density matrix=1.00D-08 within 128 cycles.
 Requested convergence on MAX density matrix=1.00D-06.
 Requested convergence on             energy=1.00D-06.
 Level shift goal  0.100 maximum shift  0.100.
 No special actions if energy rises.
 Dynamic level shift is on during FON iterations.
 Inv3:  Mode=1 IEnd=     5459403.
 Iteration    1 A*A^-1 deviation from unit magnitude is 4.44D-15 for   1349.
 Iteration    1 A*A^-1 deviation from orthogonality  is 1.86D-15 for   1349   1297.
 Iteration    1 A^-1*A deviation from unit magnitude is 4.44D-15 for   1349.
 Iteration    1 A^-1*A deviation from orthogonality  is 1.84D-15 for   1338   1287.
 Error on total polarization charges =  0.06718
 SCF Done:  E(RM062X) =  -310.255050538     A.U. after    1 cycles
            NFock=  1  Conv=0.31D-08     -V/T= 2.0045
 SMD-CDS (non-electrostatic) energy       (kcal/mol) =      -1.94
 (included in total energy above)
 DoSCS=F DFT=T ScalE2(SS,OS)=  1.000000  1.000000
 Range of M.O.s used for correlation:     1   230
 NBasis=   230 NAE=    29 NBE=    29 NFC=     0 NFV=     0
 NROrb=    230 NOA=    29 NOB=    29 NVA=   201 NVB=   201

 **** Warning!!: The largest alpha MO coefficient is  0.23453387D+03

 Symmetrizing basis deriv contribution to polar:
 IMax=3 JMax=2 DiffMx= 0.00D+00
 G2DrvN: will do    18 centers at a time, making    1 passes.
 Calling FoFCou, ICntrl=  3107 FMM=F I1Cent=   0 AccDes= 0.00D+00.
 NEqPCM:  Using equilibrium solvation (IEInf=0, Eps=   7.4257, EpsInf=   1.9740)
 G2PCM: DoFxE=T DoFxN=T DoGrad=T DoDP/DQ/DG/TGxP=FFFF NFrqRd=   0 IEInf=0 SqF1=F DoCFld=F IF1Alg=4.
 End of G2Drv F.D. properties file   721 does not exist.
 End of G2Drv F.D. properties file   722 does not exist.
 End of G2Drv F.D. properties file   788 does not exist.
          IDoAtm=11111111111111111
 NEqPCM:  Using equilibrium solvation (IEInf=0, Eps=   7.4257, EpsInf=   1.9740)
          Differentiating once with respect to nuclear coordinates.
 Keep R1 ints in memory in canonical form, NReq=386963725.
          There are    54 degrees of freedom in the 1st order CPHF.  IDoFFX=6 NUNeed=     0.
     48 vectors produced by pass  0 Test12= 1.08D-14 1.85D-09 XBig12= 1.06D-01 9.09D-02.
 AX will form    48 AO Fock derivatives at one time.
     48 vectors produced by pass  1 Test12= 1.08D-14 1.85D-09 XBig12= 1.22D-02 2.16D-02.
     48 vectors produced by pass  2 Test12= 1.08D-14 1.85D-09 XBig12= 3.42D-04 3.98D-03.
     48 vectors produced by pass  3 Test12= 1.08D-14 1.85D-09 XBig12= 2.54D-06 2.71D-04.
     48 vectors produced by pass  4 Test12= 1.08D-14 1.85D-09 XBig12= 1.53D-08 1.87D-05.
     48 vectors produced by pass  5 Test12= 1.08D-14 1.85D-09 XBig12= 8.86D-11 1.63D-06.
     35 vectors produced by pass  6 Test12= 1.08D-14 1.85D-09 XBig12= 4.18D-13 1.04D-07.
      7 vectors produced by pass  7 Test12= 1.08D-14 1.85D-09 XBig12= 1.80D-15 6.50D-09.
 InvSVY:  IOpt=1 It=  1 EMax= 3.61D-16
 Solved reduced A of dimension   330 with    54 vectors.
 End of Minotr F.D. properties file   721 does not exist.
 End of Minotr F.D. properties file   722 does not exist.
 End of Minotr F.D. properties file   788 does not exist.

 **********************************************************************

            Population analysis using the SCF Density.

 **********************************************************************

 Alpha  occ. eigenvalues --  -10.50694 -10.50685 -10.50214 -10.50211 -10.49301
 Alpha  occ. eigenvalues --  -10.48035 -10.48003 -10.44537  -0.91220  -0.83931
 Alpha  occ. eigenvalues --   -0.79061  -0.74493  -0.72001  -0.60653  -0.60259
 Alpha  occ. eigenvalues --   -0.52284  -0.48508  -0.46205  -0.45071  -0.44793
 Alpha  occ. eigenvalues --   -0.42765  -0.41592  -0.39302  -0.39003  -0.36473
 Alpha  occ. eigenvalues --   -0.33471  -0.24742  -0.24504  -0.19175
 Alpha virt. eigenvalues --    0.03651   0.04802   0.05462   0.05761   0.05844
 Alpha virt. eigenvalues --    0.06871   0.07039   0.07472   0.08736   0.09425
 Alpha virt. eigenvalues --    0.09759   0.10683   0.10927   0.11791   0.13371
 Alpha virt. eigenvalues --    0.13804   0.14687   0.15052   0.15416   0.17368
 Alpha virt. eigenvalues --    0.18203   0.18647   0.18971   0.20043   0.20511
 Alpha virt. eigenvalues --    0.20604   0.22182   0.23104   0.23681   0.24740
 Alpha virt. eigenvalues --    0.24859   0.25040   0.25969   0.26450   0.26961
 Alpha virt. eigenvalues --    0.27134   0.27203   0.27714   0.29085   0.29842
 Alpha virt. eigenvalues --    0.31081   0.31724   0.32206   0.33076   0.36572
 Alpha virt. eigenvalues --    0.37840   0.40698   0.41110   0.43801   0.45053
 Alpha virt. eigenvalues --    0.48342   0.48946   0.50666   0.52612   0.56089
 Alpha virt. eigenvalues --    0.56957   0.60215   0.62110   0.62938   0.63565
 Alpha virt. eigenvalues --    0.63974   0.65711   0.66603   0.66918   0.68161
 Alpha virt. eigenvalues --    0.69026   0.71100   0.71528   0.72244   0.72733
 Alpha virt. eigenvalues --    0.72888   0.74828   0.77058   0.77282   0.77574
 Alpha virt. eigenvalues --    0.78569   0.80504   0.81919   0.84060   0.84608
 Alpha virt. eigenvalues --    0.85672   0.91401   0.94186   0.94307   0.97369
 Alpha virt. eigenvalues --    0.99536   1.00999   1.02353   1.03415   1.04272
 Alpha virt. eigenvalues --    1.04510   1.09906   1.11194   1.12517   1.17590
 Alpha virt. eigenvalues --    1.21039   1.24871   1.25845   1.25880   1.40876
 Alpha virt. eigenvalues --    1.44020   1.45248   1.46695   1.51840   1.54525
 Alpha virt. eigenvalues --    1.55659   1.57395   1.59310   1.60860   1.61752
 Alpha virt. eigenvalues --    1.63120   1.65713   1.66399   1.67679   1.68167
 Alpha virt. eigenvalues --    1.69574   1.70285   1.75546   1.77659   1.78657
 Alpha virt. eigenvalues --    1.79630   1.80780   1.80949   1.88792   1.90019
 Alpha virt. eigenvalues --    1.90986   1.93593   1.97184   1.98896   2.00030
 Alpha virt. eigenvalues --    2.03177   2.06263   2.07813   2.08989   2.10134
 Alpha virt. eigenvalues --    2.11933   2.13560   2.18797   2.22567   2.23347
 Alpha virt. eigenvalues --    2.27495   2.28669   2.35155   2.39873   2.40303
 Alpha virt. eigenvalues --    2.46410   2.46739   2.50509   2.51948   2.53435
 Alpha virt. eigenvalues --    2.58596   2.59233   2.60845   2.62024   2.64476
 Alpha virt. eigenvalues --    2.65123   2.66380   2.69716   2.72825   2.74930
 Alpha virt. eigenvalues --    2.79539   2.80195   2.81206   2.82617   2.83893
 Alpha virt. eigenvalues --    2.86516   2.92911   2.93449   2.95512   2.97589
 Alpha virt. eigenvalues --    2.98142   3.04147   3.05515   3.18176   3.20125
 Alpha virt. eigenvalues --    3.28239   3.30762   3.31809   3.48180   3.48936
 Alpha virt. eigenvalues --    3.58371   3.74645   3.74808   3.86320   3.87005
 Alpha virt. eigenvalues --    3.87909   3.89393   3.90961   4.19505   4.20760
 Alpha virt. eigenvalues --    4.39501   4.41620   4.83794  23.68276  24.02799
 Alpha virt. eigenvalues --   24.03649  24.08209  24.08960  24.18682  24.19600
 Alpha virt. eigenvalues --   24.26494
          Condensed to atoms (all electrons):
               1          2          3          4          5          6
     1  C    9.323071  -1.668023  -0.088106   1.513685  -1.779905   1.499482
     2  C   -1.668023   9.429093   0.468930  -1.403051   0.044552  -1.218739
     3  H   -0.088106   0.468930   0.556216  -0.134502  -0.006311  -0.014166
     4  C    1.513685  -1.403051  -0.134502   9.180854  -3.041421   2.021269
     5  C   -1.779905   0.044552  -0.006311  -3.041421  12.704221  -2.775983
     6  C    1.499482  -1.218739  -0.014166   2.021269  -2.775983   8.968686
     7  C   -1.625107   0.705846   0.047030  -1.224957   0.125563  -1.512125
     8  H   -0.091637   0.050014   0.000044  -0.013678   0.001279  -0.122185
     9  H    0.010316  -0.015920  -0.000315   0.091062   0.134954   0.111731
    10  C   -0.091118   0.139941  -0.000391  -0.475004   0.581023  -1.111559
    11  H    0.022051   0.008350   0.000002   0.003542  -0.125689  -0.195827
    12  H    0.003738  -0.004439   0.000000   0.021070  -0.085190   0.127892
    13  H    0.002956  -0.004715  -0.000003   0.010193   0.174682  -0.120382
    14  C   -0.098876  -0.056193   0.029430  -1.155188   0.720126  -0.437258
    15  H    0.022601   0.181848   0.001940  -0.182908  -0.134156   0.004267
    16  H    0.003755  -0.016109   0.000100   0.147441  -0.095814   0.020630
    17  H    0.001667  -0.150117   0.000130  -0.176543   0.223915   0.015736
               7          8          9         10         11         12
     1  C   -1.625107  -0.091637   0.010316  -0.091118   0.022051   0.003738
     2  C    0.705846   0.050014  -0.015920   0.139941   0.008350  -0.004439
     3  H    0.047030   0.000044  -0.000315  -0.000391   0.000002   0.000000
     4  C   -1.224957  -0.013678   0.091062  -0.475004   0.003542   0.021070
     5  C    0.125563   0.001279   0.134954   0.581023  -0.125689  -0.085190
     6  C   -1.512125  -0.122185   0.111731  -1.111559  -0.195827   0.127892
     7  C    9.373126   0.453337  -0.007150   0.086249   0.182966  -0.020057
     8  H    0.453337   0.557428  -0.000316   0.024324   0.002616   0.000169
     9  H   -0.007150  -0.000316   0.496930   0.011408   0.000331   0.000222
    10  C    0.086249   0.024324   0.011408   6.337703   0.473008   0.312938
    11  H    0.182966   0.002616   0.000331   0.473008   0.510986  -0.023468
    12  H   -0.020057   0.000169   0.000222   0.312938  -0.023468   0.504669
    13  H   -0.134517   0.000158  -0.000915   0.432668  -0.029166  -0.032545
    14  C    0.149322  -0.000364   0.005276  -0.042056  -0.001133   0.000956
    15  H    0.009259   0.000002   0.000336  -0.001365   0.000000   0.000000
    16  H   -0.006196   0.000000   0.000338   0.000871  -0.000001   0.000006
    17  H   -0.002896  -0.000005  -0.000635   0.001488   0.000000  -0.000032
              13         14         15         16         17
     1  C    0.002956  -0.098876   0.022601   0.003755   0.001667
     2  C   -0.004715  -0.056193   0.181848  -0.016109  -0.150117
     3  H   -0.000003   0.029430   0.001940   0.000100   0.000130
     4  C    0.010193  -1.155188  -0.182908   0.147441  -0.176543
     5  C    0.174682   0.720126  -0.134156  -0.095814   0.223915
     6  C   -0.120382  -0.437258   0.004267   0.020630   0.015736
     7  C   -0.134517   0.149322   0.009259  -0.006196  -0.002896
     8  H    0.000158  -0.000364   0.000002   0.000000  -0.000005
     9  H   -0.000915   0.005276   0.000336   0.000338  -0.000635
    10  C    0.432668  -0.042056  -0.001365   0.000871   0.001488
    11  H   -0.029166  -0.001133   0.000000  -0.000001   0.000000
    12  H   -0.032545   0.000956   0.000000   0.000006  -0.000032
    13  H    0.530425   0.000622  -0.000001  -0.000021   0.000042
    14  C    0.000622   6.336058   0.466052   0.302067   0.452100
    15  H   -0.000001   0.466052   0.516263  -0.024765  -0.030500
    16  H   -0.000021   0.302067  -0.024765   0.500634  -0.029078
    17  H    0.000042   0.452100  -0.030500  -0.029078   0.527385
 Mulliken charges:
               1
     1  C   -0.960550
     2  C   -0.491266
     3  H    0.139973
     4  C    0.818135
     5  C   -0.665846
     6  C    0.738528
     7  C   -0.599694
     8  H    0.138813
     9  H    0.162347
    10  C   -0.680131
    11  H    0.171431
    12  H    0.194071
    13  H    0.170520
    14  C   -0.670943
    15  H    0.171128
    16  H    0.196142
    17  H    0.167342
 Sum of Mulliken charges =  -1.00000
 Mulliken charges with hydrogens summed into heavy atoms:
               1
     1  C   -0.960550
     2  C   -0.351293
     4  C    0.818135
     5  C   -0.503499
     6  C    0.738528
     7  C   -0.460881
    10  C   -0.144108
    14  C   -0.136332
 APT charges:
               1
     1  C   -2.154519
     2  C    2.227840
     3  H    0.002036
     4  C   -3.834051
     5  C    0.027971
     6  C    2.585751
     7  C   -1.435759
     8  H    1.654661
     9  H   -0.159573
    10  C   -2.638565
    11  H    1.760211
    12  H   -0.361519
    13  H    0.505117
    14  C    0.573476
    15  H   -0.271102
    16  H    0.912433
    17  H   -0.394409
 Sum of APT charges =  -1.00000
 APT charges with hydrogens summed into heavy atoms:
               1
     1  C   -2.154519
     2  C    2.229876
     4  C   -3.834051
     5  C   -0.131602
     6  C    2.585751
     7  C    0.218902
    10  C   -0.734756
    14  C    0.820398
 Electronic spatial extent (au):  <R**2>=          21122.3674
 Charge=             -1.0000 electrons
 Dipole moment (field-independent basis, Debye):
    X=            -30.9663    Y=            -33.3140    Z=            -25.2500  Tot=             52.0220
 Quadrupole moment (field-independent basis, Debye-Ang):
   XX=           -255.7843   YY=           -284.2087   ZZ=           -189.0503
   XY=           -212.9467   XZ=           -163.6023   YZ=           -176.5697
 Traceless Quadrupole moment (field-independent basis, Debye-Ang):
   XX=            -12.7699   YY=            -41.1943   ZZ=             53.9641
   XY=           -212.9467   XZ=           -163.6023   YZ=           -176.5697
 Octapole moment (field-independent basis, Debye-Ang**2):
  XXX=          -2101.0006  YYY=          -2791.8410  ZZZ=          -1458.9993  XYY=          -1714.3236
  XXY=          -1778.0459  XXZ=          -1315.8678  XZZ=          -1134.8093  YZZ=          -1352.5232
  YYZ=          -1473.5331  XYZ=          -1132.1723
 Hexadecapole moment (field-independent basis, Debye-Ang**3):
 XXXX=         -16805.1563 YYYY=         -29593.3254 ZZZZ=         -10783.9161 XXXY=         -14831.2930
 XXXZ=         -10615.8445 YYYX=         -15751.9277 YYYZ=         -13838.9003 ZZZX=          -8259.7844
 ZZZY=         -10446.9215 XXYY=         -13769.5087 XXZZ=          -8240.4268 YYZZ=         -10923.9401
 XXYZ=          -9116.7644 YYXZ=          -8968.0749 ZZXY=          -8050.2116
 N-N= 3.290411465724D+02 E-N=-1.387764654511D+03  KE= 3.088723126706D+02
  Exact polarizability:       0.000       0.000       0.000       0.000       0.000       0.000
 Approx polarizability:     143.320       4.566     133.448      12.926     -20.234     106.167
 D2PCM: PCM CHGder 2nd derivatives, FixD1E=F FixD2E=F DoIter=F DoCFld=F I1PDM=0
 Calling FoFJK, ICntrl=    100127 FMM=F ISym2X=0 I1Cent= 0 IOpClX= 0 NMat=1 NMatS=1 NMatT=0.
 -------------------------------------------------------------------
 Center     Atomic                   Forces (Hartrees/Bohr)
 Number     Number              X              Y              Z
 -------------------------------------------------------------------
      1        6           0.000000174    0.000007767    0.000004494
      2        6           0.000004967    0.000000779   -0.000003234
      3        1           0.000008899   -0.000001146   -0.000007196
      4        6           0.000004987   -0.000004719   -0.000006311
      5        6          -0.000000338   -0.000002031   -0.000001292
      6        6          -0.000004710    0.000004834    0.000006750
      7        6          -0.000004707    0.000009186    0.000009187
      8        1          -0.000008407    0.000014786    0.000015359
      9        1          -0.000000160   -0.000005937   -0.000003589
     10        6          -0.000009971    0.000007062    0.000011745
     11        1          -0.000014577    0.000011022    0.000017773
     12        1          -0.000004925    0.000011962    0.000010993
     13        1          -0.000013832    0.000000490    0.000010614
     14        6           0.000009593   -0.000011880   -0.000014710
     15        1           0.000015596   -0.000010560   -0.000018115
     16        1           0.000004929   -0.000019438   -0.000015580
     17        1           0.000012482   -0.000012175   -0.000016890
 -------------------------------------------------------------------
 Cartesian Forces:  Max     0.000019438 RMS     0.000009993
 FormGI is forming the generalized inverse of G from B-inverse, IUseBI=4.

 GradGradGradGradGradGradGradGradGradGradGradGradGradGradGradGradGradGrad
 Berny optimization.
 Internal  Forces:  Max     0.000000266 RMS     0.000000089
 Search for a local minimum.
 Step number   1 out of a maximum of   87
 All quantities printed in internal units (Hartrees-Bohrs-Radians)
 Mixed Optimization -- En-DIIS/RFO-DIIS
 Second derivative matrix not updated -- analytic derivatives used.
 ITU=  0
     Eigenvalues ---    0.00008   0.00019   0.01565   0.01647   0.01898
     Eigenvalues ---    0.02053   0.02566   0.02846   0.03233   0.03592
     Eigenvalues ---    0.05624   0.05642   0.05774   0.05781   0.11297
     Eigenvalues ---    0.11865   0.11898   0.12442   0.12609   0.13788
     Eigenvalues ---    0.14029   0.14257   0.14302   0.17805   0.18678
     Eigenvalues ---    0.19413   0.19782   0.21032   0.26685   0.31463
     Eigenvalues ---    0.31798   0.33428   0.33483   0.33514   0.33781
     Eigenvalues ---    0.34099   0.34190   0.34739   0.34761   0.35278
     Eigenvalues ---    0.39093   0.40096   0.45330   0.45488   0.49370
 RFO step:  Lambda= 0.00000000D+00 EMin= 7.98504411D-05
 Linear search not attempted -- first point.
 Iteration  1 RMS(Cart)=  0.00001809 RMS(Int)=  0.00000000
 Iteration  2 RMS(Cart)=  0.00000000 RMS(Int)=  0.00000000
 Variable       Old X    -DE/DX   Delta X   Delta X   Delta X     New X
                                 (Linear)    (Quad)   (Total)
    R1        2.67028   0.00000   0.00000   0.00000   0.00000   2.67028
    R2        2.67329   0.00000   0.00000   0.00000   0.00000   2.67329
    R3        2.06597   0.00000   0.00000   0.00000   0.00000   2.06597
    R4        2.65220   0.00000   0.00000   0.00000   0.00000   2.65220
    R5        2.63749   0.00000   0.00000   0.00000   0.00000   2.63749
    R6        2.85432   0.00000   0.00000   0.00000   0.00000   2.85432
    R7        2.64037   0.00000   0.00000   0.00000   0.00000   2.64037
    R8        2.05751   0.00000   0.00000   0.00000   0.00000   2.05751
    R9        2.64952   0.00000   0.00000   0.00000   0.00000   2.64952
   R10        2.85436   0.00000   0.00000   0.00000   0.00000   2.85436
   R11        2.06566   0.00000   0.00000   0.00000   0.00000   2.06566
   R12        2.06418   0.00000   0.00000   0.00000   0.00000   2.06418
   R13        2.06921   0.00000   0.00000   0.00000   0.00000   2.06921
   R14        2.06635   0.00000   0.00000   0.00000   0.00000   2.06635
   R15        2.06457   0.00000   0.00000   0.00000   0.00000   2.06457
   R16        2.06947   0.00000   0.00000   0.00000   0.00000   2.06947
   R17        2.06562   0.00000   0.00000   0.00000   0.00000   2.06562
    A1        1.96896   0.00000   0.00000   0.00000   0.00000   1.96896
    A2        2.08398   0.00000   0.00000   0.00000   0.00000   2.08398
    A3        2.18042   0.00000   0.00000   0.00000   0.00000   2.18042
    A4        2.01878   0.00000   0.00000   0.00000   0.00000   2.01878
    A5        2.06937   0.00000   0.00000   0.00000   0.00000   2.06937
    A6        2.11420   0.00000   0.00000   0.00000   0.00000   2.11420
    A7        2.09935   0.00000   0.00000   0.00000   0.00000   2.09935
    A8        2.09784   0.00000   0.00000   0.00000   0.00000   2.09784
    A9        2.09288   0.00000   0.00000   0.00000   0.00000   2.09288
   A10        2.09247   0.00000   0.00000   0.00000   0.00000   2.09247
   A11        2.06905   0.00000   0.00000   0.00000   0.00000   2.06905
   A12        2.09539   0.00000   0.00000   0.00000   0.00000   2.09539
   A13        2.11856   0.00000   0.00000   0.00000   0.00000   2.11856
   A14        2.18057   0.00000   0.00000   0.00000   0.00000   2.18057
   A15        2.08282   0.00000   0.00000   0.00000   0.00000   2.08282
   A16        2.01979   0.00000   0.00000   0.00000   0.00000   2.01979
   A17        1.93847   0.00000   0.00000   0.00000   0.00000   1.93847
   A18        1.93913   0.00000   0.00000   0.00000   0.00000   1.93913
   A19        1.94613   0.00000   0.00000   0.00000   0.00000   1.94613
   A20        1.87732   0.00000   0.00000   0.00000   0.00000   1.87732
   A21        1.88798   0.00000   0.00000   0.00000   0.00000   1.88798
   A22        1.87182   0.00000   0.00000   0.00000   0.00000   1.87182
   A23        1.93949   0.00000   0.00000   0.00000   0.00000   1.93949
   A24        1.93760   0.00000   0.00000   0.00000   0.00000   1.93760
   A25        1.94641   0.00000   0.00000   0.00000   0.00000   1.94641
   A26        1.87416   0.00000   0.00000   0.00000   0.00000   1.87416
   A27        1.88953   0.00000   0.00000   0.00000   0.00000   1.88953
   A28        1.87364   0.00000   0.00000   0.00000   0.00000   1.87364
    D1        3.13577   0.00000   0.00000   0.00000   0.00000   3.13577
    D2       -0.00974   0.00000   0.00000   0.00000   0.00000  -0.00974
    D3       -0.00649   0.00000   0.00000   0.00000   0.00000  -0.00649
    D4        3.13931   0.00000   0.00000   0.00000   0.00000   3.13931
    D5        0.01704   0.00000   0.00000   0.00000   0.00000   0.01704
    D6       -3.09979   0.00000   0.00000   0.00000   0.00000  -3.09979
    D7       -3.12834   0.00000   0.00000   0.00000   0.00000  -3.12834
    D8        0.03801   0.00000   0.00000   0.00000   0.00000   0.03801
    D9       -0.00789   0.00000   0.00000   0.00000   0.00000  -0.00789
   D10        3.13311   0.00000   0.00000   0.00000   0.00000   3.13310
   D11        3.10916   0.00000   0.00000   0.00000   0.00000   3.10916
   D12       -0.03303   0.00000   0.00000   0.00000   0.00000  -0.03303
   D13       -0.46326   0.00000   0.00000  -0.00004  -0.00004  -0.46330
   D14        1.62136   0.00000   0.00000  -0.00005  -0.00005   1.62132
   D15       -2.57328   0.00000   0.00000  -0.00004  -0.00004  -2.57332
   D16        2.70352   0.00000   0.00000  -0.00004  -0.00004   2.70347
   D17       -1.49505   0.00000   0.00000  -0.00004  -0.00004  -1.49509
   D18        0.59350   0.00000   0.00000  -0.00004  -0.00004   0.59346
   D19       -0.00685   0.00000   0.00000   0.00000   0.00000  -0.00686
   D20        3.11467   0.00000   0.00000   0.00000   0.00000   3.11467
   D21        3.13534   0.00000   0.00000   0.00000   0.00000   3.13534
   D22       -0.02632   0.00000   0.00000   0.00000   0.00000  -0.02633
   D23        0.01473   0.00000   0.00000   0.00000   0.00000   0.01473
   D24       -3.13094   0.00000   0.00000   0.00000   0.00000  -3.13094
   D25       -3.10652   0.00000   0.00000   0.00000   0.00000  -3.10652
   D26        0.03100   0.00000   0.00000   0.00000   0.00000   0.03100
   D27        2.87729   0.00000   0.00000   0.00002   0.00002   2.87732
   D28       -1.31695   0.00000   0.00000   0.00002   0.00002  -1.31693
   D29        0.77014   0.00000   0.00000   0.00002   0.00002   0.77016
   D30       -0.28495   0.00000   0.00000   0.00002   0.00002  -0.28492
   D31        1.80399   0.00000   0.00000   0.00002   0.00002   1.80402
   D32       -2.39210   0.00000   0.00000   0.00002   0.00002  -2.39208
         Item               Value     Threshold  Converged?
 Maximum Force            0.000000     0.000015     YES
 RMS     Force            0.000000     0.000010     YES
 Maximum Displacement     0.000084     0.000060     NO 
 RMS     Displacement     0.000018     0.000040     YES
 Predicted change in Energy=-3.005459D-12
 GradGradGradGradGradGradGradGradGradGradGradGradGradGradGradGradGradGrad

                          Input orientation:                          
 ---------------------------------------------------------------------
 Center     Atomic      Atomic             Coordinates (Angstroms)
 Number     Number       Type             X           Y           Z
 ---------------------------------------------------------------------
      1          6           0        6.308220    6.975730    5.197738
      2          6           0        5.152930    6.163379    5.243634
      3          1           0        5.202099    5.187521    5.734053
      4          6           0        3.905188    6.509482    4.702228
      5          6           0        3.778580    7.735773    4.047886
      6          6           0        4.875146    8.595978    3.948800
      7          6           0        6.090546    8.201422    4.525785
      8          1           0        6.914440    8.913395    4.430091
      9          1           0        2.822694    8.022889    3.612791
     10          6           0        4.744051    9.906794    3.209833
     11          1           0        5.577842   10.573286    3.441637
     12          1           0        4.738096    9.749616    2.126209
     13          1           0        3.814305   10.421211    3.467934
     14          6           0        2.710636    5.596527    4.847096
     15          1           0        3.022082    4.555315    4.958855
     16          1           0        2.121174    5.858465    5.732083
     17          1           0        2.046731    5.664429    3.981392
 ---------------------------------------------------------------------
                    Distance matrix (angstroms):
                    1          2          3          4          5
     1  C    0.000000
     2  C    1.413052   0.000000
     3  H    2.169984   1.093265   0.000000
     4  C    2.497495   1.403484   2.119958   0.000000
     5  C    2.880782   2.406465   3.370927   1.395701   0.000000
     6  C    2.497749   2.769710   3.861555   2.421144   1.397222
     7  C    1.414646   2.355429   3.366430   2.769401   2.406326
     8  H    2.170560   3.365613   4.302855   3.861147   3.371423
     9  H    3.969570   3.398150   4.266219   2.156169   1.088789
    10  C    3.871631   4.279799   5.371502   3.804295   2.519484
    11  H    4.069368   4.782784   5.865392   4.571801   3.414142
    12  H    4.426514   4.769855   5.834771   4.222331   2.944330
    13  H    4.591642   4.803557   5.869649   4.102849   2.747581
    14  C    3.868820   2.538379   2.676073   1.510440   2.521035
    15  H    4.088297   2.684676   2.398560   2.159746   3.393739
    16  H    4.366367   3.085953   3.153136   2.160355   3.017913
    17  H    4.621612   3.389791   3.640825   2.165083   2.700775
                    6          7          8          9         10
     6  C    0.000000
     7  C    1.402064   0.000000
     8  H    2.119225   1.093098   0.000000
     9  H    2.157288   3.397689   4.266540   0.000000
    10  C    1.510463   2.540290   2.680758   2.720861   0.000000
    11  H    2.158876   2.657815   2.349208   3.758279   1.092315
    12  H    2.161366   3.159746   3.277746   2.976621   1.094980
    13  H    2.165201   3.350789   3.579119   2.599274   1.093466
    14  C    3.806409   4.279313   5.370985   2.724573   5.039227
    15  H    4.558619   4.785093   5.867103   3.725011   5.887493
    16  H    4.272989   4.764506   5.831225   3.109382   5.443362
    17  H    4.073693   4.804700   5.869557   2.510043   5.086108
                   11         12         13         14         15
    11  H    0.000000
    12  H    1.764641   0.000000
    13  H    1.770277   1.762003   0.000000
    14  C    5.913064   5.363019   5.137875   0.000000
    15  H    6.711917   6.160304   6.104032   1.092525   0.000000
    16  H    6.278872   5.915375   5.367655   1.095116   1.762872
    17  H    6.070993   5.232007   5.100484   1.093080   1.771123
                   16         17
    16  H    0.000000
    17  H    1.762983   0.000000
 Symmetry turned off by external request.
 Stoichiometry    C8H9(1-)
 Framework group  C1[X(C8H9)]
 Deg. of freedom    45
 Full point group                 C1      NOp   1
 Rotational constants (GHZ):           3.6898653           1.7819709           1.2199155
 Standard basis: 6-311+G(d,p) (5D, 7F)
   230 basis functions,   360 primitive gaussians,   238 cartesian basis functions
    29 alpha electrons       29 beta electrons
       nuclear repulsion energy       329.0442723233 Hartrees.
 NAtoms=   17 NActive=   17 NUniq=   17 SFac= 1.00D+00 NAtFMM=   60 NAOKFM=F Big=F
 Integral buffers will be    131072 words long.
 Raffenetti 2 integral format.
 Two-electron integral symmetry is turned off.
 ------------------------------------------------------------------------------
 Polarizable Continuum Model (PCM)
 =================================
 Model                : PCM.
 Atomic radii         : SMD-Coulomb.
 Polarization charges : Total charges.
 Charge compensation  : None.
 Solution method      : Matrix inversion.
 Cavity type          : VdW (van der Waals Surface) (Alpha=1.000).
 Cavity algorithm     : GePol (No added spheres)
                        Default sphere list used, NSphG=   17.
                        Lebedev-Laikov grids with approx.  5.0 points / Ang**2.
                        Smoothing algorithm: York/Karplus (Gamma=1.0000).
                        Polarization charges: spherical gaussians, with
                                              point-specific exponents (IZeta= 3).
                        Self-potential: point-specific (ISelfS= 7).
                        Self-field    : sphere-specific E.n sum rule (ISelfD= 2).
 1st derivatives      : Analytical E(r).r(x)/FMM algorithm (CHGder, D1EAlg=3).
                        Cavity 1st derivative terms included.
 Solvent              : TetraHydroFuran, Eps=   7.425700 Eps(inf)=   1.974025
 ------------------------------------------------------------------------------
 Spheres list:
 ISph  on   Nord     Re0    Alpha      Xe            Ye            Ze
    1   C      1    1.8500  1.000      6.308220      6.975730      5.197738
    2   C      2    1.8500  1.000      5.152930      6.163379      5.243634
    3   H      3    1.2000  1.000      5.202099      5.187521      5.734053
    4   C      4    1.8500  1.000      3.905188      6.509482      4.702228
    5   C      5    1.8500  1.000      3.778580      7.735773      4.047886
    6   C      6    1.8500  1.000      4.875146      8.595978      3.948800
    7   C      7    1.8500  1.000      6.090546      8.201422      4.525785
    8   H      8    1.2000  1.000      6.914440      8.913395      4.430091
    9   H      9    1.2000  1.000      2.822694      8.022889      3.612791
   10   C     10    1.8500  1.000      4.744051      9.906794      3.209833
   11   H     11    1.2000  1.000      5.577842     10.573286      3.441637
   12   H     12    1.2000  1.000      4.738096      9.749616      2.126209
   13   H     13    1.2000  1.000      3.814305     10.421211      3.467934
   14   C     14    1.8500  1.000      2.710636      5.596527      4.847096
   15   H     15    1.2000  1.000      3.022082      4.555315      4.958855
   16   H     16    1.2000  1.000      2.121174      5.858465      5.732083
   17   H     17    1.2000  1.000      2.046731      5.664429      3.981392
 ------------------------------------------------------------------------------
 ------------------------------------------------------------------------------
 Atomic radii for non-electrostatic terms: SMD-CDS.
 ------------------------------------------------------------------------------
 Nuclear repulsion after PCM non-electrostatic terms =      329.0411805056 Hartrees.
 One-electron integrals computed using PRISM.
 NBasis=   230 RedAO= T EigKep=  2.59D-06  NBF=   230
 NBsUse=   230 1.00D-06 EigRej= -1.00D+00 NBFU=   230
 Initial guess from the checkpoint file:  "3-5-diMe-ph-anion-opt-freq-thf-3.chk"
 B after Tr=     0.000037   -0.000019   -0.000001
         Rot=    1.000000    0.000001    0.000001   -0.000001 Ang=   0.00 deg.
 Requested convergence on RMS density matrix=1.00D-08 within 128 cycles.
 Requested convergence on MAX density matrix=1.00D-06.
 Requested convergence on             energy=1.00D-06.
 Level shift goal  0.100 maximum shift  0.100.
 No special actions if energy rises.
 Dynamic level shift is on during FON iterations.
 Inv3:  Mode=1 IEnd=     5459403.
 Iteration    1 A*A^-1 deviation from unit magnitude is 6.11D-15 for   1332.
 Iteration    1 A*A^-1 deviation from orthogonality  is 2.44D-15 for    986    555.
 Iteration    1 A^-1*A deviation from unit magnitude is 6.77D-15 for   1332.
 Iteration    1 A^-1*A deviation from orthogonality  is 1.74D-15 for    849    818.
 Error on total polarization charges =  0.06718
 SCF Done:  E(RM062X) =  -310.255050538     A.U. after    4 cycles
            NFock=  4  Conv=0.75D-08     -V/T= 2.0045
 SMD-CDS (non-electrostatic) energy       (kcal/mol) =      -1.94
 (included in total energy above)
 D1PCM: PCM CHGder 1st derivatives, ID1Alg=3 FixD1E=F DoIter=F DoCFld=F I1PDM=0.
 Calling FoFJK, ICntrl=      2127 FMM=F ISym2X=0 I1Cent= 0 IOpClX= 0 NMat=1 NMatS=1 NMatT=0.
 -------------------------------------------------------------------
 Center     Atomic                   Forces (Hartrees/Bohr)
 Number     Number              X              Y              Z
 -------------------------------------------------------------------
      1        6           0.000000238    0.000007747    0.000004600
      2        6           0.000004881    0.000000684   -0.000003203
      3        1           0.000008867   -0.000001185   -0.000007315
      4        6           0.000004825   -0.000004358   -0.000006238
      5        6          -0.000000059   -0.000002185   -0.000001333
      6        6          -0.000004796    0.000004727    0.000006480
      7        6          -0.000004557    0.000009385    0.000009216
      8        1          -0.000008444    0.000014706    0.000015356
      9        1          -0.000000166   -0.000005961   -0.000003568
     10        6          -0.000009859    0.000007210    0.000011766
     11        1          -0.000014658    0.000011126    0.000017754
     12        1          -0.000004950    0.000011933    0.000011052
     13        1          -0.000013849    0.000000553    0.000010619
     14        6           0.000009689   -0.000012056   -0.000014649
     15        1           0.000015464   -0.000010699   -0.000018088
     16        1           0.000004898   -0.000019444   -0.000015664
     17        1           0.000012473   -0.000012184   -0.000016786
 -------------------------------------------------------------------
 Cartesian Forces:  Max     0.000019444 RMS     0.000009993

 GradGradGradGradGradGradGradGradGradGradGradGradGradGradGradGradGradGrad
 Berny optimization.
 Using GEDIIS/GDIIS optimizer.
 FormGI is forming the generalized inverse of G from B-inverse, IUseBI=4.
 Internal  Forces:  Max     0.000000020 RMS     0.000000004
 Search for a local minimum.
 Step number   2 out of a maximum of   87
 All quantities printed in internal units (Hartrees-Bohrs-Radians)
 Mixed Optimization -- En-DIIS/RFO-DIIS
 Swapping is turned off.
 Update second derivatives using D2CorX and points    2
 DE= -2.90D-12 DEPred=-3.01D-12 R= 9.65D-01
 Trust test= 9.65D-01 RLast= 1.22D-04 DXMaxT set to 3.00D-01
 ITU=  0  0
     Eigenvalues ---    0.00008   0.00019   0.01565   0.01647   0.01898
     Eigenvalues ---    0.02053   0.02566   0.02846   0.03233   0.03592
     Eigenvalues ---    0.05624   0.05642   0.05774   0.05781   0.11297
     Eigenvalues ---    0.11865   0.11898   0.12442   0.12609   0.13788
     Eigenvalues ---    0.14029   0.14257   0.14302   0.17805   0.18678
     Eigenvalues ---    0.19413   0.19782   0.21032   0.26685   0.31463
     Eigenvalues ---    0.31798   0.33428   0.33483   0.33514   0.33781
     Eigenvalues ---    0.34099   0.34190   0.34739   0.34761   0.35278
     Eigenvalues ---    0.39093   0.40096   0.45330   0.45488   0.49370
 Eigenvalue     1 is   7.99D-05 Eigenvector:
                          D14       D15       D17       D13       D18
   1                    0.33769   0.33445   0.33229   0.33074   0.32905
                          D16       D31       D32       D30       D28
   1                    0.32534  -0.24579  -0.24421  -0.23933  -0.23473
 En-DIIS/RFO-DIIS/Sim-DIIS IScMMF=       -3 using points:     2    1
 RFO step:  Lambda=-4.27303918D-15.
 DIIS inversion failure, remove point   2.
 Use linear search instead of GDIIS.
 RFO step:  Lambda= 0.00000000D+00 EMin= 1.00000000D-04
 Skip linear search -- no minimum in search direction.
 Iteration  1 RMS(Cart)=  0.00000428 RMS(Int)=  0.00000000
 Iteration  2 RMS(Cart)=  0.00000000 RMS(Int)=  0.00000000
 Variable       Old X    -DE/DX   Delta X   Delta X   Delta X     New X
                                 (Linear)    (Quad)   (Total)
    R1        2.67028   0.00000   0.00000   0.00000   0.00000   2.67028
    R2        2.67329   0.00000   0.00000   0.00000   0.00000   2.67329
    R3        2.06597   0.00000   0.00000   0.00000   0.00000   2.06597
    R4        2.65220   0.00000   0.00000   0.00000   0.00000   2.65220
    R5        2.63749   0.00000   0.00000   0.00000   0.00000   2.63749
    R6        2.85432   0.00000   0.00000   0.00000   0.00000   2.85432
    R7        2.64037   0.00000   0.00000   0.00000   0.00000   2.64037
    R8        2.05751   0.00000   0.00000   0.00000   0.00000   2.05751
    R9        2.64952   0.00000   0.00000   0.00000   0.00000   2.64952
   R10        2.85436   0.00000   0.00000   0.00000   0.00000   2.85436
   R11        2.06566   0.00000   0.00000   0.00000   0.00000   2.06566
   R12        2.06418   0.00000   0.00000   0.00000   0.00000   2.06418
   R13        2.06921   0.00000   0.00000   0.00000   0.00000   2.06921
   R14        2.06635   0.00000   0.00000   0.00000   0.00000   2.06635
   R15        2.06457   0.00000   0.00000   0.00000   0.00000   2.06457
   R16        2.06947   0.00000   0.00000   0.00000   0.00000   2.06947
   R17        2.06562   0.00000   0.00000   0.00000   0.00000   2.06562
    A1        1.96896   0.00000   0.00000   0.00000   0.00000   1.96896
    A2        2.08398   0.00000   0.00000   0.00000   0.00000   2.08398
    A3        2.18042   0.00000   0.00000   0.00000   0.00000   2.18042
    A4        2.01878   0.00000   0.00000   0.00000   0.00000   2.01878
    A5        2.06937   0.00000   0.00000   0.00000   0.00000   2.06937
    A6        2.11420   0.00000   0.00000   0.00000   0.00000   2.11420
    A7        2.09935   0.00000   0.00000   0.00000   0.00000   2.09935
    A8        2.09784   0.00000   0.00000   0.00000   0.00000   2.09784
    A9        2.09288   0.00000   0.00000   0.00000   0.00000   2.09288
   A10        2.09247   0.00000   0.00000   0.00000   0.00000   2.09247
   A11        2.06905   0.00000   0.00000   0.00000   0.00000   2.06905
   A12        2.09539   0.00000   0.00000   0.00000   0.00000   2.09539
   A13        2.11856   0.00000   0.00000   0.00000   0.00000   2.11856
   A14        2.18057   0.00000   0.00000   0.00000   0.00000   2.18057
   A15        2.08282   0.00000   0.00000   0.00000   0.00000   2.08282
   A16        2.01979   0.00000   0.00000   0.00000   0.00000   2.01979
   A17        1.93847   0.00000   0.00000   0.00000   0.00000   1.93847
   A18        1.93913   0.00000   0.00000   0.00000   0.00000   1.93913
   A19        1.94613   0.00000   0.00000   0.00000   0.00000   1.94613
   A20        1.87732   0.00000   0.00000   0.00000   0.00000   1.87732
   A21        1.88798   0.00000   0.00000   0.00000   0.00000   1.88798
   A22        1.87182   0.00000   0.00000   0.00000   0.00000   1.87182
   A23        1.93949   0.00000   0.00000   0.00000   0.00000   1.93949
   A24        1.93760   0.00000   0.00000   0.00000   0.00000   1.93760
   A25        1.94641   0.00000   0.00000   0.00000   0.00000   1.94641
   A26        1.87416   0.00000   0.00000   0.00000   0.00000   1.87416
   A27        1.88953   0.00000   0.00000   0.00000   0.00000   1.88953
   A28        1.87364   0.00000   0.00000   0.00000   0.00000   1.87364
    D1        3.13577   0.00000   0.00000   0.00000   0.00000   3.13577
    D2       -0.00974   0.00000   0.00000   0.00000   0.00000  -0.00974
    D3       -0.00649   0.00000   0.00000   0.00000   0.00000  -0.00649
    D4        3.13931   0.00000   0.00000   0.00000   0.00000   3.13931
    D5        0.01704   0.00000   0.00000   0.00000   0.00000   0.01704
    D6       -3.09979   0.00000   0.00000   0.00000   0.00000  -3.09979
    D7       -3.12834   0.00000   0.00000   0.00000   0.00000  -3.12834
    D8        0.03801   0.00000   0.00000   0.00000   0.00000   0.03801
    D9       -0.00789   0.00000   0.00000   0.00000   0.00000  -0.00789
   D10        3.13310   0.00000   0.00000   0.00000   0.00000   3.13310
   D11        3.10916   0.00000   0.00000   0.00000   0.00000   3.10916
   D12       -0.03303   0.00000   0.00000   0.00000   0.00000  -0.03303
   D13       -0.46330   0.00000   0.00000   0.00001   0.00001  -0.46329
   D14        1.62132   0.00000   0.00000   0.00001   0.00001   1.62133
   D15       -2.57332   0.00000   0.00000   0.00001   0.00001  -2.57331
   D16        2.70347   0.00000   0.00000   0.00001   0.00001   2.70349
   D17       -1.49509   0.00000   0.00000   0.00001   0.00001  -1.49508
   D18        0.59346   0.00000   0.00000   0.00001   0.00001   0.59347
   D19       -0.00686   0.00000   0.00000   0.00000   0.00000  -0.00686
   D20        3.11467   0.00000   0.00000   0.00000   0.00000   3.11467
   D21        3.13534   0.00000   0.00000   0.00000   0.00000   3.13534
   D22       -0.02633   0.00000   0.00000   0.00000   0.00000  -0.02633
   D23        0.01473   0.00000   0.00000   0.00000   0.00000   0.01473
   D24       -3.13094   0.00000   0.00000   0.00000   0.00000  -3.13094
   D25       -3.10652   0.00000   0.00000   0.00000   0.00000  -3.10652
   D26        0.03100   0.00000   0.00000   0.00000   0.00000   0.03100
   D27        2.87732   0.00000   0.00000   0.00000   0.00000   2.87732
   D28       -1.31693   0.00000   0.00000   0.00000   0.00000  -1.31692
   D29        0.77016   0.00000   0.00000   0.00000   0.00000   0.77016
   D30       -0.28492   0.00000   0.00000   0.00000   0.00000  -0.28492
   D31        1.80402   0.00000   0.00000   0.00000   0.00000   1.80402
   D32       -2.39208   0.00000   0.00000   0.00000   0.00000  -2.39208
         Item               Value     Threshold  Converged?
 Maximum Force            0.000000     0.000015     YES
 RMS     Force            0.000000     0.000010     YES
 Maximum Displacement     0.000020     0.000060     YES
 RMS     Displacement     0.000004     0.000040     YES
 Predicted change in Energy=-6.342290D-14
 Optimization completed.
    -- Stationary point found.
                           ----------------------------
                           !   Optimized Parameters   !
                           ! (Angstroms and Degrees)  !
 --------------------------                            --------------------------
 ! Name  Definition              Value          Derivative Info.                !
 --------------------------------------------------------------------------------
 ! R1    R(1,2)                  1.4131         -DE/DX =    0.0                 !
 ! R2    R(1,7)                  1.4146         -DE/DX =    0.0                 !
 ! R3    R(2,3)                  1.0933         -DE/DX =    0.0                 !
 ! R4    R(2,4)                  1.4035         -DE/DX =    0.0                 !
 ! R5    R(4,5)                  1.3957         -DE/DX =    0.0                 !
 ! R6    R(4,14)                 1.5104         -DE/DX =    0.0                 !
 ! R7    R(5,6)                  1.3972         -DE/DX =    0.0                 !
 ! R8    R(5,9)                  1.0888         -DE/DX =    0.0                 !
 ! R9    R(6,7)                  1.4021         -DE/DX =    0.0                 !
 ! R10   R(6,10)                 1.5105         -DE/DX =    0.0                 !
 ! R11   R(7,8)                  1.0931         -DE/DX =    0.0                 !
 ! R12   R(10,11)                1.0923         -DE/DX =    0.0                 !
 ! R13   R(10,12)                1.095          -DE/DX =    0.0                 !
 ! R14   R(10,13)                1.0935         -DE/DX =    0.0                 !
 ! R15   R(14,15)                1.0925         -DE/DX =    0.0                 !
 ! R16   R(14,16)                1.0951         -DE/DX =    0.0                 !
 ! R17   R(14,17)                1.0931         -DE/DX =    0.0                 !
 ! A1    A(2,1,7)              112.8132         -DE/DX =    0.0                 !
 ! A2    A(1,2,3)              119.4032         -DE/DX =    0.0                 !
 ! A3    A(1,2,4)              124.929          -DE/DX =    0.0                 !
 ! A4    A(3,2,4)              115.6675         -DE/DX =    0.0                 !
 ! A5    A(2,4,5)              118.566          -DE/DX =    0.0                 !
 ! A6    A(2,4,14)             121.1346         -DE/DX =    0.0                 !
 ! A7    A(5,4,14)             120.2841         -DE/DX =    0.0                 !
 ! A8    A(4,5,6)              120.1974         -DE/DX =    0.0                 !
 ! A9    A(4,5,9)              119.913          -DE/DX =    0.0                 !
 ! A10   A(6,5,9)              119.8897         -DE/DX =    0.0                 !
 ! A11   A(5,6,7)              118.5481         -DE/DX =    0.0                 !
 ! A12   A(5,6,10)             120.0568         -DE/DX =    0.0                 !
 ! A13   A(7,6,10)             121.3848         -DE/DX =    0.0                 !
 ! A14   A(1,7,6)              124.9375         -DE/DX =    0.0                 !
 ! A15   A(1,7,8)              119.3368         -DE/DX =    0.0                 !
 ! A16   A(6,7,8)              115.7253         -DE/DX =    0.0                 !
 ! A17   A(6,10,11)            111.066          -DE/DX =    0.0                 !
 ! A18   A(6,10,12)            111.1039         -DE/DX =    0.0                 !
 ! A19   A(6,10,13)            111.5051         -DE/DX =    0.0                 !
 ! A20   A(11,10,12)           107.5627         -DE/DX =    0.0                 !
 ! A21   A(11,10,13)           108.1734         -DE/DX =    0.0                 !
 ! A22   A(12,10,13)           107.2473         -DE/DX =    0.0                 !
 ! A23   A(4,14,15)            111.1248         -DE/DX =    0.0                 !
 ! A24   A(4,14,16)            111.016          -DE/DX =    0.0                 !
 ! A25   A(4,14,17)            111.5209         -DE/DX =    0.0                 !
 ! A26   A(15,14,16)           107.3814         -DE/DX =    0.0                 !
 ! A27   A(15,14,17)           108.262          -DE/DX =    0.0                 !
 ! A28   A(16,14,17)           107.3517         -DE/DX =    0.0                 !
 ! D1    D(7,1,2,3)            179.6665         -DE/DX =    0.0                 !
 ! D2    D(7,1,2,4)             -0.5583         -DE/DX =    0.0                 !
 ! D3    D(2,1,7,6)             -0.372          -DE/DX =    0.0                 !
 ! D4    D(2,1,7,8)            179.8693         -DE/DX =    0.0                 !
 ! D5    D(1,2,4,5)              0.9764         -DE/DX =    0.0                 !
 ! D6    D(1,2,4,14)          -177.6049         -DE/DX =    0.0                 !
 ! D7    D(3,2,4,5)           -179.2409         -DE/DX =    0.0                 !
 ! D8    D(3,2,4,14)             2.1778         -DE/DX =    0.0                 !
 ! D9    D(2,4,5,6)             -0.4519         -DE/DX =    0.0                 !
 ! D10   D(2,4,5,9)            179.5137         -DE/DX =    0.0                 !
 ! D11   D(14,4,5,6)           178.1418         -DE/DX =    0.0                 !
 ! D12   D(14,4,5,9)            -1.8926         -DE/DX =    0.0                 !
 ! D13   D(2,4,14,15)          -26.5453         -DE/DX =    0.0                 !
 ! D14   D(2,4,14,16)           92.8946         -DE/DX =    0.0                 !
 ! D15   D(2,4,14,17)         -147.4405         -DE/DX =    0.0                 !
 ! D16   D(5,4,14,15)          154.8977         -DE/DX =    0.0                 !
 ! D17   D(5,4,14,16)          -85.6625         -DE/DX =    0.0                 !
 ! D18   D(5,4,14,17)           34.0025         -DE/DX =    0.0                 !
 ! D19   D(4,5,6,7)             -0.3928         -DE/DX =    0.0                 !
 ! D20   D(4,5,6,10)           178.4573         -DE/DX =    0.0                 !
 ! D21   D(9,5,6,7)            179.6416         -DE/DX =    0.0                 !
 ! D22   D(9,5,6,10)            -1.5083         -DE/DX =    0.0                 !
 ! D23   D(5,6,7,1)              0.8437         -DE/DX =    0.0                 !
 ! D24   D(5,6,7,8)           -179.3897         -DE/DX =    0.0                 !
 ! D25   D(10,6,7,1)          -177.9904         -DE/DX =    0.0                 !
 ! D26   D(10,6,7,8)             1.7761         -DE/DX =    0.0                 !
 ! D27   D(5,6,10,11)          164.8582         -DE/DX =    0.0                 !
 ! D28   D(5,6,10,12)          -75.4543         -DE/DX =    0.0                 !
 ! D29   D(5,6,10,13)           44.1271         -DE/DX =    0.0                 !
 ! D30   D(7,6,10,11)          -16.325          -DE/DX =    0.0                 !
 ! D31   D(7,6,10,12)          103.3625         -DE/DX =    0.0                 !
 ! D32   D(7,6,10,13)         -137.0561         -DE/DX =    0.0                 !
 --------------------------------------------------------------------------------
 GradGradGradGradGradGradGradGradGradGradGradGradGradGradGradGradGradGrad

                          Input orientation:                          
 ---------------------------------------------------------------------
 Center     Atomic      Atomic             Coordinates (Angstroms)
 Number     Number       Type             X           Y           Z
 ---------------------------------------------------------------------
      1          6           0        6.308220    6.975730    5.197738
      2          6           0        5.152930    6.163379    5.243634
      3          1           0        5.202099    5.187521    5.734053
      4          6           0        3.905188    6.509482    4.702228
      5          6           0        3.778580    7.735773    4.047886
      6          6           0        4.875146    8.595978    3.948800
      7          6           0        6.090546    8.201422    4.525785
      8          1           0        6.914440    8.913395    4.430091
      9          1           0        2.822694    8.022889    3.612791
     10          6           0        4.744051    9.906794    3.209833
     11          1           0        5.577842   10.573286    3.441637
     12          1           0        4.738096    9.749616    2.126209
     13          1           0        3.814305   10.421211    3.467934
     14          6           0        2.710636    5.596527    4.847096
     15          1           0        3.022082    4.555315    4.958855
     16          1           0        2.121174    5.858465    5.732083
     17          1           0        2.046731    5.664429    3.981392
 ---------------------------------------------------------------------
                    Distance matrix (angstroms):
                    1          2          3          4          5
     1  C    0.000000
     2  C    1.413052   0.000000
     3  H    2.169984   1.093265   0.000000
     4  C    2.497495   1.403484   2.119958   0.000000
     5  C    2.880782   2.406465   3.370927   1.395701   0.000000
     6  C    2.497749   2.769710   3.861555   2.421144   1.397222
     7  C    1.414646   2.355429   3.366430   2.769401   2.406326
     8  H    2.170560   3.365613   4.302855   3.861147   3.371423
     9  H    3.969570   3.398150   4.266219   2.156169   1.088789
    10  C    3.871631   4.279799   5.371502   3.804295   2.519484
    11  H    4.069368   4.782784   5.865392   4.571801   3.414142
    12  H    4.426514   4.769855   5.834771   4.222331   2.944330
    13  H    4.591642   4.803557   5.869649   4.102849   2.747581
    14  C    3.868820   2.538379   2.676073   1.510440   2.521035
    15  H    4.088297   2.684676   2.398560   2.159746   3.393739
    16  H    4.366367   3.085953   3.153136   2.160355   3.017913
    17  H    4.621612   3.389791   3.640825   2.165083   2.700775
                    6          7          8          9         10
     6  C    0.000000
     7  C    1.402064   0.000000
     8  H    2.119225   1.093098   0.000000
     9  H    2.157288   3.397689   4.266540   0.000000
    10  C    1.510463   2.540290   2.680758   2.720861   0.000000
    11  H    2.158876   2.657815   2.349208   3.758279   1.092315
    12  H    2.161366   3.159746   3.277746   2.976621   1.094980
    13  H    2.165201   3.350789   3.579119   2.599274   1.093466
    14  C    3.806409   4.279313   5.370985   2.724573   5.039227
    15  H    4.558619   4.785093   5.867103   3.725011   5.887493
    16  H    4.272989   4.764506   5.831225   3.109382   5.443362
    17  H    4.073693   4.804700   5.869557   2.510043   5.086108
                   11         12         13         14         15
    11  H    0.000000
    12  H    1.764641   0.000000
    13  H    1.770277   1.762003   0.000000
    14  C    5.913064   5.363019   5.137875   0.000000
    15  H    6.711917   6.160304   6.104032   1.092525   0.000000
    16  H    6.278872   5.915375   5.367655   1.095116   1.762872
    17  H    6.070993   5.232007   5.100484   1.093080   1.771123
                   16         17
    16  H    0.000000
    17  H    1.762983   0.000000
 Symmetry turned off by external request.
 Stoichiometry    C8H9(1-)
 Framework group  C1[X(C8H9)]
 Deg. of freedom    45
 Full point group                 C1      NOp   1
 Rotational constants (GHZ):           3.6898653           1.7819709           1.2199155

 **********************************************************************

            Population analysis using the SCF Density.

 **********************************************************************

 Alpha  occ. eigenvalues --  -10.50694 -10.50685 -10.50214 -10.50211 -10.49301
 Alpha  occ. eigenvalues --  -10.48035 -10.48003 -10.44537  -0.91220  -0.83931
 Alpha  occ. eigenvalues --   -0.79061  -0.74493  -0.72001  -0.60653  -0.60259
 Alpha  occ. eigenvalues --   -0.52284  -0.48508  -0.46205  -0.45071  -0.44793
 Alpha  occ. eigenvalues --   -0.42765  -0.41592  -0.39302  -0.39003  -0.36473
 Alpha  occ. eigenvalues --   -0.33471  -0.24742  -0.24504  -0.19175
 Alpha virt. eigenvalues --    0.03651   0.04802   0.05462   0.05761   0.05844
 Alpha virt. eigenvalues --    0.06871   0.07039   0.07472   0.08736   0.09425
 Alpha virt. eigenvalues --    0.09759   0.10683   0.10927   0.11791   0.13371
 Alpha virt. eigenvalues --    0.13804   0.14687   0.15052   0.15416   0.17368
 Alpha virt. eigenvalues --    0.18203   0.18647   0.18971   0.20043   0.20511
 Alpha virt. eigenvalues --    0.20604   0.22182   0.23103   0.23681   0.24740
 Alpha virt. eigenvalues --    0.24859   0.25040   0.25969   0.26450   0.26961
 Alpha virt. eigenvalues --    0.27134   0.27203   0.27714   0.29085   0.29842
 Alpha virt. eigenvalues --    0.31081   0.31724   0.32206   0.33075   0.36572
 Alpha virt. eigenvalues --    0.37840   0.40698   0.41110   0.43801   0.45053
 Alpha virt. eigenvalues --    0.48342   0.48946   0.50666   0.52612   0.56089
 Alpha virt. eigenvalues --    0.56957   0.60215   0.62110   0.62938   0.63565
 Alpha virt. eigenvalues --    0.63974   0.65711   0.66603   0.66918   0.68161
 Alpha virt. eigenvalues --    0.69026   0.71100   0.71528   0.72244   0.72733
 Alpha virt. eigenvalues --    0.72888   0.74828   0.77058   0.77282   0.77574
 Alpha virt. eigenvalues --    0.78569   0.80504   0.81919   0.84060   0.84608
 Alpha virt. eigenvalues --    0.85672   0.91401   0.94186   0.94307   0.97369
 Alpha virt. eigenvalues --    0.99536   1.01000   1.02353   1.03415   1.04272
 Alpha virt. eigenvalues --    1.04510   1.09906   1.11194   1.12517   1.17590
 Alpha virt. eigenvalues --    1.21039   1.24871   1.25845   1.25881   1.40876
 Alpha virt. eigenvalues --    1.44020   1.45248   1.46695   1.51840   1.54525
 Alpha virt. eigenvalues --    1.55659   1.57395   1.59310   1.60860   1.61752
 Alpha virt. eigenvalues --    1.63120   1.65713   1.66399   1.67679   1.68167
 Alpha virt. eigenvalues --    1.69574   1.70285   1.75546   1.77658   1.78657
 Alpha virt. eigenvalues --    1.79630   1.80780   1.80949   1.88792   1.90019
 Alpha virt. eigenvalues --    1.90986   1.93593   1.97184   1.98896   2.00030
 Alpha virt. eigenvalues --    2.03177   2.06263   2.07813   2.08988   2.10134
 Alpha virt. eigenvalues --    2.11933   2.13561   2.18797   2.22567   2.23347
 Alpha virt. eigenvalues --    2.27495   2.28670   2.35156   2.39873   2.40303
 Alpha virt. eigenvalues --    2.46410   2.46739   2.50509   2.51948   2.53435
 Alpha virt. eigenvalues --    2.58595   2.59233   2.60845   2.62024   2.64476
 Alpha virt. eigenvalues --    2.65122   2.66380   2.69716   2.72825   2.74930
 Alpha virt. eigenvalues --    2.79539   2.80195   2.81206   2.82617   2.83893
 Alpha virt. eigenvalues --    2.86516   2.92911   2.93449   2.95512   2.97589
 Alpha virt. eigenvalues --    2.98142   3.04147   3.05515   3.18176   3.20125
 Alpha virt. eigenvalues --    3.28239   3.30762   3.31809   3.48180   3.48936
 Alpha virt. eigenvalues --    3.58371   3.74645   3.74808   3.86320   3.87005
 Alpha virt. eigenvalues --    3.87910   3.89393   3.90962   4.19505   4.20760
 Alpha virt. eigenvalues --    4.39501   4.41620   4.83794  23.68276  24.02799
 Alpha virt. eigenvalues --   24.03649  24.08209  24.08960  24.18682  24.19600
 Alpha virt. eigenvalues --   24.26494
          Condensed to atoms (all electrons):
               1          2          3          4          5          6
     1  C    9.323090  -1.668039  -0.088108   1.513687  -1.779913   1.499484
     2  C   -1.668039   9.429077   0.468933  -1.403021   0.044558  -1.218737
     3  H   -0.088108   0.468933   0.556215  -0.134504  -0.006312  -0.014166
     4  C    1.513687  -1.403021  -0.134504   9.180869  -3.041461   2.021272
     5  C   -1.779913   0.044558  -0.006312  -3.041461  12.704172  -2.775936
     6  C    1.499484  -1.218737  -0.014166   2.021272  -2.775936   8.968654
     7  C   -1.625103   0.705847   0.047030  -1.224952   0.125598  -1.512147
     8  H   -0.091638   0.050014   0.000044  -0.013677   0.001280  -0.122183
     9  H    0.010316  -0.015922  -0.000315   0.091059   0.134953   0.111734
    10  C   -0.091117   0.139941  -0.000391  -0.475011   0.581010  -1.111558
    11  H    0.022051   0.008350   0.000002   0.003542  -0.125687  -0.195829
    12  H    0.003738  -0.004439   0.000000   0.021071  -0.085186   0.127890
    13  H    0.002956  -0.004715  -0.000003   0.010192   0.174671  -0.120374
    14  C   -0.098879  -0.056227   0.029431  -1.155195   0.720157  -0.437251
[...]
 Unable to Open any file for archive entry.
 1\1\GINC-CN007\Freq\RM062X\6-311+G(d,p)\C8H9(1-)\TAHMINAAFROZ\02-Jun-2
 025\0\\#N Geom=AllCheck Guess=TCheck SCRF=Check GenChk RM062X/6-311+G(
 d,p) Freq\\3-5-diMe-ph-anion-opt-freq-thf-2\\-1,1\C,6.3082201859,6.975
 7299714,5.1977381984\C,5.1529303673,6.1633792936,5.2436337962\H,5.2020
 986824,5.1875208837,5.73405311\C,3.9051883531,6.5094818226,4.702227723
 9\C,3.7785801965,7.7357725451,4.0478858248\C,4.8751462903,8.5959778088
 ,3.948800478\C,6.0905464907,8.2014217707,4.5257853532\H,6.9144403766,8
 .9133946491,4.4300914856\H,2.8226944182,8.0228888554,3.6127913242\C,4.
 7440510002,9.9067939402,3.2098331275\H,5.5778422253,10.573285896,3.441
 6368181\H,4.7380957266,9.7496159361,2.1262091179\H,3.8143054855,10.421
 2114226,3.4679338873\C,2.710635602,5.5965265481,4.8470956078\H,3.02208
 22732,4.5553151171,4.9588545713\H,2.1211735966,5.8584651679,5.73208257
 18\H,2.0467307297,5.6644293717,3.981392004\\Version=AS64L-G16RevC.01\H
 F=-310.2550505\RMSD=3.074e-09\RMSF=9.993e-06\ZeroPoint=0.1418933\Therm
 al=0.1498753\ETot=-310.1051753\HTot=-310.1042311\GTot=-310.1466244\Dip
 ole=-3.5085268,1.0515136,-1.5854136\DipoleDeriv=-0.3438735,-0.0706689,
 0.1735815,-0.0773546,-0.6442718,-0.1140442,0.179757,-0.1068641,-0.7121
 467,-0.3626534,0.0029211,-0.0144192,0.1708396,0.1044036,-0.1062068,-0.
 1031425,-0.1454926,-0.1816641,0.0550249,-0.0306455,-0.0029281,-0.07999
 63,-0.2331112,0.1447743,0.0120734,0.1521991,0.0372735,0.219433,0.06361
 64,-0.0181528,0.0510735,0.2063323,-0.1341975,-0.0768678,-0.1864061,0.0
 486407,-0.1817867,-0.1343943,0.1016492,-0.1219538,-0.431104,0.0653871,
 0.1038814,0.0690574,-0.2779168,0.1750772,0.1196938,0.0184904,0.0744037
 ,0.1884001,-0.133409,0.0406604,-0.1831443,0.1009298,-0.1862038,0.29663
 06,-0.1485008,0.1543215,0.0146599,-0.050248,-0.0616753,0.0008211,-0.24
 70422,-0.0804282,-0.1973241,0.0397872,-0.1508907,-0.146448,0.0796143,0
 .0189402,0.0577462,0.0889578,-0.1394221,0.0593794,-0.1249827,0.0556998
 ,0.076189,0.0619473,-0.1259101,0.0621369,0.1028611,0.087139,0.0651392,
 -0.0449828,0.0009789,0.0154364,0.0596227,-0.0387913,0.1908967,0.003536
 7,-0.0560424,-0.1570434,-0.0221725,-0.0694945,-0.0582876,0.0293815,-0.
 0608011,-0.0400438,0.0728476,0.1073465,0.0034316,-0.0049953,0.0145744,
 -0.027809,0.0055151,-0.0195937,0.0680255,-0.1822991,-0.1002948,0.13654
 42,0.0271491,0.0829913,-0.056681,0.0500906,0.066744,-0.01014,0.0697507
 ,-0.0808584,-0.1286529,0.0183307,-0.0136766,0.0830323,0.0158517,0.1028
 649,0.0780472,0.1056435,0.0284092,0.0858981,-0.009333,-0.0282142,-0.16
 67134,0.0328384,-0.010279,0.0223951,0.0937343,-0.0761665,-0.0644958,0.
 101209,-0.0377796,0.0287211,-0.0559,0.142343,-0.022496,-0.0536881,-0.0
 646999,-0.0500296,-0.0897299,-0.0255223,0.0472514,0.0489825,-0.1702036
 ,-0.0067382,-0.0694189\Polar=169.0105372,4.941461,152.5672937,18.38142
 25,-26.8126983,117.6034754\Quadrupole=-9.4937052,-30.6270933,40.120798
 5,-158.3206639,-121.6344713,-131.2756454\PG=C01 [X(C8H9)]\NImag=0\\0.3
 6206926,0.08601483,0.41835688,0.04524907,-0.14380481,0.15991475,-0.225
 27396,-0.08421461,-0.01194959,0.56502056,-0.10390962,-0.15553565,0.019
 62848,0.04904261,0.57890841,-0.00192661,0.02669647,-0.06632368,0.10286
 220,-0.20226357,0.26654341,0.00080567,-0.02243448,0.01240175,-0.053386
 91,0.01289318,-0.01054921,0.06008836,-0.00291990,-0.01463001,0.0047793
 9,0.01873611,-0.25176429,0.10950065,-0.01110235,0.27320995,0.00210677,
 -0.00156687,-0.00240314,-0.01254123,0.10778026,-0.09433601,0.01526337,
 -0.12374794,0.09077354,-0.05009725,-0.04509006,0.00081802,-0.25307882,
 0.07277731,-0.08866658,-0.00147376,-0.00252520,-0.00136294,0.60255988,
 0.00411575,0.05289293,-0.01451242,-0.00069408,-0.12614566,0.02615131,0
 .02459825,-0.00942900,0.01346919,0.04277480,0.57014190,-0.02244524,-0.
 03067163,0.02815639,-0.05331544,0.04979568,-0.10947674,-0.01375707,0.0
 0583763,-0.00280420,0.10124615,-0.18920811,0.29888385,-0.00949885,-0.0
 2472279,0.01124486,0.02100758,0.02775527,-0.01006151,-0.00404284,0.001
 75502,-0.00398289,-0.12108124,0.04497133,-0.03901589,0.67542351,-0.024
 59182,-0.05523354,0.01548901,0.07825909,-0.00128157,0.03050684,0.00023
 745,0.00273005,0.00237694,-0.02137745,-0.26816079,0.09515295,0.0471346
 1,0.57206637,0.01114032,0.01513544,-0.01128228,-0.03386639,0.01418487,
 -0.00773569,-0.00329596,0.00242817,0.00448119,-0.00756298,0.11633673,-
 0.12822017,0.14100810,-0.21023102,0.27999735,0.02699165,0.07591159,-0.
 03481454,-0.07155813,-0.00956995,-0.01535202,-0.00137194,-0.00040307,-
 0.00014629,0.04714312,-0.06435533,0.04411531,-0.24572543,-0.06860202,-
 0.01683013,0.62484764,0.02631377,0.00329395,0.01629068,-0.01561166,-0.
 00373389,-0.00731594,-0.00060438,0.00014644,-0.00077861,-0.01238775,-0
 .03955409,0.01898881,-0.13466312,-0.18523653,0.01897679,0.06771210,0.5
 4974784,-0.01196810,0.03118890,0.00041248,-0.01120005,-0.00601156,-0.0
 0968301,0.00011162,-0.00071923,-0.00050968,0.02029659,0.00280207,0.009
 01333,0.01428709,0.03880626,-0.08226751,0.10540312,-0.17435474,0.29441
 769,-0.10652520,0.00919955,-0.01923554,0.03853851,-0.02076789,0.023080
 68,-0.00148620,-0.00442235,-0.00132248,-0.02627331,0.03280771,-0.02205
 029,-0.05606440,-0.04463056,0.00064291,-0.25418784,0.07083055,-0.09337
 580,0.61022538,0.02974388,-0.23226871,0.09624969,-0.04727299,-0.038315
 49,0.00368751,-0.00540079,0.00012140,0.00341774,0.02758003,-0.03355704
 ,0.01994687,0.00626949,0.04952187,-0.01672395,-0.00360534,-0.12431955,
 0.02708309,0.09307874,0.54531450,-0.02891048,0.09095974,-0.10949717,0.
 03450847,0.01225399,0.00396800,-0.00100459,0.00361087,0.00850710,-0.01
 822038,0.02182711,-0.02547084,-0.02307574,-0.03242137,0.01833495,-0.05
 759429,0.04949595,-0.11099688,0.10135809,-0.17400523,0.25609016,0.0067
 7650,0.00347477,0.00163719,0.00308218,-0.00037682,-0.00212257,0.000039
 93,0.00012206,-0.00006741,0.00007962,0.00111666,-0.00029266,-0.0032248
 3,0.00218445,-0.00432488,-0.02147716,-0.02047116,0.00219360,-0.2032374
 1,-0.12382359,0.00929144,0.21826194,-0.01644935,-0.01882527,0.00270914
 ,-0.00123973,-0.00277373,0.00597787,-0.00108231,-0.00084814,0.00012359
 ,0.00086852,-0.00087568,0.00016494,0.00094678,0.00233198,0.00250965,0.
 00582834,0.00322444,0.00228173,-0.12964513,-0.15178258,0.01657507,0.13
 870239,0.16833920,0.01176110,0.00812221,-0.00395341,-0.00169289,0.0063
 8941,0.00663237,0.00051428,0.00050306,0.00000552,-0.00009471,0.0001592
 5,-0.00100757,-0.00349248,0.00315801,0.00414942,-0.01068037,-0.0065842
 2,0.00411417,0.01162691,0.01888047,-0.04273357,-0.00826060,-0.02808545
 ,0.03622088,-0.00026163,0.00017582,0.00087930,0.00289211,-0.00026876,-
 0.00118588,-0.00011361,0.00013948,-0.00014510,-0.00169761,-0.00100830,
 -0.00114499,-0.26353490,0.05974119,-0.10016050,-0.01781560,0.00972306,
 -0.01086527,-0.00097845,-0.00523564,0.00017166,-0.00131279,0.00013023,
 -0.00069463,0.28073567,0.00021507,-0.00096320,-0.00118954,-0.00163069,
 -0.00330012,0.00478579,0.00136420,-0.00044337,0.00077544,0.02422155,-0
 .00284260,0.01050526,0.05976075,-0.07172405,0.03701133,-0.01614014,0.0
 0775489,-0.00727410,-0.00393032,-0.00079614,0.00281094,-0.00104321,0.0
 0036683,-0.00031265,-0.06422710,0.07100993,0.00090897,-0.00108329,-0.0
 0263385,-0.00042221,0.00506349,0.00450084,-0.00081737,0.00050750,-0.00
 006272,-0.01403931,0.00199378,-0.00238751,-0.09988076,0.03767277,-0.08
 292078,0.00165781,0.00001408,0.00348962,-0.00060102,0.00233635,0.00578
 404,0.00001762,0.00009047,0.00033807,0.11058368,-0.04324555,0.07902338
 ,-0.00321336,-0.00004057,-0.00372488,-0.00057422,0.00026903,-0.0003124
 4,0.00018079,0.00025654,0.00051126,-0.00378622,-0.00285239,-0.00065609
 ,0.00595223,-0.02307606,0.01350410,-0.08776132,0.00677748,-0.00934189,
 0.00105342,0.02432574,-0.01483623,0.00032867,0.00220555,0.00074005,0.0
 0081960,-0.00034711,0.00058447,0.57900264,-0.00072604,0.00247789,0.001
 50058,0.00136409,-0.00028705,0.00026239,0.00016281,-0.00029838,-0.0005
 5119,-0.00408007,0.00301202,0.00061421,0.00038215,-0.02261123,0.013847
 62,0.00722885,-0.18446956,0.06364600,0.00330185,-0.01058163,0.00929738
 ,-0.00126321,0.00047062,-0.00181001,0.00151601,0.00049507,-0.00107318,
 0.01403257,0.51072949,-0.00258752,0.00122370,0.00493003,-0.00056113,0.
 00081446,-0.00076825,0.00051263,-0.00059594,-0.00130921,-0.00175259,0.
 00022884,0.00650937,0.00101605,0.00574197,0.00073190,-0.00947480,0.061
 25862,-0.10528068,-0.00286685,0.01530061,-0.00339875,0.00148068,-0.001
 41080,-0.00240384,0.00069406,-0.00176440,-0.00216465,0.00370736,0.0262
 5612,0.52409723,0.00033627,-0.00033523,0.00074940,0.00007602,0.0001842
 7,-0.00006990,0.00004916,-0.00004696,-0.00003640,-0.00002131,0.0000241
 0,-0.00030082,0.00076641,-0.00008601,-0.00042390,0.00176896,0.00189241
 ,0.00202768,0.00002166,0.00226377,-0.00093764,0.00039288,-0.00019017,-
 0.00030944,0.00018027,0.00019298,0.00004345,-0.20614506,-0.12537312,-0
 .04538907,0.22048614,0.00006233,0.00001073,0.00011800,0.00026677,-0.00
 010740,0.00009060,0.00009409,-0.00004098,0.00001374,-0.00156447,0.0001
 4658,0.00017982,0.00222999,-0.00438951,0.00308614,-0.02220360,-0.01654
 515,-0.00681065,-0.00189018,0.00159002,-0.00090372,0.00109429,0.000237
 63,0.00003900,0.00001314,0.00000331,-0.00023188,-0.12287068,-0.1448125
 6,-0.03541737,0.13646943,0.15771812,0.00012581,-0.00039008,0.00002225,
 0.00024317,0.00006306,0.00011720,-0.00003465,0.00001468,0.00000044,0.0
 0050744,0.00066477,-0.00013698,-0.00122918,0.00276031,-0.00068275,0.01
 410780,0.01051977,0.00270918,0.00073388,0.00016996,0.00023840,-0.00026
 504,-0.00022782,0.00006226,-0.00002604,0.00001284,-0.00009115,-0.04683
 044,-0.03750965,-0.05878610,0.05120410,0.03617441,0.06147680,-0.000599
 29,-0.00070001,0.00076574,0.00109867,0.00012181,0.00036494,0.00004814,
 -0.00002716,-0.00009823,-0.00066716,0.00103422,-0.00069839,-0.00004133
 ,-0.00186825,0.00052303,-0.00011870,-0.00007864,-0.00340983,-0.0007026
 3,0.00187626,-0.00069732,0.00013378,-0.00013309,-0.00038861,-0.0001038
 7,-0.00004538,-0.00004109,-0.04496975,-0.00113327,-0.00088988,0.000861
 05,-0.00330051,-0.02510660,0.04407487,0.00043399,-0.00085509,-0.000548
 85,0.00017271,-0.00055186,0.00023183,-0.00009883,0.00007309,0.00024211
 ,0.00058290,-0.00040849,-0.00110674,0.00077799,0.00015878,-0.00002903,
 0.00062321,0.00358399,0.03050938,-0.00105094,-0.00111068,-0.00001018,0
 .00011659,0.00020228,0.00022974,-0.00043966,0.00025430,0.00012839,-0.0
 0127765,-0.05028451,-0.04035169,0.00136711,-0.00353655,-0.01859956,-0.
 00026648,0.05558345,-0.00048889,0.00041125,0.00045296,0.00047921,0.000
 15803,0.00007055,0.00011350,-0.00005962,-0.00027839,-0.00070953,0.0012
 0328,0.00028236,-0.00104817,-0.00049947,0.00094334,-0.00081754,0.00045
 601,-0.01328204,0.00094770,0.00131788,-0.00013503,0.00009149,-0.000143
 41,-0.00034351,0.00034655,-0.00018932,-0.00053575,-0.00069360,-0.04342
 041,-0.30267467,0.00005178,-0.00116370,-0.00585688,0.00153704,0.043408
 15,0.32864985,-0.00026375,-0.00051968,-0.00009813,0.00065476,-0.000098
 09,0.00016917,-0.00001142,0.00015780,0.00019107,0.00000172,0.00050988,
 -0.00109082,0.00029167,-0.00190101,0.00038941,-0.00160607,0.00027755,-
 0.00115401,0.00028611,0.00169016,-0.00047546,0.00021677,0.00014965,0.0
 0028641,0.00003441,0.00039777,0.00059083,-0.24093493,0.10422288,0.0562
 1541,-0.01873583,0.01154267,0.00653690,0.00095614,-0.00090004,0.000127
 92,0.25906998,0.00074620,0.00034861,0.00092815,-0.00024696,-0.00032794
 ,0.00013638,-0.00002617,-0.00014454,-0.00019820,0.00017070,0.00013259,
 0.00068975,0.00068690,0.00176002,0.00038475,0.02405773,-0.01269378,-0.
 00642935,-0.00159080,-0.00365229,0.00128704,0.00020417,0.00010993,-0.0
 0012343,-0.00055571,-0.00017542,-0.00044366,0.10400436,-0.10354485,-0.
 03116931,-0.01632608,0.01019388,0.00618593,0.00452929,-0.00306787,-0.0
 0155248,-0.11560758,0.11103311,-0.00016309,0.00034438,-0.00100317,-0.0
 0038099,-0.00005708,-0.00011113,-0.00000513,0.00008283,0.00012566,0.00
 008790,-0.00037093,-0.00023971,-0.00045285,-0.00066806,0.00057271,-0.0
 1624159,0.00892469,0.00308498,0.00033772,0.00236282,-0.00079832,0.0000
 3216,0.00022285,0.00023052,0.00014057,-0.00015608,0.00023071,0.0568683
 9,-0.03147019,-0.05973582,-0.00667403,0.00463486,0.00114613,0.02812624
 ,-0.01411713,-0.00726887,-0.06169791,0.03029111,0.06378291,-0.00108982
 ,0.00219558,-0.00271762,-0.02582573,-0.02056666,0.00217878,0.00090674,
 -0.00054499,0.00138597,-0.16768972,-0.06449184,0.00696417,0.00206231,-
 0.00330084,0.00082462,0.00275787,0.00165918,-0.00343971,-0.00112993,-0
 .00009103,-0.00031767,0.00000445,0.00003863,0.00055690,0.00041413,0.00
 185322,0.00110823,0.00041144,0.00038671,-0.00004038,-0.00000728,0.0002
 0581,-0.00004891,-0.00000744,0.00002799,-0.00004559,-0.00003543,0.0000
 1801,0.00002168,0.51728220,0.00255916,0.00116506,0.00225177,0.00072033
 ,0.00614979,-0.00099184,0.00188434,0.00053350,-0.00016067,-0.06470416,
 -0.13366879,0.01505747,-0.02755936,-0.01886666,0.00429790,0.00192889,-
 0.00095283,0.00549644,-0.00015578,-0.00013700,-0.00037160,0.00003925,-
 0.00016227,-0.00057451,-0.00024992,0.00041442,-0.00229211,-0.00109067,
 -0.00021762,-0.00005603,-0.00000326,-0.00034525,0.00009951,-0.00001183
 ,-0.00001785,0.00002052,0.00004222,0.00006521,-0.00003659,-0.03886337,
 0.54586537,-0.00426064,0.00215474,0.00395009,-0.01017557,-0.00686424,0
 .00618085,0.00055838,-0.00226189,-0.00238387,0.00438573,0.01313266,-0.
 07542536,0.01243470,0.01014220,0.00176121,-0.00252222,0.00370138,0.004
 23162,0.00032338,0.00087870,-0.00048714,0.00051274,-0.00070554,-0.0012
 2239,0.00107618,-0.00110886,-0.00212830,0.00038538,0.00041808,0.000378
 08,0.00004695,0.00016722,-0.00020450,0.00000823,-0.00002604,-0.0000171
 0,0.00000698,0.00003420,-0.00001565,0.02095574,-0.00732984,0.54977163,
 0.00065732,0.00027770,-0.00006482,0.00054345,-0.00101035,0.00074454,-0
 .00020050,0.00060905,-0.00002598,0.00836929,-0.02594993,0.00278750,-0.
 00376003,-0.00186522,-0.00044931,-0.00011763,-0.00062515,0.00105393,0.
 00001055,-0.00037757,0.00009910,-0.00003979,0.00001831,-0.00000551,0.0
 0008257,-0.00018462,-0.00007227,-0.00032030,-0.00006823,0.00000579,-0.
 00000095,-0.00010613,0.00004106,0.00000540,-0.00001699,0.00002690,0.00
 002473,0.00000614,-0.00001096,-0.07001554,0.07764653,-0.00984282,0.075
 98794,-0.00063323,-0.00000684,0.00031758,0.00258126,0.00131946,0.00100
 525,-0.00036227,0.00037460,-0.00093961,0.00592566,-0.01797026,0.002876
 86,-0.00398241,-0.00137378,-0.00077308,0.00070374,-0.00025631,0.000975
 80,-0.00024136,0.00016449,-0.00019816,-0.00006396,-0.00002344,-0.00011
 508,0.00012425,0.00006330,-0.00021518,-0.00030474,-0.00011635,-0.00006
 648,-0.00001666,-0.00012411,0.00004614,0.00000398,-0.00001369,0.000031
 47,0.00001829,-0.00000782,0.00000189,0.07484039,-0.28943573,0.02506152
 ,-0.08074017,0.31440845,0.00036738,-0.00018147,-0.00028006,-0.00089076
 ,-0.00063908,0.00025257,-0.00019740,0.00001156,0.00034410,-0.00017669,
 0.00472418,-0.00234852,0.00067527,0.00059779,0.00095505,0.00031931,0.0
 0045398,-0.00000965,-0.00033417,0.00001148,-0.00007737,0.00000670,0.00
 002882,0.00007190,0.00014663,-0.00015078,0.00010623,0.00007563,-0.0000
 0444,-0.00006990,0.00001139,0.00002088,-0.00001641,-0.00000509,0.00003
 209,-0.00002072,-0.00000565,-0.00000294,0.00000205,-0.00952963,0.02460
 258,-0.04861933,0.00828077,-0.02874759,0.04762032,0.00029060,0.0000756
 6,-0.00127167,-0.00065814,-0.00197728,-0.00000477,-0.00025463,0.000389
 19,0.00039530,-0.01509691,0.00437703,0.01994398,0.00024059,0.00152678,
 -0.00094149,-0.00123165,-0.00095931,-0.00128440,0.00038238,-0.00095293
 ,0.00052318,-0.00011965,0.00007684,0.00031158,0.00000640,0.00014107,0.
 00051566,-0.00005160,0.00000867,-0.00008830,-0.00002554,-0.00003363,0.
 00004392,0.00002936,-0.00001597,0.00004299,0.00003289,-0.00003982,0.00
 001246,-0.11776556,0.03684659,0.11458945,-0.00543282,0.00217002,0.0077
 3241,0.12849094,-0.00036743,-0.00089466,-0.00012297,0.00122947,-0.0000
 1710,0.00044532,-0.00000735,0.00013747,-0.00009017,-0.01215106,0.00507
 716,0.01759160,-0.00115690,-0.00066927,-0.00024145,0.00099296,-0.00017
 780,-0.00099847,-0.00079393,0.00008007,-0.00032860,-0.00005634,0.00004
 639,0.00012722,0.00015137,0.00004163,0.00041558,-0.00003987,-0.0000228
 4,-0.00001983,-0.00001677,-0.00001325,0.00003201,-0.00000570,-0.000003
 90,0.00000819,0.00000710,-0.00000963,0.00001268,0.03500194,-0.06116556
 ,-0.05266806,0.01510833,-0.00699828,-0.02575208,-0.03587502,0.06450804
 ,0.00054713,0.00082538,-0.00015606,-0.00119755,-0.00007550,-0.00025425
 ,0.00004783,0.00003438,-0.00013684,0.00126024,0.00121173,0.00039303,0.
 00074430,0.00064357,0.00058472,-0.00044569,0.00019305,0.00026532,0.000
 32326,-0.00046666,0.00023858,0.00005482,-0.00002719,-0.00009505,0.0001
 4265,-0.00008192,-0.00036988,0.00004739,0.00001025,-0.00000061,0.00000
 547,0.00002499,-0.00001015,0.00000250,0.00000959,-0.00000283,-0.000008
 89,0.00001221,-0.00000417,0.11235155,-0.05468004,-0.21907626,-0.002626
 79,0.00049879,0.00353725,-0.12493027,0.05900181,0.23540857,-0.00110416
 ,0.00073190,0.00013147,-0.00255795,-0.00449806,0.00085119,0.00022302,-
 0.00017329,-0.00012480,-0.01719034,0.00302213,-0.02028940,0.00122956,0
 .00221568,-0.00017696,-0.00053776,0.00021508,0.00066542,0.00006737,-0.
 00006820,0.00011786,0.00009489,-0.00022547,-0.00017800,0.00065330,-0.0
 0059805,-0.00013669,0.00000798,0.00003735,0.00001852,-0.00000286,-0.00
 000929,-0.00000323,0.00000277,-0.00003592,0.00003822,0.00001824,-0.000
 03037,-0.00000058,-0.14027269,0.01097104,-0.12848259,-0.00579368,-0.00
 002280,-0.00647613,0.01116333,-0.00202080,0.01368205,0.15399897,-0.000
 60758,0.00066693,-0.00008388,-0.00146172,-0.00223589,0.00109315,-0.000
 11540,0.00027219,-0.00016573,-0.01102125,0.00120922,-0.01641538,-0.000
 58569,0.00097786,-0.00020088,-0.00010797,0.00018795,-0.00019159,-0.000
 09916,-0.00027123,0.00012075,0.00004364,-0.00003820,-0.00000305,0.0002
 7055,-0.00015877,0.00036246,0.00002848,0.00006149,0.00002753,0.0000002
 0,0.00001449,-0.00001628,0.00000476,-0.00000540,0.00001361,0.00001044,
 -0.00001920,-0.00000204,0.01163125,-0.04922378,0.01527376,0.01727830,-
 0.00000369,0.02499501,-0.00575787,0.00008153,-0.00713443,-0.00951096,0
 .04848449,0.00054401,0.00063593,-0.00030615,0.00010076,-0.00022073,0.0
 0042296,0.00013801,0.00007389,-0.00001348,0.00398363,0.00018655,0.0042
 7927,0.00082909,0.00077131,0.00059735,-0.00068388,-0.00024030,0.000291
 06,0.00041162,-0.00044732,0.00043384,0.00001473,-0.00008395,-0.0000657
 6,0.00004112,-0.00042840,-0.00017830,-0.00002844,-0.00001357,-0.000054
 14,0.00000098,-0.00002233,0.00001226,0.00000732,-0.00000205,0.00001671
 ,0.00001675,-0.00003015,0.00000118,-0.13020815,0.01466702,-0.21669360,
 0.00005887,0.00023987,-0.00144750,-0.01559004,0.00258721,-0.02032137,0
 .14036364,-0.01767300,0.23302567\\-0.00000023,-0.00000773,-0.00000461,
 -0.00000489,-0.00000069,0.00000320,-0.00000887,0.00000118,0.00000732,-
 0.00000483,0.00000435,0.00000624,0.00000008,0.00000221,0.00000133,0.00
 000478,-0.00000475,-0.00000648,0.00000456,-0.00000938,-0.00000922,0.00
 000844,-0.00001471,-0.00001535,0.00000017,0.00000596,0.00000357,0.0000
 0986,-0.00000721,-0.00001176,0.00001466,-0.00001113,-0.00001775,0.0000
 0495,-0.00001193,-0.00001105,0.00001385,-0.00000056,-0.00001062,-0.000
 00969,0.00001206,0.00001465,-0.00001546,0.00001070,0.00001809,-0.00000
 490,0.00001944,0.00001566,-0.00001247,0.00001218,0.00001678\\\@
 The archive entry for this job was punched.


 BUT 'GLORY' DOESN'T MEAN 'A NICE KNOCK DOWN ARGUMENT', ALICE OBJECTED.
 WHEN I USE A WORD, HUMPTY DUMPTY SAID, IN A RATHER SCORNFUL TONE,
 IT MEANS JUST WHAT I CHOOSE IT TO MEAN....
 NEITHER MORE NOR LESS....
 THE QUESTION IS, SAID ALICE,
 WHETHER YOU CAN MAKE WORDS MEAN SO MANY DIFFERENT THINGS...
 THE QUESTION IS, SAID HUMPTY DUMPTY,
 WHICH IS TO BE MASTER....
 THAT IS ALL.....

 ALICE THROUGH THE LOOKING GLASS
 Job cpu time:       0 days  0 hours 36 minutes  4.1 seconds.
 Elapsed time:       0 days  0 hours  1 minutes 11.4 seconds.
 File lengths (MBytes):  RWF=    119 Int=      0 D2E=      0 Chk=     67 Scr=      1
 Normal termination of Gaussian 16 at Mon Jun  2 11:52:13 2025.
