/home/tahminaafroz
cn012.cluster.local
tahminaafroz
Mon May  5 08:14:56 CDT 2025
 Entering Gaussian System, Link 0=g16
 Initial command:
 /home/apps/g16/l1.exe "/tmp/4-cl-ph-opt-freq-thf/Gau-1323546.inp" -scrdir="/tmp/4-cl-ph-opt-freq-thf/"
 Entering Link 1 = /home/apps/g16/l1.exe PID=   1323547.
  
 Copyright (c) 1988-2019, Gaussian, Inc.  All Rights Reserved.
  
 This is part of the Gaussian(R) 16 program.  It is based on
 the Gaussian(R) 09 system (copyright 2009, Gaussian, Inc.),
 the Gaussian(R) 03 system (copyright 2003, Gaussian, Inc.),
 the Gaussian(R) 98 system (copyright 1998, Gaussian, Inc.),
 the Gaussian(R) 94 system (copyright 1995, Gaussian, Inc.),
 the Gaussian 92(TM) system (copyright 1992, Gaussian, Inc.),
 the Gaussian 90(TM) system (copyright 1990, Gaussian, Inc.),
 the Gaussian 88(TM) system (copyright 1988, Gaussian, Inc.),
 the Gaussian 86(TM) system (copyright 1986, Carnegie Mellon
 University), and the Gaussian 82(TM) system (copyright 1983,
 Carnegie Mellon University). Gaussian is a federally registered
 trademark of Gaussian, Inc.
  
 This software contains proprietary and confidential information,
 including trade secrets, belonging to Gaussian, Inc.
  
 This software is provided under written license and may be
 used, copied, transmitted, or stored only in accord with that
 written license.
  
 The following legend is applicable only to US Government
 contracts under FAR:
  
                    RESTRICTED RIGHTS LEGEND
  
 Use, reproduction and disclosure by the US Government is
 subject to restrictions as set forth in subparagraphs (a)
 and (c) of the Commercial Computer Software - Restricted
 Rights clause in FAR 52.227-19.
  
 Gaussian, Inc.
 340 Quinnipiac St., Bldg. 40, Wallingford CT 06492
  
  
 ---------------------------------------------------------------
 Warning -- This program may not be used in any manner that
 competes with the business of Gaussian, Inc. or will provide
 assistance to any competitor of Gaussian, Inc.  The licensee
 of this program is prohibited from giving any competitor of
 Gaussian, Inc. access to this program.  By using this program,
 the user acknowledges that Gaussian, Inc. is engaged in the
 business of creating and licensing software in the field of
 computational chemistry and represents and warrants to the
 licensee that it is not a competitor of Gaussian, Inc. and that
 it will not use this program in any manner prohibited above.
 ---------------------------------------------------------------
  

 Cite this work as:
 Gaussian 16, Revision C.01,
 M. J. Frisch, G. W. Trucks, H. B. Schlegel, G. E. Scuseria, 
 M. A. Robb, J. R. Cheeseman, G. Scalmani, V. Barone, 
 G. A. Petersson, H. Nakatsuji, X. Li, M. Caricato, A. V. Marenich, 
 J. Bloino, B. G. Janesko, R. Gomperts, B. Mennucci, H. P. Hratchian, 
 J. V. Ortiz, A. F. Izmaylov, J. L. Sonnenberg, D. Williams-Young, 
 F. Ding, F. Lipparini, F. Egidi, J. Goings, B. Peng, A. Petrone, 
 T. Henderson, D. Ranasinghe, V. G. Zakrzewski, J. Gao, N. Rega, 
 G. Zheng, W. Liang, M. Hada, M. Ehara, K. Toyota, R. Fukuda, 
 J. Hasegawa, M. Ishida, T. Nakajima, Y. Honda, O. Kitao, H. Nakai, 
 T. Vreven, K. Throssell, J. A. Montgomery, Jr., J. E. Peralta, 
 F. Ogliaro, M. J. Bearpark, J. J. Heyd, E. N. Brothers, K. N. Kudin, 
 V. N. Staroverov, T. A. Keith, R. Kobayashi, J. Normand, 
 K. Raghavachari, A. P. Rendell, J. C. Burant, S. S. Iyengar, 
 J. Tomasi, M. Cossi, J. M. Millam, M. Klene, C. Adamo, R. Cammi, 
 J. W. Ochterski, R. L. Martin, K. Morokuma, O. Farkas, 
 J. B. Foresman, and D. J. Fox, Gaussian, Inc., Wallingford CT, 2019.
 
 ******************************************
 Gaussian 16:  AS64L-G16RevC.01  3-Jul-2019
                 5-May-2025 
 ******************************************
 %mem=20GB
 %nprocshared=32
 Will use up to   32 processors via shared memory.
 %chk=4-cl-ph-opt-freq-thf.chk
 ----------------------------------------------------------------------
 # opt=(calcfc,tight) freq 6-311+g(d,p) scrf=(smd,solvent=thf) nosymm s
 cf=(qc,fermi,xqc) geom=connectivity int=ultrafine m062x
 ----------------------------------------------------------------------
 1/7=10,10=4,18=20,19=15,26=6,38=1,57=2/1,3;
 2/9=110,12=2,15=1,17=6,18=5,40=1/2;
 3/5=4,6=6,7=111,11=2,25=1,30=1,70=32201,71=2,72=20,74=-55,75=-5,140=1/1,2,3;
 4//1;
 5/5=2,22=13,38=5,53=20/2;
 8/6=4,10=90,11=11/1;
 11/6=1,8=1,9=11,15=111,16=1,31=1/1,2,10;
 10/6=1,13=1,31=1/2;
 6/7=2,8=2,9=2,10=2,28=1/1;
 7/10=1,25=1,30=1/1,2,3,16;
 1/7=10,10=4,18=20,19=15,26=6/3(2);
 2/9=110,15=1/2;
 99//99;
 2/9=110,15=1/2;
 3/5=4,6=6,7=111,11=2,25=1,30=1,70=32205,71=1,72=20,74=-55,75=-5/1,2,3;
 4/5=5,16=3,69=1/1;
 5/5=2,22=13,38=5,53=20/2;
 7/30=1/1,2,3,16;
 1/7=10,18=20,19=15,26=6/3(-5);
 2/9=110,15=1/2;
 6/7=2,8=2,9=2,10=2,19=2,28=1/1;
 99/9=1/99;
 -------------------
 4-cl-ph-optfreq-thf
 -------------------
 Symbolic Z-matrix:
 Charge =  0 Multiplicity = 2
 C                     6.24185   6.99879   5.17546 
 C                     5.11534   6.17784   5.29916 
 H                     5.1701    5.2283    5.82395 
 C                     3.88671   6.54002   4.75797 
 H                     3.02097   5.89732   4.85816 
 C                     3.78952   7.74822   4.08129 
 C                     4.8816    8.5934    3.93434 
 H                     4.78017   9.53107   3.40178 
 C                     6.09867   8.20802   4.48332 
 H                     6.9563    8.86208   4.37188 
 Cl                    2.24985   8.21659   3.39496 
 

 GradGradGradGradGradGradGradGradGradGradGradGradGradGradGradGradGradGrad
 Berny optimization.
 Initialization pass.
                           ----------------------------
                           !    Initial Parameters    !
                           ! (Angstroms and Degrees)  !
 --------------------------                            --------------------------
 ! Name  Definition              Value          Derivative Info.                !
 --------------------------------------------------------------------------------
 ! R1    R(1,2)                  1.3994         calculate D2E/DX2 analytically  !
 ! R2    R(1,9)                  1.4006         calculate D2E/DX2 analytically  !
 ! R3    R(2,3)                  1.0863         calculate D2E/DX2 analytically  !
 ! R4    R(2,4)                  1.3905         calculate D2E/DX2 analytically  !
 ! R5    R(4,5)                  1.0829         calculate D2E/DX2 analytically  !
 ! R6    R(4,6)                  1.3882         calculate D2E/DX2 analytically  !
 ! R7    R(6,7)                  1.3887         calculate D2E/DX2 analytically  !
 ! R8    R(6,11)                 1.7496         calculate D2E/DX2 analytically  !
 ! R9    R(7,8)                  1.0831         calculate D2E/DX2 analytically  !
 ! R10   R(7,9)                  1.3897         calculate D2E/DX2 analytically  !
 ! R11   R(9,10)                 1.0843         calculate D2E/DX2 analytically  !
 ! A1    A(2,1,9)              117.8961         calculate D2E/DX2 analytically  !
 ! A2    A(1,2,3)              120.992          calculate D2E/DX2 analytically  !
 ! A3    A(1,2,4)              121.6055         calculate D2E/DX2 analytically  !
 ! A4    A(3,2,4)              117.4025         calculate D2E/DX2 analytically  !
 ! A5    A(2,4,5)              121.0513         calculate D2E/DX2 analytically  !
 ! A6    A(2,4,6)              118.5723         calculate D2E/DX2 analytically  !
 ! A7    A(5,4,6)              120.3764         calculate D2E/DX2 analytically  !
 ! A8    A(4,6,7)              121.7493         calculate D2E/DX2 analytically  !
 ! A9    A(4,6,11)             119.067          calculate D2E/DX2 analytically  !
 ! A10   A(7,6,11)             119.1837         calculate D2E/DX2 analytically  !
 ! A11   A(6,7,8)              120.3485         calculate D2E/DX2 analytically  !
 ! A12   A(6,7,9)              118.5646         calculate D2E/DX2 analytically  !
 ! A13   A(8,7,9)              121.0869         calculate D2E/DX2 analytically  !
 ! A14   A(1,9,7)              121.612          calculate D2E/DX2 analytically  !
 ! A15   A(1,9,10)             119.3867         calculate D2E/DX2 analytically  !
 ! A16   A(7,9,10)             119.0013         calculate D2E/DX2 analytically  !
 ! D1    D(9,1,2,3)            179.8745         calculate D2E/DX2 analytically  !
 ! D2    D(9,1,2,4)             -0.065          calculate D2E/DX2 analytically  !
 ! D3    D(2,1,9,7)              0.1248         calculate D2E/DX2 analytically  !
 ! D4    D(2,1,9,10)          -179.9167         calculate D2E/DX2 analytically  !
 ! D5    D(1,2,4,5)            179.9363         calculate D2E/DX2 analytically  !
 ! D6    D(1,2,4,6)             -0.0119         calculate D2E/DX2 analytically  !
 ! D7    D(3,2,4,5)             -0.0053         calculate D2E/DX2 analytically  !
 ! D8    D(3,2,4,6)           -179.9534         calculate D2E/DX2 analytically  !
 ! D9    D(2,4,6,7)              0.0334         calculate D2E/DX2 analytically  !
 ! D10   D(2,4,6,11)           179.9891         calculate D2E/DX2 analytically  !
 ! D11   D(5,4,6,7)           -179.9152         calculate D2E/DX2 analytically  !
 ! D12   D(5,4,6,11)             0.0406         calculate D2E/DX2 analytically  !
 ! D13   D(4,6,7,8)            179.996          calculate D2E/DX2 analytically  !
 ! D14   D(4,6,7,9)              0.024          calculate D2E/DX2 analytically  !
 ! D15   D(11,6,7,8)             0.0403         calculate D2E/DX2 analytically  !
 ! D16   D(11,6,7,9)          -179.9317         calculate D2E/DX2 analytically  !
 ! D17   D(6,7,9,1)             -0.1052         calculate D2E/DX2 analytically  !
 ! D18   D(6,7,9,10)           179.9361         calculate D2E/DX2 analytically  !
 ! D19   D(8,7,9,1)            179.923          calculate D2E/DX2 analytically  !
 ! D20   D(8,7,9,10)            -0.0357         calculate D2E/DX2 analytically  !
 --------------------------------------------------------------------------------
 Trust Radius=3.00D-01 FncErr=5.00D-06 GrdErr=5.00D-06 EigMax=2.50D+02 EigMin=1.00D-04
 Number of steps in this run=     57 maximum allowed number of steps=    100.
 GradGradGradGradGradGradGradGradGradGradGradGradGradGradGradGradGradGrad

                          Input orientation:                          
 ---------------------------------------------------------------------
 Center     Atomic      Atomic             Coordinates (Angstroms)
 Number     Number       Type             X           Y           Z
 ---------------------------------------------------------------------
      1          6           0        6.241851    6.998793    5.175455
      2          6           0        5.115336    6.177837    5.299156
      3          1           0        5.170100    5.228299    5.823951
      4          6           0        3.886714    6.540016    4.757971
      5          1           0        3.020968    5.897320    4.858162
      6          6           0        3.789517    7.748223    4.081286
      7          6           0        4.881600    8.593400    3.934342
      8          1           0        4.780168    9.531073    3.401784
      9          6           0        6.098672    8.208020    4.483317
     10          1           0        6.956301    8.862079    4.371876
     11         17           0        2.249854    8.216593    3.394960
 ---------------------------------------------------------------------
                    Distance matrix (angstroms):
                    1          2          3          4          5
     1  C    0.000000
     2  C    1.399395   0.000000
     3  H    2.168835   1.086292   0.000000
     4  C    2.435455   1.390528   2.122262   0.000000
     5  H    3.418772   2.158597   2.449307   1.082872   0.000000
     6  C    2.787973   2.388957   3.360492   1.388205   2.149429
     7  C    2.435860   2.784294   3.870111   2.425809   3.403563
     8  H    3.419776   3.867370   4.953060   3.403517   4.291851
     9  C    1.400637   2.398788   3.396805   2.783959   3.866795
    10  H    2.151282   3.384399   4.301557   3.868257   4.951072
    11  Cl   4.537537   3.999184   4.832984   2.710723   2.848614
                    6          7          8          9         10
     6  C    0.000000
     7  C    1.388727   0.000000
     8  H    2.149806   1.083115   0.000000
     9  C    2.388564   1.389660   2.158387   0.000000
    10  H    3.369516   2.137290   2.474709   1.084315   0.000000
    11  Cl   1.749565   2.712748   2.851384   3.999749   4.849913
                   11
    11  Cl   0.000000
 Symmetry turned off by external request.
 Stoichiometry    C6H4Cl(2)
 Framework group  C1[X(C6H4Cl)]
 Deg. of freedom    27
 Full point group                 C1      NOp   1
 Rotational constants (GHZ):           5.7144777           1.6294880           1.2679354
 Standard basis: 6-311+G(d,p) (5D, 7F)
   186 basis functions,   301 primitive gaussians,   193 cartesian basis functions
    29 alpha electrons       28 beta electrons
       nuclear repulsion energy       304.7348659756 Hartrees.
 NAtoms=   11 NActive=   11 NUniq=   11 SFac= 1.00D+00 NAtFMM=   60 NAOKFM=F Big=F
 Integral buffers will be    131072 words long.
 Raffenetti 2 integral format.
 Two-electron integral symmetry is turned off.
 Force inversion solution in PCM.
 ------------------------------------------------------------------------------
 Polarizable Continuum Model (PCM)
 =================================
 Model                : PCM.
 Atomic radii         : SMD-Coulomb.
 Polarization charges : Total charges.
 Charge compensation  : None.
 Solution method      : Matrix inversion.
 Cavity type          : VdW (van der Waals Surface) (Alpha=1.000).
 Cavity algorithm     : GePol (No added spheres)
                        Default sphere list used, NSphG=   11.
                        Lebedev-Laikov grids with approx.  5.0 points / Ang**2.
                        Smoothing algorithm: York/Karplus (Gamma=1.0000).
                        Polarization charges: spherical gaussians, with
                                              point-specific exponents (IZeta= 3).
                        Self-potential: point-specific (ISelfS= 7).
                        Self-field    : sphere-specific E.n sum rule (ISelfD= 2).
 1st derivatives      : Analytical E(r).r(x)/FMM algorithm (CHGder, D1EAlg=3).
                        Cavity 1st derivative terms included.
 2nd derivatives      : Analytical E(r).r(xy)/FMM algorithm (CHGder, D2EAlg=3).
                        Cavity 2nd derivative terms included.
 Solvent              : TetraHydroFuran, Eps=   7.425700 Eps(inf)=   1.974025
 ------------------------------------------------------------------------------
 Spheres list:
 ISph  on   Nord     Re0    Alpha      Xe            Ye            Ze
    1   C      1    1.8500  1.000      6.241851      6.998793      5.175455
    2   C      2    1.8500  1.000      5.115336      6.177837      5.299156
    3   H      3    1.2000  1.000      5.170100      5.228299      5.823951
    4   C      4    1.8500  1.000      3.886714      6.540016      4.757971
    5   H      5    1.2000  1.000      3.020968      5.897320      4.858162
    6   C      6    1.8500  1.000      3.789517      7.748223      4.081286
    7   C      7    1.8500  1.000      4.881600      8.593400      3.934342
    8   H      8    1.2000  1.000      4.780168      9.531073      3.401784
    9   C      9    1.8500  1.000      6.098672      8.208020      4.483317
   10   H     10    1.2000  1.000      6.956301      8.862079      4.371876
   11  Cl     11    2.3800  1.000      2.249854      8.216593      3.394960
 ------------------------------------------------------------------------------
 ------------------------------------------------------------------------------
 Atomic radii for non-electrostatic terms: SMD-CDS.
 ------------------------------------------------------------------------------
 Nuclear repulsion after PCM non-electrostatic terms =      304.7313941458 Hartrees.
 One-electron integrals computed using PRISM.
 NBasis=   186 RedAO= T EigKep=  3.92D-06  NBF=   186
 NBsUse=   186 1.00D-06 EigRej= -1.00D+00 NBFU=   186
 ExpMin= 4.38D-02 ExpMax= 1.06D+05 ExpMxC= 3.62D+03 IAcc=3 IRadAn=         5 AccDes= 0.00D+00
 Harris functional with IExCor= 1009 and IRadAn=       5 diagonalized for initial guess.
 HarFok:  IExCor= 1009 AccDes= 0.00D+00 IRadAn=         5 IDoV= 1 UseB2=F ITyADJ=14
 ICtDFT=  3500011 ScaDFX=  1.000000  1.000000  1.000000  1.000000
 FoFCou: FMM=F IPFlag=           0 FMFlag=      100000 FMFlg1=           0
         NFxFlg=           0 DoJE=T BraDBF=F KetDBF=T FulRan=T
         wScrn=  0.000000 ICntrl=       500 IOpCl=  0 I1Cent=   200000004 NGrid=           0
         NMat0=    1 NMatS0=      1 NMatT0=    0 NMatD0=    1 NMtDS0=    0 NMtDT0=    0
 Symmetry not used in FoFCou.
 Initial guess <Sx>= 0.0000 <Sy>= 0.0000 <Sz>= 0.5000 <S**2>= 0.7500 S= 0.5000
 Keep R1 and R2 ints in memory in canonical form, NReq=335193157.
 Requested convergence on RMS density matrix=1.00D-08 within 128 cycles.
 Requested convergence on MAX density matrix=1.00D-06.
 Requested convergence on             energy=1.00D-06.
 Level shift goal  0.100 maximum shift  0.100.
 No special actions if energy rises.
 Dynamic level shift is on during FON iterations.
 Inv3:  Mode=1 IEnd=     4127787.
 Iteration    1 A*A^-1 deviation from unit magnitude is 3.55D-15 for   1167.
 Iteration    1 A*A^-1 deviation from orthogonality  is 2.04D-15 for   1171    932.
 Iteration    1 A^-1*A deviation from unit magnitude is 4.00D-15 for   1167.
 Iteration    1 A^-1*A deviation from orthogonality  is 1.88D-15 for   1171   1004.
 Error on total polarization charges =  0.02728
 SCF Done:  E(UM062X) =  -691.116987641     A.U. after   19 cycles
            NFock= 19  Conv=0.70D-08     -V/T= 2.0029
 <Sx>= 0.0000 <Sy>= 0.0000 <Sz>= 0.5000 <S**2>= 0.7639 S= 0.5069
 <L.S>=  0.00000000000    
 SMD-CDS (non-electrostatic) energy       (kcal/mol) =      -2.18
 (included in total energy above)
 Annihilation of the first spin contaminant:
 S**2 before annihilation     0.7639,   after     0.7501
 DoSCS=F DFT=T ScalE2(SS,OS)=  1.000000  1.000000
 Range of M.O.s used for correlation:     1   186
 NBasis=   186 NAE=    29 NBE=    28 NFC=     0 NFV=     0
 NROrb=    186 NOA=    29 NOB=    28 NVA=   157 NVB=   158

 **** Warning!!: The largest alpha MO coefficient is  0.15638028D+03


 **** Warning!!: The largest beta MO coefficient is  0.12898327D+03

 Symmetrizing basis deriv contribution to polar:
 IMax=3 JMax=2 DiffMx= 0.00D+00
 G2DrvN: will do    12 centers at a time, making    1 passes.
 Calling FoFCou, ICntrl=  3107 FMM=F I1Cent=   0 AccDes= 0.00D+00.
 NEqPCM:  Using equilibrium solvation (IEInf=0, Eps=   7.4257, EpsInf=   1.9740)
 G2PCM: DoFxE=T DoFxN=T DoGrad=T DoDP/DQ/DG/TGxP=FFFF NFrqRd=   0 IEInf=0 SqF1=F DoCFld=F IF1Alg=4.
 End of G2Drv F.D. properties file   721 does not exist.
 End of G2Drv F.D. properties file   722 does not exist.
 End of G2Drv F.D. properties file   788 does not exist.
          IDoAtm=11111111111
 NEqPCM:  Using equilibrium solvation (IEInf=0, Eps=   7.4257, EpsInf=   1.9740)
          Differentiating once with respect to nuclear coordinates.
 Keep R1 and R2 ints in memory in canonical form, NReq=335092186.
          There are    36 degrees of freedom in the 1st order CPHF.  IDoFFX=6 NUNeed=     0.
     30 vectors produced by pass  0 Test12= 2.49D-14 2.78D-09 XBig12= 3.05D-01 1.55D-01.
 AX will form    30 AO Fock derivatives at one time.
     30 vectors produced by pass  1 Test12= 2.49D-14 2.78D-09 XBig12= 2.80D-02 5.53D-02.
     30 vectors produced by pass  2 Test12= 2.49D-14 2.78D-09 XBig12= 8.51D-04 7.07D-03.
     30 vectors produced by pass  3 Test12= 2.49D-14 2.78D-09 XBig12= 1.66D-05 1.36D-03.
     30 vectors produced by pass  4 Test12= 2.49D-14 2.78D-09 XBig12= 3.80D-07 1.54D-04.
     30 vectors produced by pass  5 Test12= 2.49D-14 2.78D-09 XBig12= 5.33D-09 1.37D-05.
     30 vectors produced by pass  6 Test12= 2.49D-14 2.78D-09 XBig12= 6.70D-11 1.52D-06.
     22 vectors produced by pass  7 Test12= 2.49D-14 2.78D-09 XBig12= 4.60D-13 8.03D-08.
      3 vectors produced by pass  8 Test12= 2.49D-14 2.78D-09 XBig12= 2.88D-15 6.53D-09.
 InvSVY:  IOpt=1 It=  1 EMax= 2.11D-15
 Solved reduced A of dimension   235 with    30 vectors.
 End of Minotr F.D. properties file   721 does not exist.
 End of Minotr F.D. properties file   722 does not exist.
 End of Minotr F.D. properties file   788 does not exist.

 **********************************************************************

            Population analysis using the SCF Density.

 **********************************************************************

 Alpha  occ. eigenvalues -- -102.68164 -10.61377 -10.58853 -10.56426 -10.56403
 Alpha  occ. eigenvalues --  -10.56333 -10.56323  -9.82432  -7.54941  -7.54269
 Alpha  occ. eigenvalues --   -7.54266  -1.00647  -0.94646  -0.86535  -0.83289
 Alpha  occ. eigenvalues --   -0.71043  -0.68366  -0.59171  -0.54849  -0.53529
 Alpha  occ. eigenvalues --   -0.50594  -0.47910  -0.47478  -0.42802  -0.41108
 Alpha  occ. eigenvalues --   -0.38428  -0.33691  -0.32674  -0.31380
 Alpha virt. eigenvalues --    0.00049   0.00437   0.01871   0.02991   0.03345
 Alpha virt. eigenvalues --    0.05228   0.05965   0.06092   0.06718   0.07327
 Alpha virt. eigenvalues --    0.08769   0.09319   0.09573   0.10216   0.12821
 Alpha virt. eigenvalues --    0.14054   0.14196   0.14565   0.14655   0.15229
 Alpha virt. eigenvalues --    0.15586   0.15613   0.18784   0.19267   0.21084
 Alpha virt. eigenvalues --    0.21138   0.21391   0.21425   0.21828   0.23201
 Alpha virt. eigenvalues --    0.24032   0.24902   0.25630   0.26096   0.27442
 Alpha virt. eigenvalues --    0.28541   0.32897   0.33813   0.35237   0.36213
 Alpha virt. eigenvalues --    0.45183   0.47903   0.48208   0.49451   0.50822
 Alpha virt. eigenvalues --    0.53752   0.55234   0.56635   0.58416   0.59344
 Alpha virt. eigenvalues --    0.60707   0.61067   0.63312   0.63488   0.64188
 Alpha virt. eigenvalues --    0.64341   0.68714   0.70727   0.71736   0.73612
 Alpha virt. eigenvalues --    0.75916   0.76159   0.81686   0.85092   0.86430
 Alpha virt. eigenvalues --    0.87035   0.87130   0.87592   0.89661   0.89754
 Alpha virt. eigenvalues --    0.92879   0.93355   0.95389   0.98791   1.03741
 Alpha virt. eigenvalues --    1.04306   1.04354   1.05441   1.12291   1.17988
 Alpha virt. eigenvalues --    1.20368   1.21274   1.21784   1.23680   1.35007
 Alpha virt. eigenvalues --    1.40847   1.51394   1.52742   1.53866   1.57946
 Alpha virt. eigenvalues --    1.59956   1.65378   1.66928   1.68471   1.71544
 Alpha virt. eigenvalues --    1.73594   1.77291   1.80339   1.89048   1.89925
 Alpha virt. eigenvalues --    1.93108   1.93718   1.94037   1.95752   1.96372
 Alpha virt. eigenvalues --    2.01969   2.05107   2.07765   2.09971   2.22170
 Alpha virt. eigenvalues --    2.28548   2.32356   2.33200   2.34810   2.39446
 Alpha virt. eigenvalues --    2.44425   2.47021   2.53462   2.56438   2.61244
 Alpha virt. eigenvalues --    2.69532   2.70315   2.71925   2.72744   2.74059
 Alpha virt. eigenvalues --    2.76740   2.77550   2.82572   2.83729   2.92406
 Alpha virt. eigenvalues --    2.93876   2.95388   2.98544   3.11524   3.18046
 Alpha virt. eigenvalues --    3.25317   3.37449   3.42432   3.52689   3.60260
 Alpha virt. eigenvalues --    3.72948   3.85267   4.01096   4.13249   4.15868
 Alpha virt. eigenvalues --    4.81251   9.96021  23.56152  23.93083  24.01738
 Alpha virt. eigenvalues --   24.08787  24.16066  24.22021  25.92936  26.21610
 Alpha virt. eigenvalues --   26.67535 216.05937
  Beta  occ. eigenvalues -- -102.68165 -10.61418 -10.57775 -10.56379 -10.56371
  Beta  occ. eigenvalues --  -10.56298 -10.56271  -9.82432  -7.54929  -7.54285
  Beta  occ. eigenvalues --   -7.54266  -1.00431  -0.93945  -0.86188  -0.81830
  Beta  occ. eigenvalues --   -0.70570  -0.67264  -0.57999  -0.53973  -0.52860
  Beta  occ. eigenvalues --   -0.50245  -0.47702  -0.46118  -0.42189  -0.40521
  Beta  occ. eigenvalues --   -0.38380  -0.32725  -0.30157
  Beta virt. eigenvalues --   -0.07141   0.00357   0.01260   0.01832   0.03044
  Beta virt. eigenvalues --    0.03391   0.05888   0.05961   0.06023   0.06843
  Beta virt. eigenvalues --    0.07829   0.08881   0.09370   0.09515   0.10800
  Beta virt. eigenvalues --    0.12588   0.14033   0.14230   0.14245   0.14725
  Beta virt. eigenvalues --    0.15133   0.15689   0.15886   0.18662   0.19196
  Beta virt. eigenvalues --    0.21276   0.21634   0.21743   0.21908   0.21952
  Beta virt. eigenvalues --    0.23225   0.23964   0.25118   0.25422   0.26078
  Beta virt. eigenvalues --    0.27666   0.28308   0.33232   0.33892   0.36541
  Beta virt. eigenvalues --    0.36845   0.45416   0.46746   0.48017   0.48211
  Beta virt. eigenvalues --    0.50907   0.53026   0.55421   0.56916   0.58326
  Beta virt. eigenvalues --    0.58685   0.59370   0.60878   0.63388   0.63837
  Beta virt. eigenvalues --    0.64236   0.64346   0.69459   0.70489   0.72084
  Beta virt. eigenvalues --    0.73462   0.75619   0.76573   0.81517   0.85117
  Beta virt. eigenvalues --    0.85193   0.86648   0.87521   0.87650   0.89951
  Beta virt. eigenvalues --    0.90149   0.92539   0.92860   0.95865   0.98836
  Beta virt. eigenvalues --    1.03681   1.04555   1.04862   1.05928   1.12312
  Beta virt. eigenvalues --    1.18513   1.20610   1.21249   1.23463   1.23664
  Beta virt. eigenvalues --    1.34950   1.41415   1.51755   1.54042   1.54171
  Beta virt. eigenvalues --    1.59066   1.60363   1.65350   1.67773   1.68721
  Beta virt. eigenvalues --    1.71767   1.74150   1.77440   1.80344   1.89705
  Beta virt. eigenvalues --    1.90071   1.93347   1.94367   1.94920   1.96057
  Beta virt. eigenvalues --    1.96716   2.02438   2.04986   2.07821   2.09945
  Beta virt. eigenvalues --    2.22450   2.28745   2.32375   2.34017   2.35104
  Beta virt. eigenvalues --    2.39934   2.44576   2.47354   2.53311   2.56502
  Beta virt. eigenvalues --    2.61446   2.69774   2.70513   2.72559   2.72749
  Beta virt. eigenvalues --    2.74431   2.76839   2.77656   2.82901   2.83605
  Beta virt. eigenvalues --    2.92670   2.93743   2.95452   3.00341   3.11600
  Beta virt. eigenvalues --    3.18497   3.25986   3.37923   3.42723   3.52871
  Beta virt. eigenvalues --    3.60943   3.73250   3.85663   4.01185   4.13218
  Beta virt. eigenvalues --    4.16297   4.81582   9.96019  23.56350  23.93575
  Beta virt. eigenvalues --   24.01745  24.09177  24.16052  24.22101  25.92902
  Beta virt. eigenvalues --   26.21612  26.67574 216.05935
          Condensed to atoms (all electrons):
               1          2          3          4          5          6
     1  C    5.526250   0.444493   0.002819   0.252623  -0.018267  -1.187701
     2  C    0.444493   6.372708   0.383926   1.271743  -0.007523  -0.706195
     3  H    0.002819   0.383926   0.450655  -0.032296  -0.005898   0.001097
     4  C    0.252623   1.271743  -0.032296  11.641465   0.271713  -1.142370
     5  H   -0.018267  -0.007523  -0.005898   0.271713   0.433914   0.070790
     6  C   -1.187701  -0.706195   0.001097  -1.142370   0.070790  11.039376
     7  C    0.254799  -1.465663  -0.009268  -4.543501   0.028560  -1.119006
     8  H   -0.019130   0.008145   0.000035   0.028167  -0.000217   0.071943
     9  C    0.448860   0.196059  -0.003351  -1.487482   0.007787  -0.714306
    10  H   -0.000658  -0.004420  -0.000070  -0.008645   0.000035   0.000780
    11  Cl  -0.001401   0.137448   0.001114   0.083319  -0.000664  -0.868070
               7          8          9         10         11
     1  C    0.254799  -0.019130   0.448860  -0.000658  -0.001401
     2  C   -1.465663   0.008145   0.196059  -0.004420   0.137448
     3  H   -0.009268   0.000035  -0.003351  -0.000070   0.001114
     4  C   -4.543501   0.028167  -1.487482  -0.008645   0.083319
     5  H    0.028560  -0.000217   0.007787   0.000035  -0.000664
     6  C   -1.119006   0.071943  -0.714306   0.000780  -0.868070
     7  C   11.590786   0.269782   1.286786  -0.027609   0.071473
     8  H    0.269782   0.433393  -0.005972  -0.005612  -0.000756
     9  C    1.286786  -0.005972   6.388267   0.383347   0.136209
    10  H   -0.027609  -0.005612   0.383347   0.449913   0.001101
    11  Cl   0.071473  -0.000756   0.136209   0.001101  17.215468
          Atomic-Atomic Spin Densities.
               1          2          3          4          5          6
     1  C    1.174576  -0.252010   0.012014   0.206170   0.003530  -0.236769
     2  C   -0.252010   0.307068  -0.011758  -0.312896  -0.006588   0.267813
     3  H    0.012014  -0.011758   0.021950   0.013009   0.000908  -0.016479
     4  C    0.206170  -0.312896   0.013009   0.424618   0.007287  -0.253435
     5  H    0.003530  -0.006588   0.000908   0.007287   0.002324  -0.004695
     6  C   -0.236769   0.267813  -0.016479  -0.253435  -0.004695   0.174666
     7  C    0.203984  -0.227970   0.008650   0.181073   0.002518  -0.251486
     8  H    0.003566  -0.002403   0.000011   0.002548   0.000018  -0.004812
     9  C   -0.250409   0.289528  -0.013610  -0.228732  -0.002352   0.265841
    10  H    0.011774  -0.013995   0.000125   0.008853   0.000011  -0.016470
    11  Cl  -0.019592   0.023221  -0.000630  -0.031837  -0.000513   0.035488
               7          8          9         10         11
     1  C    0.203984   0.003566  -0.250409   0.011774  -0.019592
     2  C   -0.227970  -0.002403   0.289528  -0.013995   0.023221
     3  H    0.008650   0.000011  -0.013610   0.000125  -0.000630
     4  C    0.181073   0.002548  -0.228732   0.008853  -0.031837
     5  H    0.002518   0.000018  -0.002352   0.000011  -0.000513
     6  C   -0.251486  -0.004812   0.265841  -0.016470   0.035488
     7  C    0.416621   0.007307  -0.305642   0.012482  -0.031432
     8  H    0.007307   0.002334  -0.006500   0.000877  -0.000496
     9  C   -0.305642  -0.006500   0.302040  -0.011235   0.022816
    10  H    0.012482   0.000877  -0.011235   0.022044  -0.000623
    11  Cl  -0.031432  -0.000496   0.022816  -0.000623  -0.000346
 Mulliken charges and spin densities:
               1          2
     1  C    0.297311   0.856836
     2  C   -0.630721   0.060010
     3  H    0.211237   0.014191
     4  C   -0.334736   0.016658
     5  H    0.219770   0.002448
     6  C    0.553662  -0.040337
     7  C   -0.337138   0.016105
     8  H    0.220221   0.002450
     9  C   -0.636203   0.061744
    10  H    0.211838   0.013842
    11  Cl   0.224759  -0.003944
 Sum of Mulliken charges =   0.00000   1.00000
 Mulliken charges and spin densities with hydrogens summed into heavy atoms:
               1          2
     1  C    0.297311   0.856836
     2  C   -0.419484   0.074200
     4  C   -0.114966   0.019106
     6  C    0.553662  -0.040337
     7  C   -0.116917   0.018554
     9  C   -0.424365   0.075586
    11  Cl   0.224759  -0.003944
 APT charges:
               1
     1  C    1.400997
     2  C   -1.102250
     3  H   -0.107732
     4  C    1.447349
     5  H   -0.813731
     6  C   -1.810133
     7  C   -0.964195
     8  H    1.229313
     9  C   -1.338957
    10  H    1.927280
    11  Cl   0.132059
 Sum of APT charges =   0.00000
 APT charges with hydrogens summed into heavy atoms:
               1
     1  C    1.400997
     2  C   -1.209982
     4  C    0.633619
     6  C   -1.810133
     7  C    0.265118
     9  C    0.588323
    11  Cl   0.132059
 Electronic spatial extent (au):  <R**2>=          19938.6951
 Charge=              0.0000 electrons
 Dipole moment (field-independent basis, Debye):
    X=              1.0500    Y=             -0.3276    Z=              0.4679  Tot=              1.1952
 Quadrupole moment (field-independent basis, Debye-Ang):
   XX=            -39.4838   YY=            -47.7357   ZZ=            -45.8999
   XY=             10.4956   XZ=              5.2555   YZ=             -1.4415
 Traceless Quadrupole moment (field-independent basis, Debye-Ang):
   XX=              4.8893   YY=             -3.3625   ZZ=             -1.5268
   XY=             10.4956   XZ=              5.2555   YZ=             -1.4415
 Octapole moment (field-independent basis, Debye-Ang**2):
  XXX=           -559.0214  YYY=          -1035.6033  ZZZ=           -618.4733  XYY=            -81.0991
  XXY=           -268.3110  XXZ=           -171.7241  XZZ=           -188.4447  YZZ=           -387.9364
  YYZ=           -229.0754  XYZ=             33.8923
 Hexadecapole moment (field-independent basis, Debye-Ang**3):
 XXXX=          -5580.2440 YYYY=         -15782.4869 ZZZZ=          -5611.0395 XXXY=          -3938.9352
 XXXZ=          -2545.9988 YYYX=          -3170.6631 YYYZ=          -4729.2890 ZZZX=          -2758.8692
 ZZZY=          -4879.1640 XXYY=          -2711.5584 XXZZ=          -1820.8691 YYZZ=          -4078.7799
 XXYZ=          -1225.6326 YYXZ=           -584.0493 ZZXY=          -1527.6425
 N-N= 3.047313941458D+02 E-N=-2.238948700677D+03  KE= 6.891424686828D+02
  Exact polarizability:       0.000       0.000       0.000       0.000       0.000       0.000
 Approx polarizability:     118.517       1.389      98.447      16.320     -21.391      74.076
                          Isotropic Fermi Contact Couplings
        Atom                 a.u.       MegaHertz       Gauss      10(-4) cm-1
     1  C(13)              0.55846     627.81998     224.02178     209.41820
     2  C(13)              0.02467      27.73477       9.89646       9.25132
     3  H(1)               0.00923      41.25780      14.72181      13.76212
     4  C(13)              0.04191      47.11837      16.81300      15.71699
     5  H(1)               0.00156       6.96557       2.48549       2.32347
     6  C(13)             -0.01186     -13.32771      -4.75566      -4.44565
     7  C(13)              0.04106      46.15412      16.46894      15.39536
     8  H(1)               0.00155       6.94623       2.47859       2.31701
     9  C(13)              0.02466      27.71781       9.89040       9.24566
    10  H(1)               0.00930      41.58507      14.83859      13.87129
    11  Cl(35)             0.00513       2.24943       0.80265       0.75033
 --------------------------------------------------------
       Center         ----  Spin Dipole Couplings  ----
                      3XX-RR        3YY-RR        3ZZ-RR
 --------------------------------------------------------
     1   Atom        0.586343     -0.399476     -0.186867
     2   Atom        0.089996     -0.010799     -0.079196
     3   Atom        0.002225      0.008305     -0.010530
     4   Atom        0.034716     -0.029930     -0.004786
     5   Atom        0.006881     -0.001974     -0.004907
     6   Atom        0.028785      0.007240     -0.036025
     7   Atom        0.021988     -0.021834     -0.000154
     8   Atom       -0.003279      0.004404     -0.001125
     9   Atom       -0.001274      0.046250     -0.044975
    10   Atom       -0.010208      0.016392     -0.006184
    11   Atom        0.035424     -0.004717     -0.030707
 --------------------------------------------------------
                        XY            XZ            YZ
 --------------------------------------------------------
     1   Atom       -0.359225      0.458704     -0.078674
     2   Atom        0.057072      0.024373     -0.034145
     3   Atom        0.016460     -0.004598     -0.006681
     4   Atom       -0.018277      0.021648      0.007082
     5   Atom        0.005600      0.000361     -0.000067
     6   Atom        0.006585      0.021761     -0.034758
     7   Atom       -0.028605      0.023451      0.000073
     8   Atom       -0.003350      0.002285     -0.005996
     9   Atom       -0.023814      0.041724     -0.087766
    10   Atom        0.006135     -0.002491     -0.014194
    11   Atom       -0.004437      0.027226     -0.027163
 --------------------------------------------------------


 ---------------------------------------------------------------------------------
              Anisotropic Spin Dipole Couplings in Principal Axis System
 ---------------------------------------------------------------------------------

       Atom             a.u.   MegaHertz   Gauss  10(-4) cm-1        Axes

              Baa    -0.5411   -72.610   -25.909   -24.220  0.4085  0.8467 -0.3409
     1 C(13)  Bbb    -0.3581   -48.054   -17.147   -16.029 -0.2402  0.4600  0.8548
              Bcc     0.8992   120.664    43.056    40.249  0.8806 -0.2673  0.3913
 
              Baa    -0.1044   -14.014    -5.001    -4.675 -0.2419  0.4592  0.8548
     2 C(13)  Bbb    -0.0117    -1.565    -0.559    -0.522 -0.3214  0.7933 -0.5171
              Bcc     0.1161    15.580     5.559     5.197  0.9155  0.3998  0.0444
 
              Baa    -0.0128    -6.836    -2.439    -2.280 -0.2369  0.4560  0.8579
     3 H(1)   Bbb    -0.0111    -5.916    -2.111    -1.973  0.7488 -0.4770  0.4603
              Bcc     0.0239    12.752     4.550     4.253  0.6191  0.7513 -0.2285
 
              Baa    -0.0398    -5.337    -1.904    -1.780  0.3223  0.8690 -0.3754
     4 C(13)  Bbb    -0.0071    -0.954    -0.340    -0.318 -0.2419  0.4590  0.8549
              Bcc     0.0469     6.291     2.245     2.098  0.9152 -0.1848  0.3582
 
              Baa    -0.0050    -2.692    -0.960    -0.898 -0.2415  0.4592  0.8549
     5 H(1)   Bbb    -0.0046    -2.430    -0.867    -0.810 -0.3629  0.7743 -0.5185
              Bcc     0.0096     5.121     1.827     1.708  0.9000  0.4354  0.0204
 
              Baa    -0.0609    -8.166    -2.914    -2.724 -0.2412  0.4596  0.8547
     6 C(13)  Bbb     0.0244     3.270     1.167     1.091  0.4101  0.8465 -0.3394
              Bcc     0.0365     4.897     1.747     1.633  0.8795 -0.2687  0.3927
 
              Baa    -0.0392    -5.265    -1.879    -1.756  0.4955  0.8156 -0.2988
     7 C(13)  Bbb    -0.0067    -0.901    -0.322    -0.301 -0.2407  0.4595  0.8550
              Bcc     0.0460     6.167     2.200     2.057  0.8346 -0.3517  0.4239
 
              Baa    -0.0050    -2.664    -0.950    -0.889 -0.2431  0.4587  0.8547
     8 H(1)   Bbb    -0.0045    -2.418    -0.863    -0.807  0.9219  0.3834  0.0564
              Bcc     0.0095     5.082     1.813     1.695 -0.3018  0.8016 -0.5160
 
              Baa    -0.1040   -13.962    -4.982    -4.657 -0.2401  0.4609  0.8544
     9 C(13)  Bbb    -0.0110    -1.478    -0.527    -0.493  0.9070  0.4203  0.0281
              Bcc     0.1151    15.440     5.509     5.150 -0.3461  0.7816 -0.5189
 
              Baa    -0.0131    -7.008    -2.501    -2.338 -0.2373  0.4605  0.8554
    10 H(1)   Bbb    -0.0114    -6.063    -2.163    -2.022  0.9533 -0.0592  0.2963
              Bcc     0.0245    13.071     4.664     4.360  0.1871  0.8857 -0.4249
 
              Baa    -0.0530    -2.771    -0.989    -0.924 -0.2404  0.4594  0.8551
    11 Cl(35) Bbb     0.0040     0.209     0.074     0.070  0.4125  0.8458 -0.3384
              Bcc     0.0490     2.563     0.914     0.855  0.8787 -0.2714  0.3928
 

 ---------------------------------------------------------------------------------

 D2PCM: PCM CHGder 2nd derivatives, FixD1E=F FixD2E=F DoIter=F DoCFld=F I1PDM=0
 Calling FoFJK, ICntrl=    100127 FMM=F ISym2X=0 I1Cent= 0 IOpClX= 1 NMat=1 NMatS=1 NMatT=0.
 -------------------------------------------------------------------
 Center     Atomic                   Forces (Hartrees/Bohr)
 Number     Number              X              Y              Z
 -------------------------------------------------------------------
      1        6          -0.046212578    0.013368184   -0.020364180
      2        6           0.021663950   -0.010224951    0.011538552
      3        1           0.001465593    0.000457179    0.000231120
      4        6           0.000845056    0.006879125   -0.003482796
      5        1           0.000957709   -0.000858444    0.000732997
      6        6          -0.000766944    0.000329701   -0.000364757
      7        6          -0.004759697   -0.004384602    0.000972028
      8        1           0.001444558    0.000091976    0.000360156
      9        6           0.025479003   -0.007560415    0.011398505
     10        1          -0.000006159    0.001761349   -0.000901956
     11       17          -0.000110491    0.000140899   -0.000119668
 -------------------------------------------------------------------
 Cartesian Forces:  Max     0.046212578 RMS     0.011529803
 FormGI is forming the generalized inverse of G from B-inverse, IUseBI=4.

 GradGradGradGradGradGradGradGradGradGradGradGradGradGradGradGradGradGrad
 Berny optimization.
 Internal  Forces:  Max     0.028571365 RMS     0.006860233
 Search for a local minimum.
 Step number   1 out of a maximum of   57
 All quantities printed in internal units (Hartrees-Bohrs-Radians)
 Mixed Optimization -- RFO/linear search
 Second derivative matrix not updated -- analytic derivatives used.
 ITU=  0
     Eigenvalues ---    0.01696   0.01815   0.01993   0.02492   0.02642
     Eigenvalues ---    0.03016   0.03151   0.03355   0.10724   0.10995
     Eigenvalues ---    0.11437   0.12185   0.16107   0.16305   0.19626
     Eigenvalues ---    0.19999   0.26046   0.26686   0.35716   0.36123
     Eigenvalues ---    0.36665   0.36823   0.40060   0.41626   0.46554
     Eigenvalues ---    0.48061   0.51593
 RFO step:  Lambda=-8.95112104D-03 EMin= 1.69566556D-02
 Linear search not attempted -- first point.
 Iteration  1 RMS(Cart)=  0.02757176 RMS(Int)=  0.00119630
 Iteration  2 RMS(Cart)=  0.00171246 RMS(Int)=  0.00041977
 Iteration  3 RMS(Cart)=  0.00000062 RMS(Int)=  0.00041977
 Variable       Old X    -DE/DX   Delta X   Delta X   Delta X     New X
                                 (Linear)    (Quad)   (Total)
    R1        2.64447  -0.01911   0.00000  -0.05181  -0.05121   2.59326
    R2        2.64682  -0.01889   0.00000  -0.05382  -0.05323   2.59359
    R3        2.05280  -0.00021   0.00000  -0.00451  -0.00451   2.04829
    R4        2.62772   0.00176   0.00000   0.01115   0.01116   2.63888
    R5        2.04633  -0.00019   0.00000   0.00060   0.00060   2.04693
    R6        2.62333   0.00283   0.00000   0.00300   0.00242   2.62575
    R7        2.62431   0.00246   0.00000   0.00206   0.00146   2.62578
    R8        3.30620   0.00018   0.00000   0.00389   0.00389   3.31009
    R9        2.04679  -0.00023   0.00000   0.00038   0.00038   2.04717
   R10        2.62608   0.00151   0.00000   0.01261   0.01261   2.63868
   R11        2.04906   0.00115   0.00000  -0.00075  -0.00075   2.04831
    A1        2.05768   0.02857   0.00000   0.12449   0.12605   2.18373
    A2        2.11171   0.00577   0.00000   0.02488   0.02462   2.13633
    A3        2.12242  -0.01469   0.00000  -0.07414  -0.07363   2.04879
    A4        2.04906   0.00892   0.00000   0.04927   0.04901   2.09807
    A5        2.11274  -0.00155   0.00000  -0.00720  -0.00687   2.10587
    A6        2.06948   0.00009   0.00000   0.00647   0.00581   2.07528
    A7        2.10096   0.00146   0.00000   0.00074   0.00107   2.10203
    A8        2.12493   0.00048   0.00000   0.01079   0.00955   2.13448
    A9        2.07811  -0.00005   0.00000  -0.00488  -0.00426   2.07385
   A10        2.08015  -0.00043   0.00000  -0.00592  -0.00530   2.07485
   A11        2.10048   0.00155   0.00000   0.00158   0.00192   2.10240
   A12        2.06934  -0.00010   0.00000   0.00613   0.00544   2.07479
   A13        2.11337  -0.00146   0.00000  -0.00771  -0.00737   2.10600
   A14        2.12253  -0.01435   0.00000  -0.07373  -0.07323   2.04930
   A15        2.08369   0.00883   0.00000   0.04926   0.04902   2.13271
   A16        2.07697   0.00552   0.00000   0.02446   0.02421   2.10118
    D1        3.13940   0.00005   0.00000   0.00192   0.00196   3.14136
    D2       -0.00113   0.00001   0.00000   0.00097   0.00099  -0.00014
    D3        0.00218  -0.00004   0.00000  -0.00172  -0.00174   0.00044
    D4       -3.14014  -0.00001   0.00000  -0.00096  -0.00100  -3.14114
    D5        3.14048   0.00001   0.00000   0.00055   0.00057   3.14105
    D6       -0.00021   0.00000   0.00000   0.00005   0.00010  -0.00011
    D7       -0.00009  -0.00002   0.00000  -0.00036  -0.00036  -0.00045
    D8       -3.14078  -0.00004   0.00000  -0.00086  -0.00083   3.14157
    D9        0.00058  -0.00002   0.00000  -0.00054  -0.00053   0.00005
   D10        3.14140   0.00000   0.00000  -0.00023  -0.00025   3.14115
   D11       -3.14011  -0.00003   0.00000  -0.00103  -0.00100  -3.14111
   D12        0.00071  -0.00002   0.00000  -0.00072  -0.00072  -0.00002
   D13        3.14152   0.00002   0.00000   0.00037   0.00033  -3.14134
   D14        0.00042   0.00000   0.00000  -0.00013  -0.00016   0.00025
   D15        0.00070   0.00000   0.00000   0.00006   0.00005   0.00075
   D16       -3.14040  -0.00002   0.00000  -0.00043  -0.00044  -3.14084
   D17       -0.00184   0.00006   0.00000   0.00142   0.00136  -0.00048
   D18        3.14048   0.00003   0.00000   0.00065   0.00062   3.14110
   D19        3.14025   0.00004   0.00000   0.00091   0.00086   3.14111
   D20       -0.00062   0.00001   0.00000   0.00014   0.00013  -0.00049
         Item               Value     Threshold  Converged?
 Maximum Force            0.028571     0.000015     NO 
 RMS     Force            0.006860     0.000010     NO 
 Maximum Displacement     0.139647     0.000060     NO 
 RMS     Displacement     0.027470     0.000040     NO 
 Predicted change in Energy=-4.649064D-03
 GradGradGradGradGradGradGradGradGradGradGradGradGradGradGradGradGradGrad

                          Input orientation:                          
 ---------------------------------------------------------------------
 Center     Atomic      Atomic             Coordinates (Angstroms)
 Number     Number       Type             X           Y           Z
 ---------------------------------------------------------------------
      1          6           0        6.167953    7.017641    5.143337
      2          6           0        5.111075    6.157941    5.308029
      3          1           0        5.204350    5.217962    5.839627
      4          6           0        3.883936    6.536031    4.759211
      5          1           0        3.014693    5.897219    4.857370
      6          6           0        3.794990    7.746775    4.083299
      7          6           0        4.884989    8.595485    3.933933
      8          1           0        4.781966    9.533098    3.401166
      9          6           0        6.112914    8.218865    4.481747
     10          1           0        6.979361    8.862035    4.379389
     11         17           0        2.254855    8.218601    3.395153
 ---------------------------------------------------------------------
                    Distance matrix (angstroms):
                    1          2          3          4          5
     1  C    0.000000
     2  C    1.372297   0.000000
     3  H    2.156894   1.083908   0.000000
     4  C    2.365636   1.396433   2.155944   0.000000
     5  H    3.358596   2.160067   2.494156   1.083189   0.000000
     6  C    2.699309   2.399257   3.386130   1.389485   2.151489
     7  C    2.366062   2.807290   3.891185   2.434038   3.410481
     8  H    3.359114   3.890518   4.974424   3.410741   4.296906
     9  C    1.372469   2.435946   3.416832   2.806645   3.889743
    10  H    2.154945   3.415404   4.308390   3.890529   4.973649
    11  Cl   4.450931   4.007918   4.866087   2.710276   2.846795
                    6          7          8          9         10
     6  C    0.000000
     7  C    1.389502   0.000000
     8  H    2.151832   1.083316   0.000000
     9  C    2.398833   1.396332   2.160159   0.000000
    10  H    3.386988   2.157748   2.497157   1.083917   0.000000
    11  Cl   1.751622   2.711075   2.848549   4.008154   4.868643
                   11
    11  Cl   0.000000
 Symmetry turned off by external request.
 Stoichiometry    C6H4Cl(2)
 Framework group  C1[X(C6H4Cl)]
 Deg. of freedom    27
 Full point group                 C1      NOp   1
 Rotational constants (GHZ):           5.6273327           1.6532766           1.2778515
 Standard basis: 6-311+G(d,p) (5D, 7F)
   186 basis functions,   301 primitive gaussians,   193 cartesian basis functions
    29 alpha electrons       28 beta electrons
       nuclear repulsion energy       305.5829347039 Hartrees.
 NAtoms=   11 NActive=   11 NUniq=   11 SFac= 1.00D+00 NAtFMM=   60 NAOKFM=F Big=F
 Integral buffers will be    131072 words long.
 Raffenetti 2 integral format.
 Two-electron integral symmetry is turned off.
 ------------------------------------------------------------------------------
 Polarizable Continuum Model (PCM)
 =================================
 Model                : PCM.
 Atomic radii         : SMD-Coulomb.
 Polarization charges : Total charges.
 Charge compensation  : None.
 Solution method      : Matrix inversion.
 Cavity type          : VdW (van der Waals Surface) (Alpha=1.000).
 Cavity algorithm     : GePol (No added spheres)
                        Default sphere list used, NSphG=   11.
                        Lebedev-Laikov grids with approx.  5.0 points / Ang**2.
                        Smoothing algorithm: York/Karplus (Gamma=1.0000).
                        Polarization charges: spherical gaussians, with
                                              point-specific exponents (IZeta= 3).
                        Self-potential: point-specific (ISelfS= 7).
                        Self-field    : sphere-specific E.n sum rule (ISelfD= 2).
 1st derivatives      : Analytical E(r).r(x)/FMM algorithm (CHGder, D1EAlg=3).
                        Cavity 1st derivative terms included.
 Solvent              : TetraHydroFuran, Eps=   7.425700 Eps(inf)=   1.974025
 ------------------------------------------------------------------------------
 Spheres list:
 ISph  on   Nord     Re0    Alpha      Xe            Ye            Ze
    1   C      1    1.8500  1.000      6.167953      7.017641      5.143337
    2   C      2    1.8500  1.000      5.111075      6.157941      5.308029
    3   H      3    1.2000  1.000      5.204350      5.217962      5.839627
    4   C      4    1.8500  1.000      3.883936      6.536031      4.759211
    5   H      5    1.2000  1.000      3.014693      5.897219      4.857370
    6   C      6    1.8500  1.000      3.794990      7.746775      4.083299
    7   C      7    1.8500  1.000      4.884989      8.595485      3.933933
    8   H      8    1.2000  1.000      4.781966      9.533098      3.401166
    9   C      9    1.8500  1.000      6.112914      8.218865      4.481747
   10   H     10    1.2000  1.000      6.979361      8.862035      4.379389
   11  Cl     11    2.3800  1.000      2.254855      8.218601      3.395153
 ------------------------------------------------------------------------------
 ------------------------------------------------------------------------------
 Atomic radii for non-electrostatic terms: SMD-CDS.
 ------------------------------------------------------------------------------
 Nuclear repulsion after PCM non-electrostatic terms =      305.5793935549 Hartrees.
 One-electron integrals computed using PRISM.
 NBasis=   186 RedAO= T EigKep=  3.50D-06  NBF=   186
 NBsUse=   186 1.00D-06 EigRej= -1.00D+00 NBFU=   186
 Initial guess from the checkpoint file:  "4-cl-ph-opt-freq-thf.chk"
 B after Tr=    -0.017899    0.013708   -0.013496
         Rot=    1.000000   -0.000196    0.000272    0.000533 Ang=  -0.07 deg.
 Initial guess <Sx>= 0.0000 <Sy>= 0.0000 <Sz>= 0.5000 <S**2>= 0.7636 S= 0.5068
 ExpMin= 4.38D-02 ExpMax= 1.06D+05 ExpMxC= 3.62D+03 IAcc=3 IRadAn=         5 AccDes= 0.00D+00
 Harris functional with IExCor= 1009 and IRadAn=       5 diagonalized for initial guess.
 HarFok:  IExCor= 1009 AccDes= 0.00D+00 IRadAn=         5 IDoV= 1 UseB2=F ITyADJ=14
 ICtDFT=  3500011 ScaDFX=  1.000000  1.000000  1.000000  1.000000
 FoFCou: FMM=F IPFlag=           0 FMFlag=      100000 FMFlg1=           0
         NFxFlg=           0 DoJE=T BraDBF=F KetDBF=T FulRan=T
         wScrn=  0.000000 ICntrl=       500 IOpCl=  0 I1Cent=   200000004 NGrid=           0
         NMat0=    1 NMatS0=      1 NMatT0=    0 NMatD0=    1 NMtDS0=    0 NMtDT0=    0
 Symmetry not used in FoFCou.
 Keep R1 and R2 ints in memory in canonical form, NReq=335193157.
 Requested convergence on RMS density matrix=1.00D-08 within 128 cycles.
 Requested convergence on MAX density matrix=1.00D-06.
 Requested convergence on             energy=1.00D-06.
 Level shift goal  0.100 maximum shift  0.100.
 No special actions if energy rises.
 Dynamic level shift is on during FON iterations.
 Inv3:  Mode=1 IEnd=     4148928.
 Iteration    1 A*A^-1 deviation from unit magnitude is 2.89D-15 for    735.
 Iteration    1 A*A^-1 deviation from orthogonality  is 1.54D-15 for    301    194.
 Iteration    1 A^-1*A deviation from unit magnitude is 2.44D-15 for     81.
 Iteration    1 A^-1*A deviation from orthogonality  is 1.18D-15 for    449     50.
 Error on total polarization charges =  0.02723
 SCF Done:  E(UM062X) =  -691.121633087     A.U. after   15 cycles
            NFock= 15  Conv=0.79D-08     -V/T= 2.0027
 <Sx>= 0.0000 <Sy>= 0.0000 <Sz>= 0.5000 <S**2>= 0.7622 S= 0.5061
 <L.S>=  0.00000000000    
 SMD-CDS (non-electrostatic) energy       (kcal/mol) =      -2.22
 (included in total energy above)
 Annihilation of the first spin contaminant:
 S**2 before annihilation     0.7622,   after     0.7501
 D1PCM: PCM CHGder 1st derivatives, ID1Alg=3 FixD1E=F DoIter=F DoCFld=F I1PDM=0.
 Calling FoFJK, ICntrl=      2127 FMM=F ISym2X=0 I1Cent= 0 IOpClX= 1 NMat=1 NMatS=1 NMatT=0.
 -------------------------------------------------------------------
 Center     Atomic                   Forces (Hartrees/Bohr)
 Number     Number              X              Y              Z
 -------------------------------------------------------------------
      1        6          -0.001064592    0.000243571   -0.000434708
      2        6           0.000205031   -0.002052634    0.001153298
      3        1           0.000074128   -0.000110350    0.000073691
      4        6          -0.000522464    0.000082671   -0.000216074
      5        1          -0.000037402   -0.000047120   -0.000000011
      6        6          -0.000383983    0.000134279   -0.000176074
      7        6          -0.000459112    0.000320513   -0.000294032
      8        1           0.000016010    0.000051876   -0.000011524
      9        6           0.002183407    0.001098475    0.000034612
     10        1          -0.000053082    0.000300820   -0.000137892
     11       17           0.000042058   -0.000022100    0.000008715
 -------------------------------------------------------------------
 Cartesian Forces:  Max     0.002183407 RMS     0.000651562

 GradGradGradGradGradGradGradGradGradGradGradGradGradGradGradGradGradGrad
 Berny optimization.
 Using GEDIIS/GDIIS optimizer.
 FormGI is forming the generalized inverse of G from B-inverse, IUseBI=4.
 Internal  Forces:  Max     0.001456097 RMS     0.000478384
 Search for a local minimum.
 Step number   2 out of a maximum of   57
 All quantities printed in internal units (Hartrees-Bohrs-Radians)
 Mixed Optimization -- En-DIIS/RFO-DIIS
 Update second derivatives using D2CorX and points    1    2
 DE= -4.65D-03 DEPred=-4.65D-03 R= 9.99D-01
 TightC=F SS=  1.41D+00  RLast= 1.97D-01 DXNew= 5.0454D-01 5.9075D-01
 Trust test= 9.99D-01 RLast= 1.97D-01 DXMaxT set to 5.05D-01
 ITU=  1  0
 Use linear search instead of GDIIS.
     Eigenvalues ---    0.01695   0.01814   0.01992   0.02490   0.02642
     Eigenvalues ---    0.03014   0.03149   0.03352   0.10720   0.10994
     Eigenvalues ---    0.11433   0.12185   0.16106   0.16303   0.19512
     Eigenvalues ---    0.19627   0.26042   0.26631   0.35724   0.36143
     Eigenvalues ---    0.36667   0.36824   0.40882   0.41619   0.46552
     Eigenvalues ---    0.48063   0.51926
 RFO step:  Lambda=-2.51493664D-05 EMin= 1.69483732D-02
 Quartic linear search produced a step of  0.03965.
 Iteration  1 RMS(Cart)=  0.00222718 RMS(Int)=  0.00001824
 Iteration  2 RMS(Cart)=  0.00000470 RMS(Int)=  0.00001782
 Iteration  3 RMS(Cart)=  0.00000000 RMS(Int)=  0.00001782
 Variable       Old X    -DE/DX   Delta X   Delta X   Delta X     New X
                                 (Linear)    (Quad)   (Total)
    R1        2.59326   0.00106  -0.00203   0.00409   0.00209   2.59535
    R2        2.59359   0.00107  -0.00211   0.00394   0.00185   2.59544
    R3        2.04829   0.00014  -0.00018   0.00017  -0.00001   2.04828
    R4        2.63888   0.00079   0.00044   0.00140   0.00184   2.64072
    R5        2.04693   0.00006   0.00002   0.00020   0.00022   2.04715
    R6        2.62575   0.00080   0.00010   0.00111   0.00118   2.62693
    R7        2.62578   0.00078   0.00006   0.00103   0.00106   2.62684
    R8        3.31009  -0.00005   0.00015  -0.00010   0.00005   3.31014
    R9        2.04717   0.00005   0.00002   0.00018   0.00020   2.04737
   R10        2.63868   0.00081   0.00050   0.00168   0.00218   2.64086
   R11        2.04831   0.00015  -0.00003   0.00003   0.00000   2.04830
    A1        2.18373   0.00146   0.00500   0.00221   0.00728   2.19100
    A2        2.13633   0.00046   0.00098   0.00035   0.00131   2.13764
    A3        2.04879  -0.00104  -0.00292  -0.00214  -0.00503   2.04376
    A4        2.09807   0.00058   0.00194   0.00179   0.00372   2.10179
    A5        2.10587  -0.00006  -0.00027   0.00040   0.00014   2.10601
    A6        2.07528   0.00009   0.00023   0.00037   0.00058   2.07586
    A7        2.10203  -0.00003   0.00004  -0.00078  -0.00072   2.10131
    A8        2.13448   0.00045   0.00038   0.00139   0.00171   2.13619
    A9        2.07385  -0.00023  -0.00017  -0.00078  -0.00093   2.07293
   A10        2.07485  -0.00022  -0.00021  -0.00060  -0.00079   2.07406
   A11        2.10240  -0.00002   0.00008  -0.00067  -0.00058   2.10182
   A12        2.07479   0.00010   0.00022   0.00057   0.00075   2.07554
   A13        2.10600  -0.00007  -0.00029   0.00010  -0.00018   2.10582
   A14        2.04930  -0.00105  -0.00290  -0.00240  -0.00529   2.04401
   A15        2.13271   0.00083   0.00194   0.00274   0.00467   2.13738
   A16        2.10118   0.00022   0.00096  -0.00033   0.00062   2.10180
    D1        3.14136   0.00001   0.00008   0.00016   0.00023  -3.14159
    D2       -0.00014   0.00000   0.00004   0.00008   0.00012  -0.00002
    D3        0.00044   0.00000  -0.00007  -0.00012  -0.00019   0.00025
    D4       -3.14114  -0.00001  -0.00004  -0.00032  -0.00036  -3.14150
    D5        3.14105   0.00000   0.00002   0.00017   0.00020   3.14125
    D6       -0.00011   0.00000   0.00000   0.00000   0.00001  -0.00010
    D7       -0.00045   0.00000  -0.00001   0.00010   0.00009  -0.00036
    D8        3.14157   0.00000  -0.00003  -0.00007  -0.00010   3.14147
    D9        0.00005   0.00000  -0.00002  -0.00005  -0.00007  -0.00002
   D10        3.14115   0.00000  -0.00001  -0.00008  -0.00009   3.14106
   D11       -3.14111   0.00000  -0.00004  -0.00022  -0.00026  -3.14137
   D12       -0.00002   0.00000  -0.00003  -0.00025  -0.00028  -0.00029
   D13       -3.14134   0.00000   0.00001   0.00006   0.00007  -3.14127
   D14        0.00025   0.00000  -0.00001   0.00002   0.00001   0.00026
   D15        0.00075   0.00000   0.00000   0.00008   0.00008   0.00083
   D16       -3.14084   0.00000  -0.00002   0.00004   0.00003  -3.14082
   D17       -0.00048   0.00000   0.00005   0.00006   0.00011  -0.00036
   D18        3.14110   0.00001   0.00002   0.00026   0.00028   3.14138
   D19        3.14111   0.00000   0.00003   0.00002   0.00006   3.14117
   D20       -0.00049   0.00001   0.00001   0.00022   0.00023  -0.00027
         Item               Value     Threshold  Converged?
 Maximum Force            0.001456     0.000015     NO 
 RMS     Force            0.000478     0.000010     NO 
 Maximum Displacement     0.006044     0.000060     NO 
 RMS     Displacement     0.002225     0.000040     NO 
 Predicted change in Energy=-1.936001D-05
 GradGradGradGradGradGradGradGradGradGradGradGradGradGradGradGradGradGrad

                          Input orientation:                          
 ---------------------------------------------------------------------
 Center     Atomic      Atomic             Coordinates (Angstroms)
 Number     Number       Type             X           Y           Z
 ---------------------------------------------------------------------
      1          6           0        6.165185    7.018020    5.142156
      2          6           0        5.110190    6.154743    5.309392
      3          1           0        5.205610    5.215250    5.841456
      4          6           0        3.883128    6.535079    4.759475
      5          1           0        3.012673    5.897601    4.856865
      6          6           0        3.795590    7.746615    4.083513
      7          6           0        4.885521    8.596238    3.933630
      8          1           0        4.781202    9.533701    3.400635
      9          6           0        6.115258    8.220957    4.481235
     10          1           0        6.981178    8.864802    4.378669
     11         17           0        2.255545    8.218647    3.395233
 ---------------------------------------------------------------------
                    Distance matrix (angstroms):
                    1          2          3          4          5
     1  C    0.000000
     2  C    1.373401   0.000000
     3  H    2.158654   1.083902   0.000000
     4  C    2.363782   1.397407   2.159072   0.000000
     5  H    3.357837   2.161130   2.498799   1.083308   0.000000
     6  C    2.695655   2.401043   3.389149   1.390111   2.151717
     7  C    2.364074   2.811423   3.895297   2.436225   3.412121
     8  H    3.358117   3.894733   4.978629   3.412435   4.297618
     9  C    1.373450   2.442386   3.422271   2.811051   3.894242
    10  H    2.158555   3.422172   4.314118   3.894937   4.978151
    11  Cl   4.447306   4.009077   4.869012   2.710089   2.845499
                    6          7          8          9         10
     6  C    0.000000
     7  C    1.390063   0.000000
     8  H    2.152075   1.083421   0.000000
     9  C    2.400843   1.397484   2.161180   0.000000
    10  H    3.389016   2.159158   2.498774   1.083915   0.000000
    11  Cl   1.751651   2.710944   2.847514   4.009587   4.869935
                   11
    11  Cl   0.000000
 Symmetry turned off by external request.
 Stoichiometry    C6H4Cl(2)
 Framework group  C1[X(C6H4Cl)]
 Deg. of freedom    27
 Full point group                 C1      NOp   1
 Rotational constants (GHZ):           5.6098191           1.6542195           1.2775087
 Standard basis: 6-311+G(d,p) (5D, 7F)
   186 basis functions,   301 primitive gaussians,   193 cartesian basis functions
    29 alpha electrons       28 beta electrons
       nuclear repulsion energy       305.4765096358 Hartrees.
 NAtoms=   11 NActive=   11 NUniq=   11 SFac= 1.00D+00 NAtFMM=   60 NAOKFM=F Big=F
 Integral buffers will be    131072 words long.
 Raffenetti 2 integral format.
 Two-electron integral symmetry is turned off.
 ------------------------------------------------------------------------------
 Polarizable Continuum Model (PCM)
 =================================
 Model                : PCM.
 Atomic radii         : SMD-Coulomb.
 Polarization charges : Total charges.
 Charge compensation  : None.
 Solution method      : Matrix inversion.
 Cavity type          : VdW (van der Waals Surface) (Alpha=1.000).
 Cavity algorithm     : GePol (No added spheres)
                        Default sphere list used, NSphG=   11.
                        Lebedev-Laikov grids with approx.  5.0 points / Ang**2.
                        Smoothing algorithm: York/Karplus (Gamma=1.0000).
                        Polarization charges: spherical gaussians, with
                                              point-specific exponents (IZeta= 3).
                        Self-potential: point-specific (ISelfS= 7).
                        Self-field    : sphere-specific E.n sum rule (ISelfD= 2).
 1st derivatives      : Analytical E(r).r(x)/FMM algorithm (CHGder, D1EAlg=3).
                        Cavity 1st derivative terms included.
 Solvent              : TetraHydroFuran, Eps=   7.425700 Eps(inf)=   1.974025
 ------------------------------------------------------------------------------
 Spheres list:
 ISph  on   Nord     Re0    Alpha      Xe            Ye            Ze
    1   C      1    1.8500  1.000      6.165185      7.018020      5.142156
    2   C      2    1.8500  1.000      5.110190      6.154743      5.309392
    3   H      3    1.2000  1.000      5.205610      5.215250      5.841456
    4   C      4    1.8500  1.000      3.883128      6.535079      4.759475
    5   H      5    1.2000  1.000      3.012673      5.897601      4.856865
    6   C      6    1.8500  1.000      3.795590      7.746615      4.083513
    7   C      7    1.8500  1.000      4.885521      8.596238      3.933630
    8   H      8    1.2000  1.000      4.781202      9.533701      3.400635
    9   C      9    1.8500  1.000      6.115258      8.220957      4.481235
   10   H     10    1.2000  1.000      6.981178      8.864802      4.378669
   11  Cl     11    2.3800  1.000      2.255545      8.218647      3.395233
 ------------------------------------------------------------------------------
 ------------------------------------------------------------------------------
 Atomic radii for non-electrostatic terms: SMD-CDS.
 ------------------------------------------------------------------------------
 Nuclear repulsion after PCM non-electrostatic terms =      305.4729745772 Hartrees.
 One-electron integrals computed using PRISM.
 NBasis=   186 RedAO= T EigKep=  3.51D-06  NBF=   186
 NBsUse=   186 1.00D-06 EigRej= -1.00D+00 NBFU=   186
 Initial guess from the checkpoint file:  "4-cl-ph-opt-freq-thf.chk"
 B after Tr=    -0.000936    0.001016   -0.000966
         Rot=    1.000000   -0.000018    0.000030    0.000056 Ang=  -0.01 deg.
 Initial guess <Sx>= 0.0000 <Sy>= 0.0000 <Sz>= 0.5000 <S**2>= 0.7622 S= 0.5061
 Keep R1 and R2 ints in memory in canonical form, NReq=335193157.
 Requested convergence on RMS density matrix=1.00D-08 within 128 cycles.
 Requested convergence on MAX density matrix=1.00D-06.
 Requested convergence on             energy=1.00D-06.
 Level shift goal  0.100 maximum shift  0.100.
 No special actions if energy rises.
 Dynamic level shift is on during FON iterations.
 Inv3:  Mode=1 IEnd=     4141875.
 Iteration    1 A*A^-1 deviation from unit magnitude is 4.88D-15 for   1162.
 Iteration    1 A*A^-1 deviation from orthogonality  is 2.07D-15 for    328    196.
 Iteration    1 A^-1*A deviation from unit magnitude is 5.11D-15 for   1162.
 Iteration    1 A^-1*A deviation from orthogonality  is 1.73D-15 for   1161    875.
 Error on total polarization charges =  0.02724
 SCF Done:  E(UM062X) =  -691.121652449     A.U. after   11 cycles
            NFock= 11  Conv=0.83D-08     -V/T= 2.0028
 <Sx>= 0.0000 <Sy>= 0.0000 <Sz>= 0.5000 <S**2>= 0.7623 S= 0.5061
 <L.S>=  0.00000000000    
 SMD-CDS (non-electrostatic) energy       (kcal/mol) =      -2.22
 (included in total energy above)
 Annihilation of the first spin contaminant:
 S**2 before annihilation     0.7623,   after     0.7501
 D1PCM: PCM CHGder 1st derivatives, ID1Alg=3 FixD1E=F DoIter=F DoCFld=F I1PDM=0.
 Calling FoFJK, ICntrl=      2127 FMM=F ISym2X=0 I1Cent= 0 IOpClX= 1 NMat=1 NMatS=1 NMatT=0.
 -------------------------------------------------------------------
 Center     Atomic                   Forces (Hartrees/Bohr)
 Number     Number              X              Y              Z
 -------------------------------------------------------------------
      1        6          -0.000158266    0.000041839   -0.000060642
      2        6           0.000192302    0.000098684   -0.000004433
      3        1           0.000005493   -0.000021281    0.000000580
      4        6          -0.000054157   -0.000041241   -0.000004942
      5        1          -0.000001025   -0.000006903   -0.000020070
      6        6          -0.000032254    0.000010436   -0.000019681
      7        6          -0.000017801    0.000066817   -0.000031912
      8        1          -0.000010214    0.000007057    0.000007322
      9        6           0.000071923   -0.000181447    0.000133627
     10        1          -0.000002409    0.000034057    0.000007829
     11       17           0.000006410   -0.000008017   -0.000007677
 -------------------------------------------------------------------
 Cartesian Forces:  Max     0.000192302 RMS     0.000066900

 GradGradGradGradGradGradGradGradGradGradGradGradGradGradGradGradGradGrad
 Berny optimization.
 Using GEDIIS/GDIIS optimizer.
 FormGI is forming the generalized inverse of G from B-inverse, IUseBI=4.
 Internal  Forces:  Max     0.000149210 RMS     0.000036612
 Search for a local minimum.
 Step number   3 out of a maximum of   57
 All quantities printed in internal units (Hartrees-Bohrs-Radians)
 Mixed Optimization -- En-DIIS/RFO-DIIS
 Swapping is turned off.
 Update second derivatives using D2CorX and points    1    2    3
 DE= -1.94D-05 DEPred=-1.94D-05 R= 1.00D+00
 TightC=F SS=  1.41D+00  RLast= 1.30D-02 DXNew= 8.4853D-01 3.9035D-02
 Trust test= 1.00D+00 RLast= 1.30D-02 DXMaxT set to 5.05D-01
 ITU=  1  1  0
     Eigenvalues ---    0.01695   0.01814   0.01991   0.02490   0.02642
     Eigenvalues ---    0.03013   0.03149   0.03352   0.10696   0.11000
     Eigenvalues ---    0.11419   0.12157   0.16114   0.16303   0.19122
     Eigenvalues ---    0.19627   0.26040   0.26454   0.35705   0.36121
     Eigenvalues ---    0.36666   0.36824   0.41615   0.41765   0.46551
     Eigenvalues ---    0.48357   0.51978
 En-DIIS/RFO-DIIS/Sim-DIIS IScMMF=       -3 using points:     3    2
 RFO step:  Lambda=-1.78430940D-07.
 DidBck=F Rises=F RFO-DIIS coefs:    1.01530   -0.01530
 Iteration  1 RMS(Cart)=  0.00008877 RMS(Int)=  0.00000002
 Iteration  2 RMS(Cart)=  0.00000001 RMS(Int)=  0.00000002
 Variable       Old X    -DE/DX   Delta X   Delta X   Delta X     New X
                                 (Linear)    (Quad)   (Total)
    R1        2.59535  -0.00015   0.00003  -0.00041  -0.00038   2.59498
    R2        2.59544  -0.00014   0.00003  -0.00040  -0.00038   2.59507
    R3        2.04828   0.00002   0.00000   0.00006   0.00006   2.04834
    R4        2.64072   0.00006   0.00003   0.00014   0.00017   2.64088
    R5        2.04715   0.00000   0.00000   0.00000   0.00000   2.04716
    R6        2.62693   0.00004   0.00002   0.00009   0.00011   2.62704
    R7        2.62684   0.00003   0.00002   0.00008   0.00010   2.62693
    R8        3.31014   0.00000   0.00000  -0.00002  -0.00002   3.31012
    R9        2.04737   0.00000   0.00000   0.00000   0.00000   2.04737
   R10        2.64086   0.00007   0.00003   0.00016   0.00019   2.64105
   R11        2.04830   0.00002   0.00000   0.00006   0.00006   2.04836
    A1        2.19100   0.00006   0.00011   0.00015   0.00026   2.19127
    A2        2.13764   0.00000   0.00002   0.00004   0.00006   2.13770
    A3        2.04376   0.00001  -0.00008   0.00006  -0.00002   2.04374
    A4        2.10179   0.00000   0.00006  -0.00009  -0.00004   2.10175
    A5        2.10601   0.00002   0.00000   0.00013   0.00013   2.10615
    A6        2.07586  -0.00003   0.00001  -0.00012  -0.00011   2.07575
    A7        2.10131   0.00001  -0.00001  -0.00001  -0.00002   2.10129
    A8        2.13619  -0.00002   0.00003  -0.00001   0.00001   2.13621
    A9        2.07293   0.00001  -0.00001   0.00000  -0.00001   2.07292
   A10        2.07406   0.00001  -0.00001   0.00001   0.00000   2.07406
   A11        2.10182   0.00001  -0.00001   0.00000  -0.00001   2.10181
   A12        2.07554  -0.00003   0.00001  -0.00012  -0.00011   2.07543
   A13        2.10582   0.00002   0.00000   0.00012   0.00011   2.10594
   A14        2.04401   0.00001  -0.00008   0.00005  -0.00003   2.04398
   A15        2.13738   0.00001   0.00007   0.00018   0.00025   2.13763
   A16        2.10180  -0.00002   0.00001  -0.00023  -0.00022   2.10158
    D1       -3.14159   0.00000   0.00000  -0.00001   0.00000   3.14159
    D2       -0.00002   0.00000   0.00000   0.00001   0.00001  -0.00001
    D3        0.00025   0.00000   0.00000  -0.00002  -0.00002   0.00023
    D4       -3.14150   0.00000  -0.00001  -0.00001  -0.00002  -3.14152
    D5        3.14125   0.00000   0.00000   0.00000   0.00000   3.14125
    D6       -0.00010   0.00000   0.00000   0.00001   0.00001  -0.00010
    D7       -0.00036   0.00000   0.00000   0.00001   0.00001  -0.00035
    D8        3.14147   0.00000   0.00000   0.00002   0.00002   3.14149
    D9       -0.00002   0.00000   0.00000  -0.00001  -0.00002  -0.00004
   D10        3.14106   0.00000   0.00000  -0.00002  -0.00002   3.14104
   D11       -3.14137   0.00000   0.00000   0.00000  -0.00001  -3.14138
   D12       -0.00029   0.00000   0.00000  -0.00001  -0.00001  -0.00031
   D13       -3.14127   0.00000   0.00000   0.00000   0.00000  -3.14127
   D14        0.00026   0.00000   0.00000   0.00000   0.00000   0.00027
   D15        0.00083   0.00000   0.00000   0.00000   0.00001   0.00084
   D16       -3.14082   0.00000   0.00000   0.00001   0.00001  -3.14081
   D17       -0.00036   0.00000   0.00000   0.00001   0.00001  -0.00035
   D18        3.14138   0.00000   0.00000   0.00001   0.00001   3.14140
   D19        3.14117   0.00000   0.00000   0.00002   0.00002   3.14119
   D20       -0.00027   0.00000   0.00000   0.00001   0.00002  -0.00025
         Item               Value     Threshold  Converged?
 Maximum Force            0.000149     0.000015     NO 
 RMS     Force            0.000037     0.000010     NO 
 Maximum Displacement     0.000300     0.000060     NO 
 RMS     Displacement     0.000089     0.000040     NO 
 Predicted change in Energy=-8.921558D-08
 GradGradGradGradGradGradGradGradGradGradGradGradGradGradGradGradGradGrad

                          Input orientation:                          
 ---------------------------------------------------------------------
 Center     Atomic      Atomic             Coordinates (Angstroms)
 Number     Number       Type             X           Y           Z
 ---------------------------------------------------------------------
      1          6           0        6.165027    7.018037    5.142089
      2          6           0        5.110277    6.154789    5.309389
      3          1           0        5.205765    5.215274    5.841468
      4          6           0        3.883080    6.535043    4.759494
      5          1           0        3.012599    5.897594    4.856870
      6          6           0        3.795563    7.746629    4.083503
      7          6           0        4.885539    8.596278    3.933615
      8          1           0        4.781219    9.533738    3.400613
      9          6           0        6.115300    8.220836    4.481315
     10          1           0        6.981178    8.864778    4.378696
     11         17           0        2.255536    8.218657    3.395207
 ---------------------------------------------------------------------
                    Distance matrix (angstroms):
                    1          2          3          4          5
     1  C    0.000000
     2  C    1.373202   0.000000
     3  H    2.158535   1.083935   0.000000
     4  C    2.363672   1.397494   2.159156   0.000000
     5  H    3.357759   2.161290   2.498994   1.083309   0.000000
     6  C    2.695516   2.401088   3.389229   1.390167   2.151758
     7  C    2.363967   2.811428   3.895335   2.436327   3.412213
     8  H    3.358037   3.894740   4.978669   3.412533   4.297702
     9  C    1.373252   2.442198   3.422087   2.811066   3.894258
    10  H    2.158546   3.422061   4.314009   3.894982   4.978197
    11  Cl   4.447157   4.009138   4.869122   2.710117   2.845511
                    6          7          8          9         10
     6  C    0.000000
     7  C    1.390113   0.000000
     8  H    2.152118   1.083423   0.000000
     9  C    2.400897   1.397585   2.161342   0.000000
    10  H    3.389032   2.159142   2.498794   1.083945   0.000000
    11  Cl   1.751641   2.710977   2.847551   4.009665   4.869950
                   11
    11  Cl   0.000000
 Symmetry turned off by external request.
 Stoichiometry    C6H4Cl(2)
 Framework group  C1[X(C6H4Cl)]
 Deg. of freedom    27
 Full point group                 C1      NOp   1
 Rotational constants (GHZ):           5.6099828           1.6542133           1.2775135
 Standard basis: 6-311+G(d,p) (5D, 7F)
   186 basis functions,   301 primitive gaussians,   193 cartesian basis functions
    29 alpha electrons       28 beta electrons
       nuclear repulsion energy       305.4777890065 Hartrees.
 NAtoms=   11 NActive=   11 NUniq=   11 SFac= 1.00D+00 NAtFMM=   60 NAOKFM=F Big=F
 Integral buffers will be    131072 words long.
 Raffenetti 2 integral format.
 Two-electron integral symmetry is turned off.
 ------------------------------------------------------------------------------
 Polarizable Continuum Model (PCM)
 =================================
 Model                : PCM.
 Atomic radii         : SMD-Coulomb.
 Polarization charges : Total charges.
 Charge compensation  : None.
 Solution method      : Matrix inversion.
 Cavity type          : VdW (van der Waals Surface) (Alpha=1.000).
 Cavity algorithm     : GePol (No added spheres)
                        Default sphere list used, NSphG=   11.
                        Lebedev-Laikov grids with approx.  5.0 points / Ang**2.
                        Smoothing algorithm: York/Karplus (Gamma=1.0000).
                        Polarization charges: spherical gaussians, with
                                              point-specific exponents (IZeta= 3).
                        Self-potential: point-specific (ISelfS= 7).
                        Self-field    : sphere-specific E.n sum rule (ISelfD= 2).
 1st derivatives      : Analytical E(r).r(x)/FMM algorithm (CHGder, D1EAlg=3).
                        Cavity 1st derivative terms included.
 Solvent              : TetraHydroFuran, Eps=   7.425700 Eps(inf)=   1.974025
 ------------------------------------------------------------------------------
 Spheres list:
 ISph  on   Nord     Re0    Alpha      Xe            Ye            Ze
    1   C      1    1.8500  1.000      6.165027      7.018037      5.142089
    2   C      2    1.8500  1.000      5.110277      6.154789      5.309389
    3   H      3    1.2000  1.000      5.205765      5.215274      5.841468
    4   C      4    1.8500  1.000      3.883080      6.535043      4.759494
    5   H      5    1.2000  1.000      3.012599      5.897594      4.856870
    6   C      6    1.8500  1.000      3.795563      7.746629      4.083503
    7   C      7    1.8500  1.000      4.885539      8.596278      3.933615
    8   H      8    1.2000  1.000      4.781219      9.533738      3.400613
    9   C      9    1.8500  1.000      6.115300      8.220836      4.481315
   10   H     10    1.2000  1.000      6.981178      8.864778      4.378696
   11  Cl     11    2.3800  1.000      2.255536      8.218657      3.395207
 ------------------------------------------------------------------------------
 ------------------------------------------------------------------------------
 Atomic radii for non-electrostatic terms: SMD-CDS.
 ------------------------------------------------------------------------------
 Nuclear repulsion after PCM non-electrostatic terms =      305.4742536687 Hartrees.
 One-electron integrals computed using PRISM.
 NBasis=   186 RedAO= T EigKep=  3.51D-06  NBF=   186
 NBsUse=   186 1.00D-06 EigRej= -1.00D+00 NBFU=   186
 Initial guess from the checkpoint file:  "4-cl-ph-opt-freq-thf.chk"
 B after Tr=    -0.000053    0.000041   -0.000056
         Rot=    1.000000    0.000000    0.000003    0.000003 Ang=   0.00 deg.
 Initial guess <Sx>= 0.0000 <Sy>= 0.0000 <Sz>= 0.5000 <S**2>= 0.7623 S= 0.5061
 Keep R1 and R2 ints in memory in canonical form, NReq=335193157.
[...]
    A4        2.10175   0.00000   0.00000  -0.00001  -0.00001   2.10174
    A5        2.10615   0.00000   0.00000  -0.00001  -0.00001   2.10614
    A6        2.07575   0.00000   0.00000   0.00000   0.00000   2.07575
    A7        2.10129   0.00000   0.00000   0.00000   0.00000   2.10129
    A8        2.13621   0.00000   0.00000   0.00000   0.00000   2.13621
    A9        2.07292   0.00000   0.00000   0.00000   0.00000   2.07291
   A10        2.07406   0.00000   0.00000   0.00000   0.00000   2.07406
   A11        2.10181   0.00000   0.00000   0.00000   0.00000   2.10182
   A12        2.07543   0.00000   0.00000   0.00000   0.00000   2.07544
   A13        2.10594   0.00000   0.00000  -0.00001  -0.00001   2.10593
   A14        2.04398   0.00000   0.00000   0.00001   0.00001   2.04399
   A15        2.13763   0.00000   0.00000  -0.00001  -0.00001   2.13762
   A16        2.10158   0.00000   0.00000   0.00000   0.00000   2.10158
    D1        3.14159   0.00000   0.00000   0.00000   0.00000   3.14159
    D2       -0.00001   0.00000   0.00000   0.00000   0.00000  -0.00001
    D3        0.00023   0.00000   0.00000   0.00000   0.00000   0.00024
    D4       -3.14152   0.00000   0.00000   0.00000   0.00000  -3.14151
    D5        3.14125   0.00000   0.00000   0.00000   0.00000   3.14125
    D6       -0.00010   0.00000   0.00000   0.00000   0.00000  -0.00010
    D7       -0.00035   0.00000   0.00000   0.00000   0.00000  -0.00035
    D8        3.14149   0.00000   0.00000   0.00000   0.00000   3.14149
    D9       -0.00004   0.00000   0.00000   0.00000   0.00000  -0.00003
   D10        3.14104   0.00000   0.00000   0.00000   0.00000   3.14104
   D11       -3.14138   0.00000   0.00000   0.00000   0.00000  -3.14138
   D12       -0.00031   0.00000   0.00000   0.00000   0.00000  -0.00031
   D13       -3.14127   0.00000   0.00000   0.00000   0.00000  -3.14127
   D14        0.00027   0.00000   0.00000   0.00000   0.00000   0.00027
   D15        0.00084   0.00000   0.00000   0.00000   0.00000   0.00084
   D16       -3.14081   0.00000   0.00000   0.00000   0.00000  -3.14081
   D17       -0.00035   0.00000   0.00000   0.00000   0.00000  -0.00035
   D18        3.14140   0.00000   0.00000   0.00000   0.00000   3.14140
   D19        3.14119   0.00000   0.00000   0.00000   0.00000   3.14119
   D20       -0.00025   0.00000   0.00000   0.00000   0.00000  -0.00025
         Item               Value     Threshold  Converged?
 Maximum Force            0.000012     0.000015     YES
 RMS     Force            0.000003     0.000010     YES
 Maximum Displacement     0.000031     0.000060     YES
 RMS     Displacement     0.000008     0.000040     YES
 Predicted change in Energy=-4.114391D-10
 Optimization completed.
    -- Stationary point found.
                           ----------------------------
                           !   Optimized Parameters   !
                           ! (Angstroms and Degrees)  !
 --------------------------                            --------------------------
 ! Name  Definition              Value          Derivative Info.                !
 --------------------------------------------------------------------------------
 ! R1    R(1,2)                  1.3732         -DE/DX =    0.0                 !
 ! R2    R(1,9)                  1.3733         -DE/DX =    0.0                 !
 ! R3    R(2,3)                  1.0839         -DE/DX =    0.0                 !
 ! R4    R(2,4)                  1.3975         -DE/DX =    0.0                 !
 ! R5    R(4,5)                  1.0833         -DE/DX =    0.0                 !
 ! R6    R(4,6)                  1.3902         -DE/DX =    0.0                 !
 ! R7    R(6,7)                  1.3901         -DE/DX =    0.0                 !
 ! R8    R(6,11)                 1.7516         -DE/DX =    0.0                 !
 ! R9    R(7,8)                  1.0834         -DE/DX =    0.0                 !
 ! R10   R(7,9)                  1.3976         -DE/DX =    0.0                 !
 ! R11   R(9,10)                 1.0839         -DE/DX =    0.0                 !
 ! A1    A(2,1,9)              125.5504         -DE/DX =    0.0                 !
 ! A2    A(1,2,3)              122.4811         -DE/DX =    0.0                 !
 ! A3    A(1,2,4)              117.0975         -DE/DX =    0.0                 !
 ! A4    A(3,2,4)              120.4214         -DE/DX =    0.0                 !
 ! A5    A(2,4,5)              120.6732         -DE/DX =    0.0                 !
 ! A6    A(2,4,6)              118.9316         -DE/DX =    0.0                 !
 ! A7    A(5,4,6)              120.3952         -DE/DX =    0.0                 !
 ! A8    A(4,6,7)              122.3956         -DE/DX =    0.0                 !
 ! A9    A(4,6,11)             118.7693         -DE/DX =    0.0                 !
 ! A10   A(7,6,11)             118.8351         -DE/DX =    0.0                 !
 ! A11   A(6,7,8)              120.4251         -DE/DX =    0.0                 !
 ! A12   A(6,7,9)              118.9135         -DE/DX =    0.0                 !
 ! A13   A(8,7,9)              120.6614         -DE/DX =    0.0                 !
 ! A14   A(1,9,7)              117.1114         -DE/DX =    0.0                 !
 ! A15   A(1,9,10)             122.4771         -DE/DX =    0.0                 !
 ! A16   A(7,9,10)             120.4115         -DE/DX =    0.0                 !
 ! D1    D(9,1,2,3)            180.0            -DE/DX =    0.0                 !
 ! D2    D(9,1,2,4)             -0.0003         -DE/DX =    0.0                 !
 ! D3    D(2,1,9,7)              0.0133         -DE/DX =    0.0                 !
 ! D4    D(2,1,9,10)          -179.9956         -DE/DX =    0.0                 !
 ! D5    D(1,2,4,5)            179.9803         -DE/DX =    0.0                 !
 ! D6    D(1,2,4,6)             -0.0055         -DE/DX =    0.0                 !
 ! D7    D(3,2,4,5)             -0.02           -DE/DX =    0.0                 !
 ! D8    D(3,2,4,6)            179.9942         -DE/DX =    0.0                 !
 ! D9    D(2,4,6,7)             -0.002          -DE/DX =    0.0                 !
 ! D10   D(2,4,6,11)           179.9682         -DE/DX =    0.0                 !
 ! D11   D(5,4,6,7)           -179.9878         -DE/DX =    0.0                 !
 ! D12   D(5,4,6,11)            -0.0176         -DE/DX =    0.0                 !
 ! D13   D(4,6,7,8)           -179.9817         -DE/DX =    0.0                 !
 ! D14   D(4,6,7,9)              0.0152         -DE/DX =    0.0                 !
 ! D15   D(11,6,7,8)             0.0481         -DE/DX =    0.0                 !
 ! D16   D(11,6,7,9)          -179.9549         -DE/DX =    0.0                 !
 ! D17   D(6,7,9,1)             -0.02           -DE/DX =    0.0                 !
 ! D18   D(6,7,9,10)           179.9887         -DE/DX =    0.0                 !
 ! D19   D(8,7,9,1)            179.9769         -DE/DX =    0.0                 !
 ! D20   D(8,7,9,10)            -0.0144         -DE/DX =    0.0                 !
 --------------------------------------------------------------------------------
 GradGradGradGradGradGradGradGradGradGradGradGradGradGradGradGradGradGrad


 ----------------------------------------------------------------------

 Electric dipole moment (input orientation):
 (Debye = 10**-18 statcoulomb cm , SI units = C m)
                  (au)            (Debye)         (10**-30 SI)
   Tot        0.501690D+00      0.127517D+01      0.425351D+01
   x          0.441317D+00      0.112172D+01      0.374164D+01
   y         -0.134912D+00     -0.342912D+00     -0.114383D+01
   z          0.196802D+00      0.500221D+00      0.166856D+01

 Dipole polarizability, Alpha (input orientation).
 (esu units = cm**3 , SI units = C**2 m**2 J**-1)
 Alpha(0;0):
               (au)            (10**-24 esu)      (10**-40 SI)
   iso        0.997359D+02      0.147793D+02      0.164442D+02
   aniso      0.646094D+02      0.957413D+01      0.106527D+02
   xx         0.122354D+03      0.181310D+02      0.201735D+02
   yx         0.174386D+01      0.258413D+00      0.287523D+00
   yy         0.101725D+03      0.150741D+02      0.167722D+02
   zx         0.172072D+02      0.254985D+01      0.283709D+01
   zy        -0.230607D+02     -0.341725D+01     -0.380220D+01
   zz         0.751285D+02      0.111329D+02      0.123870D+02

 ----------------------------------------------------------------------

 Dipole orientation:
     6         -1.11925848         17.16582829         10.49366267
     6         -2.55993991         15.36562241          9.30303307
     1         -3.66591956         13.98345915         10.33363167
     6         -2.55392137         15.37341405          6.66217031
     1         -3.65118240         14.00137414          5.61127471
     6         -1.11466806         17.17243918          5.39988140
     6          0.32227105         18.96843854          6.66888606
     1          1.42171235         20.34361448          5.62396728
     6          0.32359942         18.96897669          9.30993870
     1          1.42779751         20.34850648         10.34599667
    17         -1.11172355         17.17387625          2.08976188

 Electric dipole moment (dipole orientation):
 (Debye = 10**-18 statcoulomb cm , SI units = C m)
                  (au)            (Debye)         (10**-30 SI)
   Tot        0.501690D+00      0.127517D+01      0.425351D+01
   x          0.000000D+00      0.000000D+00      0.000000D+00
   y          0.000000D+00      0.000000D+00      0.000000D+00
   z          0.501690D+00      0.127517D+01      0.425351D+01

 Dipole polarizability, Alpha (dipole orientation).
 (esu units = cm**3 , SI units = C**2 m**2 J**-1)
 Alpha(0;0):
               (au)            (10**-24 esu)      (10**-40 SI)
   iso        0.997359D+02      0.147793D+02      0.164442D+02
   aniso      0.646094D+02      0.957413D+01      0.106527D+02
   xx         0.789239D+02      0.116953D+02      0.130128D+02
   yx         0.262953D+02      0.389657D+01      0.433552D+01
   yy         0.907729D+02      0.134512D+02      0.149664D+02
   zx        -0.175989D-01     -0.260789D-02     -0.290167D-02
   zy        -0.392528D-01     -0.581666D-02     -0.647191D-02
   zz         0.129511D+03      0.191915D+02      0.213535D+02

 ----------------------------------------------------------------------
 Unable to Open any file for archive entry.
 1\1\GINC-CN012\Freq\UM062X\6-311+G(d,p)\C6H4Cl1(2)\TAHMINAAFROZ\05-May
 -2025\0\\#N Geom=AllCheck Guess=TCheck SCRF=Check GenChk UM062X/6-311+
 G(d,p) Freq\\4-cl-ph-optfreq-thf\\0,2\C,6.1650267045,7.0180373775,5.14
 20888062\C,5.1102766053,6.1547890255,5.3093891656\H,5.2057645956,5.215
 2735686,5.8414684204\C,3.8830797049,6.5350430295,4.759494248\H,3.01259
 92234,5.8975940614,4.8568697372\C,3.7955630996,7.7466293757,4.08350285
 99\C,4.8855386027,8.5962778391,3.9336153798\H,4.7812194219,9.533737770
 5,3.4006127374\C,6.1152998536,8.2208363539,4.4813151142\H,6.9811775746
 ,8.8647780893,4.3786962231\Cl,2.2555356139,8.218656509,3.3952073082\\V
 ersion=AS64L-G16RevC.01\HF=-691.1216525\S2=0.762254\S2-1=0.\S2A=0.7500
 67\RMSD=1.883e-09\RMSF=8.349e-06\ZeroPoint=0.0783902\Thermal=0.0838326
 \ETot=-691.0378199\HTot=-691.0368757\GTot=-691.0736085\Dipole=0.441317
 2,-0.1349118,0.1968019\DipoleDeriv=-0.1041811,0.0546428,-0.0213517,0.0
 53052,-0.0185776,-0.0438938,-0.0231775,-0.0418499,-0.1133193,-0.077733
 2,-0.0231773,0.0182825,0.0659328,-0.036571,-0.0140947,-0.0281271,-0.04
 25298,-0.0821494,0.1278415,0.000707,-0.021182,0.0055943,0.0554807,0.07
 96563,-0.0239828,0.078937,0.1526084,-0.1562526,0.0713119,-0.0339315,0.
 072323,-0.0765683,-0.0345521,-0.0323388,-0.033883,-0.1701684,0.0307385
 ,-0.0624056,-0.0091871,-0.0369839,0.107997,0.032429,-0.0244454,0.02478
 22,0.1666606,1.1002391,-0.3388611,0.4941985,-0.3398513,0.1019745,-0.15
 06536,0.4925686,-0.1492016,0.2185267,-0.1893316,0.0493668,-0.0283084,0
 .0476502,-0.0655981,-0.0483411,-0.0282344,-0.0499609,-0.1621643,0.1087
 488,0.0298272,-0.0385651,0.0040837,0.0633417,0.0677546,-0.0249485,0.07
 74207,0.1382006,-0.0670101,0.0736993,-0.0331117,-0.0157767,-0.0392853,
 -0.036548,0.0168945,-0.0102617,-0.0874304,0.0510516,-0.0605201,-0.0092
 743,-0.0637695,0.1025164,0.0356064,-0.0072925,0.0365349,0.1794419,-0.8
 241109,0.2054092,-0.3175691,0.2077454,-0.1947099,0.1126371,-0.316916,0
 .110012,-0.2402064\Polar=122.3540757,1.7438576,101.7250501,17.2072386,
 -23.0607494,75.1285495\Quadrupole=3.7689639,-2.6643793,-1.1045846,8.30
 37785,4.1254683,-1.0025203\PG=C01 [X(C6H4Cl1)]\NImag=0\\0.39376248,0.1
 4432269,0.52839643,0.01198686,-0.20301387,0.18814149,-0.24534077,-0.11
 339432,0.00709758,0.58871312,-0.14574352,-0.19937901,0.03732114,0.0690
 9951,0.62146984,0.02448099,0.04642772,-0.07174615,0.09276854,-0.245894
 19,0.28625024,0.00552913,-0.01922822,0.01203468,-0.05435556,0.01791147
 ,-0.01498471,0.05417194,-0.00017186,-0.01298318,0.00665423,0.02274978,
 -0.26755564,0.13070505,-0.01928474,0.28017875,0.00182414,0.00128440,-0
 .00069704,-0.01759957,0.12935096,-0.11098617,0.01920630,-0.14327939,0.
 10636223,-0.06250968,-0.05126981,0.00628924,-0.27446917,0.08062149,-0.
 10350141,0.00141992,-0.00162463,-0.00034312,0.68739765,0.00534853,0.05
 425256,-0.02047891,0.00509611,-0.12455482,0.03564803,0.02448141,-0.002
 13018,0.01110277,0.10929892,0.57706136,-0.02429075,-0.03641036,0.02618
 310,-0.06289332,0.05690059,-0.10905740,-0.01435564,0.00374617,-0.00037
 236,0.09817555,-0.20935215,0.27007614,-0.00378207,0.00048470,-0.003352
 88,-0.01537492,-0.01544193,0.00267412,0.00095801,0.00046961,0.00122827
 ,-0.24284385,-0.14272601,0.01882440,0.25361826,0.00178128,0.00245001,0
 .00302181,0.00932753,0.00879688,0.00038629,-0.00011468,-0.00047263,-0.
 00208291,-0.13985524,-0.15416531,0.02368117,0.15024480,0.15744689,-0.0
 0402898,0.00265909,0.00458788,-0.01062339,-0.00659808,0.00517191,0.001
 53140,-0.00192157,-0.00281614,0.01727740,0.02284626,-0.04424086,-0.016
 14990,-0.02912566,0.03573760,-0.01779288,-0.03088932,0.01364388,0.0259
 5666,0.02724112,-0.00916280,-0.00262895,0.00019874,-0.00291985,-0.1102
 2665,0.02564560,-0.02639672,0.00412149,-0.02131605,0.01178206,0.513015
 00,-0.03095218,-0.06777226,0.02393185,0.08641808,0.00436036,0.02540020
 ,0.00005465,0.00304180,0.00234817,-0.04091493,-0.27224566,0.09954503,0
 .00447179,-0.01082088,0.00870624,0.09607620,0.53726859,0.01365517,0.02
 391657,-0.01612562,-0.04098220,0.00874763,-0.00979208,-0.00284456,0.00
 239248,0.00528247,0.00932530,0.11833809,-0.12654657,-0.00210993,0.0014
 4267,0.00167836,0.05800784,-0.19369596,0.24777213,0.02986060,0.0860968
 9,-0.04169940,-0.07472902,-0.01580272,-0.01194089,-0.00126983,-0.00035
 776,-0.00005052,0.04424534,-0.06256215,0.04436750,0.00133601,0.0009695
 4,-0.00175207,-0.22908811,-0.07760746,-0.00452573,0.61866955,0.0294890
 9,-0.00428954,0.01773016,-0.01854988,-0.00202671,-0.00519886,0.0001023
 4,0.00020478,-0.00030526,-0.01292348,-0.03588368,0.01902859,0.00046217
 ,-0.00228479,0.00443726,-0.14408668,-0.19728707,0.03022383,0.04899260,
 0.62007923,-0.01119319,0.03366656,-0.00783452,-0.01049264,-0.00441370,
 -0.00259178,-0.00029093,-0.00044007,-0.00027205,0.01763766,0.00506898,
 0.00858108,-0.00149093,0.00456859,0.00284250,0.03120713,0.04893756,-0.
 08294835,0.11139908,-0.24915347,0.29568270,-0.00361950,0.00192295,-0.0
 0406195,-0.00073102,-0.00054798,0.00042107,0.00007641,0.00012649,0.000
 12142,-0.00330368,-0.00308760,-0.00088323,0.00042878,-0.00106707,0.000
 61830,0.00426214,-0.02119212,0.01173782,-0.05686120,0.02238278,-0.0177
 4590,0.05716257,0.00064729,0.00236400,0.00275612,-0.00016454,0.0002567
 9,-0.00081819,0.00009065,-0.00018001,-0.00019825,-0.00356910,0.0006745
 8,0.00171458,0.00019955,-0.00038075,0.00040611,0.00452336,-0.01084975,
 0.00872693,0.01961052,-0.27145917,0.13138134,-0.02080386,0.28158945,-0
 .00338517,0.00312710,0.00451981,0.00020864,-0.00091679,-0.00062047,0.0
 0013962,-0.00018794,-0.00045620,-0.00061791,0.00184108,0.00456024,-0.0
 0006169,0.00005103,0.00022604,-0.00206018,0.00147945,0.00167589,-0.016
 33546,0.13207342,-0.11300470,0.02054236,-0.14369449,0.10838056,-0.1006
 2648,-0.01958306,-0.00280732,0.04623388,-0.02045129,0.02264848,-0.0032
 0499,-0.00246714,-0.00120328,-0.02032140,0.03176909,-0.02224302,0.0005
 3287,0.00055286,0.00017748,-0.05545876,-0.04384888,0.00622230,-0.27685
 961,0.07832097,-0.10283441,0.00050603,-0.00159658,-0.00031016,0.647764
 70,0.01277561,-0.29077967,0.13125404,-0.05660968,-0.03626806,0.0061957
 4,-0.00433078,0.00053176,0.00158850,0.02903441,-0.03653034,0.02673787,
 0.00094498,-0.00053569,-0.00007484,0.01517994,0.05593583,-0.02233919,0
 .00285172,-0.12298423,0.03413979,0.02318683,-0.00126986,0.00972246,0.1
 2083236,0.58453666,-0.02019283,0.12216595,-0.12526270,0.04211952,0.016
 34418,0.00785526,-0.00019489,0.00213028,0.00457845,-0.02077242,0.02748
 793,-0.02264603,-0.00002454,-0.00018735,-0.00108780,-0.02566119,-0.038
 97043,0.02021029,-0.06227047,0.05539942,-0.10802748,-0.01360892,0.0027
 1701,-0.00069509,0.08145465,-0.21192582,0.26445454,0.00597825,0.000214
 03,0.00171014,0.00138236,0.00152570,-0.00206199,0.00025148,0.00022881,
 0.00003224,-0.00028503,0.00051785,-0.00023638,-0.00006784,0.00000319,0
 .00014764,-0.00136275,0.00128172,-0.00315441,-0.01656019,-0.01729311,0
 .00304147,0.00109176,0.00058268,0.00120212,-0.23818711,-0.13754483,0.0
 1712302,0.24915433,-0.01885390,-0.01330362,0.00156443,-0.00033325,-0.0
 0237235,0.00428220,-0.00074619,-0.00039890,-0.00015454,0.00096404,-0.0
 0042046,0.00026768,-0.00003225,-0.00009086,-0.00028087,0.00117543,0.00
 222934,0.00308857,0.00879100,0.00929218,0.00053352,0.00000204,-0.00055
 511,-0.00200708,-0.14239188,-0.15181977,0.02228941,0.15074543,0.157387
 86,0.01197418,0.00695135,-0.00087756,-0.00106068,0.00481361,0.00289113
 ,0.00055469,0.00011794,-0.00020453,-0.00047783,0.00013659,-0.00063617,
 0.00016690,-0.00027047,-0.00040432,-0.00307861,0.00312406,0.00482314,-
 0.01097097,-0.00680757,0.00625107,0.00150306,-0.00184127,-0.00286331,0
 .01969165,0.02362608,-0.04311361,-0.01759273,-0.02966924,0.03438567,-0
 .00145908,0.00132345,-0.00084082,0.00271444,0.00158816,-0.00134139,-0.
 00094755,0.00013271,-0.00029603,-0.01910346,0.00621826,-0.01006838,0.0
 0107326,-0.00052616,0.00102006,-0.13079720,0.02621314,-0.04533160,-0.0
 3874354,0.01310322,-0.01923733,0.00098771,0.00048005,0.00067785,-0.000
 37913,-0.00632055,0.00202808,-0.00139526,0.00067953,-0.00070967,0.1880
 4980,0.00135697,0.00104429,-0.00074099,-0.00363933,-0.00272727,0.00286
 601,0.00106412,-0.00023656,0.00034556,0.03023834,-0.00605805,0.0141408
 2,0.00092259,0.00005713,-0.00105394,0.02625165,-0.04386029,0.01915839,
 -0.01098217,0.00663901,-0.00428909,-0.00092246,-0.00019016,-0.00148824
 ,-0.00113644,-0.00081662,0.00254943,-0.00026145,0.00005170,-0.00018107
 ,-0.04289181,0.04609682,-0.00083042,-0.00077449,-0.00088868,0.00145753
 ,0.00434465,0.00262550,-0.00079597,0.00008281,-0.00041865,-0.02299245,
 0.00736134,-0.00590116,0.00029618,-0.00148517,-0.00169517,-0.04536155,
 0.01919384,-0.04602967,-0.00622107,0.00257247,0.00132152,0.00135599,-0
 .00114988,-0.00172277,-0.00079635,0.00107536,0.00373416,-0.00021111,0.
 00008593,-0.00025151,0.07409923,-0.03130686,0.04922643\\-0.00001199,-0
 .00000007,-0.00001127,0.00000842,0.00000949,0.00000345,-0.00000254,0.0
 0000358,0.00000922,-0.00000281,0.00000494,0.00000918,-0.00000584,0.000
 00978,0.00001668,-0.00000195,0.00000257,0.00000324,0.00000337,-0.00000
 303,-0.00000630,0.00000368,-0.00000544,-0.00001048,0.00000549,-0.00001
 749,-0.00000424,0.00000660,-0.00001057,-0.00001879,-0.00000245,0.00000
 624,0.00000931\\\@
 The archive entry for this job was punched.


 Mondays are the potholes in the road of life.
                                -- Tom Wilson
 Job cpu time:       0 days  0 hours 28 minutes 49.2 seconds.
 Elapsed time:       0 days  0 hours  0 minutes 56.8 seconds.
 File lengths (MBytes):  RWF=    108 Int=      0 D2E=      0 Chk=     11 Scr=      1
 Normal termination of Gaussian 16 at Mon May  5 08:17:27 2025.
