/home/tahminaafroz
cn016.cluster.local
tahminaafroz
Sat May 10 22:03:38 CDT 2025
 Entering Gaussian System, Link 0=g16
 Initial command:
 /home/apps/g16/l1.exe "/tmp/4-no2-ph-opt-freq-thf/Gau-341860.inp" -scrdir="/tmp/4-no2-ph-opt-freq-thf/"
 Entering Link 1 = /home/apps/g16/l1.exe PID=    341861.
  
 Copyright (c) 1988-2019, Gaussian, Inc.  All Rights Reserved.
  
 This is part of the Gaussian(R) 16 program.  It is based on
 the Gaussian(R) 09 system (copyright 2009, Gaussian, Inc.),
 the Gaussian(R) 03 system (copyright 2003, Gaussian, Inc.),
 the Gaussian(R) 98 system (copyright 1998, Gaussian, Inc.),
 the Gaussian(R) 94 system (copyright 1995, Gaussian, Inc.),
 the Gaussian 92(TM) system (copyright 1992, Gaussian, Inc.),
 the Gaussian 90(TM) system (copyright 1990, Gaussian, Inc.),
 the Gaussian 88(TM) system (copyright 1988, Gaussian, Inc.),
 the Gaussian 86(TM) system (copyright 1986, Carnegie Mellon
 University), and the Gaussian 82(TM) system (copyright 1983,
 Carnegie Mellon University). Gaussian is a federally registered
 trademark of Gaussian, Inc.
  
 This software contains proprietary and confidential information,
 including trade secrets, belonging to Gaussian, Inc.
  
 This software is provided under written license and may be
 used, copied, transmitted, or stored only in accord with that
 written license.
  
 The following legend is applicable only to US Government
 contracts under FAR:
  
                    RESTRICTED RIGHTS LEGEND
  
 Use, reproduction and disclosure by the US Government is
 subject to restrictions as set forth in subparagraphs (a)
 and (c) of the Commercial Computer Software - Restricted
 Rights clause in FAR 52.227-19.
  
 Gaussian, Inc.
 340 Quinnipiac St., Bldg. 40, Wallingford CT 06492
  
  
 ---------------------------------------------------------------
 Warning -- This program may not be used in any manner that
 competes with the business of Gaussian, Inc. or will provide
 assistance to any competitor of Gaussian, Inc.  The licensee
 of this program is prohibited from giving any competitor of
 Gaussian, Inc. access to this program.  By using this program,
 the user acknowledges that Gaussian, Inc. is engaged in the
 business of creating and licensing software in the field of
 computational chemistry and represents and warrants to the
 licensee that it is not a competitor of Gaussian, Inc. and that
 it will not use this program in any manner prohibited above.
 ---------------------------------------------------------------
  

 Cite this work as:
 Gaussian 16, Revision C.01,
 M. J. Frisch, G. W. Trucks, H. B. Schlegel, G. E. Scuseria, 
 M. A. Robb, J. R. Cheeseman, G. Scalmani, V. Barone, 
 G. A. Petersson, H. Nakatsuji, X. Li, M. Caricato, A. V. Marenich, 
 J. Bloino, B. G. Janesko, R. Gomperts, B. Mennucci, H. P. Hratchian, 
 J. V. Ortiz, A. F. Izmaylov, J. L. Sonnenberg, D. Williams-Young, 
 F. Ding, F. Lipparini, F. Egidi, J. Goings, B. Peng, A. Petrone, 
 T. Henderson, D. Ranasinghe, V. G. Zakrzewski, J. Gao, N. Rega, 
 G. Zheng, W. Liang, M. Hada, M. Ehara, K. Toyota, R. Fukuda, 
 J. Hasegawa, M. Ishida, T. Nakajima, Y. Honda, O. Kitao, H. Nakai, 
 T. Vreven, K. Throssell, J. A. Montgomery, Jr., J. E. Peralta, 
 F. Ogliaro, M. J. Bearpark, J. J. Heyd, E. N. Brothers, K. N. Kudin, 
 V. N. Staroverov, T. A. Keith, R. Kobayashi, J. Normand, 
 K. Raghavachari, A. P. Rendell, J. C. Burant, S. S. Iyengar, 
 J. Tomasi, M. Cossi, J. M. Millam, M. Klene, C. Adamo, R. Cammi, 
 J. W. Ochterski, R. L. Martin, K. Morokuma, O. Farkas, 
 J. B. Foresman, and D. J. Fox, Gaussian, Inc., Wallingford CT, 2019.
 
 ******************************************
 Gaussian 16:  AS64L-G16RevC.01  3-Jul-2019
                10-May-2025 
 ******************************************
 %mem=20GB
 %nprocshared=32
 Will use up to   32 processors via shared memory.
 %chk=4-no2-ph-opt-freq-thf.chk
 ----------------------------------------------------------------------
 # opt=(calcfc,tight) freq 6-311+g(d,p) scrf=(smd,solvent=thf) nosymm s
 cf=(qc,fermi,xqc) geom=connectivity int=ultrafine m062x
 ----------------------------------------------------------------------
 1/7=10,10=4,18=20,19=15,26=6,38=1,57=2/1,3;
 2/9=110,12=2,15=1,17=6,18=5,40=1/2;
 3/5=4,6=6,7=111,11=2,25=1,30=1,70=32201,71=2,72=20,74=-55,75=-5,140=1/1,2,3;
 4//1;
 5/5=2,22=13,38=5,53=20/2;
 8/6=4,10=90,11=11/1;
 11/6=1,8=1,9=11,15=111,16=1,31=1/1,2,10;
 10/6=1,13=1,31=1/2;
 6/7=2,8=2,9=2,10=2,28=1/1;
 7/10=1,25=1,30=1/1,2,3,16;
 1/7=10,10=4,18=20,19=15,26=6/3(2);
 2/9=110,15=1/2;
 99//99;
 2/9=110,15=1/2;
 3/5=4,6=6,7=111,11=2,25=1,30=1,70=32205,71=1,72=20,74=-55,75=-5/1,2,3;
 4/5=5,16=3,69=1/1;
 5/5=2,22=13,38=5,53=20/2;
 7/30=1/1,2,3,16;
 1/7=10,18=20,19=15,26=6/3(-5);
 2/9=110,15=1/2;
 6/7=2,8=2,9=2,10=2,19=2,28=1/1;
 99/9=1/99;
 ---------------------
 4-no2-ph-opt-freq-thf
 ---------------------
 Symbolic Z-matrix:
 Charge =  0 Multiplicity = 2
 C                     6.23537   6.9513    5.17798 
 C                     5.1175    6.13936   5.4024 
 H                     5.19826   5.22513   5.98164 
 C                     3.87043   6.46712   4.88677 
 H                     3.00526   5.84139   5.05904 
 C                     3.76122   7.62769   4.13566 
 C                     4.84025   8.46144   3.87985 
 H                     4.71271   9.35698   3.28682 
 C                     6.07542   8.10944   4.40656 
 H                     6.93122   8.74687   4.21781 
 N                     2.44008   7.98952   3.58424 
 O                     1.49764   7.27273   3.85137 
 O                     2.36595   8.98452   2.89345 
 

 GradGradGradGradGradGradGradGradGradGradGradGradGradGradGradGradGradGrad
 Berny optimization.
 Initialization pass.
                           ----------------------------
                           !    Initial Parameters    !
                           ! (Angstroms and Degrees)  !
 --------------------------                            --------------------------
 ! Name  Definition              Value          Derivative Info.                !
 --------------------------------------------------------------------------------
 ! R1    R(1,2)                  1.3997         calculate D2E/DX2 analytically  !
 ! R2    R(1,9)                  1.4007         calculate D2E/DX2 analytically  !
 ! R3    R(2,3)                  1.0853         calculate D2E/DX2 analytically  !
 ! R4    R(2,4)                  1.3887         calculate D2E/DX2 analytically  !
 ! R5    R(4,5)                  1.0815         calculate D2E/DX2 analytically  !
 ! R6    R(4,6)                  1.3867         calculate D2E/DX2 analytically  !
 ! R7    R(6,7)                  1.3874         calculate D2E/DX2 analytically  !
 ! R8    R(6,11)                 1.4766         calculate D2E/DX2 analytically  !
 ! R9    R(7,8)                  1.0816         calculate D2E/DX2 analytically  !
 ! R10   R(7,9)                  1.3882         calculate D2E/DX2 analytically  !
 ! R11   R(9,10)                 1.0837         calculate D2E/DX2 analytically  !
 ! R12   R(11,12)                1.2138         calculate D2E/DX2 analytically  !
 ! R13   R(11,13)                1.2136         calculate D2E/DX2 analytically  !
 ! A1    A(2,1,9)              118.4712         calculate D2E/DX2 analytically  !
 ! A2    A(1,2,3)              120.9827         calculate D2E/DX2 analytically  !
 ! A3    A(1,2,4)              121.3823         calculate D2E/DX2 analytically  !
 ! A4    A(3,2,4)              117.6335         calculate D2E/DX2 analytically  !
 ! A5    A(2,4,5)              121.5111         calculate D2E/DX2 analytically  !
 ! A6    A(2,4,6)              117.993          calculate D2E/DX2 analytically  !
 ! A7    A(5,4,6)              120.4958         calculate D2E/DX2 analytically  !
 ! A8    A(4,6,7)              122.7893         calculate D2E/DX2 analytically  !
 ! A9    A(4,6,11)             118.5422         calculate D2E/DX2 analytically  !
 ! A10   A(7,6,11)             118.6685         calculate D2E/DX2 analytically  !
 ! A11   A(6,7,8)              120.4599         calculate D2E/DX2 analytically  !
 ! A12   A(6,7,9)              118.0138         calculate D2E/DX2 analytically  !
 ! A13   A(8,7,9)              121.5264         calculate D2E/DX2 analytically  !
 ! A14   A(1,9,7)              121.3483         calculate D2E/DX2 analytically  !
 ! A15   A(1,9,10)             119.4783         calculate D2E/DX2 analytically  !
 ! A16   A(7,9,10)             119.1732         calculate D2E/DX2 analytically  !
 ! A17   A(6,11,12)            117.8911         calculate D2E/DX2 analytically  !
 ! A18   A(6,11,13)            117.9128         calculate D2E/DX2 analytically  !
 ! A19   A(12,11,13)           124.196          calculate D2E/DX2 analytically  !
 ! D1    D(9,1,2,3)            179.0837         calculate D2E/DX2 analytically  !
 ! D2    D(9,1,2,4)             -0.4732         calculate D2E/DX2 analytically  !
 ! D3    D(2,1,9,7)              0.5185         calculate D2E/DX2 analytically  !
 ! D4    D(2,1,9,10)          -179.6503         calculate D2E/DX2 analytically  !
 ! D5    D(1,2,4,5)           -179.9877         calculate D2E/DX2 analytically  !
 ! D6    D(1,2,4,6)              0.1214         calculate D2E/DX2 analytically  !
 ! D7    D(3,2,4,5)              0.441          calculate D2E/DX2 analytically  !
 ! D8    D(3,2,4,6)           -179.4498         calculate D2E/DX2 analytically  !
 ! D9    D(2,4,6,7)              0.2058         calculate D2E/DX2 analytically  !
 ! D10   D(2,4,6,11)          -179.8559         calculate D2E/DX2 analytically  !
 ! D11   D(5,4,6,7)           -179.6862         calculate D2E/DX2 analytically  !
 ! D12   D(5,4,6,11)             0.2522         calculate D2E/DX2 analytically  !
 ! D13   D(4,6,7,8)            179.8547         calculate D2E/DX2 analytically  !
 ! D14   D(4,6,7,9)             -0.1624         calculate D2E/DX2 analytically  !
 ! D15   D(11,6,7,8)            -0.0836         calculate D2E/DX2 analytically  !
 ! D16   D(11,6,7,9)           179.8994         calculate D2E/DX2 analytically  !
 ! D17   D(4,6,11,12)            2.3136         calculate D2E/DX2 analytically  !
 ! D18   D(4,6,11,13)         -177.7082         calculate D2E/DX2 analytically  !
 ! D19   D(7,6,11,12)         -177.7455         calculate D2E/DX2 analytically  !
 ! D20   D(7,6,11,13)            2.2327         calculate D2E/DX2 analytically  !
 ! D21   D(6,7,9,1)             -0.2095         calculate D2E/DX2 analytically  !
 ! D22   D(6,7,9,10)           179.9588         calculate D2E/DX2 analytically  !
 ! D23   D(8,7,9,1)            179.7732         calculate D2E/DX2 analytically  !
 ! D24   D(8,7,9,10)            -0.0585         calculate D2E/DX2 analytically  !
 --------------------------------------------------------------------------------
 Trust Radius=3.00D-01 FncErr=5.00D-06 GrdErr=5.00D-06 EigMax=2.50D+02 EigMin=1.00D-04
 Number of steps in this run=     66 maximum allowed number of steps=    100.
 GradGradGradGradGradGradGradGradGradGradGradGradGradGradGradGradGradGrad

                          Input orientation:                          
 ---------------------------------------------------------------------
 Center     Atomic      Atomic             Coordinates (Angstroms)
 Number     Number       Type             X           Y           Z
 ---------------------------------------------------------------------
      1          6           0        6.235370    6.951298    5.177984
      2          6           0        5.117503    6.139359    5.402396
      3          1           0        5.198263    5.225129    5.981641
      4          6           0        3.870427    6.467123    4.886771
      5          1           0        3.005256    5.841386    5.059039
      6          6           0        3.761215    7.627694    4.135657
      7          6           0        4.840245    8.461441    3.879854
      8          1           0        4.712712    9.356975    3.286817
      9          6           0        6.075416    8.109443    4.406564
     10          1           0        6.931224    8.746873    4.217812
     11          7           0        2.440075    7.989519    3.584237
     12          8           0        1.497638    7.272731    3.851367
     13          8           0        2.365949    8.984520    2.893447
 ---------------------------------------------------------------------
                    Distance matrix (angstroms):
                    1          2          3          4          5
     1  C    0.000000
     2  C    1.399726   0.000000
     3  H    2.168205   1.085294   0.000000
     4  C    2.431499   1.388703   2.122366   0.000000
     5  H    3.417556   2.160618   2.457691   1.081547   0.000000
     6  C    2.768646   2.378925   3.353369   1.386732   2.148256
     7  C    2.431470   2.790532   3.875487   2.435515   3.409157
     8  H    3.417935   3.872026   4.956812   3.408892   4.291333
     9  C    1.400705   2.406348   3.401402   2.791020   3.872427
    10  H    2.151798   3.389978   4.303130   3.874693   4.956081
    11  N    4.245256   3.727924   4.582248   2.461746   2.666261
    12  O    4.930450   4.098005   4.735543   2.711308   2.404191
    13  O    4.932091   4.686237   5.629562   3.545995   3.870115
                    6          7          8          9         10
     6  C    0.000000
     7  C    1.387399   0.000000
     8  H    2.148555   1.081637   0.000000
     9  C    2.379285   1.388155   2.160355   0.000000
    10  H    3.362777   2.137260   2.482090   1.083675   0.000000
    11  N    1.476615   2.463923   2.668946   3.729116   4.598415
    12  O    2.308809   3.547797   3.872918   4.686617   5.641918
    13  O    2.308859   2.714544   2.408477   4.100662   4.759428
                   11         12         13
    11  N    0.000000
    12  O    1.213808   0.000000
    13  O    1.213554   2.145180   0.000000
 Symmetry turned off by external request.
 Stoichiometry    C6H4NO2(2)
 Framework group  C1[X(C6H4NO2)]
 Deg. of freedom    33
 Full point group                 C1      NOp   1
 Rotational constants (GHZ):           4.0190067           1.3341270           1.0017974
 Standard basis: 6-311+G(d,p) (5D, 7F)
   222 basis functions,   356 primitive gaussians,   231 cartesian basis functions
    32 alpha electrons       31 beta electrons
       nuclear repulsion energy       402.1150819921 Hartrees.
 NAtoms=   13 NActive=   13 NUniq=   13 SFac= 1.00D+00 NAtFMM=   60 NAOKFM=F Big=F
 Integral buffers will be    131072 words long.
 Raffenetti 2 integral format.
 Two-electron integral symmetry is turned off.
 Force inversion solution in PCM.
 ------------------------------------------------------------------------------
 Polarizable Continuum Model (PCM)
 =================================
 Model                : PCM.
 Atomic radii         : SMD-Coulomb.
 Polarization charges : Total charges.
 Charge compensation  : None.
 Solution method      : Matrix inversion.
 Cavity type          : VdW (van der Waals Surface) (Alpha=1.000).
 Cavity algorithm     : GePol (No added spheres)
                        Default sphere list used, NSphG=   13.
                        Lebedev-Laikov grids with approx.  5.0 points / Ang**2.
                        Smoothing algorithm: York/Karplus (Gamma=1.0000).
                        Polarization charges: spherical gaussians, with
                                              point-specific exponents (IZeta= 3).
                        Self-potential: point-specific (ISelfS= 7).
                        Self-field    : sphere-specific E.n sum rule (ISelfD= 2).
 1st derivatives      : Analytical E(r).r(x)/FMM algorithm (CHGder, D1EAlg=3).
                        Cavity 1st derivative terms included.
 2nd derivatives      : Analytical E(r).r(xy)/FMM algorithm (CHGder, D2EAlg=3).
                        Cavity 2nd derivative terms included.
 Solvent              : TetraHydroFuran, Eps=   7.425700 Eps(inf)=   1.974025
 ------------------------------------------------------------------------------
 Spheres list:
 ISph  on   Nord     Re0    Alpha      Xe            Ye            Ze
    1   C      1    1.8500  1.000      6.235370      6.951298      5.177984
    2   C      2    1.8500  1.000      5.117503      6.139359      5.402396
    3   H      3    1.2000  1.000      5.198263      5.225129      5.981641
    4   C      4    1.8500  1.000      3.870427      6.467123      4.886771
    5   H      5    1.2000  1.000      3.005256      5.841386      5.059039
    6   C      6    1.8500  1.000      3.761215      7.627694      4.135657
    7   C      7    1.8500  1.000      4.840245      8.461441      3.879854
    8   H      8    1.2000  1.000      4.712712      9.356975      3.286817
    9   C      9    1.8500  1.000      6.075416      8.109443      4.406564
   10   H     10    1.2000  1.000      6.931224      8.746873      4.217812
   11   N     11    1.8900  1.000      2.440075      7.989519      3.584237
   12   O     12    2.2940  1.000      1.497638      7.272731      3.851367
   13   O     13    2.2940  1.000      2.365949      8.984520      2.893447
 ------------------------------------------------------------------------------
 ------------------------------------------------------------------------------
 Atomic radii for non-electrostatic terms: SMD-CDS.
 ------------------------------------------------------------------------------
 Nuclear repulsion after PCM non-electrostatic terms =      402.1121087466 Hartrees.
 One-electron integrals computed using PRISM.
 NBasis=   222 RedAO= T EigKep=  2.64D-06  NBF=   222
 NBsUse=   222 1.00D-06 EigRej= -1.00D+00 NBFU=   222
 ExpMin= 4.38D-02 ExpMax= 8.59D+03 ExpMxC= 1.30D+03 IAcc=3 IRadAn=         5 AccDes= 0.00D+00
 Harris functional with IExCor= 1009 and IRadAn=       5 diagonalized for initial guess.
 HarFok:  IExCor= 1009 AccDes= 0.00D+00 IRadAn=         5 IDoV= 1 UseB2=F ITyADJ=14
 ICtDFT=  3500011 ScaDFX=  1.000000  1.000000  1.000000  1.000000
 FoFCou: FMM=F IPFlag=           0 FMFlag=      100000 FMFlg1=           0
         NFxFlg=           0 DoJE=T BraDBF=F KetDBF=T FulRan=T
         wScrn=  0.000000 ICntrl=       500 IOpCl=  0 I1Cent=   200000004 NGrid=           0
         NMat0=    1 NMatS0=      1 NMatT0=    0 NMatD0=    1 NMtDS0=    0 NMtDT0=    0
 Symmetry not used in FoFCou.
 Initial guess <Sx>= 0.0000 <Sy>= 0.0000 <Sz>= 0.5000 <S**2>= 0.7500 S= 0.5000
 Requested convergence on RMS density matrix=1.00D-08 within 128 cycles.
 Requested convergence on MAX density matrix=1.00D-06.
 Requested convergence on             energy=1.00D-06.
 Level shift goal  0.100 maximum shift  0.100.
 No special actions if energy rises.
 Dynamic level shift is on during FON iterations.
 Inv3:  Mode=1 IEnd=     5581488.
 Iteration    1 A*A^-1 deviation from unit magnitude is 6.22D-15 for   1364.
 Iteration    1 A*A^-1 deviation from orthogonality  is 1.30D-15 for   1364   1231.
 Iteration    1 A^-1*A deviation from unit magnitude is 6.22D-15 for   1364.
 Iteration    1 A^-1*A deviation from orthogonality  is 1.16D-15 for   1271   1020.
 Error on total polarization charges =  0.02237
 SCF Done:  E(UM062X) =  -436.008210312     A.U. after   17 cycles
            NFock= 17  Conv=0.65D-08     -V/T= 2.0036
 <Sx>= 0.0000 <Sy>= 0.0000 <Sz>= 0.5000 <S**2>= 0.7654 S= 0.5077
 <L.S>=  0.00000000000    
 SMD-CDS (non-electrostatic) energy       (kcal/mol) =      -1.87
 (included in total energy above)
 Annihilation of the first spin contaminant:
 S**2 before annihilation     0.7654,   after     0.7501
 DoSCS=F DFT=T ScalE2(SS,OS)=  1.000000  1.000000
 Range of M.O.s used for correlation:     1   222
 NBasis=   222 NAE=    32 NBE=    31 NFC=     0 NFV=     0
 NROrb=    222 NOA=    32 NOB=    31 NVA=   190 NVB=   191

 **** Warning!!: The largest alpha MO coefficient is  0.13932446D+03


 **** Warning!!: The largest beta MO coefficient is  0.15156469D+03

 Symmetrizing basis deriv contribution to polar:
 IMax=3 JMax=2 DiffMx= 0.00D+00
 G2DrvN: will do    14 centers at a time, making    1 passes.
 Calling FoFCou, ICntrl=  3107 FMM=F I1Cent=   0 AccDes= 0.00D+00.
 NEqPCM:  Using equilibrium solvation (IEInf=0, Eps=   7.4257, EpsInf=   1.9740)
 G2PCM: DoFxE=T DoFxN=T DoGrad=T DoDP/DQ/DG/TGxP=FFFF NFrqRd=   0 IEInf=0 SqF1=F DoCFld=F IF1Alg=4.
 End of G2Drv F.D. properties file   721 does not exist.
 End of G2Drv F.D. properties file   722 does not exist.
 End of G2Drv F.D. properties file   788 does not exist.
          IDoAtm=1111111111111
 NEqPCM:  Using equilibrium solvation (IEInf=0, Eps=   7.4257, EpsInf=   1.9740)
          Differentiating once with respect to nuclear coordinates.
 Keep R1 and R2 ints in memory in canonical form, NReq=646562435.
          There are    42 degrees of freedom in the 1st order CPHF.  IDoFFX=6 NUNeed=     0.
     36 vectors produced by pass  0 Test12= 2.86D-14 2.38D-09 XBig12= 3.39D-01 1.25D-01.
 AX will form    36 AO Fock derivatives at one time.
     36 vectors produced by pass  1 Test12= 2.86D-14 2.38D-09 XBig12= 3.29D-02 4.44D-02.
     36 vectors produced by pass  2 Test12= 2.86D-14 2.38D-09 XBig12= 9.06D-04 7.99D-03.
     36 vectors produced by pass  3 Test12= 2.86D-14 2.38D-09 XBig12= 1.77D-05 1.35D-03.
     36 vectors produced by pass  4 Test12= 2.86D-14 2.38D-09 XBig12= 3.03D-07 1.60D-04.
     36 vectors produced by pass  5 Test12= 2.86D-14 2.38D-09 XBig12= 5.46D-09 1.54D-05.
     36 vectors produced by pass  6 Test12= 2.86D-14 2.38D-09 XBig12= 6.85D-11 1.24D-06.
     30 vectors produced by pass  7 Test12= 2.86D-14 2.38D-09 XBig12= 4.43D-13 7.69D-08.
      6 vectors produced by pass  8 Test12= 2.86D-14 2.38D-09 XBig12= 2.21D-15 7.82D-09.
 InvSVY:  IOpt=1 It=  1 EMax= 1.55D-15
 Solved reduced A of dimension   288 with    36 vectors.
 End of Minotr F.D. properties file   721 does not exist.
 End of Minotr F.D. properties file   722 does not exist.
 End of Minotr F.D. properties file   788 does not exist.

 **********************************************************************

            Population analysis using the SCF Density.

 **********************************************************************

 Alpha  occ. eigenvalues --  -19.67254 -19.67245 -15.01220 -10.61434 -10.60346
 Alpha  occ. eigenvalues --  -10.57830 -10.57792 -10.57209 -10.57204  -1.38710
 Alpha  occ. eigenvalues --   -1.19838  -1.00672  -0.91549  -0.87663  -0.79837
 Alpha  occ. eigenvalues --   -0.72087  -0.68860  -0.66163  -0.64030  -0.61750
 Alpha  occ. eigenvalues --   -0.55630  -0.55013  -0.53486  -0.51758  -0.47148
 Alpha  occ. eigenvalues --   -0.43287  -0.40551  -0.39389  -0.39329  -0.34789
 Alpha  occ. eigenvalues --   -0.34707  -0.33572
 Alpha virt. eigenvalues --   -0.06520  -0.00230   0.01674   0.02738   0.03188
 Alpha virt. eigenvalues --    0.03837   0.05476   0.05713   0.06220   0.07621
 Alpha virt. eigenvalues --    0.09166   0.09183   0.09569   0.11419   0.13345
 Alpha virt. eigenvalues --    0.13683   0.14014   0.14087   0.15020   0.15130
 Alpha virt. eigenvalues --    0.15470   0.17069   0.18816   0.19298   0.19469
 Alpha virt. eigenvalues --    0.19695   0.20068   0.21128   0.21216   0.22895
 Alpha virt. eigenvalues --    0.23495   0.23724   0.24383   0.25478   0.25652
 Alpha virt. eigenvalues --    0.25829   0.27566   0.27932   0.29242   0.30688
 Alpha virt. eigenvalues --    0.32871   0.33607   0.34109   0.35038   0.35370
 Alpha virt. eigenvalues --    0.38597   0.39491   0.42387   0.46054   0.46475
 Alpha virt. eigenvalues --    0.49179   0.52499   0.52887   0.53598   0.54636
 Alpha virt. eigenvalues --    0.57974   0.58628   0.59211   0.60718   0.63320
 Alpha virt. eigenvalues --    0.63610   0.64128   0.64367   0.67585   0.67844
 Alpha virt. eigenvalues --    0.70696   0.72628   0.73613   0.75827   0.76946
 Alpha virt. eigenvalues --    0.81615   0.82975   0.85564   0.85719   0.88292
 Alpha virt. eigenvalues --    0.89083   0.91076   0.91458   0.92905   0.96797
 Alpha virt. eigenvalues --    0.99257   1.02587   1.02990   1.04421   1.10341
 Alpha virt. eigenvalues --    1.12293   1.12994   1.13920   1.17179   1.18284
 Alpha virt. eigenvalues --    1.19520   1.21039   1.22069   1.23987   1.26681
 Alpha virt. eigenvalues --    1.33057   1.34611   1.41506   1.50817   1.52248
 Alpha virt. eigenvalues --    1.54119   1.56134   1.59151   1.60586   1.63169
 Alpha virt. eigenvalues --    1.66212   1.67801   1.72631   1.74593   1.76666
 Alpha virt. eigenvalues --    1.79797   1.79945   1.86152   1.86988   1.87647
 Alpha virt. eigenvalues --    1.91529   1.93649   1.94572   1.94823   1.96063
 Alpha virt. eigenvalues --    2.01960   2.02953   2.04583   2.07215   2.09549
 Alpha virt. eigenvalues --    2.20761   2.30956   2.30968   2.33042   2.34319
 Alpha virt. eigenvalues --    2.41406   2.45120   2.49302   2.54102   2.56758
 Alpha virt. eigenvalues --    2.61039   2.68029   2.70112   2.73165   2.73868
 Alpha virt. eigenvalues --    2.74613   2.77845   2.79000   2.79538   2.82610
 Alpha virt. eigenvalues --    2.85716   2.87782   2.92272   2.93073   2.93482
 Alpha virt. eigenvalues --    2.94953   2.95213   3.01833   3.10401   3.18263
 Alpha virt. eigenvalues --    3.21785   3.30532   3.35464   3.42030   3.44749
 Alpha virt. eigenvalues --    3.45073   3.52426   3.58861   3.60832   3.73820
 Alpha virt. eigenvalues --    3.75600   3.85421   3.87247   3.88595   4.01552
 Alpha virt. eigenvalues --    4.15028   4.16954   4.62461   4.78542   4.80649
 Alpha virt. eigenvalues --    5.09127   5.12284   5.21457   5.28539   5.81274
 Alpha virt. eigenvalues --    6.34939  23.58883  23.94393  24.00951  24.09727
 Alpha virt. eigenvalues --   24.15844  24.22279  35.48868  50.00068  50.11627
  Beta  occ. eigenvalues --  -19.67265 -19.67256 -15.01210 -10.61473 -10.59247
  Beta  occ. eigenvalues --  -10.57753 -10.57714 -10.57205 -10.57199  -1.38721
  Beta  occ. eigenvalues --   -1.19867  -1.00229  -0.90602  -0.87323  -0.78434
  Beta  occ. eigenvalues --   -0.71615  -0.68158  -0.66051  -0.64089  -0.61690
  Beta  occ. eigenvalues --   -0.54178  -0.53846  -0.52315  -0.51401  -0.46563
  Beta  occ. eigenvalues --   -0.42696  -0.40437  -0.39485  -0.39391  -0.33664
  Beta  occ. eigenvalues --   -0.33201
  Beta virt. eigenvalues --   -0.07794  -0.05965  -0.00270   0.01692   0.03241
  Beta virt. eigenvalues --    0.03648   0.04026   0.05756   0.06210   0.06281
  Beta virt. eigenvalues --    0.07970   0.09233   0.09373   0.09883   0.11146
  Beta virt. eigenvalues --    0.13457   0.14008   0.14072   0.14120   0.14883
  Beta virt. eigenvalues --    0.15084   0.15647   0.17285   0.18867   0.19330
  Beta virt. eigenvalues --    0.19544   0.19804   0.20469   0.20960   0.21938
  Beta virt. eigenvalues --    0.23026   0.23597   0.23656   0.24362   0.25159
  Beta virt. eigenvalues --    0.25763   0.26327   0.27445   0.28130   0.29669
  Beta virt. eigenvalues --    0.30732   0.33012   0.33603   0.34351   0.35608
  Beta virt. eigenvalues --    0.36149   0.39019   0.39604   0.42518   0.46113
  Beta virt. eigenvalues --    0.46124   0.46566   0.52031   0.53067   0.53738
  Beta virt. eigenvalues --    0.54502   0.58225   0.58312   0.58661   0.59510
  Beta virt. eigenvalues --    0.63302   0.63612   0.64320   0.64652   0.67701
  Beta virt. eigenvalues --    0.68643   0.70438   0.72886   0.73233   0.76135
  Beta virt. eigenvalues --    0.76949   0.81335   0.83007   0.84506   0.86228
  Beta virt. eigenvalues --    0.87980   0.89774   0.90637   0.91236   0.92423
  Beta virt. eigenvalues --    0.97100   0.99383   1.02962   1.03478   1.04384
  Beta virt. eigenvalues --    1.10386   1.12308   1.13263   1.14166   1.17685
  Beta virt. eigenvalues --    1.18238   1.19409   1.21778   1.23091   1.23975
  Beta virt. eigenvalues --    1.26695   1.33240   1.34624   1.41630   1.51185
  Beta virt. eigenvalues --    1.54287   1.54455   1.56677   1.59550   1.60600
  Beta virt. eigenvalues --    1.63454   1.67076   1.67998   1.73230   1.74672
  Beta virt. eigenvalues --    1.76754   1.79887   1.79969   1.86449   1.87641
  Beta virt. eigenvalues --    1.87905   1.91224   1.93691   1.95225   1.95764
  Beta virt. eigenvalues --    1.96472   2.02120   2.03229   2.04606   2.07655
  Beta virt. eigenvalues --    2.09512   2.20830   2.31072   2.31087   2.33910
  Beta virt. eigenvalues --    2.34610   2.41818   2.45284   2.49280   2.54510
  Beta virt. eigenvalues --    2.56686   2.61211   2.68243   2.70510   2.73686
  Beta virt. eigenvalues --    2.73818   2.74915   2.77976   2.79130   2.79753
  Beta virt. eigenvalues --    2.82539   2.85602   2.88123   2.92370   2.93076
  Beta virt. eigenvalues --    2.93380   2.95148   2.95293   3.03715   3.10490
  Beta virt. eigenvalues --    3.18210   3.22340   3.30850   3.35683   3.42217
  Beta virt. eigenvalues --    3.44863   3.45255   3.52593   3.59228   3.61186
  Beta virt. eigenvalues --    3.74254   3.75584   3.85453   3.87469   3.88624
  Beta virt. eigenvalues --    4.01675   4.14994   4.17382   4.62458   4.78449
  Beta virt. eigenvalues --    4.81025   5.09082   5.12243   5.21444   5.28527
  Beta virt. eigenvalues --    5.81247   6.34941  23.59118  23.95004  24.00966
  Beta virt. eigenvalues --   24.10021  24.15834  24.22350  35.48862  50.00083
  Beta virt. eigenvalues --   50.11642
          Condensed to atoms (all electrons):
               1          2          3          4          5          6
     1  C    6.103026  -0.046043   0.003368   0.331111  -0.013476  -0.973764
     2  C   -0.046043   8.004159   0.353486  -1.487916  -0.002137  -0.111887
     3  H    0.003368   0.353486   0.443380  -0.031413  -0.004480   0.023012
     4  C    0.331111  -1.487916  -0.031413  10.239900   0.352713  -0.837228
     5  H   -0.013476  -0.002137  -0.004480   0.352713   0.418302   0.074839
     6  C   -0.973764  -0.111887   0.023012  -0.837228   0.074839  10.220363
     7  C    0.332745  -1.175746   0.013046  -1.611802  -0.029720  -0.824735
     8  H   -0.013928   0.001215   0.000021  -0.030182  -0.000037   0.074846
     9  C   -0.050544   0.758355  -0.015110  -1.182420   0.000936  -0.103719
    10  H    0.000063  -0.015948  -0.000015   0.013666   0.000021   0.022318
    11  N    0.007805  -0.007710  -0.001434   0.078127  -0.024051  -0.577461
    12  O   -0.026547   0.243644   0.000021   0.056817   0.008265  -0.382947
    13  O   -0.026941   0.028523  -0.000001  -0.056532  -0.001501  -0.379537
               7          8          9         10         11         12
     1  C    0.332745  -0.013928  -0.050544   0.000063   0.007805  -0.026547
     2  C   -1.175746   0.001215   0.758355  -0.015948  -0.007710   0.243644
     3  H    0.013046   0.000021  -0.015110  -0.000015  -0.001434   0.000021
     4  C   -1.611802  -0.030182  -1.182420   0.013666   0.078127   0.056817
     5  H   -0.029720  -0.000037   0.000936   0.000021  -0.024051   0.008265
     6  C   -0.824735   0.074846  -0.103719   0.022318  -0.577461  -0.382947
     7  C   10.205579   0.351654  -1.469443  -0.027670   0.078933  -0.058396
     8  H    0.351654   0.417979  -0.000587  -0.004228  -0.024092  -0.001489
     9  C   -1.469443  -0.000587   7.995363   0.353746  -0.008270   0.028180
    10  H   -0.027670  -0.004228   0.353746   0.442571  -0.001367  -0.000002
    11  N    0.078933  -0.024092  -0.008270  -0.001367   7.042641   0.300086
    12  O   -0.058396  -0.001489   0.028180  -0.000002   0.300086   7.908373
    13  O    0.053532   0.008229   0.242152   0.000017   0.299951  -0.027894
              13
     1  C   -0.026941
     2  C    0.028523
     3  H   -0.000001
     4  C   -0.056532
     5  H   -0.001501
     6  C   -0.379537
     7  C    0.053532
     8  H    0.008229
     9  C    0.242152
    10  H    0.000017
    11  N    0.299951
    12  O   -0.027894
    13  O    7.908174
          Atomic-Atomic Spin Densities.
               1          2          3          4          5          6
     1  C    1.191380  -0.277587   0.013275   0.223157   0.002637  -0.237167
     2  C   -0.277587   0.389773  -0.016901  -0.379658  -0.008707   0.297527
     3  H    0.013275  -0.016901   0.022328   0.016529   0.000792  -0.016507
     4  C    0.223157  -0.379658   0.016529   0.435800   0.005948  -0.263634
     5  H    0.002637  -0.008707   0.000792   0.005948   0.001917   0.000142
     6  C   -0.237167   0.297527  -0.016507  -0.263634   0.000142   0.162633
     7  C    0.221261  -0.272017   0.009660   0.237193   0.002564  -0.262853
     8  H    0.002711  -0.002389   0.000008   0.002575   0.000015  -0.000076
     9  C   -0.274559   0.338997  -0.014949  -0.271506  -0.002322   0.295550
    10  H    0.013244  -0.015285   0.000129   0.009835   0.000008  -0.016721
    11  N   -0.005653   0.008887  -0.000092  -0.015499  -0.001440   0.007549
    12  O    0.000866  -0.001187   0.000007   0.002079   0.000527   0.000023
    13  O    0.000846  -0.001444   0.000011   0.002625   0.000062   0.000058
               7          8          9         10         11         12
     1  C    0.221261   0.002711  -0.274559   0.013244  -0.005653   0.000866
     2  C   -0.272017  -0.002389   0.338997  -0.015285   0.008887  -0.001187
     3  H    0.009660   0.000008  -0.014949   0.000129  -0.000092   0.000007
     4  C    0.237193   0.002575  -0.271506   0.009835  -0.015499   0.002079
     5  H    0.002564   0.000015  -0.002322   0.000008  -0.001440   0.000527
     6  C   -0.262853  -0.000076   0.295550  -0.016721   0.007549   0.000023
     7  C    0.428514   0.006059  -0.370093   0.015946  -0.015691   0.002701
     8  H    0.006059   0.001956  -0.008621   0.000768  -0.001431   0.000063
     9  C   -0.370093  -0.008621   0.380306  -0.016343   0.008518  -0.001405
    10  H    0.015946   0.000768  -0.016343   0.022456  -0.000081   0.000011
    11  N   -0.015691  -0.001431   0.008518  -0.000081   0.021480  -0.001509
    12  O    0.002701   0.000063  -0.001405   0.000011  -0.001509  -0.006942
    13  O    0.002098   0.000529  -0.001109   0.000005  -0.001503  -0.000369
              13
     1  C    0.000846
     2  C   -0.001444
     3  H    0.000011
     4  C    0.002625
     5  H    0.000062
     6  C    0.000058
     7  C    0.002098
     8  H    0.000529
     9  C   -0.001109
    10  H    0.000005
    11  N   -0.001503
    12  O   -0.000369
    13  O   -0.006987
 Mulliken charges and spin densities:
               1          2
     1  C    0.373125   0.874413
     2  C   -0.541994   0.060010
     3  H    0.216119   0.014291
     4  C    0.165159   0.005445
     5  H    0.220327   0.002145
     6  C   -0.224099  -0.033476
     7  C    0.162022   0.005343
     8  H    0.220599   0.002167
     9  C   -0.548640   0.062466
    10  H    0.216827   0.013972
    11  N   -0.163159   0.003535
    12  O   -0.048112  -0.005136
    13  O   -0.048173  -0.005177
 Sum of Mulliken charges =   0.00000   1.00000
 Mulliken charges and spin densities with hydrogens summed into heavy atoms:
               1          2
     1  C    0.373125   0.874413
     2  C   -0.325875   0.074301
     4  C    0.385486   0.007590
     6  C   -0.224099  -0.033476
     7  C    0.382621   0.007511
     9  C   -0.331813   0.076439
    11  N   -0.163159   0.003535
    12  O   -0.048112  -0.005136
    13  O   -0.048173  -0.005177
 APT charges:
               1
     1  C    1.454344
     2  C   -1.081343
     3  H    0.001580
     4  C    0.243341
     5  H   -0.754733
     6  C   -1.613309
     7  C    0.127798
     8  H    1.154591
     9  C   -1.285108
    10  H    1.870381
    11  N    0.678417
    12  O   -0.940111
    13  O    0.144154
 Sum of APT charges =   0.00000
 APT charges with hydrogens summed into heavy atoms:
               1
     1  C    1.454344
     2  C   -1.079763
     4  C   -0.511392
     6  C   -1.613309
     7  C    1.282388
     9  C    0.585272
    11  N    0.678417
    12  O   -0.940111
    13  O    0.144154
 Electronic spatial extent (au):  <R**2>=          21427.5533
 Charge=              0.0000 electrons
 Dipole moment (field-independent basis, Debye):
    X=              4.2386    Y=             -1.1744    Z=              1.7555  Tot=              4.7357
 Quadrupole moment (field-independent basis, Debye-Ang):
   XX=            -24.1244   YY=            -65.8696   ZZ=            -38.1378
   XY=             31.6186   XZ=             21.1758   YZ=              6.4795
 Traceless Quadrupole moment (field-independent basis, Debye-Ang):
   XX=             18.5862   YY=            -23.1590   ZZ=              4.5728
   XY=             31.6186   XZ=             21.1758   YZ=              6.4795
 Octapole moment (field-independent basis, Debye-Ang**2):
  XXX=           -466.2374  YYY=          -1299.1312  ZZZ=           -581.5291  XYY=             48.7439
  XXY=           -162.4484  XXZ=            -97.3847  XZZ=           -108.9685  YZZ=           -332.0031
  YYZ=           -198.1130  XYZ=            142.9231
 Hexadecapole moment (field-independent basis, Debye-Ang**3):
 XXXX=          -4955.0712 YYYY=         -19036.0995 ZZZZ=          -5463.9065 XXXY=          -3267.8864
 XXXZ=          -2109.9938 YYYX=          -2452.9356 YYYZ=          -4791.8656 ZZZX=          -2344.5871
 ZZZY=          -4576.7210 XXYY=          -1997.3490 XXZZ=          -1435.8685 YYZZ=          -3723.1780
 XXYZ=           -709.9676 YYXZ=            142.0772 ZZXY=           -971.3113
 N-N= 4.021121087466D+02 E-N=-1.822246476664D+03  KE= 4.344406030876D+02
  Exact polarizability:       0.000       0.000       0.000       0.000       0.000       0.000
 Approx polarizability:     125.906      10.111     112.793      10.253     -33.472      81.250
                          Isotropic Fermi Contact Couplings
        Atom                 a.u.       MegaHertz       Gauss      10(-4) cm-1
     1  C(13)              0.56330     633.26015     225.96297     211.23285
     2  C(13)              0.02505      28.16360      10.04947       9.39437
     3  H(1)               0.00921      41.17254      14.69138      13.73368
     4  C(13)              0.04224      47.48778      16.94482      15.84022
     5  H(1)               0.00151       6.74648       2.40731       2.25038
     6  C(13)             -0.01101     -12.37459      -4.41556      -4.12772
     7  C(13)              0.04149      46.64369      16.64363      15.55866
     8  H(1)               0.00151       6.75532       2.41046       2.25333
     9  C(13)              0.02504      28.15125      10.04507       9.39025
    10  H(1)               0.00928      41.47860      14.80059      13.83577
    11  N(14)              0.00623       2.01202       0.71794       0.67114
    12  O(17)             -0.00087       0.52810       0.18844       0.17616
    13  O(17)             -0.00089       0.54073       0.19295       0.18037
 --------------------------------------------------------
       Center         ----  Spin Dipole Couplings  ----
                      3XX-RR        3YY-RR        3ZZ-RR
 --------------------------------------------------------
     1   Atom        0.627680     -0.412757     -0.214923
     2   Atom        0.090406     -0.014644     -0.075761
     3   Atom        0.001676      0.007569     -0.009245
     4   Atom        0.036829     -0.028907     -0.007922
     5   Atom        0.006764     -0.001869     -0.004895
     6   Atom        0.030036      0.001652     -0.031688
     7   Atom        0.022519     -0.021000     -0.001519
     8   Atom       -0.003366      0.003792     -0.000426
     9   Atom        0.001977      0.033218     -0.035194
    10   Atom       -0.010575      0.014370     -0.003795
    11   Atom        0.002598     -0.003241      0.000643
    12   Atom        0.013487      0.001332     -0.014819
    13   Atom        0.012173      0.000689     -0.012861
 --------------------------------------------------------
                        XY            XZ            YZ
 --------------------------------------------------------
     1   Atom       -0.339607      0.457773     -0.051435
     2   Atom        0.056808      0.014519     -0.041239
     3   Atom        0.016068     -0.006251     -0.008496
     4   Atom       -0.016126      0.020382      0.009849
     5   Atom        0.005782     -0.000631     -0.000521
     6   Atom        0.005828      0.018540     -0.036407
     7   Atom       -0.027478      0.024598      0.002277
     8   Atom       -0.003274      0.002476     -0.006329
     9   Atom       -0.022861      0.041231     -0.093059
    10   Atom        0.005617     -0.002943     -0.016011
    11   Atom       -0.003190      0.002435      0.002670
    12   Atom        0.002920      0.006180     -0.017334
    13   Atom        0.004018      0.008092     -0.017734
 --------------------------------------------------------


 ---------------------------------------------------------------------------------
              Anisotropic Spin Dipole Couplings in Principal Axis System
 ---------------------------------------------------------------------------------

       Atom             a.u.   MegaHertz   Gauss  10(-4) cm-1        Axes

              Baa    -0.5513   -73.984   -26.399   -24.679  0.3969  0.8187 -0.4149
     1 C(13)  Bbb    -0.3606   -48.388   -17.266   -16.140 -0.2054  0.5199  0.8292
              Bcc     0.9119   122.372    43.665    40.819  0.8946 -0.2439  0.3745
 
              Baa    -0.1049   -14.074    -5.022    -4.695 -0.2111  0.5131  0.8319
     2 C(13)  Bbb    -0.0104    -1.399    -0.499    -0.467 -0.3464  0.7566 -0.5546
              Bcc     0.1153    15.473     5.521     5.161  0.9140  0.4053 -0.0180
 
              Baa    -0.0129    -6.867    -2.450    -2.291 -0.1884  0.4996  0.8455
     3 H(1)   Bbb    -0.0114    -6.080    -2.170    -2.028  0.7723 -0.4564  0.4418
              Bcc     0.0243    12.948     4.620     4.319  0.6066  0.7363 -0.2998
 
              Baa    -0.0398    -5.346    -1.908    -1.783  0.2967  0.8426 -0.4495
     4 C(13)  Bbb    -0.0067    -0.901    -0.322    -0.301 -0.1995  0.5150  0.8337
              Bcc     0.0466     6.247     2.229     2.084  0.9339 -0.1577  0.3209
 
              Baa    -0.0051    -2.697    -0.962    -0.900 -0.1996  0.5000  0.8427
     5 H(1)   Bbb    -0.0047    -2.482    -0.886    -0.828 -0.4049  0.7411 -0.5356
              Bcc     0.0097     5.179     1.848     1.727  0.8923  0.4481 -0.0546
 
              Baa    -0.0590    -7.920    -2.826    -2.642 -0.2067  0.5179  0.8301
     6 C(13)  Bbb     0.0228     3.060     1.092     1.021  0.3970  0.8198 -0.4127
              Bcc     0.0362     4.861     1.734     1.621  0.8942 -0.2443  0.3751
 
              Baa    -0.0394    -5.286    -1.886    -1.763  0.4956  0.7862 -0.3692
     7 C(13)  Bbb    -0.0063    -0.848    -0.303    -0.283 -0.2097  0.5208  0.8275
              Bcc     0.0457     6.134     2.189     2.046  0.8429 -0.3327  0.4229
 
              Baa    -0.0050    -2.674    -0.954    -0.892 -0.2362  0.5078  0.8285
     8 H(1)   Bbb    -0.0046    -2.474    -0.883    -0.825  0.9240  0.3812  0.0298
              Bcc     0.0096     5.148     1.837     1.717 -0.3007  0.7725 -0.5593
 
              Baa    -0.1045   -14.028    -5.005    -4.679 -0.2074  0.5237  0.8262
     9 C(13)  Bbb    -0.0099    -1.323    -0.472    -0.441  0.9105  0.4123 -0.0328
              Bcc     0.1144    15.351     5.478     5.120 -0.3578  0.7454 -0.5624
 
              Baa    -0.0132    -7.029    -2.508    -2.344 -0.1847  0.5218  0.8328
    10 H(1)   Bbb    -0.0117    -6.219    -2.219    -2.074  0.9669 -0.0554  0.2492
              Bcc     0.0248    13.247     4.727     4.419  0.1761  0.8513 -0.4943
 
              Baa    -0.0064    -0.245    -0.087    -0.082  0.4056  0.7980 -0.4457
    11 N(14)  Bbb     0.0018     0.071     0.025     0.024 -0.2196  0.5584  0.8000
              Bcc     0.0045     0.174     0.062     0.058  0.8873 -0.2266  0.4018
 
              Baa    -0.0270     1.954     0.697     0.652 -0.1652  0.5270  0.8336
    12 O(17)  Bbb     0.0121    -0.875    -0.312    -0.292  0.3130  0.8296 -0.4624
              Bcc     0.0149    -1.079    -0.385    -0.360  0.9353 -0.1845  0.3020
 
              Baa    -0.0271     1.962     0.700     0.654 -0.2222  0.5470  0.8071
    13 O(17)  Bbb     0.0121    -0.879    -0.314    -0.293  0.5030  0.7734 -0.3857
              Bcc     0.0150    -1.083    -0.386    -0.361  0.8352 -0.3203  0.4470
 

 ---------------------------------------------------------------------------------

 D2PCM: PCM CHGder 2nd derivatives, FixD1E=F FixD2E=F DoIter=F DoCFld=F I1PDM=0
 Calling FoFJK, ICntrl=    100127 FMM=F ISym2X=0 I1Cent= 0 IOpClX= 1 NMat=1 NMatS=1 NMatT=0.
 -------------------------------------------------------------------
 Center     Atomic                   Forces (Hartrees/Bohr)
 Number     Number              X              Y              Z
 -------------------------------------------------------------------
      1        6          -0.046679670    0.011816737   -0.019971650
      2        6           0.020817305   -0.009793657    0.010904127
      3        1           0.001405402    0.000471388    0.000567636
      4        6           0.001635774    0.005753306   -0.003069190
      5        1           0.000846674   -0.000830948    0.000756423
      6        6          -0.002291313    0.000707965   -0.000865551
      7        6          -0.003174662   -0.004154453    0.001714136
      8        1           0.001385354    0.000190865    0.000182401
      9        6           0.024649134   -0.005629561    0.010378454
     10        1           0.000029240    0.001604361   -0.000957358
     11        7           0.001062780   -0.000329255    0.000430426
     12        8           0.000164297   -0.000081298    0.000069603
     13        8           0.000149685    0.000274551   -0.000139457
 -------------------------------------------------------------------
 Cartesian Forces:  Max     0.046679670 RMS     0.010385128
 FormGI is forming the generalized inverse of G from B-inverse, IUseBI=4.

 GradGradGradGradGradGradGradGradGradGradGradGradGradGradGradGradGradGrad
 Berny optimization.
 Internal  Forces:  Max     0.029215041 RMS     0.006309111
 Search for a local minimum.
 Step number   1 out of a maximum of   66
 All quantities printed in internal units (Hartrees-Bohrs-Radians)
 Mixed Optimization -- RFO/linear search
 Second derivative matrix not updated -- analytic derivatives used.
 ITU=  0
     Eigenvalues ---    0.00144   0.01641   0.01815   0.01830   0.02074
     Eigenvalues ---    0.02626   0.02682   0.03097   0.03329   0.10644
     Eigenvalues ---    0.10953   0.11145   0.11295   0.12138   0.16421
     Eigenvalues ---    0.17440   0.20300   0.23183   0.25326   0.25413
     Eigenvalues ---    0.35176   0.35905   0.36208   0.37018   0.38332
     Eigenvalues ---    0.38725   0.41968   0.44162   0.47519   0.48538
     Eigenvalues ---    0.52447   0.62077   0.85993
 RFO step:  Lambda=-9.01113187D-03 EMin= 1.44297815D-03
 Linear search not attempted -- first point.
 Iteration  1 RMS(Cart)=  0.02604323 RMS(Int)=  0.00113512
 Iteration  2 RMS(Cart)=  0.00162078 RMS(Int)=  0.00039623
 Iteration  3 RMS(Cart)=  0.00000063 RMS(Int)=  0.00039622
 Variable       Old X    -DE/DX   Delta X   Delta X   Delta X     New X
                                 (Linear)    (Quad)   (Total)
    R1        2.64510  -0.01843   0.00000  -0.04978  -0.04917   2.59592
    R2        2.64695  -0.01820   0.00000  -0.05176  -0.05116   2.59579
    R3        2.05091   0.00001   0.00000  -0.00368  -0.00368   2.04723
    R4        2.62427   0.00062   0.00000   0.00807   0.00807   2.63234
    R5        2.04383  -0.00008   0.00000   0.00069   0.00069   2.04452
    R6        2.62054   0.00364   0.00000   0.00581   0.00521   2.62576
    R7        2.62180   0.00309   0.00000   0.00464   0.00404   2.62584
    R8        2.79040  -0.00140   0.00000  -0.00417  -0.00417   2.78623
    R9        2.04400  -0.00010   0.00000   0.00044   0.00044   2.04444
   R10        2.62323   0.00011   0.00000   0.00898   0.00897   2.63220
   R11        2.04785   0.00113   0.00000  -0.00060  -0.00060   2.04725
   R12        2.29377  -0.00006   0.00000   0.00032   0.00032   2.29409
   R13        2.29328   0.00029   0.00000   0.00082   0.00082   2.29410
    A1        2.06771   0.02922   0.00000   0.12597   0.12754   2.19525
    A2        2.11155   0.00595   0.00000   0.02495   0.02469   2.13624
    A3        2.11852  -0.01504   0.00000  -0.07492  -0.07440   2.04412
    A4        2.05309   0.00909   0.00000   0.05000   0.04973   2.10282
    A5        2.12077  -0.00136   0.00000  -0.00605  -0.00572   2.11505
    A6        2.05937  -0.00015   0.00000   0.00648   0.00582   2.06518
    A7        2.10305   0.00151   0.00000  -0.00043  -0.00010   2.10295
    A8        2.14308   0.00088   0.00000   0.01060   0.00936   2.15244
    A9        2.06895  -0.00007   0.00000  -0.00436  -0.00374   2.06522
   A10        2.07116  -0.00081   0.00000  -0.00625  -0.00562   2.06553
   A11        2.10242   0.00159   0.00000   0.00032   0.00066   2.10308
   A12        2.05973  -0.00032   0.00000   0.00615   0.00546   2.06518
   A13        2.12104  -0.00127   0.00000  -0.00647  -0.00612   2.11492
   A14        2.11793  -0.01457   0.00000  -0.07423  -0.07374   2.04419
   A15        2.08529   0.00881   0.00000   0.04807   0.04782   2.13311
   A16        2.07997   0.00576   0.00000   0.02617   0.02592   2.10588
   A17        2.05759  -0.00015   0.00000   0.00068   0.00068   2.05827
   A18        2.05797  -0.00012   0.00000   0.00075   0.00075   2.05872
   A19        2.16763   0.00027   0.00000  -0.00143  -0.00143   2.16620
    D1        3.12560   0.00028   0.00000   0.01046   0.01062   3.13622
    D2       -0.00826   0.00010   0.00000   0.00546   0.00557  -0.00269
    D3        0.00905  -0.00017   0.00000  -0.00739  -0.00748   0.00157
    D4       -3.13549  -0.00002   0.00000  -0.00379  -0.00397  -3.13946
    D5       -3.14138  -0.00002   0.00000   0.00003   0.00016  -3.14121
    D6        0.00212  -0.00006   0.00000  -0.00079  -0.00056   0.00156
    D7        0.00770  -0.00020   0.00000  -0.00473  -0.00470   0.00300
    D8       -3.13199  -0.00023   0.00000  -0.00555  -0.00542  -3.13741
    D9        0.00359  -0.00011   0.00000  -0.00313  -0.00309   0.00050
   D10       -3.13908  -0.00008   0.00000  -0.00270  -0.00276   3.14135
   D11       -3.13612  -0.00015   0.00000  -0.00394  -0.00381  -3.13992
   D12        0.00440  -0.00011   0.00000  -0.00351  -0.00347   0.00093
   D13        3.13906   0.00009   0.00000   0.00193   0.00175   3.14081
   D14       -0.00283   0.00004   0.00000   0.00132   0.00120  -0.00163
   D15       -0.00146   0.00005   0.00000   0.00150   0.00141  -0.00005
   D16        3.13984   0.00001   0.00000   0.00089   0.00087   3.14070
   D17        0.04038  -0.00005   0.00000  -0.00136  -0.00131   0.03907
   D18       -3.10159  -0.00002   0.00000  -0.00098  -0.00093  -3.10252
   D19       -3.10224  -0.00001   0.00000  -0.00093  -0.00098  -3.10322
   D20        0.03897   0.00002   0.00000  -0.00055  -0.00060   0.03837
   D21       -0.00366   0.00022   0.00000   0.00455   0.00428   0.00063
   D22        3.14087   0.00006   0.00000   0.00092   0.00080  -3.14151
   D23        3.13763   0.00017   0.00000   0.00394   0.00373   3.14137
   D24       -0.00102   0.00002   0.00000   0.00031   0.00025  -0.00077
         Item               Value     Threshold  Converged?
 Maximum Force            0.029215     0.000015     NO 
 RMS     Force            0.006309     0.000010     NO 
 Maximum Displacement     0.144331     0.000060     NO 
 RMS     Displacement     0.025919     0.000040     NO 
 Predicted change in Energy=-4.681975D-03
 GradGradGradGradGradGradGradGradGradGradGradGradGradGradGradGradGradGrad

                          Input orientation:                          
 ---------------------------------------------------------------------
 Center     Atomic      Atomic             Coordinates (Angstroms)
 Number     Number       Type             X           Y           Z
 ---------------------------------------------------------------------
      1          6           0        6.158993    6.966756    5.142275
      2          6           0        5.112242    6.118756    5.411105
      3          1           0        5.232197    5.216814    5.999110
      4          6           0        3.866990    6.461899    4.889583
      5          1           0        2.997495    5.841350    5.061130
      6          6           0        3.765131    7.625940    4.137709
      7          6           0        4.842510    8.464563    3.879300
      8          1           0        4.711351    9.360263    3.286876
      9          6           0        6.087199    8.121725    4.402164
     10          1           0        6.952795    8.748393    4.224137
     11          7           0        2.447165    7.989020    3.585419
     12          8           0        1.503086    7.273026    3.849632
     13          8           0        2.374138    8.984987    2.895145
 ---------------------------------------------------------------------
                    Distance matrix (angstroms):
                    1          2          3          4          5
     1  C    0.000000
     2  C    1.373704   0.000000
     3  H    2.157640   1.083346   0.000000
     4  C    2.360511   1.392976   2.155243   0.000000
     5  H    3.356813   2.161386   2.502747   1.081911   0.000000
     6  C    2.678480   2.389110   3.379495   1.389490   2.150985
     7  C    2.360437   2.814604   3.897861   2.446013   3.417902
     8  H    3.356643   3.896207   4.979524   3.417913   4.297445
     9  C    1.373634   2.445483   3.423414   2.814591   3.896231
    10  H    2.155766   3.422210   4.310804   3.897828   4.979544
    11  N    4.152890   3.732780   4.611662   2.459440   2.663283
    12  O    4.841715   4.098358   4.770171   2.706930   2.398058
    13  O    4.842311   4.694948   5.657050   3.545753   3.868142
                    6          7          8          9         10
     6  C    0.000000
     7  C    1.389536   0.000000
     8  H    2.151075   1.081872   0.000000
     9  C    2.389087   1.392901   2.161204   0.000000
    10  H    3.380617   2.157029   2.505378   1.083358   0.000000
    11  N    1.474410   2.459712   2.663826   3.732897   4.613600
    12  O    2.307463   3.545758   3.868620   4.694643   5.658295
    13  O    2.307777   2.707815   2.399343   4.099164   4.773500
                   11         12         13
    11  N    0.000000
    12  O    1.213978   0.000000
    13  O    1.213985   2.144898   0.000000
 Symmetry turned off by external request.
 Stoichiometry    C6H4NO2(2)
 Framework group  C1[X(C6H4NO2)]
 Deg. of freedom    33
 Full point group                 C1      NOp   1
 Rotational constants (GHZ):           3.9717405           1.3546122           1.0102652
 Standard basis: 6-311+G(d,p) (5D, 7F)
   222 basis functions,   356 primitive gaussians,   231 cartesian basis functions
    32 alpha electrons       31 beta electrons
       nuclear repulsion energy       403.1670051586 Hartrees.
 NAtoms=   13 NActive=   13 NUniq=   13 SFac= 1.00D+00 NAtFMM=   60 NAOKFM=F Big=F
 Integral buffers will be    131072 words long.
 Raffenetti 2 integral format.
 Two-electron integral symmetry is turned off.
 ------------------------------------------------------------------------------
 Polarizable Continuum Model (PCM)
 =================================
 Model                : PCM.
 Atomic radii         : SMD-Coulomb.
 Polarization charges : Total charges.
 Charge compensation  : None.
 Solution method      : Matrix inversion.
 Cavity type          : VdW (van der Waals Surface) (Alpha=1.000).
 Cavity algorithm     : GePol (No added spheres)
                        Default sphere list used, NSphG=   13.
                        Lebedev-Laikov grids with approx.  5.0 points / Ang**2.
                        Smoothing algorithm: York/Karplus (Gamma=1.0000).
                        Polarization charges: spherical gaussians, with
                                              point-specific exponents (IZeta= 3).
                        Self-potential: point-specific (ISelfS= 7).
                        Self-field    : sphere-specific E.n sum rule (ISelfD= 2).
 1st derivatives      : Analytical E(r).r(x)/FMM algorithm (CHGder, D1EAlg=3).
                        Cavity 1st derivative terms included.
 Solvent              : TetraHydroFuran, Eps=   7.425700 Eps(inf)=   1.974025
 ------------------------------------------------------------------------------
 Spheres list:
 ISph  on   Nord     Re0    Alpha      Xe            Ye            Ze
    1   C      1    1.8500  1.000      6.158993      6.966756      5.142275
    2   C      2    1.8500  1.000      5.112242      6.118756      5.411105
    3   H      3    1.2000  1.000      5.232197      5.216814      5.999110
    4   C      4    1.8500  1.000      3.866990      6.461899      4.889583
    5   H      5    1.2000  1.000      2.997495      5.841350      5.061130
    6   C      6    1.8500  1.000      3.765131      7.625940      4.137709
    7   C      7    1.8500  1.000      4.842510      8.464563      3.879300
    8   H      8    1.2000  1.000      4.711351      9.360263      3.286876
    9   C      9    1.8500  1.000      6.087199      8.121725      4.402164
   10   H     10    1.2000  1.000      6.952795      8.748393      4.224137
   11   N     11    1.8900  1.000      2.447165      7.989020      3.585419
   12   O     12    2.2940  1.000      1.503086      7.273026      3.849632
   13   O     13    2.2940  1.000      2.374138      8.984987      2.895145
 ------------------------------------------------------------------------------
 ------------------------------------------------------------------------------
 Atomic radii for non-electrostatic terms: SMD-CDS.
 ------------------------------------------------------------------------------
 Nuclear repulsion after PCM non-electrostatic terms =      403.1639628633 Hartrees.
 One-electron integrals computed using PRISM.
 NBasis=   222 RedAO= T EigKep=  2.38D-06  NBF=   222
 NBsUse=   222 1.00D-06 EigRej= -1.00D+00 NBFU=   222
 Initial guess from the checkpoint file:  "4-no2-ph-opt-freq-thf.chk"
 B after Tr=    -0.012987    0.012021   -0.017905
         Rot=    1.000000   -0.000374    0.000225    0.000372 Ang=  -0.07 deg.
 Initial guess <Sx>= 0.0000 <Sy>= 0.0000 <Sz>= 0.5000 <S**2>= 0.7650 S= 0.5075
 ExpMin= 4.38D-02 ExpMax= 8.59D+03 ExpMxC= 1.30D+03 IAcc=3 IRadAn=         5 AccDes= 0.00D+00
 Harris functional with IExCor= 1009 and IRadAn=       5 diagonalized for initial guess.
 HarFok:  IExCor= 1009 AccDes= 0.00D+00 IRadAn=         5 IDoV= 1 UseB2=F ITyADJ=14
 ICtDFT=  3500011 ScaDFX=  1.000000  1.000000  1.000000  1.000000
 FoFCou: FMM=F IPFlag=           0 FMFlag=      100000 FMFlg1=           0
         NFxFlg=           0 DoJE=T BraDBF=F KetDBF=T FulRan=T
         wScrn=  0.000000 ICntrl=       500 IOpCl=  0 I1Cent=   200000004 NGrid=           0
         NMat0=    1 NMatS0=      1 NMatT0=    0 NMatD0=    1 NMtDS0=    0 NMtDT0=    0
 Symmetry not used in FoFCou.
 Requested convergence on RMS density matrix=1.00D-08 within 128 cycles.
 Requested convergence on MAX density matrix=1.00D-06.
 Requested convergence on             energy=1.00D-06.
 Level shift goal  0.100 maximum shift  0.100.
 No special actions if energy rises.
 Dynamic level shift is on during FON iterations.
 Inv3:  Mode=1 IEnd=     5589675.
 Iteration    1 A*A^-1 deviation from unit magnitude is 5.88D-15 for   1353.
 Iteration    1 A*A^-1 deviation from orthogonality  is 1.55D-15 for   1353   1221.
 Iteration    1 A^-1*A deviation from unit magnitude is 5.44D-15 for   1353.
 Iteration    1 A^-1*A deviation from orthogonality  is 1.43D-15 for    804    459.
 Error on total polarization charges =  0.02229
 SCF Done:  E(UM062X) =  -436.012897581     A.U. after   16 cycles
            NFock= 16  Conv=0.24D-08     -V/T= 2.0034
 <Sx>= 0.0000 <Sy>= 0.0000 <Sz>= 0.5000 <S**2>= 0.7635 S= 0.5067
 <L.S>=  0.00000000000    
 SMD-CDS (non-electrostatic) energy       (kcal/mol) =      -1.91
 (included in total energy above)
 Annihilation of the first spin contaminant:
 S**2 before annihilation     0.7635,   after     0.7501
 D1PCM: PCM CHGder 1st derivatives, ID1Alg=3 FixD1E=F DoIter=F DoCFld=F I1PDM=0.
 Calling FoFJK, ICntrl=      2127 FMM=F ISym2X=0 I1Cent= 0 IOpClX= 1 NMat=1 NMatS=1 NMatT=0.
 -------------------------------------------------------------------
 Center     Atomic                   Forces (Hartrees/Bohr)
 Number     Number              X              Y              Z
 -------------------------------------------------------------------
      1        6          -0.001274693    0.000111533   -0.000597113
      2        6           0.000440903   -0.001885357    0.001181849
      3        1           0.000057735   -0.000050856    0.000177072
      4        6          -0.000485022    0.000035788   -0.000123819
      5        1          -0.000045682   -0.000027966    0.000019722
      6        6          -0.000546209    0.000184834   -0.000195620
      7        6          -0.000355851    0.000298551   -0.000298707
      8        1           0.000012580    0.000043668   -0.000028562
      9        6           0.002114568    0.001039328   -0.000021917
     10        1          -0.000042132    0.000272971   -0.000148984
     11        7           0.000108569   -0.000031263    0.000020705
     12        8           0.000005803   -0.000010381    0.000007885
     13        8           0.000009430    0.000019150    0.000007488
 -------------------------------------------------------------------
 Cartesian Forces:  Max     0.002114568 RMS     0.000594312

 GradGradGradGradGradGradGradGradGradGradGradGradGradGradGradGradGradGrad
 Berny optimization.
 Using GEDIIS/GDIIS optimizer.
 FormGI is forming the generalized inverse of G from B-inverse, IUseBI=4.
 Internal  Forces:  Max     0.001538765 RMS     0.000428431
 Search for a local minimum.
 Step number   2 out of a maximum of   66
 All quantities printed in internal units (Hartrees-Bohrs-Radians)
 Mixed Optimization -- En-DIIS/RFO-DIIS
 Update second derivatives using D2CorX and points    1    2
 DE= -4.69D-03 DEPred=-4.68D-03 R= 1.00D+00
 TightC=F SS=  1.41D+00  RLast= 1.98D-01 DXNew= 5.0454D-01 5.9369D-01
 Trust test= 1.00D+00 RLast= 1.98D-01 DXMaxT set to 5.05D-01
 ITU=  1  0
 Use linear search instead of GDIIS.
     Eigenvalues ---    0.00144   0.01641   0.01815   0.01829   0.02073
     Eigenvalues ---    0.02623   0.02682   0.03094   0.03326   0.10643
     Eigenvalues ---    0.10951   0.11145   0.11291   0.12138   0.16420
     Eigenvalues ---    0.17419   0.19854   0.23182   0.25322   0.25360
     Eigenvalues ---    0.35176   0.35922   0.36227   0.37030   0.38331
     Eigenvalues ---    0.39063   0.41961   0.44535   0.47519   0.48511
     Eigenvalues ---    0.52707   0.62077   0.85993
 RFO step:  Lambda=-2.29410256D-05 EMin= 1.44297667D-03
 Quartic linear search produced a step of  0.04386.
 Iteration  1 RMS(Cart)=  0.00307123 RMS(Int)=  0.00002071
 Iteration  2 RMS(Cart)=  0.00000840 RMS(Int)=  0.00001904
 Iteration  3 RMS(Cart)=  0.00000000 RMS(Int)=  0.00001904
 Variable       Old X    -DE/DX   Delta X   Delta X   Delta X     New X
                                 (Linear)    (Quad)   (Total)
    R1        2.59592   0.00083  -0.00216   0.00362   0.00150   2.59742
    R2        2.59579   0.00095  -0.00224   0.00386   0.00165   2.59744
    R3        2.04723   0.00014  -0.00016   0.00019   0.00003   2.04726
    R4        2.63234   0.00077   0.00035   0.00144   0.00180   2.63414
    R5        2.04452   0.00006   0.00003   0.00018   0.00021   2.04472
    R6        2.62576   0.00086   0.00023   0.00119   0.00139   2.62715
    R7        2.62584   0.00082   0.00018   0.00118   0.00133   2.62717
    R8        2.78623  -0.00013  -0.00018  -0.00024  -0.00042   2.78581
    R9        2.04444   0.00005   0.00002   0.00016   0.00018   2.04462
   R10        2.63220   0.00074   0.00039   0.00152   0.00192   2.63412
   R11        2.04725   0.00015  -0.00003   0.00005   0.00002   2.04727
   R12        2.29409   0.00000   0.00001   0.00005   0.00007   2.29415
   R13        2.29410   0.00001   0.00004   0.00004   0.00007   2.29417
    A1        2.19525   0.00154   0.00559   0.00188   0.00755   2.20280
    A2        2.13624   0.00045   0.00108   0.00035   0.00142   2.13766
    A3        2.04412  -0.00105  -0.00326  -0.00188  -0.00512   2.03901
    A4        2.10282   0.00059   0.00218   0.00153   0.00370   2.10652
    A5        2.11505  -0.00005  -0.00025   0.00039   0.00016   2.11521
    A6        2.06518   0.00009   0.00026   0.00044   0.00066   2.06585
    A7        2.10295  -0.00004   0.00000  -0.00083  -0.00082   2.10213
    A8        2.15244   0.00039   0.00041   0.00108   0.00143   2.15387
    A9        2.06522  -0.00018  -0.00016  -0.00057  -0.00070   2.06451
   A10        2.06553  -0.00021  -0.00025  -0.00051  -0.00073   2.06481
   A11        2.10308  -0.00002   0.00003  -0.00072  -0.00068   2.10241
   A12        2.06518   0.00007   0.00024   0.00056   0.00076   2.06595
   A13        2.11492  -0.00005  -0.00027   0.00017  -0.00009   2.11483
   A14        2.04419  -0.00104  -0.00323  -0.00208  -0.00529   2.03890
   A15        2.13311   0.00080   0.00210   0.00242   0.00451   2.13762
   A16        2.10588   0.00024   0.00114  -0.00035   0.00078   2.10666
   A17        2.05827  -0.00001   0.00003   0.00007   0.00010   2.05837
   A18        2.05872  -0.00001   0.00003   0.00007   0.00010   2.05882
   A19        2.16620   0.00002  -0.00006  -0.00013  -0.00020   2.16600
    D1        3.13622   0.00009   0.00047   0.00396   0.00444   3.14066
    D2       -0.00269   0.00004   0.00024   0.00215   0.00240  -0.00029
    D3        0.00157  -0.00005  -0.00033  -0.00224  -0.00257  -0.00100
    D4       -3.13946  -0.00004  -0.00017  -0.00209  -0.00228   3.14144
    D5       -3.14121   0.00000   0.00001  -0.00004  -0.00002  -3.14124
    D6        0.00156   0.00000  -0.00002  -0.00050  -0.00051   0.00105
    D7        0.00300  -0.00005  -0.00021  -0.00181  -0.00201   0.00099
    D8       -3.13741  -0.00005  -0.00024  -0.00227  -0.00250  -3.13991
    D9        0.00050  -0.00002  -0.00014  -0.00092  -0.00106  -0.00056
   D10        3.14135  -0.00002  -0.00012  -0.00098  -0.00111   3.14024
   D11       -3.13992  -0.00003  -0.00017  -0.00138  -0.00154  -3.14146
   D12        0.00093  -0.00003  -0.00015  -0.00144  -0.00159  -0.00066
   D13        3.14081   0.00001   0.00008   0.00087   0.00093  -3.14145
   D14       -0.00163   0.00001   0.00005   0.00083   0.00088  -0.00075
   D15       -0.00005   0.00001   0.00006   0.00093   0.00098   0.00094
   D16        3.14070   0.00001   0.00004   0.00089   0.00093  -3.14155
   D17        0.03907  -0.00001  -0.00006  -0.00560  -0.00566   0.03342
   D18       -3.10252  -0.00001  -0.00004  -0.00554  -0.00558  -3.10810
   D19       -3.10322  -0.00001  -0.00004  -0.00566  -0.00571  -3.10893
   D20        0.03837  -0.00001  -0.00003  -0.00560  -0.00563   0.03274
   D21        0.00063   0.00003   0.00019   0.00067   0.00084   0.00147
   D22       -3.14151   0.00001   0.00004   0.00053   0.00055  -3.14096
   D23        3.14137   0.00002   0.00016   0.00064   0.00079  -3.14103
   D24       -0.00077   0.00001   0.00001   0.00049   0.00050  -0.00027
         Item               Value     Threshold  Converged?
 Maximum Force            0.001539     0.000015     NO 
 RMS     Force            0.000428     0.000010     NO 
 Maximum Displacement     0.009724     0.000060     NO 
 RMS     Displacement     0.003071     0.000040     NO 
 Predicted change in Energy=-1.970177D-05
 GradGradGradGradGradGradGradGradGradGradGradGradGradGradGradGradGradGrad

                          Input orientation:                          
 ---------------------------------------------------------------------
 Center     Atomic      Atomic             Coordinates (Angstroms)
 Number     Number       Type             X           Y           Z
 ---------------------------------------------------------------------
      1          6           0        6.156243    6.966022    5.139255
      2          6           0        5.111508    6.115669    5.412506
      3          1           0        5.233191    5.215603    6.003058
      4          6           0        3.866064    6.461266    4.890526
      5          1           0        2.995142    5.842629    5.062434
      6          6           0        3.765434    7.625837    4.137944
      7          6           0        4.842930    8.465251    3.878807
      8          1           0        4.710362    9.360961    3.286541
      9          6           0        6.089412    8.123313    4.400692
     10          1           0        6.954612    8.750534    4.222613
     11          7           0        2.447854    7.988817    3.585265
     12          8           0        1.504680    7.269749    3.844487
     13          8           0        2.373861    8.987840    2.899458
 ---------------------------------------------------------------------
                    Distance matrix (angstroms):
                    1          2          3          4          5
     1  C    0.000000
     2  C    1.374496   0.000000
     3  H    2.159200   1.083363   0.000000
     4  C    2.358297   1.393927   2.158342   0.000000
     5  H    3.355663   2.162431   2.507349   1.082021   0.000000
     6  C    2.674687   2.391032   3.382631   1.390227   2.151247
     7  C    2.358221   2.818671   3.901917   2.448223   3.419568
     8  H    3.355421   3.900329   4.983653   3.419625   4.298190
     9  C    1.374506   2.451673   3.428625   2.818796   3.900504
    10  H    2.159192   3.428614   4.316134   3.902049   4.983836
    11  N    4.148873   3.733972   4.614601   2.459357   2.662269
    12  O    4.837945   4.098755   4.772918   2.706285   2.396152
    13  O    4.838477   4.696754   5.660201   3.546068   3.867404
                    6          7          8          9         10
     6  C    0.000000
     7  C    1.390240   0.000000
     8  H    2.151378   1.081965   0.000000
     9  C    2.391107   1.393915   2.162147   0.000000
    10  H    3.382746   2.158423   2.507092   1.083369   0.000000
    11  N    1.474186   2.459583   2.662885   3.734160   4.614899
    12  O    2.307363   3.546029   3.867928   4.696563   5.660165
    13  O    2.307677   2.707126   2.397560   4.099564   4.773923
                   11         12         13
    11  N    0.000000
    12  O    1.214014   0.000000
    13  O    1.214024   2.144852   0.000000
 Symmetry turned off by external request.
 Stoichiometry    C6H4NO2(2)
 Framework group  C1[X(C6H4NO2)]
 Deg. of freedom    33
 Full point group                 C1      NOp   1
 Rotational constants (GHZ):           3.9632804           1.3554327           1.0101294
 Standard basis: 6-311+G(d,p) (5D, 7F)
   222 basis functions,   356 primitive gaussians,   231 cartesian basis functions
    32 alpha electrons       31 beta electrons
       nuclear repulsion energy       403.0766758988 Hartrees.
 NAtoms=   13 NActive=   13 NUniq=   13 SFac= 1.00D+00 NAtFMM=   60 NAOKFM=F Big=F
 Integral buffers will be    131072 words long.
 Raffenetti 2 integral format.
 Two-electron integral symmetry is turned off.
 ------------------------------------------------------------------------------
 Polarizable Continuum Model (PCM)
 =================================
 Model                : PCM.
 Atomic radii         : SMD-Coulomb.
 Polarization charges : Total charges.
 Charge compensation  : None.
 Solution method      : Matrix inversion.
 Cavity type          : VdW (van der Waals Surface) (Alpha=1.000).
 Cavity algorithm     : GePol (No added spheres)
                        Default sphere list used, NSphG=   13.
                        Lebedev-Laikov grids with approx.  5.0 points / Ang**2.
                        Smoothing algorithm: York/Karplus (Gamma=1.0000).
                        Polarization charges: spherical gaussians, with
                                              point-specific exponents (IZeta= 3).
                        Self-potential: point-specific (ISelfS= 7).
                        Self-field    : sphere-specific E.n sum rule (ISelfD= 2).
 1st derivatives      : Analytical E(r).r(x)/FMM algorithm (CHGder, D1EAlg=3).
                        Cavity 1st derivative terms included.
 Solvent              : TetraHydroFuran, Eps=   7.425700 Eps(inf)=   1.974025
 ------------------------------------------------------------------------------
 Spheres list:
 ISph  on   Nord     Re0    Alpha      Xe            Ye            Ze
    1   C      1    1.8500  1.000      6.156243      6.966022      5.139255
    2   C      2    1.8500  1.000      5.111508      6.115669      5.412506
    3   H      3    1.2000  1.000      5.233191      5.215603      6.003058
    4   C      4    1.8500  1.000      3.866064      6.461266      4.890526
    5   H      5    1.2000  1.000      2.995142      5.842629      5.062434
    6   C      6    1.8500  1.000      3.765434      7.625837      4.137944
    7   C      7    1.8500  1.000      4.842930      8.465251      3.878807
    8   H      8    1.2000  1.000      4.710362      9.360961      3.286541
    9   C      9    1.8500  1.000      6.089412      8.123313      4.400692
   10   H     10    1.2000  1.000      6.954612      8.750534      4.222613
   11   N     11    1.8900  1.000      2.447854      7.988817      3.585265
   12   O     12    2.2940  1.000      1.504680      7.269749      3.844487
   13   O     13    2.2940  1.000      2.373861      8.987840      2.899458
 ------------------------------------------------------------------------------
 ------------------------------------------------------------------------------
 Atomic radii for non-electrostatic terms: SMD-CDS.
 ------------------------------------------------------------------------------
 Nuclear repulsion after PCM non-electrostatic terms =      403.0736386919 Hartrees.
 One-electron integrals computed using PRISM.
 NBasis=   222 RedAO= T EigKep=  2.36D-06  NBF=   222
 NBsUse=   222 1.00D-06 EigRej= -1.00D+00 NBFU=   222
 Initial guess from the checkpoint file:  "4-no2-ph-opt-freq-thf.chk"
 B after Tr=     0.006039    0.005530   -0.016829
         Rot=    1.000000   -0.000503    0.000124   -0.000136 Ang=  -0.06 deg.
 Initial guess <Sx>= 0.0000 <Sy>= 0.0000 <Sz>= 0.5000 <S**2>= 0.7635 S= 0.5067
 Requested convergence on RMS density matrix=1.00D-08 within 128 cycles.
 Requested convergence on MAX density matrix=1.00D-06.
 Requested convergence on             energy=1.00D-06.
 Level shift goal  0.100 maximum shift  0.100.
 No special actions if energy rises.
 Dynamic level shift is on during FON iterations.
 Inv3:  Mode=1 IEnd=     5581488.
 Iteration    1 A*A^-1 deviation from unit magnitude is 4.00D-15 for   1353.
 Iteration    1 A*A^-1 deviation from orthogonality  is 1.47D-15 for    778     96.
 Iteration    1 A^-1*A deviation from unit magnitude is 4.22D-15 for   1353.
 Iteration    1 A^-1*A deviation from orthogonality  is 1.00D-15 for   1339   1336.
 Error on total polarization charges =  0.02229
 SCF Done:  E(UM062X) =  -436.012917475     A.U. after   12 cycles
            NFock= 12  Conv=0.93D-08     -V/T= 2.0034
 <Sx>= 0.0000 <Sy>= 0.0000 <Sz>= 0.5000 <S**2>= 0.7635 S= 0.5067
 <L.S>=  0.00000000000    
 SMD-CDS (non-electrostatic) energy       (kcal/mol) =      -1.91
 (included in total energy above)
 Annihilation of the first spin contaminant:
 S**2 before annihilation     0.7635,   after     0.7501
 D1PCM: PCM CHGder 1st derivatives, ID1Alg=3 FixD1E=F DoIter=F DoCFld=F I1PDM=0.
 Calling FoFJK, ICntrl=      2127 FMM=F ISym2X=0 I1Cent= 0 IOpClX= 1 NMat=1 NMatS=1 NMatT=0.
 -------------------------------------------------------------------
 Center     Atomic                   Forces (Hartrees/Bohr)
 Number     Number              X              Y              Z
 -------------------------------------------------------------------
      1        6          -0.000126081    0.000053684   -0.000071492
      2        6           0.000152653    0.000065538   -0.000010689
      3        1           0.000001745   -0.000016713    0.000009348
      4        6          -0.000055059   -0.000040373    0.000013258
      5        1          -0.000006832    0.000003036   -0.000002336
      6        6          -0.000040475    0.000018302   -0.000013100
      7        6          -0.000002975    0.000059853   -0.000038752
      8        1          -0.000004831    0.000000507   -0.000002826
      9        6           0.000076046   -0.000177687    0.000113584
     10        1           0.000005525    0.000016530   -0.000016550
     11        7           0.000003206    0.000003573    0.000006153
     12        8          -0.000002289    0.000006117    0.000006538
     13        8          -0.000000633    0.000007632    0.000006862
 -------------------------------------------------------------------
 Cartesian Forces:  Max     0.000177687 RMS     0.000054355

 GradGradGradGradGradGradGradGradGradGradGradGradGradGradGradGradGradGrad
 Berny optimization.
 Using GEDIIS/GDIIS optimizer.
 FormGI is forming the generalized inverse of G from B-inverse, IUseBI=4.
 Internal  Forces:  Max     0.000136855 RMS     0.000029736
 Search for a local minimum.
 Step number   3 out of a maximum of   66
 All quantities printed in internal units (Hartrees-Bohrs-Radians)
 Mixed Optimization -- En-DIIS/RFO-DIIS
 Swapping is turned off.
 Update second derivatives using D2CorX and points    1    2    3
 DE= -1.99D-05 DEPred=-1.97D-05 R= 1.01D+00
 TightC=F SS=  1.41D+00  RLast= 1.89D-02 DXNew= 8.4853D-01 5.6659D-02
 Trust test= 1.01D+00 RLast= 1.89D-02 DXMaxT set to 5.05D-01
 ITU=  1  1  0
     Eigenvalues ---    0.00144   0.01641   0.01816   0.01829   0.02071
     Eigenvalues ---    0.02623   0.02681   0.03093   0.03326   0.10632
     Eigenvalues ---    0.10952   0.11145   0.11266   0.12115   0.16418
     Eigenvalues ---    0.17476   0.19457   0.23182   0.25235   0.25329
     Eigenvalues ---    0.35176   0.35872   0.36205   0.37032   0.38332
     Eigenvalues ---    0.39205   0.41961   0.45194   0.47519   0.48601
     Eigenvalues ---    0.52545   0.62077   0.85994
 En-DIIS/RFO-DIIS/Sim-DIIS IScMMF=       -3 using points:     3    2
 RFO step:  Lambda=-1.53255530D-07.
 DidBck=F Rises=F RFO-DIIS coefs:    1.07777   -0.07777
 Iteration  1 RMS(Cart)=  0.00040973 RMS(Int)=  0.00000025
 Iteration  2 RMS(Cart)=  0.00000019 RMS(Int)=  0.00000017
 Variable       Old X    -DE/DX   Delta X   Delta X   Delta X     New X
                                 (Linear)    (Quad)   (Total)
    R1        2.59742  -0.00011   0.00012  -0.00038  -0.00027   2.59716
    R2        2.59744  -0.00014   0.00013  -0.00051  -0.00038   2.59706
    R3        2.04726   0.00002   0.00000   0.00005   0.00006   2.04732
    R4        2.63414   0.00006   0.00014   0.00000   0.00014   2.63428
    R5        2.04472   0.00000   0.00002  -0.00001   0.00000   2.04473
    R6        2.62715   0.00005   0.00011   0.00003   0.00014   2.62728
    R7        2.62717   0.00004   0.00010   0.00000   0.00010   2.62727
    R8        2.78581   0.00000  -0.00003   0.00002  -0.00002   2.78579
    R9        2.04462   0.00000   0.00001  -0.00001   0.00000   2.04462
   R10        2.63412   0.00006   0.00015   0.00003   0.00018   2.63430
   R11        2.04727   0.00002   0.00000   0.00005   0.00005   2.04733
   R12        2.29415   0.00000   0.00001   0.00000   0.00000   2.29416
   R13        2.29417   0.00000   0.00001   0.00000   0.00000   2.29418
    A1        2.20280   0.00006   0.00059  -0.00033   0.00025   2.20305
    A2        2.13766   0.00000   0.00011  -0.00007   0.00004   2.13770
    A3        2.03901   0.00000  -0.00040   0.00036  -0.00003   2.03897
    A4        2.10652   0.00000   0.00029  -0.00029  -0.00001   2.10651
    A5        2.11521   0.00002   0.00001   0.00010   0.00012   2.11533
    A6        2.06585  -0.00003   0.00005  -0.00016  -0.00010   2.06574
    A7        2.10213   0.00001  -0.00006   0.00005  -0.00001   2.10212
    A8        2.15387  -0.00002   0.00011  -0.00010   0.00001   2.15387
[...]
 ! R10   R(7,9)                  1.394          -DE/DX =    0.0                 !
 ! R11   R(9,10)                 1.0834         -DE/DX =    0.0                 !
 ! R12   R(11,12)                1.214          -DE/DX =    0.0                 !
 ! R13   R(11,13)                1.214          -DE/DX =    0.0                 !
 ! A1    A(2,1,9)              126.2246         -DE/DX =    0.0                 !
 ! A2    A(1,2,3)              122.481          -DE/DX =    0.0                 !
 ! A3    A(1,2,4)              116.825          -DE/DX =    0.0                 !
 ! A4    A(3,2,4)              120.694          -DE/DX =    0.0                 !
 ! A5    A(2,4,5)              121.199          -DE/DX =    0.0                 !
 ! A6    A(2,4,6)              118.3584         -DE/DX =    0.0                 !
 ! A7    A(5,4,6)              120.4426         -DE/DX =    0.0                 !
 ! A8    A(4,6,7)              123.408          -DE/DX =    0.0                 !
 ! A9    A(4,6,11)             118.2877         -DE/DX =    0.0                 !
 ! A10   A(7,6,11)             118.3044         -DE/DX =    0.0                 !
 ! A11   A(6,7,8)              120.4581         -DE/DX =    0.0                 !
 ! A12   A(6,7,9)              118.3651         -DE/DX =    0.0                 !
 ! A13   A(8,7,9)              121.1768         -DE/DX =    0.0                 !
 ! A14   A(1,9,7)              116.8189         -DE/DX =    0.0                 !
 ! A15   A(1,9,10)             122.4901         -DE/DX =    0.0                 !
 ! A16   A(7,9,10)             120.6909         -DE/DX =    0.0                 !
 ! A17   A(6,11,12)            117.9358         -DE/DX =    0.0                 !
 ! A18   A(6,11,13)            117.9616         -DE/DX =    0.0                 !
 ! A19   A(12,11,13)           124.1025         -DE/DX =    0.0                 !
 ! D1    D(9,1,2,3)            179.951          -DE/DX =    0.0                 !
 ! D2    D(9,1,2,4)             -0.0153         -DE/DX =    0.0                 !
 ! D3    D(2,1,9,7)             -0.0527         -DE/DX =    0.0                 !
 ! D4    D(2,1,9,10)           179.9904         -DE/DX =    0.0                 !
 ! D5    D(1,2,4,5)           -179.9843         -DE/DX =    0.0                 !
 ! D6    D(1,2,4,6)              0.0542         -DE/DX =    0.0                 !
 ! D7    D(3,2,4,5)              0.0487         -DE/DX =    0.0                 !
 ! D8    D(3,2,4,6)           -179.9128         -DE/DX =    0.0                 !
 ! D9    D(2,4,6,7)             -0.0269         -DE/DX =    0.0                 !
 ! D10   D(2,4,6,11)           179.9261         -DE/DX =    0.0                 !
 ! D11   D(5,4,6,7)           -179.9887         -DE/DX =    0.0                 !
 ! D12   D(5,4,6,11)            -0.0357         -DE/DX =    0.0                 !
 ! D13   D(4,6,7,8)           -179.9933         -DE/DX =    0.0                 !
 ! D14   D(4,6,7,9)             -0.0422         -DE/DX =    0.0                 !
 ! D15   D(11,6,7,8)             0.0537         -DE/DX =    0.0                 !
 ! D16   D(11,6,7,9)          -179.9952         -DE/DX =    0.0                 !
 ! D17   D(4,6,11,12)            1.8485         -DE/DX =    0.0                 !
 ! D18   D(4,6,11,13)         -178.1484         -DE/DX =    0.0                 !
 ! D19   D(7,6,11,12)         -178.1961         -DE/DX =    0.0                 !
 ! D20   D(7,6,11,13)            1.807          -DE/DX =    0.0                 !
 ! D21   D(6,7,9,1)              0.0784         -DE/DX =    0.0                 !
 ! D22   D(6,7,9,10)          -179.9638         -DE/DX =    0.0                 !
 ! D23   D(8,7,9,1)           -179.9708         -DE/DX =    0.0                 !
 ! D24   D(8,7,9,10)            -0.0131         -DE/DX =    0.0                 !
 --------------------------------------------------------------------------------
 GradGradGradGradGradGradGradGradGradGradGradGradGradGradGradGradGradGrad


 ----------------------------------------------------------------------

 Electric dipole moment (input orientation):
 (Debye = 10**-18 statcoulomb cm , SI units = C m)
                  (au)            (Debye)         (10**-30 SI)
   Tot        0.188023D+01      0.477907D+01      0.159413D+02
   x          0.168086D+01      0.427232D+01      0.142509D+02
   y         -0.462864D+00     -0.117648D+01     -0.392432D+01
   z          0.704087D+00      0.178961D+01      0.596950D+01

 Dipole polarizability, Alpha (input orientation).
 (esu units = cm**3 , SI units = C**2 m**2 J**-1)
 Alpha(0;0):
               (au)            (10**-24 esu)      (10**-40 SI)
   iso        0.104717D+03      0.155174D+02      0.172654D+02
   aniso      0.739660D+02      0.109606D+02      0.121953D+02
   xx         0.127978D+03      0.189643D+02      0.211006D+02
   yx         0.638339D+01      0.945921D+00      0.105248D+01
   yy         0.107397D+03      0.159146D+02      0.177074D+02
   zx         0.136040D+02      0.201590D+01      0.224299D+01
   zy        -0.314202D+02     -0.465599D+01     -0.518049D+01
   zz         0.787749D+02      0.116732D+02      0.129882D+02

 ----------------------------------------------------------------------

 Dipole orientation:
     6         -1.70492944         16.83694674         10.79592261
     6         -3.25031512         15.11211714          9.62032442
     1         -4.42431842         13.79805485         10.66265626
     6         -3.24909845         15.11649632          6.98604791
     1         -4.41557650         13.81549162          5.92415051
     6         -1.70476292         16.83964629          5.74170491
     6         -0.16053812         18.56135461          6.98816224
     1          1.00626732         19.86363122          5.92839313
     6         -0.15980135         18.56334141          9.62245179
     1          1.01538891         19.87530742         10.66610184
     7         -1.70341623         16.83960642          2.95591313
     8         -3.10331510         15.37437824          1.88048575
     8         -0.30272232         18.30439060          1.88087546

 Electric dipole moment (dipole orientation):
 (Debye = 10**-18 statcoulomb cm , SI units = C m)
                  (au)            (Debye)         (10**-30 SI)
   Tot        0.188023D+01      0.477907D+01      0.159413D+02
   x          0.000000D+00      0.000000D+00      0.000000D+00
   y          0.000000D+00      0.000000D+00      0.000000D+00
   z          0.188023D+01      0.477907D+01      0.159413D+02

 Dipole polarizability, Alpha (dipole orientation).
 (esu units = cm**3 , SI units = C**2 m**2 J**-1)
 Alpha(0;0):
               (au)            (10**-24 esu)      (10**-40 SI)
   iso        0.104717D+03      0.155174D+02      0.172654D+02
   aniso      0.739660D+02      0.109606D+02      0.121953D+02
   xx         0.877983D+02      0.130104D+02      0.144760D+02
   yx         0.354619D+02      0.525492D+01      0.584688D+01
   yy         0.944290D+02      0.139929D+02      0.155692D+02
   zx         0.935992D-04      0.138700D-04      0.154324D-04
   zy        -0.228976D-01     -0.339307D-02     -0.377530D-02
   zz         0.131922D+03      0.195489D+02      0.217510D+02

 ----------------------------------------------------------------------
 Unable to Open any file for archive entry.
 1\1\GINC-CN016\Freq\UM062X\6-311+G(d,p)\C6H4N1O2(2)\TAHMINAAFROZ\10-Ma
 y-2025\0\\#N Geom=AllCheck Guess=TCheck SCRF=Check GenChk UM062X/6-311
 +G(d,p) Freq\\4-no2-ph-opt-freq-thf\\0,2\C,6.1561160631,6.9660531663,5
 .1392073124\C,5.1115486679,6.115763078,5.4126262996\H,5.2332691973,5.2
 157953243,6.0033728222\C,3.8660039864,6.4612476364,4.8906127639\H,2.99
 50594949,5.8426398183,5.0625261184\C,3.7654058987,7.6258440128,4.13793
 60158\C,4.8429727212,8.4652260596,3.8787010431\H,4.7104103717,9.360893
 7677,3.2863688916\C,6.089495621,8.1231255145,4.400622358\H,6.954666336
 1,8.7503933059,4.2223995827\N,2.447838962,7.9888420725,3.5852610227\O,
 1.504878675,7.2691477718,3.8435232706\O,2.3736270047,8.988519472,2.900
 4284988\\Version=AS64L-G16RevC.01\HF=-436.0129175\S2=0.763511\S2-1=0.\
 S2A=0.750076\RMSD=1.434e-09\RMSF=3.523e-06\ZeroPoint=0.090673\Thermal=
 0.0974674\ETot=-435.9154501\HTot=-435.9145059\GTot=-435.9550807\Dipole
 =1.680859,-0.4628639,0.7040868\DipoleDeriv=0.0397213,0.0995989,-0.0348
 521,0.101204,0.1673917,-0.1251083,-0.0339882,-0.1246009,-0.0022571,-0.
 3784314,-0.1215526,0.0142348,-0.0185481,-0.0339106,-0.0611882,-0.04876
 8,-0.0872155,-0.083155,0.1363118,-0.0064566,-0.0121096,0.0064405,0.083
 0168,0.0745087,-0.0213787,0.0714781,0.1503164,0.1186508,0.0155998,0.04
 23002,-0.2614129,-0.0514196,-0.0945001,0.2235289,-0.0278436,-0.0283001
 ,0.1058828,-0.0424384,0.006303,-0.0059126,0.1492347,0.0223194,-0.01809
 23,0.0153588,0.1748569,-0.4383285,0.1497774,-0.2054334,0.1503899,0.030
 2052,0.0378172,-0.205916,0.0407056,-0.0496996,0.2248321,-0.1702068,0.1
 88328,0.105959,-0.1117574,0.0359766,0.0060294,-0.0334565,-0.0761942,0.
 1426801,0.0293321,-0.0304109,-0.0081716,0.1270153,0.0350986,-0.0041942
 ,0.0461083,0.1588938,-0.1115712,0.2163967,-0.1324087,0.1128036,-0.1819
 848,0.062184,-0.0663021,0.0901492,-0.2004717,0.0756934,-0.0461543,-0.0
 020266,-0.0595033,0.1159316,0.0382193,0.004701,0.0393223,0.1771054,2.2
 388836,0.189722,0.3214114,0.1910959,1.6879749,-0.8732347,0.3241143,-0.
 8700898,0.9799954,-1.3967778,-0.5002471,0.0759778,-0.3606687,-0.816895
 4,0.2600367,-0.0224586,0.2227421,-0.4550549,-0.7575471,0.1866288,-0.23
 13138,0.0463243,-1.1648026,0.5878708,-0.1372754,0.617342,-0.7460354\Po
 lar=127.977551,6.3833887,107.3970959,13.6039527,-31.4201694,78.7749439
 \Quadrupole=13.7063544,-17.2352061,3.5288517,23.8441116,15.8033932,4.8
 999613\PG=C01 [X(C6H4N1O2)]\NImag=0\\0.39118092,0.13622378,0.49680161,
 -0.00703396,-0.23027619,0.21600807,-0.24058599,-0.10817463,0.02117371,
 0.59810979,-0.14000576,-0.19257497,0.05350961,0.05794539,0.58832872,0.
 04092780,0.06134936,-0.07994801,0.08021997,-0.27439293,0.31607652,0.00
 586937,-0.01854513,0.01327511,-0.05561492,0.02302907,-0.01930136,0.056
 18702,0.00004433,-0.01244054,0.00708451,0.02802287,-0.25064412,0.14056
 995,-0.02490838,0.26095406,0.00170134,0.00249799,-0.00223262,-0.022404
 30,0.13930734,-0.12840865,0.02358339,-0.15382349,0.12555521,-0.0629029
 3,-0.05151226,0.01377762,-0.28703088,0.07870189,-0.10485274,0.00044575
 ,-0.00130659,-0.00044480,0.70762963,0.00177474,0.05033786,-0.02368995,
 0.00649985,-0.12079155,0.03893394,0.02399895,-0.00077080,0.00988741,0.
 10265946,0.54902533,-0.01953767,-0.03700943,0.02985826,-0.05961982,0.0
 5689143,-0.11044999,-0.01620859,0.00361525,-0.00071198,0.07777770,-0.2
 3606560,0.29695546,-0.00392263,0.00002156,-0.00273205,-0.01433399,-0.0
 1473461,0.00426183,0.00111365,0.00046198,0.00109298,-0.24396719,-0.139
 95558,0.03688461,0.25676460,0.00176361,0.00258263,0.00326568,0.0089076
 7,0.00927636,0.00003457,-0.00007531,-0.00083804,-0.00232187,-0.1383287
 0,-0.15151189,0.03591713,0.14835356,0.15181237,-0.00381016,0.00283189,
 0.00442584,-0.01053870,-0.00578152,0.00685158,0.00143669,-0.00218640,-
 0.00281620,0.03592214,0.03546848,-0.05254889,-0.03565310,-0.04191622,0
 .04322894,-0.01858500,-0.02522511,0.01198686,0.01536119,0.02659034,-0.
 01318195,-0.00363877,0.00027921,-0.00287997,-0.11401290,0.01670447,-0.
 02522516,0.00669320,-0.02052407,0.01318587,0.57530279,-0.02516922,-0.0
 5679861,0.02720600,0.07805891,0.00483253,0.01743463,-0.00037719,0.0032
 9107,0.00242143,-0.04031163,-0.25544695,0.11703676,0.00153597,-0.00856
 648,0.00866956,0.11528779,0.57933161,0.01202835,0.02741810,-0.01722658
 ,-0.04559465,0.00450887,-0.01249726,-0.00242699,0.00258599,0.00511531,
 0.01042815,0.13098520,-0.13221745,-0.00042197,0.00316143,0.00247193,0.
 03982976,-0.26318444,0.29180631,0.02931978,0.08376827,-0.04801231,-0.0
 7333693,-0.01434141,-0.00894783,-0.00123706,-0.00054781,0.00011093,0.0
 4394915,-0.05744119,0.04643158,0.00106272,0.00143657,-0.00193715,-0.22
 224435,-0.07969901,0.00780761,0.63968730,0.03045989,-0.00190107,0.0159
 6708,-0.01981217,-0.00147267,-0.00441728,0.00006681,0.00011956,-0.0002
 5858,-0.01140498,-0.03560934,0.02032984,0.00092521,-0.00166653,0.00456
 428,-0.13672305,-0.19377913,0.05454007,0.04295279,0.58725804,-0.014686
 12,0.02909561,-0.01028967,-0.00554976,-0.00308569,-0.00014004,-0.00026
 016,-0.00042436,-0.00015876,0.01767364,0.00899363,0.00010256,-0.001639
 69,0.00472379,0.00197372,0.04346461,0.06862011,-0.08522292,0.09891547,
 -0.27450104,0.32655037,-0.00380914,0.00184552,-0.00385260,-0.00068334,
 -0.00046643,0.00045398,0.00006253,0.00013374,0.00009449,-0.00384510,-0
 .00291162,-0.00042587,0.00050420,-0.00111208,0.00062533,0.00842619,-0.
 01891162,0.01272763,-0.05851973,0.02617046,-0.02091068,0.05796126,0.00
 012413,0.00254014,0.00290571,0.00022954,0.00012618,-0.00086113,0.00010
 300,-0.00021221,-0.00025505,-0.00343041,0.00112740,0.00177725,0.000231
 85,-0.00017503,0.00062667,0.00319503,-0.00957845,0.00966025,0.02452723
 ,-0.25666386,0.14180483,-0.02767842,0.26406704,-0.00278412,0.00333780,
 0.00436073,0.00001059,-0.00104194,-0.00069020,0.00011240,-0.00024539,-
 0.00047818,-0.00013847,0.00188962,0.00410474,-0.00019259,0.00029027,0.
 00050371,-0.00086352,0.00420134,0.00177866,-0.02003985,0.14213158,-0.1
 3292618,0.02511672,-0.15570708,0.12950849,-0.10260455,-0.01775476,-0.0
 0137483,0.04920332,-0.01900575,0.02295896,-0.00330495,-0.00224545,-0.0
 0090185,-0.02113962,0.03195863,-0.02506548,0.00028254,0.00038780,0.000
 15584,-0.05669543,-0.03745501,0.00903107,-0.29216525,0.07385732,-0.103
 41347,0.00043801,-0.00162730,-0.00030939,0.66534569,0.01399518,-0.2716
 7992,0.14053049,-0.05102542,-0.03239632,0.01032062,-0.00413091,0.00093
 159,0.00218139,0.02649156,-0.03101215,0.02549335,0.00109588,-0.0004168
 8,-0.00031760,0.01420266,0.04555113,-0.02403606,0.00158068,-0.11766761
 ,0.03601588,0.02204523,0.00085862,0.00857927,0.11809544,0.55091751,-0.
 02121921,0.13263727,-0.13977754,0.04300009,0.01823764,0.00345636,0.000
 27702,0.00265039,0.00448854,-0.02163305,0.02684299,-0.02278241,-0.0002
 8358,-0.00048144,-0.00111054,-0.02324242,-0.03663052,0.01890185,-0.058
 19353,0.05384547,-0.10843907,-0.01511880,0.00271121,0.00040094,0.05971
 666,-0.23622252,0.28727716,0.00667260,0.00078338,0.00142330,0.00103005
 ,0.00157154,-0.00222801,0.00030023,0.00022492,0.00000352,-0.00022467,0
 .00037244,-0.00019944,-0.00006474,0.00002104,0.00013400,-0.00194378,0.
 00175199,-0.00341273,-0.01692743,-0.01674744,0.00491920,0.00121175,0.0
 0055749,0.00107138,-0.23901138,-0.13470818,0.03380691,0.25002376,-0.01
 780335,-0.01291156,0.00298100,-0.00030728,-0.00154012,0.00467015,-0.00
 069990,-0.00036879,-0.00011549,0.00098899,-0.00046470,0.00031665,-0.00
 000897,-0.00013979,-0.00032573,0.00110478,0.00234151,0.00339151,0.0085
 4247,0.00910894,-0.00011801,0.00002182,-0.00089833,-0.00226360,-0.1397
 1684,-0.14658824,0.03446675,0.14712397,0.15097680,0.01304011,0.0075659
 8,-0.00260806,-0.00106132,0.00513214,0.00260021,0.00057629,0.00010808,
 -0.00020561,-0.00057736,0.00016370,-0.00059274,0.00015077,-0.00031800,
 -0.00042213,-0.00297953,0.00352912,0.00436324,-0.01089217,-0.00637475,
 0.00683796,0.00141358,-0.00213276,-0.00285108,0.03695172,0.03573391,-0
 .04914234,-0.03582993,-0.04296938,0.04178337,0.00068167,-0.00225218,0.
 00235245,0.01162807,-0.00077418,0.00098715,0.00063459,-0.00043475,0.00
 030411,-0.01193286,0.02535795,-0.01731979,-0.00158524,-0.00244138,0.00
 237042,-0.12668363,-0.00121510,-0.01355104,-0.04399409,0.00188121,-0.0
 1025449,-0.00001846,0.00093112,0.00038307,0.00299664,-0.00956387,0.004
 48644,-0.00020580,0.00050228,-0.00048219,0.73145723,-0.00218706,-0.004
 91224,0.00044571,-0.00209977,-0.00335488,0.00753294,0.00124304,0.00016
 957,0.00053662,0.03051670,-0.00382464,0.00554563,-0.00034308,-0.003246
 42,-0.00095130,-0.00142205,-0.10353398,0.02224398,-0.00325521,0.014373
 30,-0.01426919,-0.00113201,-0.00403644,-0.00057241,-0.00827722,0.00145
 031,0.00296099,-0.00118124,0.00064884,-0.00035639,0.15143668,0.7602982
 3,0.00240303,0.00061475,-0.00300924,0.00173907,0.00774926,0.00488512,-
 0.00075504,0.00012334,0.00027689,-0.02006459,0.00422947,-0.01438973,0.
 00095405,-0.00125404,-0.00340906,-0.01360680,0.02177170,-0.08475245,-0
 .00748786,-0.01277993,-0.00054735,0.00191234,0.00002775,-0.00411126,0.
 00369430,0.00251496,0.00869857,0.00055907,0.00005525,0.00064224,0.0191
 3734,-0.31950745,0.44177602,-0.00124807,-0.00110074,0.00030905,-0.0016
 3612,-0.00045739,0.00005979,-0.00015830,0.00014608,-0.00012256,-0.0017
 3382,-0.00463915,0.00209763,-0.00290582,0.00132884,-0.00168869,-0.0613
 7489,-0.03010875,0.00183747,0.00041353,0.00756550,-0.00551246,0.001288
 76,0.00027693,0.00017547,-0.00432092,0.00080572,-0.00139622,-0.0007754
 8,0.00033431,-0.00031963,-0.42202477,-0.19820792,0.05040058,0.47562386
 ,0.00086301,0.00081326,-0.00005777,-0.00112697,0.00076890,-0.00133887,
 -0.00013489,0.00001182,-0.00003578,0.00459322,-0.00575716,0.00610359,0
 .00301198,0.00151265,-0.00004279,-0.01526970,0.01275405,-0.00105322,0.
 00075903,0.00139350,0.00167786,0.00108206,0.00083289,0.00007413,-0.000
 04372,0.00073323,-0.00128794,0.00003090,-0.00014187,-0.00015940,-0.204
 61524,-0.25086503,0.06823914,0.27949363,0.32106338,-0.00095936,-0.0006
 1209,0.00047482,0.00064635,-0.00115040,-0.00003354,0.00004444,0.000035
 90,0.00000661,-0.00393845,0.00409521,-0.00121153,-0.00281251,-0.000494
 12,0.00008040,-0.00802319,-0.00447375,0.01746623,-0.00123876,0.0031924
 5,0.00155440,-0.00051853,-0.00024242,0.00038612,-0.00068836,-0.0010000
 6,-0.00078152,-0.00009606,-0.00009123,-0.00037404,0.05462131,0.0697604
 4,-0.10940121,-0.08096580,-0.12949790,0.09495819,-0.00006602,0.0019222
 9,-0.00129236,-0.00211025,0.00194730,-0.00135760,-0.00065914,0.0001298
 4,-0.00013728,-0.00523456,-0.00437896,0.00041030,0.00035869,0.00028246
 ,-0.00020248,-0.00060463,0.03661286,-0.02828267,-0.00600763,0.00080847
 ,-0.00274609,-0.00301693,0.00255982,-0.00254170,0.00097590,0.00111602,
 -0.00020032,-0.00008511,-0.00008229,0.00000966,-0.14095336,0.03490914,
 -0.03888550,0.01885203,-0.06864330,0.04392890,0.13855102,-0.00008328,0
 .00014341,0.00012812,0.00288200,-0.00055808,0.00016406,0.00043083,-0.0
 0020319,-0.00002192,0.00234275,0.00469859,0.00004814,-0.00059573,0.001
 37704,-0.00063933,0.02179970,-0.02039831,0.02977833,-0.00828241,-0.003
 49313,0.00146659,0.00091335,0.00201205,-0.00067359,0.00182686,-0.00068
 128,0.00026971,0.00019918,-0.00002269,0.00007776,0.04118745,-0.4031666
 3,0.22821582,-0.05543706,-0.08311962,0.06047798,-0.00718364,0.50341183
 ,-0.00007004,0.00054896,-0.00003600,-0.00202123,0.00011620,-0.00170210
 ,-0.00035318,-0.00009378,-0.00043057,-0.00392980,-0.00173409,0.0038837
 1,0.00039123,-0.00060718,0.00077071,-0.01846455,0.03339808,-0.00998688
 ,0.00348387,0.00376081,0.00070497,-0.00151759,-0.00031524,0.00001350,-
 0.00075518,0.00020639,-0.00119000,-0.00015122,0.00000214,-0.00003101,-
 0.04303479,0.22663042,-0.23665856,0.03512537,0.05737896,-0.00312492,0.
 03129711,-0.31929167,0.24778715\\-0.00000135,0.00000410,0.00000567,0.0
 0000105,0.00000305,0.00000289,0.00000107,0.00000324,0.00000401,0.00000
 093,-0.00000087,-0.00000042,0.00000204,-0.00000267,-0.00000244,0.00000
 013,-0.00000144,-0.00000158,-0.00000117,0.00000116,0.00000063,-0.00000
 163,0.00000023,-0.00000020,-0.00000142,0.00000458,0.00000414,-0.000002
 65,0.00000628,0.00000621,0.00000091,-0.00000484,-0.00000539,0.00000182
 ,-0.00000711,-0.00000733,0.00000027,-0.00000571,-0.00000621\\\@
 The archive entry for this job was punched.


 IT IS IMPOSSIBLE TO MEDITATE ON TIME AND THE MYSTERY 
 OF NATURE WITHOUT AN OVERWHELMING EMOTION AT THE
 LIMITATIONS OF HUMAN INTELLIGENCE.

                                         -- ALFRED NORTH WHITEHEAD
 Job cpu time:       0 days  0 hours 43 minutes 16.2 seconds.
 Elapsed time:       0 days  0 hours  1 minutes 24.9 seconds.
 File lengths (MBytes):  RWF=    164 Int=      0 D2E=      0 Chk=     14 Scr=      1
 Normal termination of Gaussian 16 at Sat May 10 22:07:21 2025.
