/home/tahminaafroz
cn018.cluster.local
tahminaafroz
Wed Apr 30 05:24:55 CDT 2025
 Entering Gaussian System, Link 0=g16
 Initial command:
 /home/apps/g16/l1.exe "/tmp/4-no2-phboh2-opt-freq-thf/Gau-2154219.inp" -scrdir="/tmp/4-no2-phboh2-opt-freq-thf/"
 Entering Link 1 = /home/apps/g16/l1.exe PID=   2154220.
  
 Copyright (c) 1988-2019, Gaussian, Inc.  All Rights Reserved.
  
 This is part of the Gaussian(R) 16 program.  It is based on
 the Gaussian(R) 09 system (copyright 2009, Gaussian, Inc.),
 the Gaussian(R) 03 system (copyright 2003, Gaussian, Inc.),
 the Gaussian(R) 98 system (copyright 1998, Gaussian, Inc.),
 the Gaussian(R) 94 system (copyright 1995, Gaussian, Inc.),
 the Gaussian 92(TM) system (copyright 1992, Gaussian, Inc.),
 the Gaussian 90(TM) system (copyright 1990, Gaussian, Inc.),
 the Gaussian 88(TM) system (copyright 1988, Gaussian, Inc.),
 the Gaussian 86(TM) system (copyright 1986, Carnegie Mellon
 University), and the Gaussian 82(TM) system (copyright 1983,
 Carnegie Mellon University). Gaussian is a federally registered
 trademark of Gaussian, Inc.
  
 This software contains proprietary and confidential information,
 including trade secrets, belonging to Gaussian, Inc.
  
 This software is provided under written license and may be
 used, copied, transmitted, or stored only in accord with that
 written license.
  
 The following legend is applicable only to US Government
 contracts under FAR:
  
                    RESTRICTED RIGHTS LEGEND
  
 Use, reproduction and disclosure by the US Government is
 subject to restrictions as set forth in subparagraphs (a)
 and (c) of the Commercial Computer Software - Restricted
 Rights clause in FAR 52.227-19.
  
 Gaussian, Inc.
 340 Quinnipiac St., Bldg. 40, Wallingford CT 06492
  
  
 ---------------------------------------------------------------
 Warning -- This program may not be used in any manner that
 competes with the business of Gaussian, Inc. or will provide
 assistance to any competitor of Gaussian, Inc.  The licensee
 of this program is prohibited from giving any competitor of
 Gaussian, Inc. access to this program.  By using this program,
 the user acknowledges that Gaussian, Inc. is engaged in the
 business of creating and licensing software in the field of
 computational chemistry and represents and warrants to the
 licensee that it is not a competitor of Gaussian, Inc. and that
 it will not use this program in any manner prohibited above.
 ---------------------------------------------------------------
  

 Cite this work as:
 Gaussian 16, Revision C.01,
 M. J. Frisch, G. W. Trucks, H. B. Schlegel, G. E. Scuseria, 
 M. A. Robb, J. R. Cheeseman, G. Scalmani, V. Barone, 
 G. A. Petersson, H. Nakatsuji, X. Li, M. Caricato, A. V. Marenich, 
 J. Bloino, B. G. Janesko, R. Gomperts, B. Mennucci, H. P. Hratchian, 
 J. V. Ortiz, A. F. Izmaylov, J. L. Sonnenberg, D. Williams-Young, 
 F. Ding, F. Lipparini, F. Egidi, J. Goings, B. Peng, A. Petrone, 
 T. Henderson, D. Ranasinghe, V. G. Zakrzewski, J. Gao, N. Rega, 
 G. Zheng, W. Liang, M. Hada, M. Ehara, K. Toyota, R. Fukuda, 
 J. Hasegawa, M. Ishida, T. Nakajima, Y. Honda, O. Kitao, H. Nakai, 
 T. Vreven, K. Throssell, J. A. Montgomery, Jr., J. E. Peralta, 
 F. Ogliaro, M. J. Bearpark, J. J. Heyd, E. N. Brothers, K. N. Kudin, 
 V. N. Staroverov, T. A. Keith, R. Kobayashi, J. Normand, 
 K. Raghavachari, A. P. Rendell, J. C. Burant, S. S. Iyengar, 
 J. Tomasi, M. Cossi, J. M. Millam, M. Klene, C. Adamo, R. Cammi, 
 J. W. Ochterski, R. L. Martin, K. Morokuma, O. Farkas, 
 J. B. Foresman, and D. J. Fox, Gaussian, Inc., Wallingford CT, 2019.
 
 ******************************************
 Gaussian 16:  AS64L-G16RevC.01  3-Jul-2019
                30-Apr-2025 
 ******************************************
 %mem=20GB
 %nprocshared=32
 Will use up to   32 processors via shared memory.
 %chk=4-no2-phboh2-opt-freq-thf.chk
 ----------------------------------------------------------------------
 # opt=(calcfc,tight) freq 6-311+g(d,p) scrf=(smd,solvent=thf) nosymm s
 cf=(qc,fermi,xqc) geom=connectivity int=ultrafine m062x
 ----------------------------------------------------------------------
 1/7=10,10=4,18=20,19=15,26=6,38=1,57=2/1,3;
 2/9=110,12=2,15=1,17=6,18=5,40=1/2;
 3/5=4,6=6,7=111,11=2,25=1,30=1,70=32201,71=2,72=20,74=-55,75=-5,140=1/1,2,3;
 4//1;
 5/5=2,22=13,38=5,53=20/2;
 8/6=4,10=90,11=11/1;
 11/6=1,8=1,9=11,15=111,16=1,31=1/1,2,10;
 10/6=1,13=1,31=1/2;
 6/7=2,8=2,9=2,10=2,28=1/1;
 7/10=1,25=1,30=1/1,2,3,16;
 1/7=10,10=4,18=20,19=15,26=6/3(2);
 2/9=110,15=1/2;
 99//99;
 2/9=110,15=1/2;
 3/5=4,6=6,7=111,11=2,25=1,30=1,70=32205,71=1,72=20,74=-55,75=-5/1,2,3;
 4/5=5,16=3,69=1/1;
 5/5=2,22=13,38=5,53=20/2;
 7/30=1/1,2,3,16;
 1/7=10,18=20,19=15,26=6/3(-5);
 2/9=110,15=1/2;
 6/7=2,8=2,9=2,10=2,19=2,28=1/1;
 99/9=1/99;
 -------------------------
 4-no2-phboh2-opt-freq-thf
 -------------------------
 Symbolic Z-matrix:
 Charge =  0 Multiplicity = 1
 O                     8.69995   7.38504   5.36889 
 H                     9.53079   7.12114   5.77514 
 C                     6.23413   6.95128   5.18294 
 B                     7.65658   6.60816   5.76293 
 O                     7.90179   5.58728   6.635 
 H                     7.12999   5.09301   6.91519 
 C                     5.1127    6.14767   5.41481 
 H                     5.19328   5.23888   6.0035 
 C                     3.86635   6.47463   4.89734 
 H                     2.99205   5.86171   5.0682 
 C                     3.76166   7.6281    4.13658 
 C                     4.84335   8.45478   3.87457 
 H                     4.70672   9.34289   3.27274 
 C                     6.07832   8.10321   4.40232 
 H                     6.9422    8.72872   4.21132 
 N                     2.43774   7.99034   3.57963 
 O                     1.50969   7.24885   3.81751 
 O                     2.3669    9.00463   2.92205 
 

 GradGradGradGradGradGradGradGradGradGradGradGradGradGradGradGradGradGrad
 Berny optimization.
 Initialization pass.
                           ----------------------------
                           !    Initial Parameters    !
                           ! (Angstroms and Degrees)  !
 --------------------------                            --------------------------
 ! Name  Definition              Value          Derivative Info.                !
 --------------------------------------------------------------------------------
 ! R1    R(1,2)                  0.9618         calculate D2E/DX2 analytically  !
 ! R2    R(1,4)                  1.3592         calculate D2E/DX2 analytically  !
 ! R3    R(3,4)                  1.574          calculate D2E/DX2 analytically  !
 ! R4    R(3,7)                  1.399          calculate D2E/DX2 analytically  !
 ! R5    R(3,14)                 1.4002         calculate D2E/DX2 analytically  !
 ! R6    R(4,5)                  1.3649         calculate D2E/DX2 analytically  !
 ! R7    R(5,6)                  0.9584         calculate D2E/DX2 analytically  !
 ! R8    R(7,8)                  1.0858         calculate D2E/DX2 analytically  !
 ! R9    R(7,9)                  1.3885         calculate D2E/DX2 analytically  !
 ! R10   R(9,10)                 1.0813         calculate D2E/DX2 analytically  !
 ! R11   R(9,11)                 1.3857         calculate D2E/DX2 analytically  !
 ! R12   R(11,12)                1.3864         calculate D2E/DX2 analytically  !
 ! R13   R(11,16)                1.4813         calculate D2E/DX2 analytically  !
 ! R14   R(12,13)                1.0815         calculate D2E/DX2 analytically  !
 ! R15   R(12,14)                1.3883         calculate D2E/DX2 analytically  !
 ! R16   R(14,15)                1.0835         calculate D2E/DX2 analytically  !
 ! R17   R(16,17)                1.2115         calculate D2E/DX2 analytically  !
 ! R18   R(16,18)                1.2109         calculate D2E/DX2 analytically  !
 ! A1    A(2,1,4)              112.5723         calculate D2E/DX2 analytically  !
 ! A2    A(4,3,7)              122.5566         calculate D2E/DX2 analytically  !
 ! A3    A(4,3,14)             119.034          calculate D2E/DX2 analytically  !
 ! A4    A(7,3,14)             118.4094         calculate D2E/DX2 analytically  !
 ! A5    A(1,4,3)              117.5359         calculate D2E/DX2 analytically  !
 ! A6    A(1,4,5)              118.3493         calculate D2E/DX2 analytically  !
 ! A7    A(3,4,5)              124.1144         calculate D2E/DX2 analytically  !
 ! A8    A(4,5,6)              115.333          calculate D2E/DX2 analytically  !
 ! A9    A(3,7,8)              120.7408         calculate D2E/DX2 analytically  !
 ! A10   A(3,7,9)              121.4989         calculate D2E/DX2 analytically  !
 ! A11   A(8,7,9)              117.7589         calculate D2E/DX2 analytically  !
 ! A12   A(7,9,10)             122.2343         calculate D2E/DX2 analytically  !
 ! A13   A(7,9,11)             117.9318         calculate D2E/DX2 analytically  !
 ! A14   A(10,9,11)            119.8337         calculate D2E/DX2 analytically  !
 ! A15   A(9,11,12)            122.7622         calculate D2E/DX2 analytically  !
 ! A16   A(9,11,16)            118.5227         calculate D2E/DX2 analytically  !
 ! A17   A(12,11,16)           118.715          calculate D2E/DX2 analytically  !
 ! A18   A(11,12,13)           119.7532         calculate D2E/DX2 analytically  !
 ! A19   A(11,12,14)           118.113          calculate D2E/DX2 analytically  !
 ! A20   A(13,12,14)           122.1337         calculate D2E/DX2 analytically  !
 ! A21   A(3,14,12)            121.2831         calculate D2E/DX2 analytically  !
 ! A22   A(3,14,15)            118.9783         calculate D2E/DX2 analytically  !
 ! A23   A(12,14,15)           119.7385         calculate D2E/DX2 analytically  !
 ! A24   A(11,16,17)           117.4628         calculate D2E/DX2 analytically  !
 ! A25   A(11,16,18)           117.4721         calculate D2E/DX2 analytically  !
 ! A26   A(17,16,18)           125.0651         calculate D2E/DX2 analytically  !
 ! D1    D(2,1,4,3)            179.1587         calculate D2E/DX2 analytically  !
 ! D2    D(2,1,4,5)             -0.6254         calculate D2E/DX2 analytically  !
 ! D3    D(7,3,4,1)            173.7428         calculate D2E/DX2 analytically  !
 ! D4    D(7,3,4,5)             -6.4867         calculate D2E/DX2 analytically  !
 ! D5    D(14,3,4,1)            -6.1742         calculate D2E/DX2 analytically  !
 ! D6    D(14,3,4,5)           173.5963         calculate D2E/DX2 analytically  !
 ! D7    D(4,3,7,8)             -0.7458         calculate D2E/DX2 analytically  !
 ! D8    D(4,3,7,9)            179.6974         calculate D2E/DX2 analytically  !
 ! D9    D(14,3,7,8)           179.1716         calculate D2E/DX2 analytically  !
 ! D10   D(14,3,7,9)            -0.3852         calculate D2E/DX2 analytically  !
 ! D11   D(4,3,14,12)         -179.5892         calculate D2E/DX2 analytically  !
 ! D12   D(4,3,14,15)            0.3296         calculate D2E/DX2 analytically  !
 ! D13   D(7,3,14,12)            0.4904         calculate D2E/DX2 analytically  !
 ! D14   D(7,3,14,15)         -179.5908         calculate D2E/DX2 analytically  !
 ! D15   D(1,4,5,6)            177.295          calculate D2E/DX2 analytically  !
 ! D16   D(3,4,5,6)             -2.4737         calculate D2E/DX2 analytically  !
 ! D17   D(3,7,9,10)           179.9336         calculate D2E/DX2 analytically  !
 ! D18   D(3,7,9,11)             0.0732         calculate D2E/DX2 analytically  !
 ! D19   D(8,7,9,10)             0.364          calculate D2E/DX2 analytically  !
 ! D20   D(8,7,9,11)          -179.4964         calculate D2E/DX2 analytically  !
 ! D21   D(7,9,11,12)            0.1512         calculate D2E/DX2 analytically  !
 ! D22   D(7,9,11,16)         -179.9184         calculate D2E/DX2 analytically  !
 ! D23   D(10,9,11,12)        -179.7127         calculate D2E/DX2 analytically  !
 ! D24   D(10,9,11,16)           0.2177         calculate D2E/DX2 analytically  !
 ! D25   D(9,11,12,13)         179.8806         calculate D2E/DX2 analytically  !
 ! D26   D(9,11,12,14)          -0.0499         calculate D2E/DX2 analytically  !
 ! D27   D(16,11,12,13)         -0.0497         calculate D2E/DX2 analytically  !
 ! D28   D(16,11,12,14)       -179.9802         calculate D2E/DX2 analytically  !
 ! D29   D(9,11,16,17)          -0.2629         calculate D2E/DX2 analytically  !
 ! D30   D(9,11,16,18)         179.7287         calculate D2E/DX2 analytically  !
 ! D31   D(12,11,16,17)        179.6703         calculate D2E/DX2 analytically  !
 ! D32   D(12,11,16,18)         -0.338          calculate D2E/DX2 analytically  !
 ! D33   D(11,12,14,3)          -0.2787         calculate D2E/DX2 analytically  !
 ! D34   D(11,12,14,15)        179.803          calculate D2E/DX2 analytically  !
 ! D35   D(13,12,14,3)         179.7925         calculate D2E/DX2 analytically  !
 ! D36   D(13,12,14,15)         -0.1258         calculate D2E/DX2 analytically  !
 --------------------------------------------------------------------------------
 Trust Radius=3.00D-01 FncErr=5.00D-06 GrdErr=5.00D-06 EigMax=2.50D+02 EigMin=1.00D-04
 Number of steps in this run=     90 maximum allowed number of steps=    108.
 GradGradGradGradGradGradGradGradGradGradGradGradGradGradGradGradGradGrad

                          Input orientation:                          
 ---------------------------------------------------------------------
 Center     Atomic      Atomic             Coordinates (Angstroms)
 Number     Number       Type             X           Y           Z
 ---------------------------------------------------------------------
      1          8           0        8.699951    7.385038    5.368887
      2          1           0        9.530791    7.121139    5.775140
      3          6           0        6.234133    6.951278    5.182942
      4          5           0        7.656583    6.608163    5.762927
      5          8           0        7.901787    5.587278    6.635004
      6          1           0        7.129987    5.093008    6.915188
      7          6           0        5.112699    6.147668    5.414815
      8          1           0        5.193278    5.238884    6.003495
      9          6           0        3.866353    6.474633    4.897339
     10          1           0        2.992052    5.861708    5.068195
     11          6           0        3.761662    7.628095    4.136581
     12          6           0        4.843345    8.454782    3.874574
     13          1           0        4.706716    9.342893    3.272740
     14          6           0        6.078318    8.103209    4.402321
     15          1           0        6.942201    8.728715    4.211317
     16          7           0        2.437738    7.990338    3.579631
     17          8           0        1.509690    7.248854    3.817505
     18          8           0        2.366904    9.004628    2.922052
 ---------------------------------------------------------------------
                    Distance matrix (angstroms):
                    1          2          3          4          5
     1  O    0.000000
     2  H    0.961758   0.000000
     3  C    2.510574   3.353730   0.000000
     4  B    1.359198   1.943180   1.574000   0.000000
     5  O    2.339243   2.397029   2.598086   1.364862   0.000000
     6  H    3.179502   3.343185   2.693770   1.975020   0.958374
     7  C    3.794940   4.538394   1.398988   2.608560   3.095466
     8  H    4.159983   4.733820   2.165405   2.828545   2.802892
     9  C    4.941140   5.768393   2.432106   3.890105   4.482366
    10  H    5.915324   6.696346   3.422195   4.774693   5.160979
    11  C    5.095523   6.018698   2.768766   4.342312   5.248589
    12  C    4.272088   5.230956   2.430358   3.858780   5.019624
    13  H    4.916600   5.871107   3.420774   4.730908   5.968077
    14  C    2.884957   3.843002   1.400212   2.564631   3.826202
    15  H    2.497022   3.425002   2.145856   2.722972   4.082118
    16  N    6.540882   7.475772   4.250043   5.823533   6.705657
    17  O    7.356982   8.257524   4.926797   6.479155   7.180393
    18  O    6.979796   7.937816   4.927812   6.464853   7.489941
                    6          7          8          9         10
     6  H    0.000000
     7  C    2.726330   0.000000
     8  H    2.145532   1.085783   0.000000
     9  C    4.078224   1.388548   2.124003   0.000000
    10  H    4.596171   2.167732   2.471455   1.081328   0.000000
    11  C    5.049053   2.377151   3.353091   1.385708   2.140170
    12  C    5.076967   2.787054   3.872565   2.433424   3.402359
    13  H    6.099278   3.868174   4.953449   3.401830   4.275790
    14  C    4.059781   2.404518   3.398737   2.791074   3.872048
    15  H    4.534815   3.384862   4.295294   3.874578   4.955567
    16  N    6.444972   3.730784   4.586787   2.464682   2.655965
    17  O    6.769863   4.092149   4.731527   2.705424   2.384491
    18  O    7.343900   4.681397   5.627123   3.542736   3.856771
                   11         12         13         14         15
    11  C    0.000000
    12  C    1.386397   0.000000
    13  H    2.140066   1.081486   0.000000
    14  C    2.379758   1.388265   2.166578   0.000000
    15  H    3.366419   2.143276   2.501107   1.083529   0.000000
    16  N    1.481279   2.467721   2.659295   3.734084   4.608081
    17  O    2.305865   3.545529   3.860407   4.684474   5.644223
    18  O    2.305488   2.709684   2.390005   4.096138   4.761478
                   16         17         18
    16  N    0.000000
    17  O    1.211468   0.000000
    18  O    1.210872   2.149278   0.000000
 Symmetry turned off by external request.
 Stoichiometry    C6H6BNO4
 Framework group  C1[X(C6H6BNO4)]
 Deg. of freedom    48
 Full point group                 C1      NOp   1
 Rotational constants (GHZ):           2.8969917           0.4508952           0.3904483
 Standard basis: 6-311+G(d,p) (5D, 7F)
   300 basis functions,   480 primitive gaussians,   312 cartesian basis functions
    43 alpha electrons       43 beta electrons
       nuclear repulsion energy       641.1245145872 Hartrees.
 NAtoms=   18 NActive=   18 NUniq=   18 SFac= 1.00D+00 NAtFMM=   60 NAOKFM=F Big=F
 Integral buffers will be    131072 words long.
 Raffenetti 2 integral format.
 Two-electron integral symmetry is turned off.
 Force inversion solution in PCM.
 ------------------------------------------------------------------------------
 Polarizable Continuum Model (PCM)
 =================================
 Model                : PCM.
 Atomic radii         : SMD-Coulomb.
 Polarization charges : Total charges.
 Charge compensation  : None.
 Solution method      : Matrix inversion.
 Cavity type          : VdW (van der Waals Surface) (Alpha=1.000).
 Cavity algorithm     : GePol (No added spheres)
                        Default sphere list used, NSphG=   18.
                        Lebedev-Laikov grids with approx.  5.0 points / Ang**2.
                        Smoothing algorithm: York/Karplus (Gamma=1.0000).
                        Polarization charges: spherical gaussians, with
                                              point-specific exponents (IZeta= 3).
                        Self-potential: point-specific (ISelfS= 7).
                        Self-field    : sphere-specific E.n sum rule (ISelfD= 2).
 1st derivatives      : Analytical E(r).r(x)/FMM algorithm (CHGder, D1EAlg=3).
                        Cavity 1st derivative terms included.
 2nd derivatives      : Analytical E(r).r(xy)/FMM algorithm (CHGder, D2EAlg=3).
                        Cavity 2nd derivative terms included.
 Solvent              : TetraHydroFuran, Eps=   7.425700 Eps(inf)=   1.974025
 ------------------------------------------------------------------------------
 Spheres list:
 ISph  on   Nord     Re0    Alpha      Xe            Ye            Ze
    1   O      1    2.2940  1.000      8.699951      7.385038      5.368887
    2   H      2    1.2000  1.000      9.530791      7.121139      5.775140
    3   C      3    1.8500  1.000      6.234133      6.951278      5.182942
    4   B      4    1.8000  1.000      7.656583      6.608163      5.762927
    5   O      5    2.2940  1.000      7.901787      5.587278      6.635004
    6   H      6    1.2000  1.000      7.129987      5.093008      6.915188
    7   C      7    1.8500  1.000      5.112699      6.147668      5.414815
    8   H      8    1.2000  1.000      5.193278      5.238884      6.003495
    9   C      9    1.8500  1.000      3.866353      6.474633      4.897339
   10   H     10    1.2000  1.000      2.992052      5.861708      5.068195
   11   C     11    1.8500  1.000      3.761662      7.628095      4.136581
   12   C     12    1.8500  1.000      4.843345      8.454782      3.874574
   13   H     13    1.2000  1.000      4.706716      9.342893      3.272740
   14   C     14    1.8500  1.000      6.078318      8.103209      4.402321
   15   H     15    1.2000  1.000      6.942201      8.728715      4.211317
   16   N     16    1.8900  1.000      2.437738      7.990338      3.579631
   17   O     17    2.2940  1.000      1.509690      7.248854      3.817505
   18   O     18    2.2940  1.000      2.366904      9.004628      2.922052
 ------------------------------------------------------------------------------
 ------------------------------------------------------------------------------
 Atomic radii for non-electrostatic terms: SMD-CDS.
 ------------------------------------------------------------------------------
 Nuclear repulsion after PCM non-electrostatic terms =      641.1203136888 Hartrees.
 One-electron integrals computed using PRISM.
 NBasis=   300 RedAO= T EigKep=  1.70D-06  NBF=   300
 NBsUse=   300 1.00D-06 EigRej= -1.00D+00 NBFU=   300
 ExpMin= 3.15D-02 ExpMax= 8.59D+03 ExpMxC= 1.30D+03 IAcc=3 IRadAn=         5 AccDes= 0.00D+00
 Harris functional with IExCor= 1009 and IRadAn=       5 diagonalized for initial guess.
 HarFok:  IExCor= 1009 AccDes= 0.00D+00 IRadAn=         5 IDoV= 1 UseB2=F ITyADJ=14
 ICtDFT=  3500011 ScaDFX=  1.000000  1.000000  1.000000  1.000000
 FoFCou: FMM=F IPFlag=           0 FMFlag=      100000 FMFlg1=           0
         NFxFlg=           0 DoJE=T BraDBF=F KetDBF=T FulRan=T
         wScrn=  0.000000 ICntrl=       500 IOpCl=  0 I1Cent=   200000004 NGrid=           0
         NMat0=    1 NMatS0=      1 NMatT0=    0 NMatD0=    1 NMtDS0=    0 NMtDT0=    0
 Symmetry not used in FoFCou.
 Requested convergence on RMS density matrix=1.00D-08 within 128 cycles.
 Requested convergence on MAX density matrix=1.00D-06.
 Requested convergence on             energy=1.00D-06.
 Level shift goal  0.100 maximum shift  0.100.
 No special actions if energy rises.
 Dynamic level shift is on during FON iterations.
 Inv3:  Mode=1 IEnd=     9709203.
 Iteration    1 A*A^-1 deviation from unit magnitude is 5.66D-15 for   1791.
 Iteration    1 A*A^-1 deviation from orthogonality  is 1.95D-15 for   1797   1657.
 Iteration    1 A^-1*A deviation from unit magnitude is 5.22D-15 for   1791.
 Iteration    1 A^-1*A deviation from orthogonality  is 2.00D-15 for   1799   1557.
 Error on total polarization charges =  0.01503
 SCF Done:  E(RM062X) =  -612.730182399     A.U. after   15 cycles
            NFock= 15  Conv=0.43D-08     -V/T= 2.0033
 SMD-CDS (non-electrostatic) energy       (kcal/mol) =      -2.64
 (included in total energy above)
 DoSCS=F DFT=T ScalE2(SS,OS)=  1.000000  1.000000
 Range of M.O.s used for correlation:     1   300
 NBasis=   300 NAE=    43 NBE=    43 NFC=     0 NFV=     0
 NROrb=    300 NOA=    43 NOB=    43 NVA=   257 NVB=   257

 **** Warning!!: The largest alpha MO coefficient is  0.21410774D+03

 Symmetrizing basis deriv contribution to polar:
 IMax=3 JMax=2 DiffMx= 0.00D+00
 G2DrvN: will do    19 centers at a time, making    1 passes.
 Calling FoFCou, ICntrl=  3107 FMM=F I1Cent=   0 AccDes= 0.00D+00.
 NEqPCM:  Using equilibrium solvation (IEInf=0, Eps=   7.4257, EpsInf=   1.9740)
 G2PCM: DoFxE=T DoFxN=T DoGrad=T DoDP/DQ/DG/TGxP=FFFF NFrqRd=   0 IEInf=0 SqF1=F DoCFld=F IF1Alg=4.
 End of G2Drv F.D. properties file   721 does not exist.
 End of G2Drv F.D. properties file   722 does not exist.
 End of G2Drv F.D. properties file   788 does not exist.
          IDoAtm=111111111111111111
 NEqPCM:  Using equilibrium solvation (IEInf=0, Eps=   7.4257, EpsInf=   1.9740)
          Differentiating once with respect to nuclear coordinates.
 Keep R1 ints in memory in canonical form, NReq=1055899764.
          There are    57 degrees of freedom in the 1st order CPHF.  IDoFFX=6 NUNeed=     0.
     51 vectors produced by pass  0 Test12= 1.94D-14 1.75D-09 XBig12= 2.42D-01 1.15D-01.
 AX will form    51 AO Fock derivatives at one time.
     51 vectors produced by pass  1 Test12= 1.94D-14 1.75D-09 XBig12= 1.84D-02 3.26D-02.
     51 vectors produced by pass  2 Test12= 1.94D-14 1.75D-09 XBig12= 4.49D-04 3.30D-03.
     51 vectors produced by pass  3 Test12= 1.94D-14 1.75D-09 XBig12= 3.45D-06 2.53D-04.
     51 vectors produced by pass  4 Test12= 1.94D-14 1.75D-09 XBig12= 2.85D-08 2.07D-05.
     51 vectors produced by pass  5 Test12= 1.94D-14 1.75D-09 XBig12= 1.67D-10 1.88D-06.
     51 vectors produced by pass  6 Test12= 1.94D-14 1.75D-09 XBig12= 6.68D-13 1.00D-07.
     19 vectors produced by pass  7 Test12= 1.94D-14 1.75D-09 XBig12= 2.70D-15 4.44D-09.
 InvSVY:  IOpt=1 It=  1 EMax= 7.77D-16
 Solved reduced A of dimension   376 with    57 vectors.
 End of Minotr F.D. properties file   721 does not exist.
 End of Minotr F.D. properties file   722 does not exist.
 End of Minotr F.D. properties file   788 does not exist.

 **********************************************************************

            Population analysis using the SCF Density.

 **********************************************************************

 Alpha  occ. eigenvalues --  -19.67313 -19.67293 -19.64265 -19.63758 -15.01175
 Alpha  occ. eigenvalues --  -10.61304 -10.57069 -10.56947 -10.56676 -10.56221
 Alpha  occ. eigenvalues --  -10.55085  -7.09315  -1.38861  -1.20144  -1.17440
 Alpha  occ. eigenvalues --   -1.13806  -0.99985  -0.90971  -0.86946  -0.79903
 Alpha  occ. eigenvalues --   -0.71775  -0.69299  -0.66245  -0.65747  -0.64138
 Alpha  occ. eigenvalues --   -0.63557  -0.61725  -0.57261  -0.54054  -0.53195
 Alpha  occ. eigenvalues --   -0.51240  -0.49078  -0.48790  -0.46349  -0.45883
 Alpha  occ. eigenvalues --   -0.42272  -0.41153  -0.40900  -0.39682  -0.39500
 Alpha  occ. eigenvalues --   -0.39494  -0.33751  -0.33088
 Alpha virt. eigenvalues --   -0.06565  -0.00189   0.00028   0.01497   0.01868
 Alpha virt. eigenvalues --    0.02030   0.02901   0.04254   0.04659   0.04777
 Alpha virt. eigenvalues --    0.07642   0.07857   0.08139   0.09106   0.09553
 Alpha virt. eigenvalues --    0.10953   0.12148   0.12750   0.13470   0.13690
 Alpha virt. eigenvalues --    0.13979   0.14338   0.14659   0.15533   0.16324
 Alpha virt. eigenvalues --    0.17064   0.17212   0.17648   0.18039   0.18430
 Alpha virt. eigenvalues --    0.20014   0.20597   0.21037   0.21906   0.22261
 Alpha virt. eigenvalues --    0.22857   0.23094   0.23359   0.23714   0.24303
 Alpha virt. eigenvalues --    0.24607   0.24987   0.25078   0.25475   0.26382
 Alpha virt. eigenvalues --    0.28038   0.28405   0.28934   0.29542   0.31190
 Alpha virt. eigenvalues --    0.31731   0.32510   0.32547   0.33579   0.34363
 Alpha virt. eigenvalues --    0.35011   0.36022   0.36953   0.38961   0.39036
 Alpha virt. eigenvalues --    0.40770   0.42114   0.43002   0.45065   0.46312
 Alpha virt. eigenvalues --    0.47404   0.48893   0.50663   0.51307   0.51619
 Alpha virt. eigenvalues --    0.52759   0.53283   0.55950   0.56152   0.57980
 Alpha virt. eigenvalues --    0.58836   0.60754   0.62136   0.62646   0.63388
 Alpha virt. eigenvalues --    0.64063   0.66192   0.66420   0.68259   0.69633
 Alpha virt. eigenvalues --    0.70242   0.71417   0.72142   0.73077   0.75493
 Alpha virt. eigenvalues --    0.77272   0.79571   0.82652   0.83360   0.85248
 Alpha virt. eigenvalues --    0.88211   0.88833   0.89807   0.91629   0.92075
 Alpha virt. eigenvalues --    0.92804   0.94149   0.94805   0.98954   0.99754
 Alpha virt. eigenvalues --    1.01755   1.04797   1.05600   1.06396   1.06972
 Alpha virt. eigenvalues --    1.08872   1.09593   1.10519   1.12269   1.12422
 Alpha virt. eigenvalues --    1.13131   1.15546   1.16118   1.19306   1.20406
 Alpha virt. eigenvalues --    1.21314   1.22591   1.24813   1.26589   1.27766
 Alpha virt. eigenvalues --    1.31129   1.32623   1.34577   1.36252   1.37955
 Alpha virt. eigenvalues --    1.38675   1.45884   1.47134   1.50063   1.51318
 Alpha virt. eigenvalues --    1.54192   1.55602   1.58502   1.59900   1.60699
 Alpha virt. eigenvalues --    1.61251   1.64985   1.65923   1.68622   1.70014
 Alpha virt. eigenvalues --    1.74884   1.75271   1.76321   1.77721   1.80246
 Alpha virt. eigenvalues --    1.82788   1.84472   1.86672   1.86976   1.89012
 Alpha virt. eigenvalues --    1.94214   1.96248   1.96863   1.97563   1.98538
 Alpha virt. eigenvalues --    1.99795   2.03154   2.05196   2.10193   2.11158
 Alpha virt. eigenvalues --    2.12453   2.14290   2.16065   2.21317   2.25244
 Alpha virt. eigenvalues --    2.32097   2.33191   2.35623   2.43155   2.45181
 Alpha virt. eigenvalues --    2.46704   2.50029   2.56246   2.57122   2.59535
 Alpha virt. eigenvalues --    2.61386   2.64208   2.66056   2.69394   2.70335
 Alpha virt. eigenvalues --    2.74815   2.79065   2.79610   2.80290   2.80512
 Alpha virt. eigenvalues --    2.81191   2.82277   2.83135   2.85733   2.89449
 Alpha virt. eigenvalues --    2.93915   2.94028   2.94458   2.96713   2.99098
 Alpha virt. eigenvalues --    3.06622   3.10801   3.12560   3.18053   3.23805
 Alpha virt. eigenvalues --    3.26377   3.27829   3.28738   3.30940   3.38882
 Alpha virt. eigenvalues --    3.39820   3.44476   3.45798   3.48550   3.53945
 Alpha virt. eigenvalues --    3.55211   3.59896   3.60615   3.63730   3.65837
 Alpha virt. eigenvalues --    3.76267   3.82787   3.86398   3.88913   3.93293
 Alpha virt. eigenvalues --    3.94912   4.04682   4.09865   4.19524   4.22148
 Alpha virt. eigenvalues --    4.63708   4.79160   4.84254   5.07758   5.08802
 Alpha virt. eigenvalues --    5.09736   5.12440   5.22221   5.29245   5.39397
 Alpha virt. eigenvalues --    5.49101   5.68777   5.76813   5.81983   6.35518
 Alpha virt. eigenvalues --   14.79031  23.65690  24.00978  24.02283  24.12615
 Alpha virt. eigenvalues --   24.17568  24.25256  35.49615  50.00194  50.00381
 Alpha virt. eigenvalues --   50.05086  50.11953
          Condensed to atoms (all electrons):
               1          2          3          4          5          6
     1  O    7.765462   0.286012   0.023608   0.446897  -0.128119   0.017962
     2  H    0.286012   0.412562   0.053939  -0.006686  -0.030032   0.002639
     3  C    0.023608   0.053939  11.108460   0.238946  -0.215373   0.018289
     4  B    0.446897  -0.006686   0.238946   3.334085   0.380723   0.016052
     5  O   -0.128119  -0.030032  -0.215373   0.380723   7.964013   0.268524
     6  H    0.017962   0.002639   0.018289   0.016052   0.268524   0.394039
     7  C    0.052573   0.003892  -0.299925   0.130544   0.015147  -0.054417
     8  H    0.001983  -0.000014  -0.010624   0.008389  -0.003850   0.007708
     9  C    0.044402   0.007278  -1.601129   0.019495   0.017369   0.040327
    10  H   -0.000035  -0.000001  -0.013599  -0.000357   0.000222  -0.000037
    11  C   -0.018976  -0.002840  -2.645959  -0.038536   0.017471  -0.004129
    12  C   -0.002286  -0.022130  -1.901380  -0.009499   0.048638  -0.007778
    13  H    0.000309   0.000002  -0.002357  -0.000110  -0.000024   0.000002
    14  C   -0.114105  -0.035954   1.289552  -0.034021   0.049146   0.013917
    15  H    0.003403  -0.000420   0.024118  -0.009020   0.002065  -0.000064
    16  N    0.000472   0.000008   0.047173   0.002504   0.000000   0.000033
    17  O    0.000004   0.000000   0.013131   0.001794   0.000009   0.000003
    18  O   -0.000023   0.000000   0.009443   0.001174   0.000005   0.000000
               7          8          9         10         11         12
     1  O    0.052573   0.001983   0.044402  -0.000035  -0.018976  -0.002286
     2  H    0.003892  -0.000014   0.007278  -0.000001  -0.002840  -0.022130
     3  C   -0.299925  -0.010624  -1.601129  -0.013599  -2.645959  -1.901380
     4  B    0.130544   0.008389   0.019495  -0.000357  -0.038536  -0.009499
     5  O    0.015147  -0.003850   0.017369   0.000222   0.017471   0.048638
     6  H   -0.054417   0.007708   0.040327  -0.000037  -0.004129  -0.007778
     7  C   15.732056   0.304297  -3.722004   0.014146  -1.801608  -1.634418
     8  H    0.304297   0.470786   0.053537  -0.004696   0.013194   0.005205
     9  C   -3.722004   0.053537  15.160035   0.316329   0.563137  -3.017490
    10  H    0.014146  -0.004696   0.316329   0.429530   0.086399  -0.017526
    11  C   -1.801608   0.013194   0.563137   0.086399  13.334474   0.765456
    12  C   -1.634418   0.005205  -3.017490  -0.017526   0.765456  14.807682
    13  H   -0.007167   0.000040  -0.015809  -0.000052   0.069783   0.326953
    14  C   -2.596878  -0.028854  -2.115933  -0.003876  -2.490698  -3.621581
    15  H   -0.011387  -0.000033   0.005571   0.000030   0.010219   0.007535
    16  N    0.014994  -0.001534   0.054230  -0.027803  -0.685536   0.046204
    17  O    0.272173   0.000143   0.098885   0.010669  -0.521722  -0.031683
    18  O    0.033324   0.000016  -0.049337  -0.001341  -0.529026   0.089912
              13         14         15         16         17         18
     1  O    0.000309  -0.114105   0.003403   0.000472   0.000004  -0.000023
     2  H    0.000002  -0.035954  -0.000420   0.000008   0.000000   0.000000
     3  C   -0.002357   1.289552   0.024118   0.047173   0.013131   0.009443
     4  B   -0.000110  -0.034021  -0.009020   0.002504   0.001794   0.001174
     5  O   -0.000024   0.049146   0.002065   0.000000   0.000009   0.000005
     6  H    0.000002   0.013917  -0.000064   0.000033   0.000003   0.000000
     7  C   -0.007167  -2.596878  -0.011387   0.014994   0.272173   0.033324
     8  H    0.000040  -0.028854  -0.000033  -0.001534   0.000143   0.000016
     9  C   -0.015809  -2.115933   0.005571   0.054230   0.098885  -0.049337
    10  H   -0.000052  -0.003876   0.000030  -0.027803   0.010669  -0.001341
    11  C    0.069783  -2.490698   0.010219  -0.685536  -0.521722  -0.529026
    12  C    0.326953  -3.621581   0.007535   0.046204  -0.031683   0.089912
    13  H    0.428840   0.009178  -0.004337  -0.027369  -0.001316   0.010747
    14  C    0.009178  15.514268   0.318951   0.057037   0.028718   0.306131
    15  H   -0.004337   0.318951   0.444552  -0.001224   0.000023   0.000010
    16  N   -0.027369   0.057037  -0.001224   7.094536   0.300027   0.304688
    17  O   -0.001316   0.028718   0.000023   0.300027   7.892482  -0.025021
    18  O    0.010747   0.306131   0.000010   0.304688  -0.025021   7.883892
 Mulliken charges:
               1
     1  O   -0.379544
     2  H    0.331744
     3  C   -0.136314
     4  B    0.517625
     5  O   -0.385936
     6  H    0.286929
     7  C   -0.445343
     8  H    0.184305
     9  C    0.141110
    10  H    0.212000
    11  C   -0.121102
    12  C    0.168186
    13  H    0.212687
    14  C   -0.544997
    15  H    0.210007
    16  N   -0.178441
    17  O   -0.038319
    18  O   -0.034595
 Sum of Mulliken charges =   0.00000
 Mulliken charges with hydrogens summed into heavy atoms:
               1
     1  O   -0.047800
     3  C   -0.136314
     4  B    0.517625
     5  O   -0.099007
     7  C   -0.261039
     9  C    0.353110
    11  C   -0.121102
    12  C    0.380872
    14  C   -0.334990
    16  N   -0.178441
    17  O   -0.038319
    18  O   -0.034595
 APT charges:
               1
     1  O   -0.688919
     2  H    2.118773
     3  C   -1.305195
     4  B   -0.358737
     5  O    1.206909
     6  H   -0.979926
     7  C   -0.111097
     8  H   -0.030841
     9  C    0.973321
    10  H   -0.740274
    11  C   -1.462085
    12  C   -1.281465
    13  H    1.125049
    14  C   -0.184928
    15  H    1.827992
    16  N    0.666009
    17  O   -0.991490
    18  O    0.216904
 Sum of APT charges =   0.00000
 APT charges with hydrogens summed into heavy atoms:
               1
     1  O    1.429854
     3  C   -1.305195
     4  B   -0.358737
     5  O    0.226983
     7  C   -0.141938
     9  C    0.233047
    11  C   -1.462085
    12  C   -0.156416
    14  C    1.643065
    16  N    0.666009
    17  O   -0.991490
    18  O    0.216904
 Electronic spatial extent (au):  <R**2>=          33436.6015
 Charge=              0.0000 electrons
 Dipole moment (field-independent basis, Debye):
    X=              4.1402    Y=             -2.5304    Z=              2.9625  Tot=              5.6851
 Quadrupole moment (field-independent basis, Debye-Ang):
   XX=            -39.7041   YY=           -101.9157   ZZ=            -41.5813
   XY=             22.1962   XZ=             28.8903   YZ=              7.3306
 Traceless Quadrupole moment (field-independent basis, Debye-Ang):
   XX=             21.3629   YY=            -40.8487   ZZ=             19.4858
   XY=             22.1962   XZ=             28.8903   YZ=              7.3306
 Octapole moment (field-independent basis, Debye-Ang**2):
  XXX=           -821.2949  YYY=          -1837.6026  ZZZ=           -771.3659  XYY=           -221.6064
  XXY=           -315.3423  XXZ=           -132.3340  XZZ=           -161.6784  YZZ=           -392.0784
  YYZ=           -342.7600  XYZ=            153.1552
 Hexadecapole moment (field-independent basis, Debye-Ang**3):
 XXXX=         -10539.7743 YYYY=         -25473.9961 ZZZZ=          -8276.2162 XXXY=          -5851.5381
 XXXZ=          -3801.0184 YYYX=          -6622.2036 YYYZ=          -7408.8678 ZZZX=          -4112.7671
 ZZZY=          -6006.7018 XXYY=          -4603.6806 XXZZ=          -2538.3658 YYZZ=          -4973.7056
 XXYZ=          -1115.2950 YYXZ=           -918.8530 ZZXY=          -1504.1852
 N-N= 6.411203136888D+02 E-N=-2.716938735108D+03  KE= 6.106977388522D+02
  Exact polarizability:       0.000       0.000       0.000       0.000       0.000       0.000
 Approx polarizability:     153.245      10.433     134.317      12.869     -37.328     100.580
 D2PCM: PCM CHGder 2nd derivatives, FixD1E=F FixD2E=F DoIter=F DoCFld=F I1PDM=0
 Calling FoFJK, ICntrl=    100127 FMM=F ISym2X=0 I1Cent= 0 IOpClX= 0 NMat=1 NMatS=1 NMatT=0.
 -------------------------------------------------------------------
 Center     Atomic                   Forces (Hartrees/Bohr)
 Number     Number              X              Y              Z
 -------------------------------------------------------------------
      1        8          -0.000954399    0.001555233   -0.001676479
      2        1           0.002530985   -0.000668013    0.001141607
      3        6          -0.001239827    0.000540281   -0.000759925
      4        5          -0.000531373   -0.001744697    0.001399959
      5        8           0.003140187    0.002226969   -0.001000593
      6        1          -0.003098226   -0.001956035    0.000847085
      7        6          -0.000114008   -0.001717989    0.000981477
      8        1          -0.000486008    0.000193695   -0.000184292
      9        6          -0.000624629    0.000393459   -0.000540489
     10        1           0.000683969   -0.001046392    0.000861588
     11        6          -0.000365265   -0.000004623   -0.000022835
     12        6          -0.000514915    0.000865979   -0.000680022
     13        1           0.001299783    0.000458187    0.000034308
     14        6           0.000157290    0.000075787    0.000038003
     15        1          -0.000595257    0.000802990   -0.000599992
     16        7           0.007997659   -0.002349106    0.003435623
     17        8          -0.003858174    0.000539956   -0.001238374
     18        8          -0.003427792    0.001834322   -0.002036650
 -------------------------------------------------------------------
 Cartesian Forces:  Max     0.007997659 RMS     0.001833285
 FormGI is forming the generalized inverse of G from B-inverse, IUseBI=4.

 GradGradGradGradGradGradGradGradGradGradGradGradGradGradGradGradGradGrad
 Berny optimization.
 Internal  Forces:  Max     0.005085276 RMS     0.001115288
 Search for a local minimum.
 Step number   1 out of a maximum of   90
 All quantities printed in internal units (Hartrees-Bohrs-Radians)
 Mixed Optimization -- RFO/linear search
 Second derivative matrix not updated -- analytic derivatives used.
 ITU=  0
     Eigenvalues ---    0.00042   0.00082   0.01016   0.01212   0.01466
     Eigenvalues ---    0.01604   0.01717   0.01848   0.02158   0.02370
     Eigenvalues ---    0.02635   0.02763   0.02872   0.03848   0.10489
     Eigenvalues ---    0.10798   0.11170   0.11327   0.11346   0.11965
     Eigenvalues ---    0.12671   0.15935   0.17257   0.18186   0.18454
     Eigenvalues ---    0.19271   0.20156   0.23450   0.24966   0.27138
     Eigenvalues ---    0.29067   0.35506   0.35994   0.36659   0.37037
     Eigenvalues ---    0.38819   0.39523   0.40004   0.42917   0.45617
     Eigenvalues ---    0.48470   0.48713   0.49683   0.52780   0.54521
     Eigenvalues ---    0.55652   0.63349   0.87018
 RFO step:  Lambda=-3.32812937D-04 EMin= 4.22431237D-04
 Linear search not attempted -- first point.
 Iteration  1 RMS(Cart)=  0.02469071 RMS(Int)=  0.00032415
 Iteration  2 RMS(Cart)=  0.00038692 RMS(Int)=  0.00000334
 Iteration  3 RMS(Cart)=  0.00000012 RMS(Int)=  0.00000334
 Variable       Old X    -DE/DX   Delta X   Delta X   Delta X     New X
                                 (Linear)    (Quad)   (Total)
    R1        1.81746   0.00285   0.00000   0.00522   0.00522   1.82268
    R2        2.56851   0.00189   0.00000   0.00402   0.00402   2.57253
    R3        2.97443   0.00138   0.00000   0.00495   0.00495   2.97937
    R4        2.64370   0.00071   0.00000   0.00132   0.00132   2.64503
    R5        2.64602   0.00107   0.00000   0.00088   0.00088   2.64690
    R6        2.57922  -0.00030   0.00000  -0.00150  -0.00150   2.57772
    R7        1.81106   0.00374   0.00000   0.00696   0.00696   1.81803
    R8        2.05183  -0.00030   0.00000  -0.00099  -0.00099   2.05085
    R9        2.62398  -0.00026   0.00000   0.00026   0.00025   2.62423
   R10        2.04341   0.00018   0.00000   0.00040   0.00040   2.04382
   R11        2.61861   0.00128   0.00000   0.00195   0.00195   2.62056
   R12        2.61991   0.00097   0.00000   0.00193   0.00193   2.62184
   R13        2.79921  -0.00069   0.00000  -0.00877  -0.00877   2.79044
   R14        2.04371   0.00019   0.00000   0.00023   0.00023   2.04394
   R15        2.62344  -0.00057   0.00000  -0.00020  -0.00020   2.62324
   R16        2.04757   0.00009   0.00000   0.00029   0.00029   2.04786
   R17        2.28934   0.00239   0.00000   0.00437   0.00437   2.29371
   R18        2.28822   0.00283   0.00000   0.00497   0.00497   2.29319
    A1        1.96476   0.00029   0.00000   0.00063   0.00063   1.96539
    A2        2.13902  -0.00076   0.00000  -0.00526  -0.00526   2.13376
    A3        2.07754   0.00038   0.00000   0.00420   0.00420   2.08173
    A4        2.06663   0.00038   0.00000   0.00106   0.00106   2.06770
    A5        2.05139   0.00010   0.00000   0.00000   0.00000   2.05138
    A6        2.06559  -0.00005   0.00000   0.00173   0.00173   2.06732
    A7        2.16620  -0.00005   0.00000  -0.00173  -0.00174   2.16447
    A8        2.01294  -0.00031   0.00000  -0.00418  -0.00418   2.00877
    A9        2.10732   0.00072   0.00000   0.00394   0.00394   2.11127
   A10        2.12056  -0.00049   0.00000  -0.00196  -0.00196   2.11860
   A11        2.05528  -0.00023   0.00000  -0.00199  -0.00199   2.05329
   A12        2.13339  -0.00160   0.00000  -0.01267  -0.01267   2.12072
   A13        2.05830   0.00010   0.00000   0.00108   0.00107   2.05937
   A14        2.09149   0.00150   0.00000   0.01159   0.01159   2.10309
   A15        2.14260   0.00026   0.00000   0.00035   0.00035   2.14295
   A16        2.06861   0.00011   0.00000   0.00029   0.00029   2.06890
   A17        2.07197  -0.00037   0.00000  -0.00063  -0.00063   2.07133
   A18        2.09009   0.00162   0.00000   0.01240   0.01240   2.10249
   A19        2.06146  -0.00047   0.00000  -0.00162  -0.00162   2.05984
   A20        2.13164  -0.00115   0.00000  -0.01078  -0.01078   2.12085
   A21        2.11679   0.00021   0.00000   0.00107   0.00107   2.11786
   A22        2.07656   0.00109   0.00000   0.00882   0.00882   2.08538
   A23        2.08983  -0.00130   0.00000  -0.00990  -0.00990   2.07993
   A24        2.05011   0.00250   0.00000   0.00746   0.00746   2.05757
   A25        2.05028   0.00258   0.00000   0.00781   0.00781   2.05808
   A26        2.18280  -0.00509   0.00000  -0.01527  -0.01527   2.16753
    D1        3.12691   0.00002   0.00000  -0.00291  -0.00291   3.12400
    D2       -0.01091  -0.00003   0.00000  -0.00101  -0.00101  -0.01193
    D3        3.03238  -0.00004   0.00000  -0.03573  -0.03573   2.99665
    D4       -0.11321   0.00001   0.00000  -0.03774  -0.03774  -0.15095
    D5       -0.10776  -0.00009   0.00000  -0.03915  -0.03915  -0.14691
    D6        3.02983  -0.00003   0.00000  -0.04116  -0.04116   2.98867
    D7       -0.01302  -0.00001   0.00000  -0.00652  -0.00651  -0.01953
    D8        3.13631  -0.00005   0.00000  -0.00599  -0.00598   3.13033
    D9        3.12714   0.00004   0.00000  -0.00311  -0.00311   3.12402
   D10       -0.00672   0.00000   0.00000  -0.00258  -0.00258  -0.00931
   D11       -3.13442   0.00004   0.00000   0.00472   0.00473  -3.12969
   D12        0.00575   0.00001   0.00000   0.00281   0.00282   0.00857
   D13        0.00856   0.00000   0.00000   0.00145   0.00145   0.01001
   D14       -3.13445  -0.00003   0.00000  -0.00046  -0.00047  -3.13492
   D15        3.09438   0.00018   0.00000   0.00682   0.00682   3.10120
   D16       -0.04317   0.00013   0.00000   0.00884   0.00884  -0.03433
   D17        3.14043   0.00004   0.00000   0.00134   0.00134  -3.14141
   D18        0.00128  -0.00001   0.00000   0.00109   0.00109   0.00237
   D19        0.00635  -0.00001   0.00000   0.00183   0.00183   0.00818
   D20       -3.13280  -0.00005   0.00000   0.00158   0.00158  -3.13122
   D21        0.00264   0.00002   0.00000   0.00164   0.00164   0.00428
   D22       -3.14017   0.00003   0.00000   0.00202   0.00202  -3.13815
   D23       -3.13658  -0.00002   0.00000   0.00143   0.00143  -3.13515
   D24        0.00380  -0.00001   0.00000   0.00181   0.00181   0.00561
   D25        3.13951   0.00001   0.00000  -0.00087  -0.00086   3.13864
   D26       -0.00087  -0.00002   0.00000  -0.00273  -0.00274  -0.00361
   D27       -0.00087  -0.00001   0.00000  -0.00126  -0.00125  -0.00211
   D28       -3.14125  -0.00003   0.00000  -0.00312  -0.00312   3.13882
   D29       -0.00459   0.00005   0.00000   0.05356   0.05356   0.04897
   D30        3.13686   0.00002   0.00000   0.05298   0.05298  -3.09335
   D31        3.13584   0.00006   0.00000   0.05392   0.05392  -3.09342
   D32       -0.00590   0.00003   0.00000   0.05335   0.05335   0.04745
   D33       -0.00487   0.00002   0.00000   0.00113   0.00113  -0.00373
   D34        3.13815   0.00004   0.00000   0.00304   0.00303   3.14118
   D35        3.13797  -0.00002   0.00000  -0.00079  -0.00078   3.13719
   D36       -0.00219   0.00001   0.00000   0.00111   0.00112  -0.00108
         Item               Value     Threshold  Converged?
 Maximum Force            0.005085     0.000015     NO 
 RMS     Force            0.001115     0.000010     NO 
 Maximum Displacement     0.079092     0.000060     NO 
 RMS     Displacement     0.024717     0.000040     NO 
 Predicted change in Energy=-1.695846D-04
 GradGradGradGradGradGradGradGradGradGradGradGradGradGradGradGradGradGrad

                          Input orientation:                          
 ---------------------------------------------------------------------
 Center     Atomic      Atomic             Coordinates (Angstroms)
 Number     Number       Type             X           Y           Z
 ---------------------------------------------------------------------
      1          8           0        8.710470    7.363523    5.349248
      2          1           0        9.541345    7.102010    5.763440
      3          6           0        6.235939    6.950883    5.176581
      4          5           0        7.657950    6.606167    5.763758
      5          8           0        7.890942    5.605379    6.660877
      6          1           0        7.108863    5.123671    6.946998
      7          6           0        5.118808    6.137359    5.398667
      8          1           0        5.200695    5.221528    5.975155
      9          6           0        3.871503    6.465228    4.883717
     10          1           0        3.006959    5.838155    5.054240
     11          6           0        3.761315    7.627478    4.135332
     12          6           0        4.839903    8.462281    3.881007
     13          1           0        4.711896    9.358935    3.289819
     14          6           0        6.075321    8.110189    4.407091
     15          1           0        6.930634    8.748677    4.219634
     16          7           0        2.439600    7.989988    3.585687
     17          8           0        1.495986    7.277277    3.859359
     18          8           0        2.366058    8.981583    2.890043
 ---------------------------------------------------------------------
                    Distance matrix (angstroms):
                    1          2          3          4          5
     1  O    0.000000
     2  H    0.964519   0.000000
     3  C    2.514635   3.360498   0.000000
     4  B    1.361325   1.947572   1.576617   0.000000
     5  O    2.341595   2.401901   2.598567   1.364069   0.000000
     6  H    3.183533   3.351358   2.689809   1.974676   0.962058
     7  C    3.795518   4.541195   1.399688   2.607742   3.092072
     8  H    4.159137   4.735217   2.167976   2.828430   2.802675
     9  C    4.943608   5.772913   2.431500   3.889926   4.478117
    10  H    5.911329   6.693168   3.417520   4.767072   5.146723
    11  C    5.102686   6.027902   2.768709   4.344953   5.246054
    12  C    4.283024   5.243801   2.431410   3.864105   5.019802
    13  H    4.920519   5.876741   3.417790   4.730469   5.963182
    14  C    2.896409   3.856090   1.400680   2.570476   3.827546
    15  H    2.522400   3.451183   2.151839   2.739281   4.094165
    16  N    6.544190   7.481036   4.245336   5.821523   6.697782
    17  O    7.367224   8.269464   4.930392   6.484360   7.179081
    18  O    6.994095   7.954492   4.932340   6.473404   7.492815
                    6          7          8          9         10
     6  H    0.000000
     7  C    2.717575   0.000000
     8  H    2.143632   1.085261   0.000000
     9  C    4.066621   1.388683   2.122446   0.000000
    10  H    4.573690   2.160569   2.457802   1.081542   0.000000
    11  C    5.037915   2.378919   3.353410   1.386740   2.148283
    12  C    5.069003   2.790402   3.875320   2.435457   3.409134
    13  H    6.087517   3.871868   4.956620   3.408858   4.291373
    14  C    4.054457   2.406283   3.401199   2.791037   3.872439
    15  H    4.539928   3.389958   4.302944   3.874717   4.956100
    16  N    6.427768   3.727906   4.582311   2.461731   2.666257
    17  O    6.758396   4.098014   4.735775   2.711422   2.404548
    18  O    7.337340   4.686195   5.629484   3.545862   3.869837
                   11         12         13         14         15
    11  C    0.000000
    12  C    1.387419   0.000000
    13  H    2.148590   1.081608   0.000000
    14  C    2.379388   1.388161   2.160229   0.000000
    15  H    3.362853   2.137252   2.481887   1.083682   0.000000
    16  N    1.476636   2.464088   2.669248   3.729292   4.598574
    17  O    2.308791   3.547743   3.872951   4.686583   5.641827
    18  O    2.308914   2.715067   2.409392   4.101145   4.759979
                   16         17         18
    16  N    0.000000
    17  O    1.213779   0.000000
    18  O    1.213503   2.145053   0.000000
 Symmetry turned off by external request.
 Stoichiometry    C6H6BNO4
 Framework group  C1[X(C6H6BNO4)]
 Deg. of freedom    48
 Full point group                 C1      NOp   1
 Rotational constants (GHZ):           2.8938793           0.4503111           0.3901148
 Standard basis: 6-311+G(d,p) (5D, 7F)
   300 basis functions,   480 primitive gaussians,   312 cartesian basis functions
    43 alpha electrons       43 beta electrons
       nuclear repulsion energy       640.7159884830 Hartrees.
 NAtoms=   18 NActive=   18 NUniq=   18 SFac= 1.00D+00 NAtFMM=   60 NAOKFM=F Big=F
 Integral buffers will be    131072 words long.
 Raffenetti 2 integral format.
 Two-electron integral symmetry is turned off.
 ------------------------------------------------------------------------------
 Polarizable Continuum Model (PCM)
 =================================
 Model                : PCM.
 Atomic radii         : SMD-Coulomb.
 Polarization charges : Total charges.
 Charge compensation  : None.
 Solution method      : Matrix inversion.
 Cavity type          : VdW (van der Waals Surface) (Alpha=1.000).
 Cavity algorithm     : GePol (No added spheres)
                        Default sphere list used, NSphG=   18.
                        Lebedev-Laikov grids with approx.  5.0 points / Ang**2.
                        Smoothing algorithm: York/Karplus (Gamma=1.0000).
                        Polarization charges: spherical gaussians, with
                                              point-specific exponents (IZeta= 3).
                        Self-potential: point-specific (ISelfS= 7).
                        Self-field    : sphere-specific E.n sum rule (ISelfD= 2).
 1st derivatives      : Analytical E(r).r(x)/FMM algorithm (CHGder, D1EAlg=3).
                        Cavity 1st derivative terms included.
 Solvent              : TetraHydroFuran, Eps=   7.425700 Eps(inf)=   1.974025
 ------------------------------------------------------------------------------
 Spheres list:
 ISph  on   Nord     Re0    Alpha      Xe            Ye            Ze
    1   O      1    2.2940  1.000      8.710470      7.363523      5.349248
    2   H      2    1.2000  1.000      9.541345      7.102010      5.763440
    3   C      3    1.8500  1.000      6.235939      6.950883      5.176581
    4   B      4    1.8000  1.000      7.657950      6.606167      5.763758
    5   O      5    2.2940  1.000      7.890942      5.605379      6.660877
    6   H      6    1.2000  1.000      7.108863      5.123671      6.946998
    7   C      7    1.8500  1.000      5.118808      6.137359      5.398667
    8   H      8    1.2000  1.000      5.200695      5.221528      5.975155
    9   C      9    1.8500  1.000      3.871503      6.465228      4.883717
   10   H     10    1.2000  1.000      3.006959      5.838155      5.054240
   11   C     11    1.8500  1.000      3.761315      7.627478      4.135332
   12   C     12    1.8500  1.000      4.839903      8.462281      3.881007
   13   H     13    1.2000  1.000      4.711896      9.358935      3.289819
   14   C     14    1.8500  1.000      6.075321      8.110189      4.407091
   15   H     15    1.2000  1.000      6.930634      8.748677      4.219634
   16   N     16    1.8900  1.000      2.439600      7.989988      3.585687
   17   O     17    2.2940  1.000      1.495986      7.277277      3.859359
   18   O     18    2.2940  1.000      2.366058      8.981583      2.890043
 ------------------------------------------------------------------------------
 ------------------------------------------------------------------------------
 Atomic radii for non-electrostatic terms: SMD-CDS.
 ------------------------------------------------------------------------------
 Nuclear repulsion after PCM non-electrostatic terms =      640.7117658717 Hartrees.
 One-electron integrals computed using PRISM.
 NBasis=   300 RedAO= T EigKep=  1.76D-06  NBF=   300
 NBsUse=   300 1.00D-06 EigRej= -1.00D+00 NBFU=   300
 Initial guess from the checkpoint file:  "4-no2-phboh2-opt-freq-thf.chk"
 B after Tr=    -0.070928   -0.033630    0.128478
         Rot=    0.999991    0.003763   -0.001263    0.001723 Ang=   0.50 deg.
 ExpMin= 3.15D-02 ExpMax= 8.59D+03 ExpMxC= 1.30D+03 IAcc=3 IRadAn=         5 AccDes= 0.00D+00
 Harris functional with IExCor= 1009 and IRadAn=       5 diagonalized for initial guess.
 HarFok:  IExCor= 1009 AccDes= 0.00D+00 IRadAn=         5 IDoV= 1 UseB2=F ITyADJ=14
 ICtDFT=  3500011 ScaDFX=  1.000000  1.000000  1.000000  1.000000
 FoFCou: FMM=F IPFlag=           0 FMFlag=      100000 FMFlg1=           0
         NFxFlg=           0 DoJE=T BraDBF=F KetDBF=T FulRan=T
         wScrn=  0.000000 ICntrl=       500 IOpCl=  0 I1Cent=   200000004 NGrid=           0
         NMat0=    1 NMatS0=      1 NMatT0=    0 NMatD0=    1 NMtDS0=    0 NMtDT0=    0
 Symmetry not used in FoFCou.
 Requested convergence on RMS density matrix=1.00D-08 within 128 cycles.
 Requested convergence on MAX density matrix=1.00D-06.
 Requested convergence on             energy=1.00D-06.
 Level shift goal  0.100 maximum shift  0.100.
 No special actions if energy rises.
 Dynamic level shift is on during FON iterations.
 Inv3:  Mode=1 IEnd=     9795747.
 Iteration    1 A*A^-1 deviation from unit magnitude is 7.33D-15 for   1801.
 Iteration    1 A*A^-1 deviation from orthogonality  is 2.53D-15 for   1807   1563.
 Iteration    1 A^-1*A deviation from unit magnitude is 7.11D-15 for   1801.
 Iteration    1 A^-1*A deviation from orthogonality  is 2.83D-15 for   1807   1563.
 Error on total polarization charges =  0.01511
 SCF Done:  E(RM062X) =  -612.730348167     A.U. after   13 cycles
            NFock= 13  Conv=0.50D-08     -V/T= 2.0034
 SMD-CDS (non-electrostatic) energy       (kcal/mol) =      -2.65
 (included in total energy above)
 D1PCM: PCM CHGder 1st derivatives, ID1Alg=3 FixD1E=F DoIter=F DoCFld=F I1PDM=0.
 Calling FoFJK, ICntrl=      2127 FMM=F ISym2X=0 I1Cent= 0 IOpClX= 0 NMat=1 NMatS=1 NMatT=0.
 -------------------------------------------------------------------
 Center     Atomic                   Forces (Hartrees/Bohr)
 Number     Number              X              Y              Z
 -------------------------------------------------------------------
      1        8          -0.000020578    0.000020196   -0.000013108
      2        1           0.000021244   -0.000011802    0.000032618
      3        6          -0.000010637   -0.000002208   -0.000011402
      4        5           0.000006064   -0.000009420    0.000001108
      5        8           0.000045037    0.000033461   -0.000021068
      6        1          -0.000058137   -0.000045760    0.000001417
      7        6          -0.000005593   -0.000015457   -0.000004856
      8        1          -0.000005291   -0.000028180    0.000028425
      9        6          -0.000016196   -0.000001797   -0.000017703
     10        1          -0.000009821    0.000006941   -0.000005565
     11        6           0.000019694   -0.000005585    0.000006119
     12        6          -0.000014889    0.000008638   -0.000003079
     13        1          -0.000015739    0.000027975   -0.000010139
     14        6           0.000005026    0.000013623    0.000020009
     15        1          -0.000001142    0.000003689    0.000022598
     16        7           0.000028536   -0.000003241    0.000030281
     17        8          -0.000023646   -0.000065851   -0.000007016
     18        8           0.000056070    0.000074777   -0.000048638
 -------------------------------------------------------------------
 Cartesian Forces:  Max     0.000074777 RMS     0.000025676

 GradGradGradGradGradGradGradGradGradGradGradGradGradGradGradGradGradGrad
 Berny optimization.
 Using GEDIIS/GDIIS optimizer.
 FormGI is forming the generalized inverse of G from B-inverse, IUseBI=4.
 Internal  Forces:  Max     0.000078852 RMS     0.000025189
 Search for a local minimum.
 Step number   2 out of a maximum of   90
 All quantities printed in internal units (Hartrees-Bohrs-Radians)
 Mixed Optimization -- En-DIIS/RFO-DIIS
 Update second derivatives using D2CorX and points    1    2
 DE= -1.66D-04 DEPred=-1.70D-04 R= 9.77D-01
 TightC=F SS=  1.41D+00  RLast= 1.38D-01 DXNew= 5.0454D-01 4.1472D-01
 Trust test= 9.77D-01 RLast= 1.38D-01 DXMaxT set to 4.15D-01
 ITU=  1  0
 Use linear search instead of GDIIS.
     Eigenvalues ---    0.00045   0.00082   0.01016   0.01212   0.01466
     Eigenvalues ---    0.01604   0.01717   0.01848   0.02158   0.02370
     Eigenvalues ---    0.02635   0.02765   0.02872   0.03848   0.10482
     Eigenvalues ---    0.10799   0.11143   0.11325   0.11370   0.11965
     Eigenvalues ---    0.12672   0.15942   0.17260   0.18181   0.18449
     Eigenvalues ---    0.19240   0.20156   0.23435   0.24695   0.27139
     Eigenvalues ---    0.29065   0.35514   0.35997   0.36659   0.36995
     Eigenvalues ---    0.38822   0.39497   0.39964   0.42927   0.45688
     Eigenvalues ---    0.48454   0.48667   0.49683   0.52757   0.54330
     Eigenvalues ---    0.55459   0.63348   0.86789
 RFO step:  Lambda=-2.69914498D-06 EMin= 4.48179093D-04
 Quartic linear search produced a step of -0.01250.
 Iteration  1 RMS(Cart)=  0.01557046 RMS(Int)=  0.00009276
 Iteration  2 RMS(Cart)=  0.00013731 RMS(Int)=  0.00000033
 Iteration  3 RMS(Cart)=  0.00000001 RMS(Int)=  0.00000033
 Variable       Old X    -DE/DX   Delta X   Delta X   Delta X     New X
                                 (Linear)    (Quad)   (Total)
    R1        1.82268   0.00003  -0.00007   0.00021   0.00014   1.82282
    R2        2.57253   0.00001  -0.00005   0.00027   0.00022   2.57275
    R3        2.97937   0.00000  -0.00006   0.00057   0.00051   2.97988
    R4        2.64503   0.00004  -0.00002   0.00020   0.00018   2.64521
    R5        2.64690   0.00001  -0.00001   0.00015   0.00014   2.64704
    R6        2.57772  -0.00001   0.00002  -0.00008  -0.00006   2.57766
    R7        1.81803   0.00006  -0.00009   0.00029   0.00021   1.81823
    R8        2.05085   0.00004   0.00001   0.00005   0.00006   2.05091
    R9        2.62423   0.00002   0.00000   0.00007   0.00007   2.62430
   R10        2.04382   0.00000  -0.00001   0.00003   0.00002   2.04384
   R11        2.62056   0.00001  -0.00002   0.00000  -0.00003   2.62053
   R12        2.62184  -0.00003  -0.00002  -0.00003  -0.00006   2.62178
   R13        2.79044  -0.00004   0.00011  -0.00037  -0.00026   2.79018
   R14        2.04394   0.00003   0.00000   0.00009   0.00008   2.04403
   R15        2.62324  -0.00001   0.00000  -0.00005  -0.00005   2.62320
   R16        2.04786   0.00000   0.00000  -0.00002  -0.00003   2.04784
   R17        2.29371   0.00006  -0.00005   0.00019   0.00013   2.29384
   R18        2.29319   0.00008  -0.00006   0.00025   0.00018   2.29337
    A1        1.96539  -0.00001  -0.00001  -0.00019  -0.00020   1.96519
    A2        2.13376   0.00002   0.00007   0.00140   0.00147   2.13523
    A3        2.08173  -0.00004  -0.00005  -0.00128  -0.00133   2.08040
    A4        2.06770   0.00002  -0.00001  -0.00012  -0.00013   2.06756
    A5        2.05138   0.00000   0.00000  -0.00082  -0.00082   2.05057
    A6        2.06732   0.00001  -0.00002  -0.00061  -0.00064   2.06668
    A7        2.16447  -0.00001   0.00002   0.00144   0.00146   2.16593
    A8        2.00877  -0.00001   0.00005   0.00038   0.00043   2.00920
    A9        2.11127   0.00002  -0.00005   0.00103   0.00098   2.11224
   A10        2.11860  -0.00003   0.00002  -0.00015  -0.00012   2.11847
   A11        2.05329   0.00001   0.00002  -0.00086  -0.00084   2.05245
   A12        2.12072   0.00001   0.00016  -0.00039  -0.00023   2.12049
   A13        2.05937  -0.00001  -0.00001   0.00012   0.00011   2.05948
   A14        2.10309   0.00000  -0.00014   0.00027   0.00012   2.10321
   A15        2.14295   0.00004   0.00000   0.00012   0.00012   2.14307
   A16        2.06890   0.00003   0.00000   0.00013   0.00013   2.06902
   A17        2.07133  -0.00007   0.00001  -0.00025  -0.00024   2.07109
   A18        2.10249  -0.00001  -0.00015   0.00029   0.00014   2.10263
   A19        2.05984  -0.00002   0.00002  -0.00023  -0.00021   2.05963
   A20        2.12085   0.00003   0.00013  -0.00006   0.00008   2.12093
   A21        2.11786   0.00000  -0.00001   0.00028   0.00027   2.11813
   A22        2.08538   0.00000  -0.00011   0.00002  -0.00009   2.08529
   A23        2.07993   0.00000   0.00012  -0.00029  -0.00017   2.07976
   A24        2.05757   0.00000  -0.00009   0.00028   0.00018   2.05775
   A25        2.05808  -0.00006  -0.00010   0.00005  -0.00005   2.05803
   A26        2.16753   0.00006   0.00019  -0.00032  -0.00013   2.16740
    D1        3.12400   0.00000   0.00004   0.00284   0.00288   3.12687
    D2       -0.01193   0.00000   0.00001   0.00142   0.00143  -0.01050
    D3        2.99665   0.00001   0.00045   0.02476   0.02520   3.02186
    D4       -0.15095   0.00001   0.00047   0.02626   0.02673  -0.12422
    D5       -0.14691   0.00001   0.00049   0.02569   0.02618  -0.12073
    D6        2.98867   0.00001   0.00051   0.02719   0.02771   3.01638
    D7       -0.01953   0.00002   0.00008   0.00521   0.00529  -0.01424
    D8        3.13033   0.00002   0.00007   0.00345   0.00352   3.13385
    D9        3.12402   0.00002   0.00004   0.00428   0.00432   3.12834
   D10       -0.00931   0.00002   0.00003   0.00252   0.00255  -0.00675
   D11       -3.12969  -0.00002  -0.00006  -0.00316  -0.00322  -3.13291
   D12        0.00857  -0.00001  -0.00004  -0.00230  -0.00233   0.00624
   D13        0.01001  -0.00002  -0.00002  -0.00226  -0.00228   0.00773
   D14       -3.13492  -0.00001   0.00001  -0.00139  -0.00139  -3.13631
   D15        3.10120   0.00001  -0.00009   0.00635   0.00626   3.10746
   D16       -0.03433   0.00001  -0.00011   0.00483   0.00472  -0.02961
   D17       -3.14141   0.00000  -0.00002   0.00009   0.00008  -3.14134
   D18        0.00237   0.00000  -0.00001  -0.00068  -0.00070   0.00167
   D19        0.00818   0.00000  -0.00002  -0.00162  -0.00164   0.00654
   D20       -3.13122   0.00000  -0.00002  -0.00239  -0.00241  -3.13364
   D21        0.00428  -0.00001  -0.00002  -0.00152  -0.00154   0.00274
   D22       -3.13815  -0.00002  -0.00003  -0.00177  -0.00180  -3.13994
   D23       -3.13515  -0.00001  -0.00002  -0.00229  -0.00231  -3.13746
   D24        0.00561  -0.00002  -0.00002  -0.00254  -0.00256   0.00305
   D25        3.13864   0.00000   0.00001   0.00112   0.00113   3.13978
   D26       -0.00361   0.00001   0.00003   0.00177   0.00180  -0.00180
   D27       -0.00211   0.00001   0.00002   0.00137   0.00138  -0.00073
   D28        3.13882   0.00002   0.00004   0.00202   0.00206   3.14087
   D29        0.04897  -0.00002  -0.00067  -0.02265  -0.02331   0.02565
   D30       -3.09335   0.00001  -0.00066  -0.02210  -0.02276  -3.11611
   D31       -3.09342  -0.00003  -0.00067  -0.02288  -0.02356  -3.11698
   D32        0.04745   0.00001  -0.00067  -0.02234  -0.02300   0.02444
   D33       -0.00373   0.00000  -0.00001   0.00018   0.00017  -0.00356
   D34        3.14118  -0.00001  -0.00004  -0.00068  -0.00072   3.14046
   D35        3.13719   0.00001   0.00001   0.00084   0.00085   3.13804
   D36       -0.00108   0.00000  -0.00001  -0.00003  -0.00004  -0.00112
         Item               Value     Threshold  Converged?
 Maximum Force            0.000079     0.000015     NO 
 RMS     Force            0.000025     0.000010     NO 
 Maximum Displacement     0.055960     0.000060     NO 
 RMS     Displacement     0.015569     0.000040     NO 
 Predicted change in Energy=-1.436598D-06
 GradGradGradGradGradGradGradGradGradGradGradGradGradGradGradGradGradGrad

                          Input orientation:                          
 ---------------------------------------------------------------------
 Center     Atomic      Atomic             Coordinates (Angstroms)
 Number     Number       Type             X           Y           Z
 ---------------------------------------------------------------------
      1          8           0        8.705289    7.379191    5.364749
      2          1           0        9.537917    7.115226    5.774010
      3          6           0        6.234368    6.951925    5.180487
      4          5           0        7.657797    6.607044    5.764844
      5          8           0        7.898116    5.592263    6.644085
      6          1           0        7.120493    5.095900    6.917385
      7          6           0        5.114780    6.143710    5.410069
      8          1           0        5.192836    5.233100    5.995355
      9          6           0        3.868194    6.471319    4.893118
     10          1           0        3.001858    5.848343    5.069532
     11          6           0        3.760973    7.628076    4.135869
     12          6           0        4.841340    8.458820    3.876032
     13          1           0        4.715432    9.351821    3.278815
     14          6           0        6.075993    8.106958    4.404000
     15          1           0        6.932842    8.741936    4.211777
     16          7           0        2.440706    7.989039    3.582113
     17          8           0        1.499915    7.266552    3.839708
     18          8           0        2.365339    8.989089    2.898705
 ---------------------------------------------------------------------
                    Distance matrix (angstroms):
                    1          2          3          4          5
     1  O    0.000000
     2  H    0.964594   0.000000
     3  C    2.514351   3.360413   0.000000
     4  B    1.361443   1.947610   1.576885   0.000000
     5  O    2.341227   2.401124   2.599781   1.364038   0.000000
     6  H    3.183658   3.350959   2.692000   1.974995   0.962168
     7  C    3.797397   4.543175   1.399785   2.609115   3.094164
     8  H    4.164217   4.740372   2.168677   2.831412   2.805065
     9  C    4.944104   5.773764   2.431531   3.890941   4.480948
    10  H    5.912680   6.694875   3.417503   4.768318   5.149577
    11  C    5.100819   6.026575   2.768770   4.345262   5.248965
    12  C    4.279249   5.240744   2.431637   3.863821   5.022265
    13  H    4.915419   5.872369   3.418043   4.729867   5.965634
    14  C    2.892383   3.852970   1.400755   2.569775   3.829074
    15  H    2.515549   3.445748   2.151837   2.737762   4.094914
    16  N    6.541766   7.479195   4.245265   5.821706   6.701010
    17  O    7.365857   8.268851   4.930692   6.485415   7.183644
    18  O    6.990573   7.951391   4.932134   6.472944   7.495193
                    6          7          8          9         10
     6  H    0.000000
     7  C    2.718969   0.000000
     8  H    2.141221   1.085294   0.000000
     9  C    4.070244   1.388720   2.121978   0.000000
    10  H    4.576449   2.160474   2.456839   1.081554   0.000000
    11  C    5.043325   2.379017   3.353182   1.386726   2.148356
    12  C    5.074800   2.790658   3.875610   2.435496   3.409213
    13  H    6.093962   3.872169   4.956951   3.408970   4.291545
    14  C    4.058886   2.406335   3.401682   2.790866   3.872284
    15  H    4.544129   3.389990   4.303569   3.874532   4.955932
    16  N    6.433871   3.727912   4.581829   2.461692   2.666437
    17  O    6.765702   4.098055   4.734913   2.711238   2.404083
    18  O    7.342901   4.686422   5.629514   3.546184   3.870650
                   11         12         13         14         15
    11  C    0.000000
    12  C    1.387388   0.000000
    13  H    2.148681   1.081652   0.000000
    14  C    2.379189   1.388137   2.160289   0.000000
    15  H    3.362618   2.137114   2.481790   1.083668   0.000000
    16  N    1.476497   2.463763   2.668997   3.728902   4.598109
    17  O    2.308851   3.547949   3.873306   4.686704   5.641975
    18  O    2.308836   2.714210   2.408111   4.100368   4.758920
                   16         17         18
    16  N    0.000000
    17  O    1.213849   0.000000
    18  O    1.213601   2.145129   0.000000
 Symmetry turned off by external request.
 Stoichiometry    C6H6BNO4
 Framework group  C1[X(C6H6BNO4)]
 Deg. of freedom    48
 Full point group                 C1      NOp   1
 Rotational constants (GHZ):           2.8941399           0.4503290           0.3899946
 Standard basis: 6-311+G(d,p) (5D, 7F)
   300 basis functions,   480 primitive gaussians,   312 cartesian basis functions
    43 alpha electrons       43 beta electrons
       nuclear repulsion energy       640.7032248713 Hartrees.
 NAtoms=   18 NActive=   18 NUniq=   18 SFac= 1.00D+00 NAtFMM=   60 NAOKFM=F Big=F
 Integral buffers will be    131072 words long.
 Raffenetti 2 integral format.
 Two-electron integral symmetry is turned off.
 ------------------------------------------------------------------------------
 Polarizable Continuum Model (PCM)
 =================================
 Model                : PCM.
 Atomic radii         : SMD-Coulomb.
 Polarization charges : Total charges.
 Charge compensation  : None.
 Solution method      : Matrix inversion.
 Cavity type          : VdW (van der Waals Surface) (Alpha=1.000).
 Cavity algorithm     : GePol (No added spheres)
                        Default sphere list used, NSphG=   18.
                        Lebedev-Laikov grids with approx.  5.0 points / Ang**2.
                        Smoothing algorithm: York/Karplus (Gamma=1.0000).
                        Polarization charges: spherical gaussians, with
                                              point-specific exponents (IZeta= 3).
                        Self-potential: point-specific (ISelfS= 7).
                        Self-field    : sphere-specific E.n sum rule (ISelfD= 2).
 1st derivatives      : Analytical E(r).r(x)/FMM algorithm (CHGder, D1EAlg=3).
                        Cavity 1st derivative terms included.
 Solvent              : TetraHydroFuran, Eps=   7.425700 Eps(inf)=   1.974025
 ------------------------------------------------------------------------------
 Spheres list:
 ISph  on   Nord     Re0    Alpha      Xe            Ye            Ze
    1   O      1    2.2940  1.000      8.705289      7.379191      5.364749
    2   H      2    1.2000  1.000      9.537917      7.115226      5.774010
    3   C      3    1.8500  1.000      6.234368      6.951925      5.180487
    4   B      4    1.8000  1.000      7.657797      6.607044      5.764844
    5   O      5    2.2940  1.000      7.898116      5.592263      6.644085
    6   H      6    1.2000  1.000      7.120493      5.095900      6.917385
    7   C      7    1.8500  1.000      5.114780      6.143710      5.410069
    8   H      8    1.2000  1.000      5.192836      5.233100      5.995355
    9   C      9    1.8500  1.000      3.868194      6.471319      4.893118
   10   H     10    1.2000  1.000      3.001858      5.848343      5.069532
   11   C     11    1.8500  1.000      3.760973      7.628076      4.135869
   12   C     12    1.8500  1.000      4.841340      8.458820      3.876032
   13   H     13    1.2000  1.000      4.715432      9.351821      3.278815
   14   C     14    1.8500  1.000      6.075993      8.106958      4.404000
   15   H     15    1.2000  1.000      6.932842      8.741936      4.211777
   16   N     16    1.8900  1.000      2.440706      7.989039      3.582113
   17   O     17    2.2940  1.000      1.499915      7.266552      3.839708
   18   O     18    2.2940  1.000      2.365339      8.989089      2.898705
 ------------------------------------------------------------------------------
 ------------------------------------------------------------------------------
 Atomic radii for non-electrostatic terms: SMD-CDS.
 ------------------------------------------------------------------------------
 Nuclear repulsion after PCM non-electrostatic terms =      640.6990055514 Hartrees.
 One-electron integrals computed using PRISM.
 NBasis=   300 RedAO= T EigKep=  1.74D-06  NBF=   300
 NBsUse=   300 1.00D-06 EigRej= -1.00D+00 NBFU=   300
 Initial guess from the checkpoint file:  "4-no2-phboh2-opt-freq-thf.chk"
 B after Tr=     0.037262    0.013889   -0.060782
         Rot=    0.999998   -0.001688    0.000730   -0.000878 Ang=  -0.23 deg.
 ExpMin= 3.15D-02 ExpMax= 8.59D+03 ExpMxC= 1.30D+03 IAcc=3 IRadAn=         5 AccDes= 0.00D+00
 Harris functional with IExCor= 1009 and IRadAn=       5 diagonalized for initial guess.
 HarFok:  IExCor= 1009 AccDes= 0.00D+00 IRadAn=         5 IDoV= 1 UseB2=F ITyADJ=14
 ICtDFT=  3500011 ScaDFX=  1.000000  1.000000  1.000000  1.000000
 FoFCou: FMM=F IPFlag=           0 FMFlag=      100000 FMFlg1=           0
         NFxFlg=           0 DoJE=T BraDBF=F KetDBF=T FulRan=T
         wScrn=  0.000000 ICntrl=       500 IOpCl=  0 I1Cent=   200000004 NGrid=           0
         NMat0=    1 NMatS0=      1 NMatT0=    0 NMatD0=    1 NMtDS0=    0 NMtDT0=    0
 Symmetry not used in FoFCou.
 Requested convergence on RMS density matrix=1.00D-08 within 128 cycles.
 Requested convergence on MAX density matrix=1.00D-06.
 Requested convergence on             energy=1.00D-06.
 Level shift goal  0.100 maximum shift  0.100.
 No special actions if energy rises.
 Dynamic level shift is on during FON iterations.
 Inv3:  Mode=1 IEnd=     9763248.
 Iteration    1 A*A^-1 deviation from unit magnitude is 6.66D-15 for   1799.
 Iteration    1 A*A^-1 deviation from orthogonality  is 1.70D-15 for   1789   1787.
 Iteration    1 A^-1*A deviation from unit magnitude is 6.22D-15 for   1799.
 Iteration    1 A^-1*A deviation from orthogonality  is 1.31D-15 for   1789   1787.
 Error on total polarization charges =  0.01508
 SCF Done:  E(RM062X) =  -612.730347101     A.U. after   13 cycles
            NFock= 13  Conv=0.29D-08     -V/T= 2.0034
 SMD-CDS (non-electrostatic) energy       (kcal/mol) =      -2.65
 (included in total energy above)
 D1PCM: PCM CHGder 1st derivatives, ID1Alg=3 FixD1E=F DoIter=F DoCFld=F I1PDM=0.
 Calling FoFJK, ICntrl=      2127 FMM=F ISym2X=0 I1Cent= 0 IOpClX= 0 NMat=1 NMatS=1 NMatT=0.
 -------------------------------------------------------------------
 Center     Atomic                   Forces (Hartrees/Bohr)
 Number     Number              X              Y              Z
 -------------------------------------------------------------------
      1        8           0.000019905   -0.000040208    0.000043087
      2        1          -0.000046353    0.000009768   -0.000007290
      3        6           0.000019866   -0.000007662    0.000024019
      4        5          -0.000002814    0.000021843   -0.000009486
      5        8          -0.000073574   -0.000050484    0.000037157
      6        1           0.000053265    0.000030549   -0.000007679
      7        6           0.000009780    0.000033183   -0.000028488
      8        1           0.000007909    0.000008175   -0.000041169
      9        6           0.000017202   -0.000015760    0.000003135
     10        1          -0.000007504    0.000008374   -0.000037517
     11        6           0.000018937    0.000000192   -0.000000151
     12        6           0.000020832   -0.000006349    0.000023047
     13        1          -0.000005118   -0.000013490    0.000013001
     14        6          -0.000000983   -0.000001295    0.000002235
     15        1           0.000015022   -0.000009874    0.000015951
     16        7          -0.000149386    0.000047797   -0.000079384
     17        8           0.000063017    0.000016826    0.000023700
     18        8           0.000039997   -0.000031586    0.000025831
 -------------------------------------------------------------------
 Cartesian Forces:  Max     0.000149386 RMS     0.000035531

 GradGradGradGradGradGradGradGradGradGradGradGradGradGradGradGradGradGrad
 Berny optimization.
 Using GEDIIS/GDIIS optimizer.
 FormGI is forming the generalized inverse of G from B-inverse, IUseBI=4.
 Internal  Forces:  Max     0.000071709 RMS     0.000024208
[...]
 45622,-0.2218972,-0.1876309,0.1026089,-0.0076049,0.031612,-0.1197547,-
 0.0524375,-0.1691978,-0.0717251,0.0966768,0.0389968,-0.0444442,0.02724
 41,-0.0002024,0.113315,-0.0367816,0.1185464,0.0792266,0.0484178,0.1176
 392,-0.0396974,-0.1802024,-0.1556824,-0.0002356,0.166843,0.0808263,-0.
 0969678,0.0994694,-0.0438838,0.0047785,-0.0206344,0.1431698,0.0228078,
 -0.0106524,0.0175844,0.1762765,-0.3999179,0.2180451,-0.2445975,0.19737
 96,0.1717291,-0.0303984,-0.235601,-0.0248307,-0.0033641,0.006224,-0.26
 29921,0.1908285,0.0772178,-0.1143326,0.0397214,-0.0278983,-0.0468125,-
 0.0640635,0.1447429,0.0240705,-0.027086,0.0000696,0.1163067,0.0437854,
 -0.008522,0.0515686,0.1540962,0.0507175,0.2745026,-0.1287082,0.0506999
 ,-0.143685,0.0052554,0.012807,0.0575227,-0.1875797,0.0487691,-0.071202
 2,0.0141266,-0.0554947,0.0868305,0.0350355,0.0007907,0.0313166,0.14479
 61,2.2699192,0.1808063,0.3325815,0.1865955,1.6786986,-0.8936188,0.3310
 8,-0.889257,0.9875178,-1.4177049,-0.4875668,0.0692035,-0.353762,-0.811
 8892,0.2667271,-0.026495,0.2315607,-0.4601871,-0.7785816,0.1911808,-0.
 2420765,0.0524629,-1.154868,0.5953656,-0.1456422,0.6224482,-0.753073\P
 olar=165.5858368,3.3568313,126.9541667,21.0004904,-37.0820393,99.31636
 6\Quadrupole=16.0148921,-30.5270288,14.5121367,17.0073827,21.981828,5.
 758816\PG=C01 [X(C6H6B1N1O4)]\NImag=0\\0.66068803,0.03307254,0.2298093
 7,0.11360807,-0.15869114,0.19462029,-0.38628463,0.10001133,-0.17044211
 ,0.41516540,0.12703750,-0.06274635,0.07132906,-0.10658192,0.05720818,-
 0.19364924,0.06528887,-0.11248207,0.18317509,-0.06437232,0.10668964,-0
 .02966403,-0.00126093,-0.00686017,-0.00025387,-0.00199147,0.00057023,0
 .61544772,-0.01668963,0.00702584,-0.00267245,-0.00291529,0.00039405,0.
 00283478,0.06692895,0.50496946,0.00562283,0.00055790,0.00917515,0.0012
 1706,0.00311118,0.00226805,0.07902598,-0.22107843,0.29557982,-0.240256
 40,-0.10397155,0.04560053,-0.03380400,-0.02056616,0.00935187,-0.170379
 10,0.02482631,-0.04266493,0.53792949,-0.12372345,-0.14095592,0.0515986
 6,0.00367058,0.00645671,-0.00298652,0.02364863,-0.07574812,0.01314805,
 0.06959897,0.42419603,0.06292411,0.05619470,-0.08063979,-0.01112543,-0
 .00822857,0.00667678,-0.04290833,0.01298317,-0.08380550,0.02634662,-0.
 21760721,0.32869470,0.00261864,-0.03145882,0.02394312,0.00499772,0.001
 89082,0.00017563,0.00138804,0.01853423,-0.01894367,-0.09125575,0.02251
 442,-0.02881327,0.45066081,-0.02284986,-0.03435811,0.03380848,0.005399
 40,-0.00098653,-0.00027845,0.00315236,-0.00190640,0.01606104,0.0510537
 5,-0.19767869,0.14144827,0.17787865,0.38025567,0.01694555,0.03209988,-
 0.01197543,-0.00290732,-0.00113369,-0.00236642,-0.00567350,0.01923514,
 -0.00085330,-0.05307769,0.13665875,-0.16668919,-0.07647132,-0.27098979
 ,0.24496593,0.00304683,0.00253188,-0.00266427,-0.00006519,0.00031334,-
 0.00010931,-0.00104869,0.00108234,-0.00053345,0.00405872,0.00137796,0.
 00007156,-0.36214968,-0.21750864,0.12586761,0.35822514,0.00099942,0.00
 135893,0.00436169,0.00030968,-0.00053346,-0.00017441,0.00039877,0.0005
 2288,-0.00251647,-0.02153958,-0.01735727,0.00827733,-0.19103343,-0.144
 27100,0.08332449,0.21153709,0.15904001,-0.00162597,0.00441984,0.002340
 92,-0.00001622,-0.00012222,-0.00075624,-0.00023523,-0.00226070,-0.0002
 8471,0.01991592,0.01170386,-0.00957917,0.10304799,0.07957405,-0.059641
 11,-0.12058765,-0.09298249,0.06751546,-0.00274065,0.00045487,-0.001300
 08,-0.00049672,-0.00021210,0.00036108,-0.25134714,-0.07248358,-0.00421
 863,-0.01477698,-0.01012040,0.00170199,0.00083754,-0.00124619,0.001686
 73,0.00062773,0.00014148,0.00018309,0.64166133,0.00476124,0.00001992,0
 .00134224,0.00044304,0.00027226,-0.00010288,-0.12253523,-0.17640156,0.
 04097720,-0.00085118,0.00990885,-0.00479183,0.00040507,-0.00345074,0.0
 0172807,0.00263947,0.00028780,0.00113854,0.04528929,0.57828796,-0.0038
 7324,0.00049493,-0.00042100,-0.00030954,-0.00018841,0.00034243,0.02760
 564,0.05253365,-0.08836085,-0.00400828,-0.00676160,0.00618652,0.000312
 28,0.00062039,-0.00172334,-0.00159982,0.00001651,-0.00066854,0.0989485
 2,-0.25912548,0.32453098,0.00039747,0.00025922,-0.00018959,-0.00005864
 ,-0.00005373,-0.00003187,0.00709606,-0.01960996,0.01346134,-0.00014093
 ,-0.00061362,0.00119992,-0.00099293,0.00001440,-0.00116918,-0.00219259
 ,0.00023458,-0.00173963,-0.05938456,0.01376935,-0.01383192,0.06294565,
 -0.00005124,0.00034637,-0.00018066,-0.00010276,0.00003966,0.00007224,0
 .00272955,-0.00978837,0.00798475,0.00119465,-0.00210554,-0.00008238,0.
 00035971,0.00112860,-0.00020415,-0.00098670,0.00074414,-0.00057667,0.0
 1717102,-0.25341269,0.13545646,-0.01632435,0.26267253,0.00036988,0.000
 05687,0.00020237,-0.00000724,0.00011035,0.00010925,0.00017595,0.002617
 14,0.00044206,-0.00009359,-0.00083724,-0.00267520,-0.00135005,-0.00020
 621,-0.00077311,-0.00094485,0.00015790,0.00024543,-0.01656228,0.133521
 67,-0.12550540,0.02136509,-0.14955391,0.12369742,-0.00196766,0.0004051
 8,-0.00046801,-0.00004769,-0.00005989,0.00013517,-0.05251264,-0.039677
 18,0.01002744,-0.00130042,-0.00549061,0.00153991,0.00089271,0.00028341
 ,-0.00005820,-0.00021373,0.00034866,-0.00018312,-0.30292397,0.07142233
 ,-0.10435937,-0.00000808,-0.00125327,-0.00035308,0.71916086,-0.0008689
 3,0.00013432,-0.00070950,-0.00028647,-0.00013289,-0.00005077,0.0041107
 8,0.04904166,-0.02549585,-0.00145032,0.00034829,0.00354288,-0.00040417
 ,0.00069874,-0.00072093,-0.00056526,-0.00027274,-0.00042892,0.00589675
 ,-0.12483025,0.03995871,0.02526821,-0.00249539,0.01105935,0.10277214,0
 .56220386,-0.00011100,-0.00029648,-0.00026295,0.00019264,-0.00024434,-
 0.00028250,-0.01755834,-0.03573824,0.02596417,-0.00115724,0.00235526,0
 .00453158,0.00052748,-0.00059591,0.00026265,0.00057251,-0.00000626,0.0
 0003699,-0.06307248,0.05633657,-0.11355303,-0.01679827,0.00409483,-0.0
 0220245,0.08209733,-0.24142231,0.30296384,-0.00057108,0.00000363,-0.00
 009426,-0.00002141,-0.00003283,0.00003586,-0.00292735,0.00115531,-0.00
 338348,0.00027539,-0.00079287,0.00059305,-0.00009202,0.00022154,-0.000
 19172,-0.00003889,-0.00006804,0.00003692,-0.01413164,-0.01578005,0.005
 04235,0.00096359,0.00048549,0.00105392,-0.24222928,-0.14051087,0.03629
 707,0.25482935,0.00027284,-0.00003087,0.00001702,0.00002178,0.00000847
 ,-0.00001941,0.00168082,0.00214925,0.00377437,0.00004897,0.00035010,-0
 .00026888,0.00001014,-0.00008083,0.00008793,0.00001425,0.00003791,-0.0
 0001489,0.00822797,0.00985894,-0.00097822,0.00018072,-0.00072136,-0.00
 230062,-0.13942416,-0.15443540,0.03672659,0.14942559,0.15484172,-0.000
 29416,-0.00003220,-0.00011398,-0.00002428,-0.00001807,-0.00000087,-0.0
 0358543,0.00369751,0.00424557,0.00011680,-0.00048331,0.00020063,-0.000
 06486,0.00017483,-0.00008349,-0.00002734,-0.00004464,0.00003109,-0.010
 13030,-0.00703696,0.00685786,0.00123934,-0.00216075,-0.00283526,0.0357
 8647,0.03619502,-0.05255182,-0.03549342,-0.04248306,0.04358339,-0.0033
 1684,-0.00040698,-0.00024809,0.00037745,-0.00009285,0.00000896,-0.0161
 7028,-0.02289435,0.01128253,0.00626302,-0.00272529,0.00331883,-0.00099
 803,0.00150552,-0.00128175,0.00003614,-0.00041208,0.00040109,0.0200461
 5,0.02830355,-0.01314387,-0.00404528,0.00061620,-0.00340352,-0.1160034
 4,0.02020304,-0.02811379,0.00673103,-0.02069460,0.01332342,0.57487679,
 -0.00037651,0.00028067,-0.00013383,0.00003555,-0.00010943,-0.00004158,
 -0.02394473,-0.05216016,0.02540537,-0.00250736,-0.00224747,0.00069345,
 0.00099826,-0.00069442,0.00054066,0.00004642,0.00045457,-0.00014278,0.
 08198314,0.00230785,0.01966933,-0.00039072,0.00326864,0.00264263,-0.04
 055710,-0.26154316,0.12031101,0.00167798,-0.00915299,0.00923641,0.1184
 4385,0.58705148,-0.00063271,-0.00026885,0.00001145,0.00010839,0.000002
 34,-0.00000962,0.01158662,0.02545230,-0.01595040,0.00302365,0.00073635
 ,0.00041608,-0.00072198,0.00063002,-0.00077348,-0.00015336,-0.00024156
 ,0.00029323,-0.04660139,0.00604074,-0.01466997,-0.00260003,0.00275731,
 0.00519814,0.00995684,0.13561966,-0.13445121,-0.00047499,0.00331846,0.
 00225605,0.03723968,-0.26688611,0.29456079,0.00177193,-0.00000634,0.00
 019453,-0.00011161,0.00026906,-0.00000605,0.02659056,0.07318852,-0.041
 70926,0.00048943,0.00187110,-0.00252983,-0.00022819,0.00022388,0.00025
 200,0.00002042,-0.00021488,0.00003607,-0.07737678,-0.01257025,-0.01054
 582,-0.00107642,-0.00033718,0.00010049,0.04780537,-0.05847438,0.047924
 17,0.00114450,0.00138459,-0.00210627,-0.22820446,-0.08027150,0.0064721
 6,0.65523145,-0.00002551,0.00051753,-0.00061269,0.00007989,0.00012794,
 -0.00003416,0.03069634,0.00517153,0.00900162,-0.00242225,-0.00186412,0
 .00470437,0.00181459,-0.00084766,0.00054074,-0.00003046,0.00033118,-0.
 00029503,-0.01689703,-0.00401746,-0.00354640,-0.00002527,-0.00003984,-
 0.00065675,-0.01100880,-0.03310165,0.02035814,0.00105279,-0.00176588,0
 .00480536,-0.14102758,-0.19616636,0.05546748,0.04411585,0.59563896,0.0
 0020262,-0.00060009,0.00007565,-0.00008753,-0.00003440,0.00004692,-0.0
 1459105,0.02042927,-0.00862394,0.00025703,0.00554501,0.00288708,-0.000
 77629,-0.00039864,-0.00130949,0.00007125,-0.00009896,0.00030215,-0.007
 89664,-0.00249502,-0.00325137,-0.00000222,-0.00072551,-0.00066088,0.01
 786461,0.00847523,0.00274945,-0.00180667,0.00496284,0.00209071,0.04472
 250,0.07066841,-0.08556915,0.10159569,-0.27851544,0.33269494,-0.000307
 23,-0.00015916,0.00003506,0.00002068,-0.00000193,-0.00000358,-0.004366
 12,0.00041900,-0.00318727,0.00095948,0.00079126,-0.00020424,-0.0005211
 7,0.00031259,-0.00040241,-0.00003188,-0.00010072,0.00009104,-0.0011210
 9,-0.00006143,0.00003072,0.00008421,0.00015894,0.00015327,-0.00404482,
 -0.00316473,-0.00039472,0.00044558,-0.00108223,0.00058999,0.00796511,-
 0.01945494,0.01297877,-0.05916407,0.02476145,-0.02018272,0.05841928,0.
 00007197,0.00002886,0.00001996,-0.00000699,0.00001340,0.00001252,-0.00
 017471,0.00292377,0.00288777,-0.00021306,-0.00010328,-0.00011459,0.000
 06139,-0.00006949,0.00001297,0.00001228,0.00001738,-0.00000527,0.00012
 052,0.00018847,-0.00077223,0.00014462,-0.00028472,-0.00038440,-0.00353
 633,0.00122849,0.00191781,0.00020906,-0.00021078,0.00061639,0.00297386
 ,-0.01000252,0.00988057,0.02357520,-0.25707435,0.14219558,-0.02643084,
 0.26482044,-0.00007379,-0.00002735,0.00004448,-0.00000127,0.00001355,0
 .00002853,-0.00285135,0.00288092,0.00506292,0.00037522,0.00013210,-0.0
 0020634,-0.00012698,0.00005356,-0.00016581,-0.00000230,-0.00001565,0.0
 0002892,-0.00004793,-0.00079067,-0.00058998,0.00016602,-0.00036511,-0.
 00068687,-0.00018398,0.00202878,0.00435059,-0.00018961,0.00029684,0.00
 045068,-0.00084601,0.00427569,0.00170536,-0.01952766,0.14246377,-0.133
 45816,0.02448575,-0.15612152,0.13034190,-0.00330747,-0.00031919,-0.000
 27666,0.00073908,0.00006206,-0.00002764,-0.12890721,-0.01361008,-0.006
 66399,0.00450144,0.01852394,-0.01152026,-0.00568056,0.00244580,-0.0041
 5762,-0.00037235,-0.00077043,0.00074615,0.05237505,-0.01634483,0.02200
 647,-0.00368020,-0.00373533,-0.00045416,-0.02762549,0.03122612,-0.0259
 2715,-0.00020273,0.00081349,-0.00015741,-0.05899548,-0.04186909,0.0115
 8162,-0.30187534,0.07420422,-0.10562732,0.00249398,-0.00113861,-0.0001
 2733,0.70785135,-0.00125460,-0.00187035,0.00086231,-0.00040792,-0.0003
 5121,0.00007085,0.03736182,-0.24230504,0.12278024,0.00729802,-0.000450
 73,0.00394522,-0.00158893,0.00133496,-0.00084806,-0.00023532,-0.000343
 04,0.00013715,-0.05823248,-0.03441861,0.01001202,-0.00359475,0.0013071
 5,0.00296626,0.02751109,-0.03218706,0.02530259,0.00092512,-0.00041603,
 -0.00031396,0.01089515,0.04768983,-0.02686268,0.00879585,-0.12828357,0
 .04238362,0.02304225,0.00064718,0.00866238,0.09351179,0.54186138,0.000
 39148,0.00080299,-0.00096072,0.00043673,0.00003226,-0.00018908,-0.0392
 6581,0.11019166,-0.14263985,-0.00486639,0.00716456,-0.00222459,-0.0005
 8570,0.00029010,0.00035328,-0.00011260,-0.00003060,0.00011301,0.048697
 00,0.02017723,0.00368710,-0.00055994,0.00287121,0.00568346,-0.02357722
 ,0.02628385,-0.02523162,-0.00033365,-0.00024526,-0.00096843,-0.0217731
 0,-0.04015771,0.02025414,-0.06423148,0.05887268,-0.11590538,-0.0151428
 4,0.00258411,-0.00023724,0.08150100,-0.22866621,0.30618171,-0.00093877
 ,0.00058603,-0.00080115,-0.00007976,-0.00003668,0.00003737,0.00729145,
 0.00303460,-0.00074080,-0.00007758,0.00093741,0.00009997,0.00011471,-0
 .00035750,0.00023908,0.00002740,0.00001954,0.00000458,0.00122124,0.000
 79632,-0.00198983,0.00032233,0.00026863,-0.00007872,-0.00007240,0.0006
 4587,-0.00013791,-0.00006081,0.00002871,0.00018699,-0.00218877,0.00166
 158,-0.00351924,-0.01694949,-0.01641091,0.00493174,0.00095656,0.000540
 58,0.00101707,-0.23684749,-0.13625627,0.03675735,0.24839728,-0.0001454
 0,0.00036735,-0.00030583,0.00027967,0.00032884,-0.00021279,-0.01967173
 ,-0.01058633,0.00333826,-0.00124509,-0.00211621,-0.00063927,0.00014612
 ,0.00059158,-0.00014420,-0.00008726,-0.00000223,-0.00008017,0.00068464
 ,-0.00149267,0.00577014,-0.00100330,-0.00053948,0.00011407,0.00084235,
 -0.00056451,-0.00017122,0.00002101,-0.00019411,-0.00043409,0.00103379,
 0.00229186,0.00376461,0.00896464,0.00887066,-0.00044847,0.00011104,-0.
 00083035,-0.00231500,-0.13633641,-0.15347099,0.03701238,0.14554114,0.1
 5680936,-0.00019403,-0.00007217,0.00027142,-0.00014902,-0.00028592,-0.
 00007848,0.01325390,0.00893603,0.00016772,0.00165350,-0.00022341,-0.00
 251875,-0.00025954,0.00002733,0.00045692,0.00004515,-0.00006965,0.0000
 0964,-0.00195682,0.00577797,0.00324068,0.00072365,0.00044281,-0.000037
 96,-0.00032474,-0.00017582,-0.00110708,0.00019648,-0.00042208,-0.00057
 001,-0.00315018,0.00378008,0.00461159,-0.01093609,-0.00672017,0.006162
 33,0.00130115,-0.00220036,-0.00283951,0.03702475,0.03690101,-0.0551524
 5,-0.03632758,-0.04524533,0.04710183,0.00364653,0.00066868,0.00019071,
 -0.00038838,0.00009509,-0.00006906,0.00317712,-0.00260922,0.00331323,-
 0.00830576,0.00176797,-0.00295958,0.00187764,-0.00228486,0.00207351,0.
 00003017,0.00073863,-0.00061075,0.01014535,-0.00123466,0.00080387,0.00
 082547,-0.00073747,0.00057254,-0.01123532,0.02375364,-0.01617239,-0.00
 169343,-0.00249730,0.00238258,-0.12562824,-0.00113190,-0.01295764,-0.0
 4137199,0.00285027,-0.01019896,-0.00001878,0.00100691,0.00030383,0.001
 54662,-0.00887409,0.00331068,-0.00008397,0.00055143,-0.00047807,0.7324
 0880,-0.00121055,-0.00018949,-0.00005956,0.00011789,0.00001063,0.00000
 838,-0.00229949,-0.00394142,-0.00062011,0.00232745,-0.00108735,0.00053
 129,-0.00046436,0.00057098,-0.00048348,-0.00003476,-0.00011210,0.00009
 306,-0.00182096,-0.00338645,0.00868532,0.00128330,0.00013011,0.0006091
 7,0.03021809,-0.00292684,0.00482343,-0.00031572,-0.00323798,-0.0009977
 6,-0.00143561,-0.10334374,0.02140275,-0.00338881,0.01435158,-0.0145366
 6,-0.00104748,-0.00407475,-0.00052565,-0.00873419,0.00124742,0.0041904
 8,-0.00121487,0.00064879,-0.00037601,0.15092302,0.75735297,0.00172571,
 0.00030997,0.00014188,-0.00018950,0.00005051,-0.00001488,0.00319944,-0
 .00057410,-0.00262804,-0.00315763,0.00040534,-0.00222710,0.00068712,-0
 .00082591,0.00080966,0.00001119,0.00027815,-0.00018007,0.00060287,0.00
 876840,0.00577491,-0.00073677,0.00008197,0.00032426,-0.01958047,0.0031
 4319,-0.01368588,0.00093859,-0.00124908,-0.00347908,-0.01297314,0.0206
 1043,-0.08522052,-0.00675526,-0.01263798,-0.00054266,0.00189392,0.0000
 7507,-0.00418409,0.00325075,0.00405013,0.00941486,0.00061145,0.0000720
 6,0.00064724,0.01683540,-0.32395134,0.44529593,-0.00172752,-0.00021197
 ,-0.00017923,0.00019379,-0.00002278,0.00002949,-0.00237290,-0.00054451
 ,-0.00037323,0.00349764,-0.00091163,0.00150493,-0.00085360,0.00110280,
 -0.00103790,-0.00000779,-0.00034913,0.00030214,-0.00083599,-0.00048054
 ,0.00022697,-0.00027247,0.00027647,-0.00025091,-0.00215261,-0.00396920
 ,0.00158351,-0.00280700,0.00130147,-0.00154351,-0.06042349,-0.03058428
 ,0.00297646,-0.00042012,0.00759363,-0.00572977,0.00131331,0.00027953,0
 .00019802,-0.00371052,0.00013944,-0.00078779,-0.00088258,0.00037703,-0
 .00039285,-0.42369163,-0.19775986,0.05282654,0.47609164,-0.00011955,0.
 00001506,-0.00001761,0.00003321,-0.00001246,0.00000228,0.00064592,0.00
 074561,0.00009431,0.00051611,-0.00001278,0.00019027,-0.00013700,0.0002
 1640,-0.00016425,-0.00003903,-0.00006769,0.00003109,-0.00110529,0.0009
 4432,-0.00172159,-0.00011305,0.00003020,-0.00003182,0.00444785,-0.0054
 5698,0.00591384,0.00293987,0.00159408,-0.00008923,-0.01481411,0.012322
 17,-0.00048806,0.00043837,0.00133397,0.00162486,0.00107795,0.00084720,
 0.00006191,0.00032740,0.00038872,-0.00121104,0.00000031,-0.00010141,-0
 .00016747,-0.20513120,-0.24964111,0.07021330,0.27914911,0.31901198,-0.
 00034814,-0.00004936,-0.00001510,0.00003245,-0.00000448,0.00000594,-0.
 00112967,-0.00030854,0.00040731,0.00048717,-0.00018331,0.00026412,-0.0
 0012526,0.00014656,-0.00007956,0.00003081,-0.00005766,0.00002872,0.000
 97604,-0.00148371,-0.00007552,-0.00000464,0.00006713,-0.00000260,-0.00
 402474,0.00418596,-0.00114898,-0.00264834,-0.00055941,0.00011493,-0.00
 765433,-0.00398973,0.01744612,-0.00121638,0.00316195,0.00152214,-0.000
 51666,-0.00026907,0.00038087,-0.00070673,-0.00113327,-0.00098073,-0.00
 010673,-0.00008899,-0.00034220,0.05771987,0.07186513,-0.11029151,-0.08
 507548,-0.13232114,0.09710192,-0.00108716,-0.00019842,-0.00004840,0.00
 011777,-0.00001554,0.00001600,-0.00104163,0.00186455,-0.00153170,0.002
 32233,-0.00032436,0.00076004,-0.00061588,0.00065295,-0.00063586,0.0000
 4824,-0.00023958,0.00023357,-0.00177885,0.00202852,-0.00131513,-0.0007
 8268,0.00026766,-0.00029274,-0.00552138,-0.00418223,0.00024858,0.00038
 620,0.00028693,-0.00019861,-0.00032137,0.03624134,-0.02826286,-0.00627
 517,0.00067877,-0.00274626,-0.00308305,0.00250462,-0.00256769,0.001697
 33,0.00096384,0.00014227,-0.00014934,-0.00006365,-0.00002965,-0.141240
 21,0.03485691,-0.03919021,0.01906185,-0.06811687,0.04431075,0.13826302
 ,0.00109971,0.00024687,0.00004383,-0.00010068,0.00001217,-0.00001663,0
 .00052434,-0.00010666,0.00058880,-0.00209769,0.00046750,-0.00077821,0.
 00047332,-0.00045306,0.00045990,-0.00006762,0.00016473,-0.00018846,0.0
 0214837,-0.00066594,-0.00012351,0.00057436,-0.00028001,0.00011553,0.00
 275624,0.00429151,0.00033470,-0.00061700,0.00140578,-0.00063150,0.0205
 2847,-0.02024682,0.02967467,-0.00756371,-0.00318247,0.00156838,0.00082
 899,0.00193505,-0.00070854,0.00174335,-0.00037999,-0.00016268,0.000215
 50,-0.00001015,0.00009317,0.04214507,-0.40237121,0.23117990,-0.0553855
 9,-0.08215727,0.06102192,-0.00720543,0.50132997,-0.00098799,-0.0001883
 0,-0.00001257,0.00009710,-0.00001682,0.00001261,-0.00075889,0.00084089
 ,-0.00016618,0.00189743,-0.00036535,0.00070814,-0.00045468,0.00046029,
 -0.00041472,0.00006486,-0.00017773,0.00016430,-0.00137078,0.00001794,-
 0.00180146,-0.00049128,0.00002043,-0.00052265,-0.00429484,-0.00148852,
 0.00361825,0.00042193,-0.00064312,0.00077202,-0.01770923,0.03351828,-0
 .01010862,0.00298899,0.00364250,0.00078965,-0.00152523,-0.00033533,-0.
 00002624,-0.00046445,-0.00024960,-0.00119747,-0.00018366,0.00001381,-0
 .00002293,-0.04405976,0.22934158,-0.23995490,0.03572260,0.05808033,-0.
 00433588,0.03110790,-0.32247127,0.25249865\\0.00000206,0.00000055,-0.0
 0001378,0.00000352,0.00000208,-0.00001566,0.00000115,0.00000113,-0.000
 00221,0.00000319,0.00000316,-0.00000597,0.00000608,0.00000745,-0.00000
 197,0.00000681,0.00000923,0.00000343,0.00000154,0.00000287,0.00000607,
 0.00000322,0.00000568,0.00001025,-0.00000027,0.00000110,0.00000924,0.0
 0000003,0.00000244,0.00001566,-0.00000250,-0.00000253,0.00000396,-0.00
 000298,-0.00000443,-0.00000426,-0.00000473,-0.00000725,-0.00000818,-0.
 00000112,-0.00000256,-0.00000727,-0.00000149,-0.00000398,-0.00001370,-
 0.00000432,-0.00000451,0.00000733,-0.00000377,-0.00000264,0.00001440,-
 0.00000641,-0.00000778,0.00000265\\\@
 The archive entry for this job was punched.


 I LOVE THOSE WHO LONG FOR THE IMPOSSIBLE.

                                 -- GOETHE
 Job cpu time:       0 days  0 hours 59 minutes  7.4 seconds.
 Elapsed time:       0 days  0 hours  1 minutes 56.4 seconds.
 File lengths (MBytes):  RWF=    223 Int=      0 D2E=      0 Chk=     17 Scr=      1
 Normal termination of Gaussian 16 at Wed Apr 30 05:30:47 2025.
