/home/tahminaafroz
cn017.cluster.local
Tue May 27 08:09:22 CDT 2025
 Entering Gaussian System, Link 0=g16
 Initial command:
 /home/apps/g16/l1.exe "/tmp/4-OMe-ph-anion-opt-freq-thf/Gau-4078180.inp" -scrdir="/tmp/4-OMe-ph-anion-opt-freq-thf/"
 Entering Link 1 = /home/apps/g16/l1.exe PID=   4078181.
  
 Copyright (c) 1988-2019, Gaussian, Inc.  All Rights Reserved.
  
 This is part of the Gaussian(R) 16 program.  It is based on
 the Gaussian(R) 09 system (copyright 2009, Gaussian, Inc.),
 the Gaussian(R) 03 system (copyright 2003, Gaussian, Inc.),
 the Gaussian(R) 98 system (copyright 1998, Gaussian, Inc.),
 the Gaussian(R) 94 system (copyright 1995, Gaussian, Inc.),
 the Gaussian 92(TM) system (copyright 1992, Gaussian, Inc.),
 the Gaussian 90(TM) system (copyright 1990, Gaussian, Inc.),
 the Gaussian 88(TM) system (copyright 1988, Gaussian, Inc.),
 the Gaussian 86(TM) system (copyright 1986, Carnegie Mellon
 University), and the Gaussian 82(TM) system (copyright 1983,
 Carnegie Mellon University). Gaussian is a federally registered
 trademark of Gaussian, Inc.
  
 This software contains proprietary and confidential information,
 including trade secrets, belonging to Gaussian, Inc.
  
 This software is provided under written license and may be
 used, copied, transmitted, or stored only in accord with that
 written license.
  
 The following legend is applicable only to US Government
 contracts under FAR:
  
                    RESTRICTED RIGHTS LEGEND
  
 Use, reproduction and disclosure by the US Government is
 subject to restrictions as set forth in subparagraphs (a)
 and (c) of the Commercial Computer Software - Restricted
 Rights clause in FAR 52.227-19.
  
 Gaussian, Inc.
 340 Quinnipiac St., Bldg. 40, Wallingford CT 06492
  
  
 ---------------------------------------------------------------
 Warning -- This program may not be used in any manner that
 competes with the business of Gaussian, Inc. or will provide
 assistance to any competitor of Gaussian, Inc.  The licensee
 of this program is prohibited from giving any competitor of
 Gaussian, Inc. access to this program.  By using this program,
 the user acknowledges that Gaussian, Inc. is engaged in the
 business of creating and licensing software in the field of
 computational chemistry and represents and warrants to the
 licensee that it is not a competitor of Gaussian, Inc. and that
 it will not use this program in any manner prohibited above.
 ---------------------------------------------------------------
  

 Cite this work as:
 Gaussian 16, Revision C.01,
 M. J. Frisch, G. W. Trucks, H. B. Schlegel, G. E. Scuseria, 
 M. A. Robb, J. R. Cheeseman, G. Scalmani, V. Barone, 
 G. A. Petersson, H. Nakatsuji, X. Li, M. Caricato, A. V. Marenich, 
 J. Bloino, B. G. Janesko, R. Gomperts, B. Mennucci, H. P. Hratchian, 
 J. V. Ortiz, A. F. Izmaylov, J. L. Sonnenberg, D. Williams-Young, 
 F. Ding, F. Lipparini, F. Egidi, J. Goings, B. Peng, A. Petrone, 
 T. Henderson, D. Ranasinghe, V. G. Zakrzewski, J. Gao, N. Rega, 
 G. Zheng, W. Liang, M. Hada, M. Ehara, K. Toyota, R. Fukuda, 
 J. Hasegawa, M. Ishida, T. Nakajima, Y. Honda, O. Kitao, H. Nakai, 
 T. Vreven, K. Throssell, J. A. Montgomery, Jr., J. E. Peralta, 
 F. Ogliaro, M. J. Bearpark, J. J. Heyd, E. N. Brothers, K. N. Kudin, 
 V. N. Staroverov, T. A. Keith, R. Kobayashi, J. Normand, 
 K. Raghavachari, A. P. Rendell, J. C. Burant, S. S. Iyengar, 
 J. Tomasi, M. Cossi, J. M. Millam, M. Klene, C. Adamo, R. Cammi, 
 J. W. Ochterski, R. L. Martin, K. Morokuma, O. Farkas, 
 J. B. Foresman, and D. J. Fox, Gaussian, Inc., Wallingford CT, 2019.
 
 ******************************************
 Gaussian 16:  AS64L-G16RevC.01  3-Jul-2019
                27-May-2025 
 ******************************************
 %mem=20GB
 %nprocshared=32
 Will use up to   32 processors via shared memory.
 %chk=4-OMe-ph-anion-opt-freq-thf.chk
 ----------------------------------------------------------------------
 # opt=(calcfc,tight) freq 6-311+g(d,p) scrf=(smd,solvent=thf) nosymm s
 cf=(qc,fermi,xqc) geom=connectivity int=ultrafine m062x
 ----------------------------------------------------------------------
 1/7=10,10=4,18=20,19=15,26=6,38=1,57=2/1,3;
 2/9=110,12=2,15=1,17=6,18=5,40=1/2;
 3/5=4,6=6,7=111,11=2,25=1,30=1,70=32201,71=2,72=20,74=-55,75=-5,140=1/1,2,3;
 4//1;
 5/5=2,22=13,38=5,53=20/2;
 8/6=4,10=90,11=11/1;
 11/6=1,8=1,9=11,15=111,16=1,31=1/1,2,10;
 10/6=1,13=1,31=1/2;
 6/7=2,8=2,9=2,10=2,28=1/1;
 7/10=1,25=1,30=1/1,2,3,16;
 1/7=10,10=4,18=20,19=15,26=6/3(2);
 2/9=110,15=1/2;
 99//99;
 2/9=110,15=1/2;
 3/5=4,6=6,7=111,11=2,25=1,30=1,70=32205,71=1,72=20,74=-55,75=-5/1,2,3;
 4/5=5,16=3,69=1/1;
 5/5=2,22=13,38=5,53=20/2;
 7/30=1/1,2,3,16;
 1/7=10,18=20,19=15,26=6/3(-5);
 2/9=110,15=1/2;
 6/7=2,8=2,9=2,10=2,19=2,28=1/1;
 99/9=1/99;
 ---------------------------
 4-OMe-ph-anion-opt-freq-thf
 ---------------------------
 Symbolic Z-matrix:
 Charge = -1 Multiplicity = 1
 C                     6.18299   6.88197   5.14546 
 C                     5.14332   6.06353   5.52994 
 H                     5.24876   5.3245    6.31633 
 C                     3.93106   6.21781   4.86503 
 H                     3.07294   5.60557   5.11857 
 C                     3.79943   7.17395   3.84936 
 C                     4.88113   7.9824    3.4939 
 H                     4.79411   8.72637   2.71296 
 C                     6.10537   7.83081   4.1608 
 H                     6.95017   8.45464   3.89048 
 O                     2.57648   7.24257   3.26458 
 C                     2.39348   8.19128   2.22575 
 H                     1.36129   8.08343   1.89845 
 H                     2.55412   9.21065   2.58886 
 H                     3.0636    7.98998   1.38476 
 

 GradGradGradGradGradGradGradGradGradGradGradGradGradGradGradGradGradGrad
 Berny optimization.
 Initialization pass.
                           ----------------------------
                           !    Initial Parameters    !
                           ! (Angstroms and Degrees)  !
 --------------------------                            --------------------------
 ! Name  Definition              Value          Derivative Info.                !
 --------------------------------------------------------------------------------
 ! R1    R(1,2)                  1.3779         calculate D2E/DX2 analytically  !
 ! R2    R(1,9)                  1.3696         calculate D2E/DX2 analytically  !
 ! R3    R(2,3)                  1.0843         calculate D2E/DX2 analytically  !
 ! R4    R(2,4)                  1.3912         calculate D2E/DX2 analytically  !
 ! R5    R(4,5)                  1.0842         calculate D2E/DX2 analytically  !
 ! R6    R(4,6)                  1.4011         calculate D2E/DX2 analytically  !
 ! R7    R(6,7)                  1.3964         calculate D2E/DX2 analytically  !
 ! R8    R(6,11)                 1.3573         calculate D2E/DX2 analytically  !
 ! R9    R(7,8)                  1.0821         calculate D2E/DX2 analytically  !
 ! R10   R(7,9)                  1.4023         calculate D2E/DX2 analytically  !
 ! R11   R(9,10)                 1.0844         calculate D2E/DX2 analytically  !
 ! R12   R(11,12)                1.4187         calculate D2E/DX2 analytically  !
 ! R13   R(12,13)                1.0882         calculate D2E/DX2 analytically  !
 ! R14   R(12,14)                1.094          calculate D2E/DX2 analytically  !
 ! R15   R(12,15)                1.094          calculate D2E/DX2 analytically  !
 ! A1    A(2,1,9)              124.7041         calculate D2E/DX2 analytically  !
 ! A2    A(1,2,3)              122.2656         calculate D2E/DX2 analytically  !
 ! A3    A(1,2,4)              117.2739         calculate D2E/DX2 analytically  !
 ! A4    A(3,2,4)              120.4605         calculate D2E/DX2 analytically  !
 ! A5    A(2,4,5)              121.0159         calculate D2E/DX2 analytically  !
 ! A6    A(2,4,6)              120.2648         calculate D2E/DX2 analytically  !
 ! A7    A(5,4,6)              118.7193         calculate D2E/DX2 analytically  !
 ! A8    A(4,6,7)              120.4529         calculate D2E/DX2 analytically  !
 ! A9    A(4,6,11)             115.5605         calculate D2E/DX2 analytically  !
 ! A10   A(7,6,11)             123.9866         calculate D2E/DX2 analytically  !
 ! A11   A(6,7,8)              121.2956         calculate D2E/DX2 analytically  !
 ! A12   A(6,7,9)              119.5123         calculate D2E/DX2 analytically  !
 ! A13   A(8,7,9)              119.1921         calculate D2E/DX2 analytically  !
 ! A14   A(1,9,7)              117.792          calculate D2E/DX2 analytically  !
 ! A15   A(1,9,10)             122.2487         calculate D2E/DX2 analytically  !
 ! A16   A(7,9,10)             119.9593         calculate D2E/DX2 analytically  !
 ! A17   A(6,11,12)            117.7434         calculate D2E/DX2 analytically  !
 ! A18   A(11,12,13)           106.0407         calculate D2E/DX2 analytically  !
 ! A19   A(11,12,14)           111.1694         calculate D2E/DX2 analytically  !
 ! A20   A(11,12,15)           111.1513         calculate D2E/DX2 analytically  !
 ! A21   A(13,12,14)           109.3581         calculate D2E/DX2 analytically  !
 ! A22   A(13,12,15)           109.364          calculate D2E/DX2 analytically  !
 ! A23   A(14,12,15)           109.6734         calculate D2E/DX2 analytically  !
 ! D1    D(9,1,2,3)           -179.9769         calculate D2E/DX2 analytically  !
 ! D2    D(9,1,2,4)              0.0272         calculate D2E/DX2 analytically  !
 ! D3    D(2,1,9,7)             -0.0159         calculate D2E/DX2 analytically  !
 ! D4    D(2,1,9,10)           179.9684         calculate D2E/DX2 analytically  !
 ! D5    D(1,2,4,5)            179.9899         calculate D2E/DX2 analytically  !
 ! D6    D(1,2,4,6)              0.0049         calculate D2E/DX2 analytically  !
 ! D7    D(3,2,4,5)             -0.0062         calculate D2E/DX2 analytically  !
 ! D8    D(3,2,4,6)           -179.9911         calculate D2E/DX2 analytically  !
 ! D9    D(2,4,6,7)             -0.0471         calculate D2E/DX2 analytically  !
 ! D10   D(2,4,6,11)           179.9557         calculate D2E/DX2 analytically  !
 ! D11   D(5,4,6,7)            179.9677         calculate D2E/DX2 analytically  !
 ! D12   D(5,4,6,11)            -0.0295         calculate D2E/DX2 analytically  !
 ! D13   D(4,6,7,8)           -179.881          calculate D2E/DX2 analytically  !
 ! D14   D(4,6,7,9)              0.0583         calculate D2E/DX2 analytically  !
 ! D15   D(11,6,7,8)             0.116          calculate D2E/DX2 analytically  !
 ! D16   D(11,6,7,9)          -179.9447         calculate D2E/DX2 analytically  !
 ! D17   D(4,6,11,12)         -179.7238         calculate D2E/DX2 analytically  !
 ! D18   D(7,6,11,12)            0.2791         calculate D2E/DX2 analytically  !
 ! D19   D(6,7,9,1)             -0.0274         calculate D2E/DX2 analytically  !
 ! D20   D(6,7,9,10)           179.988          calculate D2E/DX2 analytically  !
 ! D21   D(8,7,9,1)            179.9132         calculate D2E/DX2 analytically  !
 ! D22   D(8,7,9,10)            -0.0714         calculate D2E/DX2 analytically  !
 ! D23   D(6,11,12,13)         179.9344         calculate D2E/DX2 analytically  !
 ! D24   D(6,11,12,14)         -61.3017         calculate D2E/DX2 analytically  !
 ! D25   D(6,11,12,15)          61.1732         calculate D2E/DX2 analytically  !
 --------------------------------------------------------------------------------
 Trust Radius=3.00D-01 FncErr=5.00D-06 GrdErr=5.00D-06 EigMax=2.50D+02 EigMin=1.00D-04
 Number of steps in this run=     73 maximum allowed number of steps=    100.
 GradGradGradGradGradGradGradGradGradGradGradGradGradGradGradGradGradGrad

                          Input orientation:                          
 ---------------------------------------------------------------------
 Center     Atomic      Atomic             Coordinates (Angstroms)
 Number     Number       Type             X           Y           Z
 ---------------------------------------------------------------------
      1          6           0        6.182992    6.881971    5.145465
      2          6           0        5.143324    6.063528    5.529944
      3          1           0        5.248763    5.324497    6.316327
      4          6           0        3.931063    6.217807    4.865026
      5          1           0        3.072943    5.605569    5.118572
      6          6           0        3.799432    7.173947    3.849359
      7          6           0        4.881127    7.982400    3.493899
      8          1           0        4.794111    8.726365    2.712956
      9          6           0        6.105373    7.830808    4.160797
     10          1           0        6.950172    8.454636    3.890482
     11          8           0        2.576484    7.242566    3.264579
     12          6           0        2.393476    8.191278    2.225749
     13          1           0        1.361286    8.083427    1.898448
     14          1           0        2.554120    9.210648    2.588864
     15          1           0        3.063605    7.989983    1.384755
 ---------------------------------------------------------------------
                    Distance matrix (angstroms):
                    1          2          3          4          5
     1  C    0.000000
     2  C    1.377891   0.000000
     3  H    2.160886   1.084289   0.000000
     4  C    2.364518   1.391221   2.154208   0.000000
     5  H    3.361894   2.159961   2.499562   1.084201   0.000000
     6  C    2.728827   2.421455   3.406898   1.401110   2.144411
     7  C    2.373493   2.810035   3.894317   2.428250   3.399767
     8  H    3.353786   3.892052   4.976314   3.416009   4.299858
     9  C    1.369630   2.433800   3.414921   2.797380   3.881321
    10  H    2.153328   3.416128   4.310138   3.881773   4.965712
    11  O    4.083462   3.620867   4.487007   2.333762   2.522602
    12  C    4.959784   4.796529   5.753601   3.636557   3.939034
    13  H    5.935947   5.618858   6.499371   4.345673   4.408940
    14  H    5.012749   5.025763   6.021399   4.004246   4.434546
    15  H    5.010110   5.021857   6.016655   4.000672   4.430226
                    6          7          8          9         10
     6  C    0.000000
     7  C    1.396428   0.000000
     8  H    2.165825   1.082094   0.000000
     9  C    2.417814   1.402324   2.148877   0.000000
    10  H    3.401326   2.158989   2.471640   1.084397   0.000000
    11  O    1.357305   2.431321   2.724668   3.688129   4.581486
    12  C    2.376507   2.800043   2.507337   4.201491   4.858412
    13  H    3.252347   3.865870   3.586235   5.261977   5.944884
    14  H    2.699593   2.782561   2.295101   4.121448   4.646616
    15  H    2.698449   2.784229   2.302396   4.121177   4.647577
                   11         12         13         14         15
    11  O    0.000000
    12  C    1.418702   0.000000
    13  H    2.012478   1.088198   0.000000
    14  H    2.080970   1.093972   1.780493   0.000000
    15  H    2.080783   1.094013   1.780590   1.788708   0.000000
 Symmetry turned off by external request.
 Stoichiometry    C7H7O(1-)
 Framework group  C1[X(C7H7O)]
 Deg. of freedom    39
 Full point group                 C1      NOp   1
 Rotational constants (GHZ):           5.0122618           1.6511180           1.2519104
 Standard basis: 6-311+G(d,p) (5D, 7F)
   218 basis functions,   344 primitive gaussians,   226 cartesian basis functions
    29 alpha electrons       29 beta electrons
       nuclear repulsion energy       336.1608109291 Hartrees.
 NAtoms=   15 NActive=   15 NUniq=   15 SFac= 1.00D+00 NAtFMM=   60 NAOKFM=F Big=F
 Integral buffers will be    131072 words long.
 Raffenetti 2 integral format.
 Two-electron integral symmetry is turned off.
 Force inversion solution in PCM.
 ------------------------------------------------------------------------------
 Polarizable Continuum Model (PCM)
 =================================
 Model                : PCM.
 Atomic radii         : SMD-Coulomb.
 Polarization charges : Total charges.
 Charge compensation  : None.
 Solution method      : Matrix inversion.
 Cavity type          : VdW (van der Waals Surface) (Alpha=1.000).
 Cavity algorithm     : GePol (No added spheres)
                        Default sphere list used, NSphG=   15.
                        Lebedev-Laikov grids with approx.  5.0 points / Ang**2.
                        Smoothing algorithm: York/Karplus (Gamma=1.0000).
                        Polarization charges: spherical gaussians, with
                                              point-specific exponents (IZeta= 3).
                        Self-potential: point-specific (ISelfS= 7).
                        Self-field    : sphere-specific E.n sum rule (ISelfD= 2).
 1st derivatives      : Analytical E(r).r(x)/FMM algorithm (CHGder, D1EAlg=3).
                        Cavity 1st derivative terms included.
 2nd derivatives      : Analytical E(r).r(xy)/FMM algorithm (CHGder, D2EAlg=3).
                        Cavity 2nd derivative terms included.
 Solvent              : TetraHydroFuran, Eps=   7.425700 Eps(inf)=   1.974025
 ------------------------------------------------------------------------------
 Spheres list:
 ISph  on   Nord     Re0    Alpha      Xe            Ye            Ze
    1   C      1    1.8500  1.000      6.182992      6.881971      5.145465
    2   C      2    1.8500  1.000      5.143324      6.063528      5.529944
    3   H      3    1.2000  1.000      5.248763      5.324497      6.316327
    4   C      4    1.8500  1.000      3.931063      6.217807      4.865026
    5   H      5    1.2000  1.000      3.072943      5.605569      5.118572
    6   C      6    1.8500  1.000      3.799432      7.173947      3.849359
    7   C      7    1.8500  1.000      4.881127      7.982400      3.493899
    8   H      8    1.2000  1.000      4.794111      8.726365      2.712956
    9   C      9    1.8500  1.000      6.105373      7.830808      4.160797
   10   H     10    1.2000  1.000      6.950172      8.454636      3.890482
   11   O     11    2.2940  1.000      2.576484      7.242566      3.264579
   12   C     12    1.8500  1.000      2.393476      8.191278      2.225749
   13   H     13    1.2000  1.000      1.361286      8.083427      1.898448
   14   H     14    1.2000  1.000      2.554120      9.210648      2.588864
   15   H     15    1.2000  1.000      3.063605      7.989983      1.384755
 ------------------------------------------------------------------------------
 ------------------------------------------------------------------------------
 Atomic radii for non-electrostatic terms: SMD-CDS.
 ------------------------------------------------------------------------------
 Nuclear repulsion after PCM non-electrostatic terms =      336.1586039115 Hartrees.
 One-electron integrals computed using PRISM.
 NBasis=   218 RedAO= T EigKep=  2.88D-06  NBF=   218
 NBsUse=   218 1.00D-06 EigRej= -1.00D+00 NBFU=   218
 ExpMin= 4.38D-02 ExpMax= 8.59D+03 ExpMxC= 1.30D+03 IAcc=3 IRadAn=         5 AccDes= 0.00D+00
 Harris functional with IExCor= 1009 and IRadAn=       5 diagonalized for initial guess.
 HarFok:  IExCor= 1009 AccDes= 0.00D+00 IRadAn=         5 IDoV= 1 UseB2=F ITyADJ=14
 ICtDFT=  3500011 ScaDFX=  1.000000  1.000000  1.000000  1.000000
 FoFCou: FMM=F IPFlag=           0 FMFlag=      100000 FMFlg1=           0
         NFxFlg=           0 DoJE=T BraDBF=F KetDBF=T FulRan=T
         wScrn=  0.000000 ICntrl=       500 IOpCl=  0 I1Cent=   200000004 NGrid=           0
         NMat0=    1 NMatS0=      1 NMatT0=    0 NMatD0=    1 NMtDS0=    0 NMtDT0=    0
 Symmetry not used in FoFCou.
 Requested convergence on RMS density matrix=1.00D-08 within 128 cycles.
 Requested convergence on MAX density matrix=1.00D-06.
 Requested convergence on             energy=1.00D-06.
 Level shift goal  0.100 maximum shift  0.100.
 No special actions if energy rises.
 Dynamic level shift is on during FON iterations.
 Inv3:  Mode=1 IEnd=     4725075.
 Iteration    1 A*A^-1 deviation from unit magnitude is 4.00D-15 for   1254.
 Iteration    1 A*A^-1 deviation from orthogonality  is 2.03D-15 for    691    381.
 Iteration    1 A^-1*A deviation from unit magnitude is 4.22D-15 for   1254.
 Iteration    1 A^-1*A deviation from orthogonality  is 2.49D-15 for    461    455.
 Error on total polarization charges =  0.06268
 SCF Done:  E(RM062X) =  -346.141850418     A.U. after   17 cycles
            NFock= 17  Conv=0.68D-08     -V/T= 2.0034
 SMD-CDS (non-electrostatic) energy       (kcal/mol) =      -1.38
 (included in total energy above)
 DoSCS=F DFT=T ScalE2(SS,OS)=  1.000000  1.000000
 Range of M.O.s used for correlation:     1   218
 NBasis=   218 NAE=    29 NBE=    29 NFC=     0 NFV=     0
 NROrb=    218 NOA=    29 NOB=    29 NVA=   189 NVB=   189

 **** Warning!!: The largest alpha MO coefficient is  0.16319923D+03

 Symmetrizing basis deriv contribution to polar:
 IMax=3 JMax=2 DiffMx= 0.00D+00
 G2DrvN: will do    16 centers at a time, making    1 passes.
 Calling FoFCou, ICntrl=  3107 FMM=F I1Cent=   0 AccDes= 0.00D+00.
 NEqPCM:  Using equilibrium solvation (IEInf=0, Eps=   7.4257, EpsInf=   1.9740)
 G2PCM: DoFxE=T DoFxN=T DoGrad=T DoDP/DQ/DG/TGxP=FFFF NFrqRd=   0 IEInf=0 SqF1=F DoCFld=F IF1Alg=4.
 End of G2Drv F.D. properties file   721 does not exist.
 End of G2Drv F.D. properties file   722 does not exist.
 End of G2Drv F.D. properties file   788 does not exist.
          IDoAtm=111111111111111
 NEqPCM:  Using equilibrium solvation (IEInf=0, Eps=   7.4257, EpsInf=   1.9740)
          Differentiating once with respect to nuclear coordinates.
 Keep R1 ints in memory in canonical form, NReq=318622042.
          There are    48 degrees of freedom in the 1st order CPHF.  IDoFFX=6 NUNeed=     0.
     42 vectors produced by pass  0 Test12= 1.14D-14 2.08D-09 XBig12= 1.26D-01 1.01D-01.
 AX will form    42 AO Fock derivatives at one time.
     42 vectors produced by pass  1 Test12= 1.14D-14 2.08D-09 XBig12= 9.84D-03 3.40D-02.
     42 vectors produced by pass  2 Test12= 1.14D-14 2.08D-09 XBig12= 2.92D-04 3.88D-03.
     42 vectors produced by pass  3 Test12= 1.14D-14 2.08D-09 XBig12= 2.79D-06 3.29D-04.
     42 vectors produced by pass  4 Test12= 1.14D-14 2.08D-09 XBig12= 2.50D-08 2.66D-05.
     42 vectors produced by pass  5 Test12= 1.14D-14 2.08D-09 XBig12= 1.35D-10 1.57D-06.
     36 vectors produced by pass  6 Test12= 1.14D-14 2.08D-09 XBig12= 5.48D-13 8.76D-08.
     11 vectors produced by pass  7 Test12= 1.14D-14 2.08D-09 XBig12= 1.92D-15 4.98D-09.
 InvSVY:  IOpt=1 It=  1 EMax= 1.55D-15
 Solved reduced A of dimension   299 with    42 vectors.
 End of Minotr F.D. properties file   721 does not exist.
 End of Minotr F.D. properties file   722 does not exist.
 End of Minotr F.D. properties file   788 does not exist.

 **********************************************************************

            Population analysis using the SCF Density.

 **********************************************************************

 Alpha  occ. eigenvalues --  -19.62175 -10.56165 -10.56132 -10.49868 -10.49655
 Alpha  occ. eigenvalues --  -10.48809 -10.48700 -10.42871  -1.16300  -0.90718
 Alpha  occ. eigenvalues --   -0.81008  -0.79485  -0.73630  -0.64762  -0.61511
 Alpha  occ. eigenvalues --   -0.57487  -0.52187  -0.51410  -0.47725  -0.46049
 Alpha  occ. eigenvalues --   -0.44587  -0.43355  -0.41420  -0.39150  -0.35210
 Alpha  occ. eigenvalues --   -0.35112  -0.26968  -0.22746  -0.16661
 Alpha virt. eigenvalues --    0.03404   0.04781   0.05178   0.05278   0.06544
 Alpha virt. eigenvalues --    0.06661   0.07871   0.08320   0.08477   0.10329
 Alpha virt. eigenvalues --    0.10440   0.11236   0.11645   0.12520   0.14361
 Alpha virt. eigenvalues --    0.14671   0.16010   0.16254   0.17698   0.17846
 Alpha virt. eigenvalues --    0.18279   0.19154   0.20026   0.21092   0.21630
 Alpha virt. eigenvalues --    0.22976   0.23189   0.24796   0.24895   0.25329
 Alpha virt. eigenvalues --    0.25638   0.26625   0.27465   0.27784   0.27968
 Alpha virt. eigenvalues --    0.28691   0.28948   0.30276   0.31099   0.31148
 Alpha virt. eigenvalues --    0.35239   0.36873   0.37052   0.41078   0.41664
 Alpha virt. eigenvalues --    0.43506   0.44695   0.46644   0.48254   0.54499
 Alpha virt. eigenvalues --    0.56003   0.57813   0.60123   0.61180   0.61687
 Alpha virt. eigenvalues --    0.63293   0.63756   0.66174   0.66855   0.68203
 Alpha virt. eigenvalues --    0.69262   0.69685   0.69861   0.70308   0.73291
 Alpha virt. eigenvalues --    0.74942   0.76391   0.76752   0.79828   0.81279
 Alpha virt. eigenvalues --    0.82340   0.82945   0.84669   0.87089   0.91262
 Alpha virt. eigenvalues --    0.92509   0.93373   0.94912   0.95738   0.99353
 Alpha virt. eigenvalues --    1.01122   1.04848   1.07418   1.08094   1.09252
 Alpha virt. eigenvalues --    1.09433   1.12127   1.14828   1.17468   1.21125
 Alpha virt. eigenvalues --    1.24752   1.26521   1.34215   1.35452   1.37415
 Alpha virt. eigenvalues --    1.41416   1.48785   1.51576   1.54040   1.59383
 Alpha virt. eigenvalues --    1.60513   1.61962   1.65574   1.66013   1.67340
 Alpha virt. eigenvalues --    1.68310   1.72323   1.74834   1.75460   1.76064
 Alpha virt. eigenvalues --    1.76945   1.78295   1.83378   1.85067   1.85118
 Alpha virt. eigenvalues --    1.90817   1.95990   1.96968   1.99873   2.00751
 Alpha virt. eigenvalues --    2.02459   2.02598   2.02939   2.10072   2.11942
 Alpha virt. eigenvalues --    2.13745   2.15580   2.15799   2.17649   2.23498
 Alpha virt. eigenvalues --    2.29707   2.35819   2.42962   2.46649   2.47397
 Alpha virt. eigenvalues --    2.50216   2.50905   2.54914   2.57193   2.61669
 Alpha virt. eigenvalues --    2.63886   2.66808   2.71476   2.75424   2.76027
 Alpha virt. eigenvalues --    2.76987   2.78022   2.80921   2.81558   2.86442
 Alpha virt. eigenvalues --    2.87378   2.90088   2.95023   2.99387   3.00550
 Alpha virt. eigenvalues --    3.01593   3.09111   3.15422   3.17184   3.19644
 Alpha virt. eigenvalues --    3.25464   3.28961   3.34723   3.43174   3.48445
 Alpha virt. eigenvalues --    3.52275   3.60278   3.69586   3.73834   3.83361
 Alpha virt. eigenvalues --    3.85336   3.91922   4.08061   4.17948   4.22695
 Alpha virt. eigenvalues --    4.24250   4.30108   4.91133   5.17487   5.54485
 Alpha virt. eigenvalues --    5.90813  23.70041  24.02305  24.04379  24.10898
 Alpha virt. eigenvalues --   24.21076  24.23456  24.34977  50.10722
          Condensed to atoms (all electrons):
               1          2          3          4          5          6
     1  C    9.270973  -1.822965  -0.161096   1.610875  -0.046400  -1.345033
     2  C   -1.822965   7.323628   0.582835  -1.861376   0.091969   1.190832
     3  H   -0.161096   0.582835   0.541676  -0.229133  -0.001016   0.087192
     4  C    1.610875  -1.861376  -0.229133  11.039213   0.213483  -1.639869
     5  H   -0.046400   0.091969  -0.001016   0.213483   0.502703   0.109981
     6  C   -1.345033   1.190832   0.087192  -1.639869   0.109981   8.264939
     7  C    1.382084  -1.175073  -0.030132  -0.738663  -0.039413  -1.312486
     8  H   -0.048459   0.034166   0.000140  -0.109003   0.000073   0.042775
     9  C   -1.676486   1.608549   0.054187  -1.547521   0.017061   0.675661
    10  H   -0.164541   0.073563   0.000367  -0.067371   0.000140   0.059092
    11  O    0.009371  -0.004521  -0.001273  -0.512136  -0.005274   0.296367
    12  C    0.005445  -0.008313   0.000523   0.054930   0.003775   0.036572
    13  H   -0.000850   0.000160   0.000000  -0.007899  -0.000009   0.021535
    14  H    0.000435   0.000203  -0.000001   0.003995   0.000026  -0.019787
    15  H    0.000621   0.000093  -0.000001   0.005866   0.000026  -0.020736
               7          8          9         10         11         12
     1  C    1.382084  -0.048459  -1.676486  -0.164541   0.009371   0.005445
     2  C   -1.175073   0.034166   1.608549   0.073563  -0.004521  -0.008313
     3  H   -0.030132   0.000140   0.054187   0.000367  -0.001273   0.000523
     4  C   -0.738663  -0.109003  -1.547521  -0.067371  -0.512136   0.054930
     5  H   -0.039413   0.000073   0.017061   0.000140  -0.005274   0.003775
     6  C   -1.312486   0.042775   0.675661   0.059092   0.296367   0.036572
     7  C    8.876668   0.341226  -1.499669  -0.157655   0.095353  -0.147718
     8  H    0.341226   0.507743   0.088501  -0.000812  -0.015844   0.001282
     9  C   -1.499669   0.088501   8.141240   0.556228   0.010316  -0.139127
    10  H   -0.157655  -0.000812   0.556228   0.545238  -0.000714   0.002051
    11  O    0.095353  -0.015844   0.010316  -0.000714   8.320125   0.129228
    12  C   -0.147718   0.001282  -0.139127   0.002051   0.129228   5.165179
    13  H    0.003392   0.000782   0.010126  -0.000001  -0.064688   0.410298
    14  H    0.013811  -0.001756  -0.006512   0.000011  -0.036461   0.415241
    15  H    0.013738  -0.001801  -0.007396   0.000011  -0.036377   0.415435
              13         14         15
     1  C   -0.000850   0.000435   0.000621
     2  C    0.000160   0.000203   0.000093
     3  H    0.000000  -0.000001  -0.000001
     4  C   -0.007899   0.003995   0.005866
     5  H   -0.000009   0.000026   0.000026
     6  C    0.021535  -0.019787  -0.020736
     7  C    0.003392   0.013811   0.013738
     8  H    0.000782  -0.001756  -0.001801
     9  C    0.010126  -0.006512  -0.007396
    10  H   -0.000001   0.000011   0.000011
    11  O   -0.064688  -0.036461  -0.036377
    12  C    0.410298   0.415241   0.415435
    13  H    0.493189  -0.024209  -0.024116
    14  H   -0.024209   0.531998  -0.048288
    15  H   -0.024116  -0.048288   0.531444
 Mulliken charges:
               1
     1  C   -1.013976
     2  C   -0.033750
     3  H    0.155733
     4  C   -0.215393
     5  H    0.152874
     6  C   -0.447037
     7  C    0.374536
     8  H    0.160985
     9  C   -0.285160
    10  H    0.154393
    11  O   -0.183473
    12  C   -0.344801
    13  H    0.182291
    14  H    0.171296
    15  H    0.171482
 Sum of Mulliken charges =  -1.00000
 Mulliken charges with hydrogens summed into heavy atoms:
               1
     1  C   -1.013976
     2  C    0.121983
     4  C   -0.062519
     6  C   -0.447037
     7  C    0.535521
     9  C   -0.130767
    11  O   -0.183473
    12  C    0.180268
 APT charges:
               1
     1  C   -3.136670
     2  C    1.179141
     3  H    0.524307
     4  C   -1.766692
     5  H   -0.547585
     6  C    0.400687
     7  C   -0.574307
     8  H    0.780051
     9  C    0.440746
    10  H    1.608132
    11  O    0.069312
    12  C   -1.438538
    13  H   -0.226174
    14  H    1.543877
    15  H    0.143714
 Sum of APT charges =  -1.00000
 APT charges with hydrogens summed into heavy atoms:
               1
     1  C   -3.136670
     2  C    1.703447
     4  C   -2.314277
     6  C    0.400687
     7  C    0.205744
     9  C    2.048878
    11  O    0.069312
    12  C    0.022879
 Electronic spatial extent (au):  <R**2>=          18922.5615
 Charge=             -1.0000 electrons
 Dipole moment (field-independent basis, Debye):
    X=            -30.1289    Y=            -31.7808    Z=            -26.1856  Tot=             51.0241
 Quadrupole moment (field-independent basis, Debye-Ang):
   XX=           -248.3467   YY=           -260.3645   ZZ=           -191.2000
   XY=           -201.9522   XZ=           -163.1595   YZ=           -179.9392
 Traceless Quadrupole moment (field-independent basis, Debye-Ang):
   XX=            -15.0430   YY=            -27.0607   ZZ=             42.1037
   XY=           -201.9522   XZ=           -163.1595   YZ=           -179.9392
 Octapole moment (field-independent basis, Debye-Ang**2):
  XXX=          -2007.1143  YYY=          -2473.7914  ZZZ=          -1380.9060  XYY=          -1581.8921
  XXY=          -1693.1879  XXZ=          -1280.0429  XZZ=          -1113.3409  YZZ=          -1350.7722
  YYZ=          -1446.5174  XYZ=          -1118.3112
 Hexadecapole moment (field-independent basis, Debye-Ang**3):
 XXXX=         -15831.9831 YYYY=         -25082.2553 ZZZZ=          -9696.0379 XXXY=         -13762.8281
 XXXZ=         -10188.6619 YYYX=         -13967.0580 YYYZ=         -12925.1207 ZZZX=          -7818.8784
 ZZZY=          -9759.5057 XXYY=         -12750.1442 XXZZ=          -7935.0494 YYZZ=         -10529.5143
 XXYZ=          -8775.4927 YYXZ=          -8675.5145 ZZXY=          -7786.1347
 N-N= 3.361586039115D+02 E-N=-1.488875520593D+03  KE= 3.449648863263D+02
  Exact polarizability:       0.000       0.000       0.000       0.000       0.000       0.000
 Approx polarizability:     133.850       9.636     110.203      12.264     -24.540     111.547
 D2PCM: PCM CHGder 2nd derivatives, FixD1E=F FixD2E=F DoIter=F DoCFld=F I1PDM=0
 Calling FoFJK, ICntrl=    100127 FMM=F ISym2X=0 I1Cent= 0 IOpClX= 0 NMat=1 NMatS=1 NMatT=0.
 -------------------------------------------------------------------
 Center     Atomic                   Forces (Hartrees/Bohr)
 Number     Number              X              Y              Z
 -------------------------------------------------------------------
      1        6           0.073035858   -0.009252895    0.039920560
      2        6          -0.020632571    0.012684936   -0.021300173
      3        1          -0.001614405   -0.002060145    0.001425338
      4        6          -0.007555852   -0.005673282    0.002650834
      5        1          -0.004727486   -0.000186780   -0.001876621
      6        6           0.009735276   -0.000466737    0.004509233
      7        6          -0.001288332    0.007028242   -0.007406807
      8        1          -0.003755010    0.001117325   -0.002840962
      9        6          -0.031131567   -0.006246080   -0.007048135
     10        1           0.000586659    0.002308947   -0.002032671
     11        8          -0.013307952    0.003090279   -0.008650380
     12        6           0.000677103   -0.003602684    0.003936744
     13        1          -0.000558578    0.000109432   -0.000351002
     14        1           0.000248080    0.000583179   -0.000470466
     15        1           0.000288777    0.000566262   -0.000465492
 -------------------------------------------------------------------
 Cartesian Forces:  Max     0.073035858 RMS     0.014749271
 FormGI is forming the generalized inverse of G from B-inverse, IUseBI=4.

 GradGradGradGradGradGradGradGradGradGradGradGradGradGradGradGradGradGrad
 Berny optimization.
 Internal  Forces:  Max     0.051322757 RMS     0.010258015
 Search for a local minimum.
 Step number   1 out of a maximum of   73
 All quantities printed in internal units (Hartrees-Bohrs-Radians)
 Mixed Optimization -- RFO/linear search
 Second derivative matrix not updated -- analytic derivatives used.
 ITU=  0
     Eigenvalues ---    0.00328   0.01128   0.01577   0.02041   0.02244
     Eigenvalues ---    0.02425   0.02681   0.03115   0.03754   0.04065
     Eigenvalues ---    0.08591   0.08716   0.10502   0.10946   0.11666
     Eigenvalues ---    0.12045   0.13325   0.18365   0.18599   0.19061
     Eigenvalues ---    0.19637   0.20019   0.22132   0.27951   0.33232
     Eigenvalues ---    0.33582   0.34898   0.35080   0.35216   0.35480
     Eigenvalues ---    0.36182   0.37364   0.37894   0.40373   0.43215
     Eigenvalues ---    0.46893   0.50145   0.52596   0.58476
 RFO step:  Lambda=-2.48667223D-02 EMin= 3.28291228D-03
 Linear search not attempted -- first point.
 Maximum step size (   0.300) exceeded in Quadratic search.
    -- Step size scaled by   0.941
 Iteration  1 RMS(Cart)=  0.03990783 RMS(Int)=  0.00247686
 Iteration  2 RMS(Cart)=  0.00355077 RMS(Int)=  0.00079892
 Iteration  3 RMS(Cart)=  0.00000332 RMS(Int)=  0.00079892
 Iteration  4 RMS(Cart)=  0.00000000 RMS(Int)=  0.00079892
 Variable       Old X    -DE/DX   Delta X   Delta X   Delta X     New X
                                 (Linear)    (Quad)   (Total)
    R1        2.60384   0.02472   0.00000   0.05957   0.06077   2.66460
    R2        2.58823   0.02535   0.00000   0.05958   0.06077   2.64900
    R3        2.04901   0.00229   0.00000   0.00929   0.00929   2.05830
    R4        2.62903   0.01150   0.00000   0.00560   0.00562   2.63465
    R5        2.04884   0.00342   0.00000   0.00388   0.00388   2.05272
    R6        2.64771  -0.00488   0.00000  -0.01275  -0.01397   2.63374
    R7        2.63887  -0.00508   0.00000  -0.01082  -0.01205   2.62682
    R8        2.56494   0.01399   0.00000   0.02479   0.02479   2.58973
    R9        2.04486   0.00311   0.00000   0.00376   0.00376   2.04863
   R10        2.65001   0.01159   0.00000   0.00651   0.00654   2.65654
   R11        2.04921   0.00228   0.00000   0.00920   0.00920   2.05841
   R12        2.68096  -0.00355   0.00000  -0.01048  -0.01048   2.67048
   R13        2.05640   0.00061   0.00000   0.00190   0.00190   2.05829
   R14        2.06731   0.00043   0.00000   0.00172   0.00172   2.06903
   R15        2.06738   0.00044   0.00000   0.00180   0.00180   2.06919
    A1        2.17650  -0.05132   0.00000  -0.19960  -0.19598   1.98052
    A2        2.13394  -0.01111   0.00000  -0.04692  -0.04743   2.08650
    A3        2.04682   0.02621   0.00000   0.11579   0.11683   2.16364
    A4        2.10243  -0.01509   0.00000  -0.06887  -0.06939   2.03304
    A5        2.11213   0.00310   0.00000   0.00819   0.00893   2.12105
    A6        2.09902   0.00157   0.00000  -0.00355  -0.00502   2.09400
    A7        2.07204  -0.00467   0.00000  -0.00464  -0.00391   2.06813
    A8        2.10230  -0.00427   0.00000  -0.02481  -0.02756   2.07474
    A9        2.01691   0.00250   0.00000   0.01371   0.01509   2.03200
   A10        2.16397   0.00177   0.00000   0.01110   0.01247   2.17645
   A11        2.11701  -0.00450   0.00000  -0.00573  -0.00498   2.11202
   A12        2.08588   0.00146   0.00000  -0.00266  -0.00415   2.08173
   A13        2.08029   0.00304   0.00000   0.00839   0.00914   2.08943
   A14        2.05586   0.02635   0.00000   0.11484   0.11587   2.17173
   A15        2.13364  -0.01101   0.00000  -0.04508  -0.04560   2.08805
   A16        2.09368  -0.01534   0.00000  -0.06976  -0.07028   2.02341
   A17        2.05501  -0.00053   0.00000  -0.00831  -0.00831   2.04669
   A18        1.85076   0.00028   0.00000   0.00375   0.00374   1.85450
   A19        1.94027   0.00059   0.00000   0.00491   0.00490   1.94517
   A20        1.93996   0.00058   0.00000   0.00443   0.00442   1.94438
   A21        1.90866  -0.00027   0.00000  -0.00306  -0.00307   1.90559
   A22        1.90876  -0.00025   0.00000  -0.00305  -0.00306   1.90570
   A23        1.91416  -0.00091   0.00000  -0.00685  -0.00686   1.90730
    D1       -3.14119  -0.00002   0.00000   0.00160   0.00147  -3.13972
    D2        0.00047   0.00001   0.00000   0.00247   0.00239   0.00287
    D3       -0.00028   0.00002   0.00000  -0.00301  -0.00294  -0.00321
    D4        3.14104  -0.00003   0.00000  -0.00137  -0.00122   3.13982
    D5        3.14142  -0.00006   0.00000  -0.00146  -0.00154   3.13987
    D6        0.00009  -0.00003   0.00000  -0.00018  -0.00032  -0.00023
    D7       -0.00011  -0.00003   0.00000  -0.00061  -0.00065  -0.00076
    D8       -3.14144   0.00000   0.00000   0.00067   0.00057  -3.14086
    D9       -0.00082   0.00001   0.00000  -0.00145  -0.00149  -0.00231
   D10        3.14082   0.00000   0.00000  -0.00182  -0.00179   3.13903
   D11        3.14103   0.00003   0.00000  -0.00020  -0.00031   3.14072
   D12       -0.00052   0.00003   0.00000  -0.00058  -0.00061  -0.00112
   D13       -3.13952  -0.00003   0.00000  -0.00030  -0.00017  -3.13968
   D14        0.00102   0.00002   0.00000   0.00088   0.00097   0.00199
   D15        0.00202  -0.00003   0.00000   0.00011   0.00016   0.00218
   D16       -3.14063   0.00002   0.00000   0.00130   0.00130  -3.13933
   D17       -3.13677  -0.00003   0.00000   0.00271   0.00267  -3.13410
   D18        0.00487  -0.00004   0.00000   0.00232   0.00235   0.00722
   D19       -0.00048  -0.00003   0.00000   0.00124   0.00139   0.00092
   D20        3.14138   0.00001   0.00000  -0.00036  -0.00027   3.14112
   D21        3.14008   0.00002   0.00000   0.00239   0.00251  -3.14060
   D22       -0.00125   0.00006   0.00000   0.00079   0.00085  -0.00040
   D23        3.14045  -0.00004   0.00000  -0.00120  -0.00120   3.13925
   D24       -1.06992   0.00012   0.00000   0.00003   0.00003  -1.06988
   D25        1.06767  -0.00021   0.00000  -0.00217  -0.00218   1.06550
         Item               Value     Threshold  Converged?
 Maximum Force            0.051323     0.000015     NO 
 RMS     Force            0.010258     0.000010     NO 
 Maximum Displacement     0.228496     0.000060     NO 
 RMS     Displacement     0.040291     0.000040     NO 
 Predicted change in Energy=-1.350628D-02
 GradGradGradGradGradGradGradGradGradGradGradGradGradGradGradGradGradGrad

                          Input orientation:                          
 ---------------------------------------------------------------------
 Center     Atomic      Atomic             Coordinates (Angstroms)
 Number     Number       Type             X           Y           Z
 ---------------------------------------------------------------------
      1          6           0        6.303907    6.864550    5.209158
      2          6           0        5.163145    6.091691    5.508461
      3          1           0        5.217052    5.334707    6.289764
      4          6           0        3.937193    6.228424    4.858751
      5          1           0        3.083465    5.609951    5.120639
      6          6           0        3.787269    7.174547    3.846416
      7          6           0        4.874396    7.970950    3.505621
      8          1           0        4.795842    8.718883    2.724809
      9          6           0        6.092174    7.799940    4.186795
     10          1           0        6.907528    8.451886    3.875882
     11          8           0        2.552902    7.244814    3.255260
     12          6           0        2.383799    8.191799    2.220060
     13          1           0        1.352918    8.093588    1.882425
     14          1           0        2.548683    9.212498    2.580272
     15          1           0        3.057998    7.991203    1.380911
 ---------------------------------------------------------------------
                    Distance matrix (angstroms):
                    1          2          3          4          5
     1  C    0.000000
     2  C    1.410047   0.000000
     3  H    2.165499   1.089204   0.000000
     4  C    2.475637   1.394195   2.117680   0.000000
     5  H    3.457326   2.169688   2.448429   1.086252   0.000000
     6  C    2.878651   2.414127   3.376276   1.393718   2.137041
     7  C    2.483880   2.761587   3.849499   2.397021   3.374912
     8  H    3.447434   3.845227   4.933455   3.390189   4.282254
     9  C    1.401789   2.351173   3.356441   2.750479   3.836724
    10  H    2.159077   3.358378   4.289678   3.838321   4.924375
    11  O    4.246452   3.635929   4.467037   2.349573   2.536516
    12  C    5.105246   4.790491   5.723006   3.637385   3.945736
    13  H    6.090154   5.627927   6.478240   4.360714   4.432751
    14  H    5.150302   5.014892   5.993145   4.003015   4.440474
    15  H    5.144001   5.007641   5.984591   3.996968   4.433574
                    6          7          8          9         10
     6  C    0.000000
     7  C    1.390051   0.000000
     8  H    2.158749   1.084086   0.000000
     9  C    2.412377   1.405783   2.159244   0.000000
    10  H    3.371717   2.121796   2.419809   1.089266   0.000000
    11  O    1.370425   2.445258   2.735880   3.701671   4.561245
    12  C    2.376881   2.811496   2.520028   4.215880   4.824263
    13  H    3.260055   3.879512   3.599213   5.277963   5.912355
    14  H    2.700085   2.794039   2.305270   4.139150   4.610495
    15  H    2.697681   2.795372   2.314235   4.137124   4.610423
                   11         12         13         14         15
    11  O    0.000000
    12  C    1.413158   0.000000
    13  H    2.011232   1.089201   0.000000
    14  H    2.080242   1.094882   1.780114   0.000000
    15  H    2.079760   1.094967   1.780252   1.785898   0.000000
 Symmetry turned off by external request.
 Stoichiometry    C7H7O(1-)
 Framework group  C1[X(C7H7O)]
 Deg. of freedom    39
 Full point group                 C1      NOp   1
 Rotational constants (GHZ):           5.1622729           1.6004471           1.2312638
 Standard basis: 6-311+G(d,p) (5D, 7F)
   218 basis functions,   344 primitive gaussians,   226 cartesian basis functions
    29 alpha electrons       29 beta electrons
       nuclear repulsion energy       334.4700009880 Hartrees.
 NAtoms=   15 NActive=   15 NUniq=   15 SFac= 1.00D+00 NAtFMM=   60 NAOKFM=F Big=F
 Integral buffers will be    131072 words long.
 Raffenetti 2 integral format.
 Two-electron integral symmetry is turned off.
 ------------------------------------------------------------------------------
 Polarizable Continuum Model (PCM)
 =================================
 Model                : PCM.
 Atomic radii         : SMD-Coulomb.
 Polarization charges : Total charges.
 Charge compensation  : None.
 Solution method      : Matrix inversion.
 Cavity type          : VdW (van der Waals Surface) (Alpha=1.000).
 Cavity algorithm     : GePol (No added spheres)
                        Default sphere list used, NSphG=   15.
                        Lebedev-Laikov grids with approx.  5.0 points / Ang**2.
                        Smoothing algorithm: York/Karplus (Gamma=1.0000).
                        Polarization charges: spherical gaussians, with
                                              point-specific exponents (IZeta= 3).
                        Self-potential: point-specific (ISelfS= 7).
                        Self-field    : sphere-specific E.n sum rule (ISelfD= 2).
 1st derivatives      : Analytical E(r).r(x)/FMM algorithm (CHGder, D1EAlg=3).
                        Cavity 1st derivative terms included.
 Solvent              : TetraHydroFuran, Eps=   7.425700 Eps(inf)=   1.974025
 ------------------------------------------------------------------------------
 Spheres list:
 ISph  on   Nord     Re0    Alpha      Xe            Ye            Ze
    1   C      1    1.8500  1.000      6.303907      6.864550      5.209158
    2   C      2    1.8500  1.000      5.163145      6.091691      5.508461
    3   H      3    1.2000  1.000      5.217052      5.334707      6.289764
    4   C      4    1.8500  1.000      3.937193      6.228424      4.858751
    5   H      5    1.2000  1.000      3.083465      5.609951      5.120639
    6   C      6    1.8500  1.000      3.787269      7.174547      3.846416
    7   C      7    1.8500  1.000      4.874396      7.970950      3.505621
    8   H      8    1.2000  1.000      4.795842      8.718883      2.724809
    9   C      9    1.8500  1.000      6.092174      7.799940      4.186795
   10   H     10    1.2000  1.000      6.907528      8.451886      3.875882
   11   O     11    2.2940  1.000      2.552902      7.244814      3.255260
   12   C     12    1.8500  1.000      2.383799      8.191799      2.220060
   13   H     13    1.2000  1.000      1.352918      8.093588      1.882425
   14   H     14    1.2000  1.000      2.548683      9.212498      2.580272
   15   H     15    1.2000  1.000      3.057998      7.991203      1.380911
 ------------------------------------------------------------------------------
 ------------------------------------------------------------------------------
 Atomic radii for non-electrostatic terms: SMD-CDS.
 ------------------------------------------------------------------------------
 Nuclear repulsion after PCM non-electrostatic terms =      334.4678986596 Hartrees.
 One-electron integrals computed using PRISM.
 NBasis=   218 RedAO= T EigKep=  3.46D-06  NBF=   218
 NBsUse=   218 1.00D-06 EigRej= -1.00D+00 NBFU=   218
 Initial guess from the checkpoint file:  "4-OMe-ph-anion-opt-freq-thf.chk"
 B after Tr=     0.009399   -0.004657    0.014819
         Rot=    1.000000    0.000036   -0.000325   -0.000084 Ang=   0.04 deg.
 ExpMin= 4.38D-02 ExpMax= 8.59D+03 ExpMxC= 1.30D+03 IAcc=3 IRadAn=         5 AccDes= 0.00D+00
 Harris functional with IExCor= 1009 and IRadAn=       5 diagonalized for initial guess.
 HarFok:  IExCor= 1009 AccDes= 0.00D+00 IRadAn=         5 IDoV= 1 UseB2=F ITyADJ=14
 ICtDFT=  3500011 ScaDFX=  1.000000  1.000000  1.000000  1.000000
 FoFCou: FMM=F IPFlag=           0 FMFlag=      100000 FMFlg1=           0
         NFxFlg=           0 DoJE=T BraDBF=F KetDBF=T FulRan=T
         wScrn=  0.000000 ICntrl=       500 IOpCl=  0 I1Cent=   200000004 NGrid=           0
         NMat0=    1 NMatS0=      1 NMatT0=    0 NMatD0=    1 NMtDS0=    0 NMtDT0=    0
 Symmetry not used in FoFCou.
 Requested convergence on RMS density matrix=1.00D-08 within 128 cycles.
 Requested convergence on MAX density matrix=1.00D-06.
 Requested convergence on             energy=1.00D-06.
 Level shift goal  0.100 maximum shift  0.100.
 No special actions if energy rises.
 Dynamic level shift is on during FON iterations.
 Inv3:  Mode=1 IEnd=     4770363.
 Iteration    1 A*A^-1 deviation from unit magnitude is 4.00D-15 for   1256.
 Iteration    1 A*A^-1 deviation from orthogonality  is 2.42D-15 for   1255    112.
 Iteration    1 A^-1*A deviation from unit magnitude is 3.77D-15 for   1256.
 Iteration    1 A^-1*A deviation from orthogonality  is 1.67D-15 for   1250   1136.
 Error on total polarization charges =  0.05864
 SCF Done:  E(RM062X) =  -346.155178971     A.U. after   14 cycles
            NFock= 14  Conv=0.63D-08     -V/T= 2.0039
 SMD-CDS (non-electrostatic) energy       (kcal/mol) =      -1.32
 (included in total energy above)
 D1PCM: PCM CHGder 1st derivatives, ID1Alg=3 FixD1E=F DoIter=F DoCFld=F I1PDM=0.
 Calling FoFJK, ICntrl=      2127 FMM=F ISym2X=0 I1Cent= 0 IOpClX= 0 NMat=1 NMatS=1 NMatT=0.
 -------------------------------------------------------------------
 Center     Atomic                   Forces (Hartrees/Bohr)
 Number     Number              X              Y              Z
 -------------------------------------------------------------------
      1        6           0.010768919   -0.001149716    0.005786246
      2        6          -0.002427192    0.001664518   -0.002866884
      3        1          -0.000651963   -0.000964737    0.000689696
      4        6          -0.001853959   -0.002333511    0.001620027
      5        1          -0.000802933   -0.000166061   -0.000204899
      6        6           0.000055261    0.000035192   -0.000099101
      7        6           0.000782519    0.002636806   -0.002171807
      8        1          -0.000518238    0.000248449   -0.000542586
      9        6          -0.004198729   -0.001152859   -0.000674377
     10        1           0.000427524    0.000992538   -0.000796743
     11        8          -0.001835112    0.000456187   -0.001101072
     12        6           0.000194072   -0.000675151    0.000697705
     13        1          -0.000070594    0.000086923   -0.000114113
     14        1           0.000061641    0.000140234   -0.000128072
     15        1           0.000068783    0.000181188   -0.000094022
 -------------------------------------------------------------------
 Cartesian Forces:  Max     0.010768919 RMS     0.002219722

 GradGradGradGradGradGradGradGradGradGradGradGradGradGradGradGradGradGrad
 Berny optimization.
 Using GEDIIS/GDIIS optimizer.
 FormGI is forming the generalized inverse of G from B-inverse, IUseBI=4.
 Internal  Forces:  Max     0.006165522 RMS     0.001550514
 Search for a local minimum.
 Step number   2 out of a maximum of   73
 All quantities printed in internal units (Hartrees-Bohrs-Radians)
 Mixed Optimization -- RFO/linear search
 Update second derivatives using D2CorX and points    1    2
 DE= -1.33D-02 DEPred=-1.35D-02 R= 9.87D-01
 TightC=F SS=  1.41D+00  RLast= 3.00D-01 DXNew= 5.0454D-01 8.9969D-01
 Trust test= 9.87D-01 RLast= 3.00D-01 DXMaxT set to 5.05D-01
 ITU=  1  0
 Use linear search instead of GDIIS.
     Eigenvalues ---    0.00328   0.01127   0.01577   0.02040   0.02243
     Eigenvalues ---    0.02424   0.02677   0.03113   0.03738   0.04057
     Eigenvalues ---    0.08591   0.08716   0.10507   0.10949   0.11666
     Eigenvalues ---    0.12044   0.13324   0.18368   0.18599   0.19053
     Eigenvalues ---    0.19698   0.20666   0.22138   0.27947   0.33239
     Eigenvalues ---    0.33582   0.34917   0.35092   0.35264   0.35488
     Eigenvalues ---    0.36154   0.37379   0.37902   0.40435   0.43226
     Eigenvalues ---    0.46919   0.50007   0.51670   0.58393
 RFO step:  Lambda=-5.96726888D-05 EMin= 3.28297222D-03
 Quartic linear search produced a step of  0.15593.
 Iteration  1 RMS(Cart)=  0.00697445 RMS(Int)=  0.00014893
 Iteration  2 RMS(Cart)=  0.00008523 RMS(Int)=  0.00013783
 Iteration  3 RMS(Cart)=  0.00000000 RMS(Int)=  0.00013783
 Variable       Old X    -DE/DX   Delta X   Delta X   Delta X     New X
                                 (Linear)    (Quad)   (Total)
    R1        2.66460   0.00511   0.00948   0.00301   0.01269   2.67729
    R2        2.64900   0.00499   0.00948   0.00237   0.01205   2.66105
    R3        2.05830   0.00113   0.00145   0.00263   0.00408   2.06238
    R4        2.63465   0.00238   0.00088   0.00218   0.00306   2.63770
    R5        2.05272   0.00067   0.00060   0.00051   0.00111   2.05383
    R6        2.63374   0.00138  -0.00218   0.00524   0.00285   2.63660
    R7        2.62682   0.00129  -0.00188   0.00512   0.00303   2.62984
    R8        2.58973   0.00177   0.00387  -0.00035   0.00352   2.59324
    R9        2.04863   0.00060   0.00059   0.00030   0.00089   2.04951
   R10        2.65654   0.00221   0.00102   0.00184   0.00287   2.65941
   R11        2.05841   0.00115   0.00143   0.00273   0.00417   2.06258
   R12        2.67048  -0.00050  -0.00163  -0.00028  -0.00192   2.66857
   R13        2.05829   0.00010   0.00030   0.00007   0.00036   2.05865
   R14        2.06903   0.00009   0.00027   0.00014   0.00041   2.06943
   R15        2.06919   0.00008   0.00028   0.00008   0.00036   2.06955
    A1        1.98052  -0.00617  -0.03056   0.00182  -0.02811   1.95241
    A2        2.08650  -0.00098  -0.00740   0.00429  -0.00319   2.08331
    A3        2.16364   0.00346   0.01822  -0.00034   0.01805   2.18169
    A4        2.03304  -0.00248  -0.01082  -0.00395  -0.01485   2.01818
    A5        2.12105   0.00065   0.00139   0.00137   0.00289   2.12394
    A6        2.09400  -0.00028  -0.00078  -0.00173  -0.00277   2.09123
    A7        2.06813  -0.00037  -0.00061   0.00036  -0.00012   2.06801
    A8        2.07474  -0.00034  -0.00430   0.00199  -0.00278   2.07196
    A9        2.03200   0.00043   0.00235  -0.00053   0.00206   2.03406
   A10        2.17645  -0.00009   0.00194  -0.00146   0.00072   2.17717
   A11        2.11202  -0.00040  -0.00078   0.00041  -0.00024   2.11178
   A12        2.08173  -0.00026  -0.00065  -0.00190  -0.00280   2.07893
   A13        2.08943   0.00066   0.00142   0.00149   0.00305   2.09248
   A14        2.17173   0.00358   0.01807   0.00017   0.01842   2.19015
   A15        2.08805  -0.00105  -0.00711   0.00374  -0.00346   2.08458
   A16        2.02341  -0.00253  -0.01096  -0.00391  -0.01495   2.00845
   A17        2.04669  -0.00048  -0.00130  -0.00099  -0.00229   2.04440
   A18        1.85450   0.00014   0.00058   0.00087   0.00145   1.85594
   A19        1.94517   0.00014   0.00076   0.00050   0.00126   1.94643
   A20        1.94438   0.00015   0.00069   0.00040   0.00109   1.94547
   A21        1.90559  -0.00010  -0.00048  -0.00048  -0.00096   1.90463
   A22        1.90570  -0.00009  -0.00048  -0.00016  -0.00064   1.90506
   A23        1.90730  -0.00025  -0.00107  -0.00111  -0.00218   1.90513
    D1       -3.13972  -0.00002   0.00023  -0.00109  -0.00087  -3.14058
    D2        0.00287  -0.00005   0.00037  -0.00214  -0.00178   0.00109
    D3       -0.00321   0.00004  -0.00046   0.00125   0.00080  -0.00242
    D4        3.13982   0.00003  -0.00019   0.00095   0.00078   3.14059
    D5        3.13987   0.00002  -0.00024   0.00112   0.00088   3.14076
    D6       -0.00023   0.00003  -0.00005   0.00148   0.00143   0.00119
    D7       -0.00076  -0.00002  -0.00010   0.00010  -0.00001  -0.00076
    D8       -3.14086  -0.00001   0.00009   0.00046   0.00054  -3.14033
    D9       -0.00231   0.00000  -0.00023   0.00025   0.00002  -0.00229
   D10        3.13903   0.00000  -0.00028   0.00085   0.00059   3.13962
   D11        3.14072   0.00001  -0.00005   0.00060   0.00055   3.14127
   D12       -0.00112   0.00001  -0.00009   0.00120   0.00111  -0.00001
   D13       -3.13968  -0.00003  -0.00003  -0.00196  -0.00198   3.14153
   D14        0.00199  -0.00001   0.00015  -0.00109  -0.00092   0.00106
   D15        0.00218  -0.00003   0.00002  -0.00262  -0.00259  -0.00040
   D16       -3.13933  -0.00002   0.00020  -0.00174  -0.00153  -3.14087
   D17       -3.13410   0.00002   0.00042   0.00659   0.00700  -3.12710
   D18        0.00722   0.00002   0.00037   0.00723   0.00760   0.01482
   D19        0.00092   0.00000   0.00022   0.00030   0.00053   0.00144
   D20        3.14112   0.00001  -0.00004   0.00059   0.00056  -3.14151
   D21       -3.14060   0.00002   0.00039   0.00116   0.00157  -3.13903
   D22       -0.00040   0.00003   0.00013   0.00146   0.00160   0.00120
   D23        3.13925  -0.00001  -0.00019  -0.00440  -0.00459   3.13466
   D24       -1.06988   0.00003   0.00001  -0.00417  -0.00417  -1.07405
   D25        1.06550  -0.00007  -0.00034  -0.00496  -0.00530   1.06020
         Item               Value     Threshold  Converged?
 Maximum Force            0.006166     0.000015     NO 
 RMS     Force            0.001551     0.000010     NO 
 Maximum Displacement     0.036472     0.000060     NO 
 RMS     Displacement     0.006974     0.000040     NO 
 Predicted change in Energy=-2.832761D-04
 GradGradGradGradGradGradGradGradGradGradGradGradGradGradGradGradGradGrad

                          Input orientation:                          
 ---------------------------------------------------------------------
 Center     Atomic      Atomic             Coordinates (Angstroms)
 Number     Number       Type             X           Y           Z
 ---------------------------------------------------------------------
      1          6           0        6.323207    6.861869    5.218308
      2          6           0        5.167592    6.094021    5.504970
      3          1           0        5.211512    5.331515    6.284539
      4          6           0        3.937018    6.227973    4.859962
      5          1           0        3.083891    5.608235    5.123251
      6          6           0        3.783852    7.175845    3.847669
      7          6           0        4.873101    7.972198    3.506998
      8          1           0        4.795283    8.720487    2.725800
      9          6           0        6.090470    7.796149    4.190745
     10          1           0        6.900025    8.454732    3.871053
     11          8           0        2.546984    7.248592    3.257726
     12          6           0        2.383169    8.191365    2.219219
     13          1           0        1.353031    8.095547    1.878029
     14          1           0        2.549808    9.213668    2.574702
     15          1           0        3.059328    7.987234    1.382251
 ---------------------------------------------------------------------
                    Distance matrix (angstroms):
                    1          2          3          4          5
     1  C    0.000000
     2  C    1.416761   0.000000
     3  H    2.171335   1.091362   0.000000
     4  C    2.494821   1.395812   2.111253   0.000000
     5  H    3.474738   2.173363   2.439658   1.086840   0.000000
     6  C    2.902681   2.414897   3.373144   1.395227   2.138797
     7  C    2.502843   2.757928   3.847397   2.397725   3.376665
     8  H    3.464334   3.841969   4.931835   3.391739   4.285178
     9  C    1.408166   2.340113   3.351262   2.746704   3.833543
    10  H    2.164492   3.353202   4.293073   3.836118   4.922745
    11  O    4.272388   3.640156   4.465030   2.353937   2.541501
    12  C    5.126987   4.790410   5.718836   3.639077   3.949300
    13  H    6.114088   5.631313   6.476502   4.365403   4.440052
    14  H    5.172828   5.017117   5.993218   4.007635   4.447414
    15  H    5.160880   5.002584   5.976384   3.994973   4.433432
                    6          7          8          9         10
     6  C    0.000000
     7  C    1.391653   0.000000
     8  H    2.160441   1.084556   0.000000
     9  C    2.413083   1.407300   2.162863   0.000000
    10  H    3.368476   2.115135   2.410844   1.091473   0.000000
    11  O    1.372285   2.448788   2.739392   3.704948   4.558498
    12  C    2.375929   2.811790   2.520890   4.217486   4.816627
    13  H    3.261016   3.880676   3.599773   5.280306   5.905108
    14  H    2.701117   2.794300   2.303957   4.142130   4.602271
    15  H    2.694730   2.793662   2.314373   4.136662   4.600395
                   11         12         13         14         15
    11  O    0.000000
    12  C    1.412144   0.000000
    13  H    2.011571   1.089393   0.000000
    14  H    2.080397   1.095097   1.779838   0.000000
    15  H    2.079782   1.095160   1.780162   1.784850   0.000000
 Symmetry turned off by external request.
 Stoichiometry    C7H7O(1-)
 Framework group  C1[X(C7H7O)]
 Deg. of freedom    39
 Full point group                 C1      NOp   1
 Rotational constants (GHZ):           5.1718789           1.5925050           1.2270988
 Standard basis: 6-311+G(d,p) (5D, 7F)
   218 basis functions,   344 primitive gaussians,   226 cartesian basis functions
    29 alpha electrons       29 beta electrons
       nuclear repulsion energy       334.0110349961 Hartrees.
 NAtoms=   15 NActive=   15 NUniq=   15 SFac= 1.00D+00 NAtFMM=   60 NAOKFM=F Big=F
 Integral buffers will be    131072 words long.
 Raffenetti 2 integral format.
 Two-electron integral symmetry is turned off.
 ------------------------------------------------------------------------------
 Polarizable Continuum Model (PCM)
 =================================
 Model                : PCM.
 Atomic radii         : SMD-Coulomb.
 Polarization charges : Total charges.
 Charge compensation  : None.
 Solution method      : Matrix inversion.
 Cavity type          : VdW (van der Waals Surface) (Alpha=1.000).
 Cavity algorithm     : GePol (No added spheres)
                        Default sphere list used, NSphG=   15.
                        Lebedev-Laikov grids with approx.  5.0 points / Ang**2.
                        Smoothing algorithm: York/Karplus (Gamma=1.0000).
                        Polarization charges: spherical gaussians, with
                                              point-specific exponents (IZeta= 3).
                        Self-potential: point-specific (ISelfS= 7).
                        Self-field    : sphere-specific E.n sum rule (ISelfD= 2).
 1st derivatives      : Analytical E(r).r(x)/FMM algorithm (CHGder, D1EAlg=3).
                        Cavity 1st derivative terms included.
 Solvent              : TetraHydroFuran, Eps=   7.425700 Eps(inf)=   1.974025
 ------------------------------------------------------------------------------
 Spheres list:
 ISph  on   Nord     Re0    Alpha      Xe            Ye            Ze
    1   C      1    1.8500  1.000      6.323207      6.861869      5.218308
    2   C      2    1.8500  1.000      5.167592      6.094021      5.504970
    3   H      3    1.2000  1.000      5.211512      5.331515      6.284539
    4   C      4    1.8500  1.000      3.937018      6.227973      4.859962
    5   H      5    1.2000  1.000      3.083891      5.608235      5.123251
    6   C      6    1.8500  1.000      3.783852      7.175845      3.847669
    7   C      7    1.8500  1.000      4.873101      7.972198      3.506998
    8   H      8    1.2000  1.000      4.795283      8.720487      2.725800
    9   C      9    1.8500  1.000      6.090470      7.796149      4.190745
   10   H     10    1.2000  1.000      6.900025      8.454732      3.871053
   11   O     11    2.2940  1.000      2.546984      7.248592      3.257726
   12   C     12    1.8500  1.000      2.383169      8.191365      2.219219
   13   H     13    1.2000  1.000      1.353031      8.095547      1.878029
   14   H     14    1.2000  1.000      2.549808      9.213668      2.574702
   15   H     15    1.2000  1.000      3.059328      7.987234      1.382251
 ------------------------------------------------------------------------------
 ------------------------------------------------------------------------------
 Atomic radii for non-electrostatic terms: SMD-CDS.
 ------------------------------------------------------------------------------
 Nuclear repulsion after PCM non-electrostatic terms =      334.0089601307 Hartrees.
 One-electron integrals computed using PRISM.
 NBasis=   218 RedAO= T EigKep=  3.64D-06  NBF=   218
 NBsUse=   218 1.00D-06 EigRej= -1.00D+00 NBFU=   218
 Initial guess from the checkpoint file:  "4-OMe-ph-anion-opt-freq-thf.chk"
 B after Tr=    -0.006107    0.002936    0.006175
         Rot=    1.000000   -0.000037   -0.000281    0.000119 Ang=  -0.04 deg.
 ExpMin= 4.38D-02 ExpMax= 8.59D+03 ExpMxC= 1.30D+03 IAcc=3 IRadAn=         5 AccDes= 0.00D+00
 Harris functional with IExCor= 1009 and IRadAn=       5 diagonalized for initial guess.
 HarFok:  IExCor= 1009 AccDes= 0.00D+00 IRadAn=         5 IDoV= 1 UseB2=F ITyADJ=14
 ICtDFT=  3500011 ScaDFX=  1.000000  1.000000  1.000000  1.000000
 FoFCou: FMM=F IPFlag=           0 FMFlag=      100000 FMFlg1=           0
         NFxFlg=           0 DoJE=T BraDBF=F KetDBF=T FulRan=T
         wScrn=  0.000000 ICntrl=       500 IOpCl=  0 I1Cent=   200000004 NGrid=           0
         NMat0=    1 NMatS0=      1 NMatT0=    0 NMatD0=    1 NMtDS0=    0 NMtDT0=    0
 Symmetry not used in FoFCou.
 Requested convergence on RMS density matrix=1.00D-08 within 128 cycles.
 Requested convergence on MAX density matrix=1.00D-06.
 Requested convergence on             energy=1.00D-06.
 Level shift goal  0.100 maximum shift  0.100.
 No special actions if energy rises.
 Dynamic level shift is on during FON iterations.
 Inv3:  Mode=1 IEnd=     4838700.
 Iteration    1 A*A^-1 deviation from unit magnitude is 3.22D-15 for   1266.
 Iteration    1 A*A^-1 deviation from orthogonality  is 1.71D-15 for   1266   1070.
 Iteration    1 A^-1*A deviation from unit magnitude is 3.22D-15 for   1266.
 Iteration    1 A^-1*A deviation from orthogonality  is 2.54D-15 for    478    458.
 Error on total polarization charges =  0.05812
 SCF Done:  E(RM062X) =  -346.155467419     A.U. after   13 cycles
            NFock= 13  Conv=0.42D-08     -V/T= 2.0040
 SMD-CDS (non-electrostatic) energy       (kcal/mol) =      -1.30
 (included in total energy above)
 D1PCM: PCM CHGder 1st derivatives, ID1Alg=3 FixD1E=F DoIter=F DoCFld=F I1PDM=0.
 Calling FoFJK, ICntrl=      2127 FMM=F ISym2X=0 I1Cent= 0 IOpClX= 0 NMat=1 NMatS=1 NMatT=0.
 -------------------------------------------------------------------
 Center     Atomic                   Forces (Hartrees/Bohr)
 Number     Number              X              Y              Z
 -------------------------------------------------------------------
      1        6           0.000659948    0.000030299    0.000340356
      2        6          -0.000284420   -0.000349251    0.000250723
      3        1          -0.000024446   -0.000117695    0.000097505
      4        6          -0.000208349   -0.000118053    0.000011327
      5        1          -0.000053972   -0.000027098   -0.000026163
      6        6          -0.000073993   -0.000000538   -0.000037681
      7        6          -0.000073755    0.000167573   -0.000160159
      8        1          -0.000026795    0.000029893   -0.000023222
      9        6          -0.000040742    0.000232982   -0.000394512
     10        1           0.000118397    0.000081978   -0.000020744
     11        8          -0.000041456    0.000011113   -0.000031943
     12        6           0.000021571    0.000005880    0.000004909
     13        1           0.000007251    0.000017188   -0.000011477
     14        1           0.000009296    0.000013490    0.000004043
     15        1           0.000011465    0.000022239   -0.000002961
 -------------------------------------------------------------------
 Cartesian Forces:  Max     0.000659948 RMS     0.000163947

 GradGradGradGradGradGradGradGradGradGradGradGradGradGradGradGradGradGrad
 Berny optimization.
 Using GEDIIS/GDIIS optimizer.
 FormGI is forming the generalized inverse of G from B-inverse, IUseBI=4.
 Internal  Forces:  Max     0.000704361 RMS     0.000142778
 Search for a local minimum.
 Step number   3 out of a maximum of   73
 All quantities printed in internal units (Hartrees-Bohrs-Radians)
 Mixed Optimization -- En-DIIS/RFO-DIIS
 Update second derivatives using D2CorX and points    1    2    3
 DE= -2.88D-04 DEPred=-2.83D-04 R= 1.02D+00
 TightC=F SS=  1.41D+00  RLast= 5.08D-02 DXNew= 8.4853D-01 1.5237D-01
 Trust test= 1.02D+00 RLast= 5.08D-02 DXMaxT set to 5.05D-01
 ITU=  1  1  0
 Use linear search instead of GDIIS.
     Eigenvalues ---    0.00329   0.01128   0.01577   0.02040   0.02242
     Eigenvalues ---    0.02423   0.02676   0.03113   0.03732   0.04055
     Eigenvalues ---    0.08591   0.08716   0.10516   0.10974   0.11663
     Eigenvalues ---    0.12054   0.13323   0.18367   0.18598   0.19032
     Eigenvalues ---    0.19719   0.21093   0.22167   0.27945   0.33245
     Eigenvalues ---    0.33582   0.34913   0.35096   0.35273   0.35485
     Eigenvalues ---    0.36117   0.37300   0.37905   0.40339   0.43233
     Eigenvalues ---    0.46932   0.49049   0.50616   0.58402
 RFO step:  Lambda=-2.68206375D-06 EMin= 3.28693479D-03
 Quartic linear search produced a step of  0.03614.
 Iteration  1 RMS(Cart)=  0.00249909 RMS(Int)=  0.00000363
 Iteration  2 RMS(Cart)=  0.00000617 RMS(Int)=  0.00000067
 Iteration  3 RMS(Cart)=  0.00000000 RMS(Int)=  0.00000067
 Variable       Old X    -DE/DX   Delta X   Delta X   Delta X     New X
                                 (Linear)    (Quad)   (Total)
    R1        2.67729   0.00070   0.00046   0.00112   0.00158   2.67887
    R2        2.66105   0.00063   0.00044   0.00095   0.00138   2.66243
    R3        2.06238   0.00015   0.00015   0.00024   0.00038   2.06276
    R4        2.63770   0.00032   0.00011   0.00051   0.00062   2.63833
    R5        2.05383   0.00005   0.00004   0.00010   0.00014   2.05397
    R6        2.63660   0.00026   0.00010   0.00036   0.00046   2.63706
    R7        2.62984   0.00018   0.00011   0.00024   0.00035   2.63019
    R8        2.59324   0.00003   0.00013   0.00004   0.00017   2.59341
    R9        2.04951   0.00004   0.00003   0.00004   0.00007   2.04959
   R10        2.65941   0.00020   0.00010   0.00026   0.00037   2.65978
   R11        2.06258   0.00015   0.00015   0.00025   0.00040   2.06299
   R12        2.66857   0.00002  -0.00007   0.00008   0.00002   2.66858
   R13        2.05865   0.00000   0.00001  -0.00001   0.00000   2.05866
   R14        2.06943   0.00001   0.00001   0.00003   0.00004   2.06948
   R15        2.06955   0.00000   0.00001  -0.00002  -0.00001   2.06954
    A1        1.95241  -0.00006  -0.00102   0.00062  -0.00039   1.95202
    A2        2.08331   0.00007  -0.00012   0.00018   0.00006   2.08337
    A3        2.18169  -0.00010   0.00065  -0.00075  -0.00010   2.18160
    A4        2.01818   0.00003  -0.00054   0.00057   0.00003   2.01822
    A5        2.12394   0.00002   0.00010   0.00022   0.00033   2.12427
    A6        2.09123   0.00001  -0.00010   0.00009  -0.00001   2.09122
    A7        2.06801  -0.00003   0.00000  -0.00031  -0.00031   2.06770
    A8        2.07196   0.00015  -0.00010   0.00052   0.00041   2.07237
    A9        2.03406   0.00003   0.00007  -0.00004   0.00004   2.03410
   A10        2.17717  -0.00018   0.00003  -0.00048  -0.00045   2.17672
   A11        2.11178  -0.00003  -0.00001  -0.00011  -0.00011   2.11167
   A12        2.07893   0.00001  -0.00010  -0.00005  -0.00016   2.07877
   A13        2.09248   0.00002   0.00011   0.00016   0.00027   2.09275
   A14        2.19015  -0.00001   0.00067  -0.00042   0.00025   2.19039
   A15        2.08458  -0.00001  -0.00013  -0.00034  -0.00046   2.08412
   A16        2.00845   0.00002  -0.00054   0.00076   0.00022   2.00867
   A17        2.04440  -0.00011  -0.00008  -0.00010  -0.00019   2.04422
   A18        1.85594   0.00002   0.00005   0.00003   0.00009   1.85603
   A19        1.94643  -0.00001   0.00005  -0.00019  -0.00015   1.94628
   A20        1.94547   0.00001   0.00004   0.00017   0.00021   1.94569
   A21        1.90463  -0.00001  -0.00003   0.00007   0.00004   1.90467
   A22        1.90506   0.00000  -0.00002  -0.00006  -0.00009   1.90497
   A23        1.90513  -0.00001  -0.00008  -0.00002  -0.00010   1.90503
    D1       -3.14058  -0.00002  -0.00003  -0.00030  -0.00033  -3.14091
    D2        0.00109  -0.00001  -0.00006  -0.00028  -0.00034   0.00075
    D3       -0.00242   0.00004   0.00003   0.00169   0.00172  -0.00070
    D4        3.14059   0.00000   0.00003   0.00064   0.00067   3.14126
    D5        3.14076   0.00000   0.00003  -0.00071  -0.00068   3.14008
    D6        0.00119  -0.00002   0.00005  -0.00111  -0.00106   0.00014
    D7       -0.00076   0.00000   0.00000  -0.00069  -0.00069  -0.00145
    D8       -3.14033  -0.00001   0.00002  -0.00108  -0.00106  -3.14139
    D9       -0.00229   0.00002   0.00000   0.00115   0.00116  -0.00113
   D10        3.13962   0.00003   0.00002   0.00102   0.00104   3.14066
   D11        3.14127   0.00001   0.00002   0.00077   0.00079  -3.14113
   D12       -0.00001   0.00001   0.00004   0.00064   0.00068   0.00066
   D13        3.14153   0.00000  -0.00007   0.00009   0.00002   3.14154
   D14        0.00106   0.00000  -0.00003   0.00014   0.00010   0.00117
   D15       -0.00040  -0.00001  -0.00009   0.00023   0.00014  -0.00026
   D16       -3.14087   0.00000  -0.00006   0.00028   0.00023  -3.14064
   D17       -3.12710  -0.00003   0.00025  -0.00519  -0.00493  -3.13203
   D18        0.01482  -0.00003   0.00027  -0.00533  -0.00506   0.00977
   D19        0.00144  -0.00004   0.00002  -0.00169  -0.00167  -0.00022
   D20       -3.14151   0.00000   0.00002  -0.00068  -0.00066   3.14101
   D21       -3.13903  -0.00003   0.00006  -0.00164  -0.00158  -3.14061
   D22        0.00120   0.00001   0.00006  -0.00063  -0.00057   0.00063
   D23        3.13466   0.00000  -0.00017   0.00246   0.00229   3.13696
   D24       -1.07405   0.00000  -0.00015   0.00246   0.00231  -1.07174
   D25        1.06020  -0.00001  -0.00019   0.00242   0.00223   1.06243
         Item               Value     Threshold  Converged?
 Maximum Force            0.000704     0.000015     NO 
 RMS     Force            0.000143     0.000010     NO 
 Maximum Displacement     0.008243     0.000060     NO 
 RMS     Displacement     0.002499     0.000040     NO 
 Predicted change in Energy=-1.694730D-06
 GradGradGradGradGradGradGradGradGradGradGradGradGradGradGradGradGradGrad

                          Input orientation:                          
 ---------------------------------------------------------------------
 Center     Atomic      Atomic             Coordinates (Angstroms)
 Number     Number       Type             X           Y           Z
 ---------------------------------------------------------------------
      1          6           0        6.323222    6.863639    5.220207
      2          6           0        5.167134    6.094900    5.506711
      3          1           0        5.210519    5.333558    6.287729
      4          6           0        3.937103    6.226952    4.859564
      5          1           0        3.083970    5.606722    5.121971
      6          6           0        3.784338    7.174116    3.846211
      7          6           0        4.873385    7.970960    3.505285
      8          1           0        4.795340    8.718482    2.723322
      9          6           0        6.090650    7.796056    4.189914
     10          1           0        6.900523    8.454383    3.869779
     11          8           0        2.547871    7.245887    3.255100
     12          6           0        2.383074    8.192118    2.219888
     13          1           0        1.352924    8.096787    1.878592
     14          1           0        2.549112    9.213274    2.578998
     15          1           0        3.059106    7.991596    1.381953
 ---------------------------------------------------------------------
                    Distance matrix (angstroms):
                    1          2          3          4          5
     1  C    0.000000
     2  C    1.417598   0.000000
     3  H    2.172294   1.091565   0.000000
     4  C    2.495796   1.396142   2.111729   0.000000
     5  H    3.475952   2.173917   2.440455   1.086913   0.000000
     6  C    2.903479   2.415386   3.373819   1.395471   2.138879
     7  C    2.503825   2.758912   3.848577   2.398387   3.377174
     8  H    3.465443   3.843002   4.933060   3.392318   4.285482
     9  C    1.408898   2.341104   3.352515   2.747414   3.834324
    10  H    2.165040   3.354302   4.294432   3.837054   4.923742
    11  O    4.273293   3.640750   4.465818   2.354251   2.541549
    12  C    5.127527   4.790878   5.719540   3.639336   3.949382
    13  H    6.114810   5.631962   6.477419   4.365828   4.440321
    14  H    5.171138   5.014957   5.990824   4.005698   4.445223
    15  H    5.163229   5.005484   5.979999   3.997327   4.435762
                    6          7          8          9         10
     6  C    0.000000
     7  C    1.391839   0.000000
     8  H    2.160572   1.084595   0.000000
     9  C    2.413299   1.407495   2.163236   0.000000
    10  H    3.369013   2.115619   2.411619   1.091685   0.000000
    11  O    1.372376   2.448742   2.739058   3.705110   4.558933
    12  C    2.375878   2.811193   2.519828   4.217106   4.816458
    13  H    3.261077   3.880155   3.598652   5.280027   5.904960
    14  H    2.699959   2.793492   2.304602   4.140778   4.601827
    15  H    2.695701   2.792951   2.311307   4.136803   4.599993
                   11         12         13         14         15
    11  O    0.000000
    12  C    1.412153   0.000000
    13  H    2.011642   1.089394   0.000000
    14  H    2.080320   1.095120   1.779882   0.000000
    15  H    2.079933   1.095155   1.780104   1.784799   0.000000
 Symmetry turned off by external request.
 Stoichiometry    C7H7O(1-)
 Framework group  C1[X(C7H7O)]
 Deg. of freedom    39
 Full point group                 C1      NOp   1
 Rotational constants (GHZ):           5.1689704           1.5922683           1.2267837
 Standard basis: 6-311+G(d,p) (5D, 7F)
   218 basis functions,   344 primitive gaussians,   226 cartesian basis functions
    29 alpha electrons       29 beta electrons
       nuclear repulsion energy       333.9565620407 Hartrees.
 NAtoms=   15 NActive=   15 NUniq=   15 SFac= 1.00D+00 NAtFMM=   60 NAOKFM=F Big=F
 Integral buffers will be    131072 words long.
 Raffenetti 2 integral format.
 Two-electron integral symmetry is turned off.
 ------------------------------------------------------------------------------
 Polarizable Continuum Model (PCM)
 =================================
 Model                : PCM.
 Atomic radii         : SMD-Coulomb.
 Polarization charges : Total charges.
 Charge compensation  : None.
 Solution method      : Matrix inversion.
 Cavity type          : VdW (van der Waals Surface) (Alpha=1.000).
 Cavity algorithm     : GePol (No added spheres)
                        Default sphere list used, NSphG=   15.
                        Lebedev-Laikov grids with approx.  5.0 points / Ang**2.
[...]
 ! D20   D(6,7,9,10)           179.9914         -DE/DX =    0.0                 !
 ! D21   D(8,7,9,1)           -179.9237         -DE/DX =    0.0                 !
 ! D22   D(8,7,9,10)             0.0561         -DE/DX =    0.0                 !
 ! D23   D(6,11,12,13)         179.7072         -DE/DX =    0.0                 !
 ! D24   D(6,11,12,14)         -61.433          -DE/DX =    0.0                 !
 ! D25   D(6,11,12,15)          60.8458         -DE/DX =    0.0                 !
 --------------------------------------------------------------------------------
 GradGradGradGradGradGradGradGradGradGradGradGradGradGradGradGradGradGrad


 ----------------------------------------------------------------------

 Electric dipole moment (input orientation):
 (Debye = 10**-18 statcoulomb cm , SI units = C m)
                  (au)            (Debye)         (10**-30 SI)
   Tot        0.201166D+02      0.511312D+02      0.170555D+03
   x         -0.119074D+02     -0.302656D+02     -0.100955D+03
   y         -0.124948D+02     -0.317586D+02     -0.105935D+03
   z         -0.103329D+02     -0.262637D+02     -0.876062D+02

 Dipole polarizability, Alpha (input orientation).
 (esu units = cm**3 , SI units = C**2 m**2 J**-1)
 Alpha(0;0):
               (au)            (10**-24 esu)      (10**-40 SI)
   iso        0.132613D+03      0.196512D+02      0.218650D+02
   aniso      0.736622D+02      0.109156D+02      0.121453D+02
   xx         0.155323D+03      0.230165D+02      0.256094D+02
   yx         0.404081D+01      0.598786D+00      0.666239D+00
   yy         0.116831D+03      0.173126D+02      0.192629D+02
   zx         0.245857D+02      0.364322D+01      0.405363D+01
   zy        -0.279555D+02     -0.414258D+01     -0.460925D+01
   zz         0.125685D+03      0.186246D+02      0.207226D+02

 ----------------------------------------------------------------------

 Dipole orientation:
     6          0.19427853         -0.63496992        -20.19580088
     6         -1.45251647          0.25325540        -18.27837176
     1         -1.91297732          2.26202967        -18.19089160
     6         -2.57640934         -1.25710839        -16.43005348
     1         -3.82464711         -0.46741199        -15.00280810
     6         -2.09966109         -3.85033588        -16.38736466
     6         -0.50228355         -4.87264569        -18.20971034
     1         -0.08413970         -6.87887416        -18.24084996
     6          0.58024336         -3.26419796        -20.03047133
     1          1.81183842         -4.19534016        -21.39867064
     8         -3.26753687         -5.21285070        -14.51513096
     6         -2.78207266         -7.83572437        -14.43578707
     1         -3.85244485         -8.57492652        -12.84019148
     1         -3.41075298         -8.77668677        -16.16843214
     1         -0.77077737         -8.22554521        -14.14296727

 Electric dipole moment (dipole orientation):
 (Debye = 10**-18 statcoulomb cm , SI units = C m)
                  (au)            (Debye)         (10**-30 SI)
   Tot        0.201166D+02      0.511312D+02      0.170555D+03
   x          0.000000D+00      0.000000D+00      0.000000D+00
   y          0.000000D+00      0.000000D+00      0.000000D+00
   z          0.201166D+02      0.511312D+02      0.170555D+03

 Dipole polarizability, Alpha (dipole orientation).
 (esu units = cm**3 , SI units = C**2 m**2 J**-1)
 Alpha(0;0):
               (au)            (10**-24 esu)      (10**-40 SI)
   iso        0.132613D+03      0.196512D+02      0.218650D+02
   aniso      0.736622D+02      0.109156D+02      0.121453D+02
   xx         0.110752D+03      0.164118D+02      0.182606D+02
   yx         0.146660D+01      0.217328D+00      0.241810D+00
   yy         0.154350D+03      0.228723D+02      0.254488D+02
   zx        -0.310234D+02     -0.459719D+01     -0.511506D+01
   zy        -0.192071D+02     -0.284620D+01     -0.316682D+01
   zz         0.132737D+03      0.196696D+02      0.218854D+02

 ----------------------------------------------------------------------
 Unable to Open any file for archive entry.
 1\1\GINC-CN017\Freq\RM062X\6-311+G(d,p)\C7H7O1(1-)\UNKNOWN\27-May-2025
 \0\\#N Geom=AllCheck Guess=TCheck SCRF=Check GenChk RM062X/6-311+G(d,p
 ) Freq\\4-OMe-ph-anion-opt-freq-thf\\-1,1\C,6.3233508364,6.8634083505,
 5.2199301152\C,5.1671888672,6.094619412,5.506519112\H,5.2107176802,5.3
 329830729,6.2872207044\C,3.9370342477,6.2271088842,4.8597295833\H,3.08
 38368095,5.6070574298,5.1223317482\C,3.7842348414,7.1743196585,3.84644
 50038\C,4.8732820188,7.9710781278,3.5054189136\H,4.7952230542,8.718631
 6216,2.7234949809\C,6.0905888703,7.7961730603,4.1899135998\H,6.9003424
 295,8.4547288658,3.8699841633\O,2.5477053582,7.2463043736,3.2555271473
 \C,2.3831585971,8.1920365794,2.2198049363\H,1.3530503991,8.096640401,1
 .8784118689\H,2.54925656,9.213358122,2.5784052693\H,3.0593004303,7.990
 9820406,1.3820848537\\Version=AS64L-G16RevC.01\HF=-346.1554692\RMSD=5.
 155e-09\RMSF=4.491e-06\ZeroPoint=0.1200242\Thermal=0.1268081\ETot=-346
 .0286611\HTot=-346.0277169\GTot=-346.0664578\Dipole=-3.8616146,1.20728
 12,-2.841233\DipoleDeriv=-0.4910766,-0.101468,0.2287668,-0.1118939,-0.
 9106035,0.0800112,0.2393957,0.0861186,-0.7666646,0.1345255,0.2730429,-
 0.1196932,0.2039901,0.0894105,-0.2391161,-0.0574089,-0.2124617,-0.0361
 497,0.0641378,-0.0176264,-0.0017167,-0.059436,-0.0957634,0.1804322,0.0
 40307,0.1993026,-0.0731831,-0.3195387,-0.0912758,0.0251167,0.2013979,-
 0.0708766,-0.0229899,-0.2595386,-0.1413984,-0.1517446,-0.1148292,-0.14
 21734,0.0117489,-0.1355988,0.0680555,0.0710468,0.0033498,0.0669829,0.1
 303603,1.4094174,-0.3101748,0.8922864,-0.1513203,0.0337055,-0.0381575,
 0.7211326,-0.1116233,0.4641423,-0.2584586,0.2617477,-0.3051325,-0.0528
 53,-0.1395481,-0.0529734,0.0103365,0.077763,-0.2308986,0.0902643,0.006
 4297,-0.0575483,0.0211133,0.0445809,0.175591,-0.0716614,0.1724207,0.00
 6575,-0.0458675,0.0602723,0.0159907,0.1225608,0.120052,-0.3084728,-0.0
 359517,-0.3325629,0.0665895,-0.0736689,-0.1639126,0.089693,-0.1293343,
 -0.0692578,0.11776,0.0548099,0.1032893,0.0229942,-1.7059586,0.3262094,
 -0.8962562,0.2801995,-0.6367293,0.4066465,-0.847734,0.4287923,-1.13941
 38,0.357355,-0.0643397,0.0541267,-0.316566,0.6387248,-0.3946756,0.3128
 333,-0.2885274,0.807189,-0.1392648,0.0090057,-0.1148617,-0.036426,0.08
 1701,0.0141078,-0.0701625,0.0333883,0.0471873,0.0888793,-0.064099,0.00
 50267,0.0564414,-0.1618418,0.0233132,-0.0554352,-0.0984398,-0.0307354,
 0.0040837,0.0183617,0.1724527,0.1077253,0.0083902,-0.0125232,0.0157275
 ,0.0169559,-0.1162478\Polar=155.3233006,4.0408075,116.8313551,24.58567
 61,-27.95554,125.6847627\Quadrupole=-11.9227614,-19.3684897,31.2912512
 ,-150.7955007,-122.1497815,-133.9641161\PG=C01 [X(C7H7O1)]\NImag=0\\0.
 35780389,0.09102823,0.30686906,0.02377493,-0.19608520,0.28179364,-0.22
 105952,-0.07977511,0.01250655,0.56424663,-0.09532591,-0.13352030,0.038
 23588,0.07632167,0.42527835,0.02816052,0.04466495,-0.09245185,0.097781
 78,-0.25129236,0.43808240,0.00171211,-0.01677779,0.01818988,-0.0544456
 1,0.00717257,-0.01290245,0.05887551,-0.00120192,-0.01122879,0.00911896
 ,0.01088526,-0.17172537,0.13619369,-0.00383158,0.17920439,0.00261678,0
 .00262952,-0.00317695,-0.01666053,0.13463585,-0.18187637,0.01735936,-0
 .15494621,0.18834760,-0.04560731,-0.03924076,0.01229009,-0.27737938,0.
 03154713,-0.12100012,-0.00024102,-0.00189616,-0.00026967,0.67096504,-0
 .00380098,0.03520781,-0.01789438,-0.02095474,-0.09972895,0.02861509,0.
 01985480,-0.00023293,0.01345987,0.13085186,0.43677412,-0.02320127,-0.0
 3277439,0.04192029,-0.06832809,0.05058714,-0.14124189,-0.02205044,0.00
 440328,-0.00868266,0.09787006,-0.25812395,0.42393673,-0.00303653,0.000
 07888,-0.00425145,-0.01462000,-0.01685163,0.00942694,0.00065486,0.0011
 6392,0.00087503,-0.22329105,-0.12983218,0.05071508,0.23471075,-0.00052
 375,0.00394611,0.00278119,0.00394124,0.00536645,-0.00060882,0.00056172
 ,-0.00155285,-0.00241899,-0.12763485,-0.13851575,0.05132769,0.14140518
 ,0.13949544,-0.00367369,0.00300878,0.00240898,-0.01127607,-0.00932391,
 0.00769557,0.00147006,-0.00217142,-0.00141375,0.04839203,0.05040301,-0
 .06387254,-0.05301360,-0.05714095,0.05804498,-0.00692740,-0.02061280,0
 .02021253,0.02639583,0.02753744,-0.01760595,-0.00320959,-0.00091100,-0
 .00392876,-0.11519360,0.01929936,-0.03958598,0.00283465,-0.01902923,0.
 01834134,0.62805236,-0.02231498,-0.04588216,0.03073992,0.07228075,0.01
 427018,0.01851664,-0.00166608,0.00534638,0.00232565,-0.03615240,-0.195
 03435,0.11235737,0.00225039,-0.00734926,0.01282557,0.11271166,0.456370
 06,0.02191087,0.03139840,-0.02811937,-0.06223588,-0.00020417,-0.023344
 27,-0.00317353,0.00265564,0.00439236,0.01586782,0.13560932,-0.19796714
 ,-0.00295471,0.00390165,-0.00062894,0.08620143,-0.25624684,0.44856553,
 0.02413896,0.05632285,-0.05458872,-0.06739877,-0.01556898,-0.00999385,
 -0.00138941,-0.00001757,0.00003191,0.03954961,-0.04163849,0.05462474,0
 .00212828,0.00050134,-0.00210823,-0.22943916,-0.07166640,0.00267668,0.
 60620697,0.02027475,0.01861204,0.00955396,-0.01785876,-0.00928718,-0.0
 0435238,-0.00020371,-0.00040788,-0.00105796,-0.00641027,-0.02360724,0.
 02916412,-0.00032349,0.00038031,0.00551762,-0.12501740,-0.17297995,0.0
 5619711,0.10758816,0.44949796,-0.01839857,0.02472645,-0.01271979,-0.00
 778199,-0.00335290,-0.00595827,0.00019776,-0.00099444,-0.00031427,0.01
 942481,0.01448710,0.00206044,-0.00130387,0.00582746,-0.00040475,0.0561
 1926,0.07823022,-0.12000390,0.09521947,-0.28575231,0.44603110,-0.00327
 288,-0.00060393,-0.00354575,-0.00172977,-0.00030752,-0.00022777,0.0001
 0652,0.00038026,0.00033560,-0.00306516,-0.00402214,0.00002071,0.000083
 53,-0.00097932,0.00089305,0.00762614,-0.01545364,0.01738241,-0.0559710
 9,0.00792633,-0.01776547,0.05622685,-0.00014592,0.00389179,0.00269230,
 -0.00023245,0.00008418,-0.00065160,0.00036176,-0.00077799,-0.00068086,
 -0.00462950,0.00193910,0.00264363,0.00021782,-0.00036373,0.00076465,0.
 00437772,-0.00796338,0.01289267,0.00569559,-0.18091191,0.15123711,-0.0
 0891018,0.18580031,-0.00398810,0.00253903,0.00242415,-0.00033898,-0.00
 068693,0.00008624,0.00035269,-0.00066829,-0.00079046,0.00062702,0.0028
 6971,0.00389424,-0.00030860,0.00026319,-0.00008289,-0.00249429,0.00462
 916,-0.00260587,-0.01566003,0.15221688,-0.19106568,0.02273767,-0.16671
 617,0.19931190,-0.10650312,0.00578820,-0.02452377,0.03972293,-0.011991
 14,0.02846548,-0.00148692,-0.00520246,0.00051053,-0.02559443,0.0204484
 1,-0.02891951,-0.00031787,0.00084499,-0.00079995,-0.05421159,-0.045460
 87,0.02164827,-0.25203199,0.03323232,-0.11242629,0.00311485,-0.0012019
 1,0.00151406,0.60001630,0.02086944,-0.16732029,0.12003942,-0.03369131,
 -0.03057663,0.01591589,-0.00590551,0.00237851,0.00488198,0.01607127,-0
 .01896213,0.02005765,0.00089350,-0.00017933,0.00007094,-0.00314432,0.0
 3166149,-0.03069318,-0.01889894,-0.09641846,0.02846645,0.01967038,0.00
 072294,0.01005771,0.12444793,0.41875769,-0.03973448,0.11374046,-0.1851
 8920,0.05004067,0.02488336,-0.00448652,0.00123987,0.00515550,0.0050663
 3,-0.02442418,0.02194026,-0.03780853,-0.00083923,0.00004247,-0.0008952
 2,-0.02055081,-0.04822863,0.04223657,-0.06013084,0.05012393,-0.1363357
 8,-0.01947085,0.00136402,-0.00689792,0.06541695,-0.22777137,0.39337468
 ,0.00694442,0.00360190,0.00040163,0.00345488,-0.00116183,-0.00182031,0
 .00003919,0.00011978,-0.00006549,-0.00004732,0.00108411,-0.00047640,-0
 .00010005,0.00020726,0.00042112,-0.00179585,0.00097086,-0.00478121,-0.
 02057688,-0.01870776,0.00809696,0.00078907,0.00108581,0.00084763,-0.20
 261185,-0.11763731,0.04903396,0.21612064,-0.01194012,-0.01314751,0.005
 55731,-0.00192892,0.00165883,0.00811795,-0.00085426,-0.00068539,0.0002
 4750,0.00090385,-0.00076960,-0.00037774,0.00016673,-0.00073237,-0.0008
 0707,0.00008839,0.00445361,0.00285865,0.00264098,0.00416808,0.00173236
 ,0.00063040,-0.00133594,-0.00222438,-0.12124364,-0.13801517,0.04887270
 ,0.13175616,0.14425732,0.01591297,0.01207248,-0.00797008,-0.00104261,0
 .00843460,0.00170969,0.00090502,0.00064836,-0.00035837,-0.00029170,-0.
 00030295,-0.00134267,0.00046331,-0.00078937,-0.00062435,-0.00388440,0.
 00324977,0.00240149,-0.01326006,-0.00722108,0.00647368,0.00130251,-0.0
 0204446,-0.00123840,0.05265944,0.05039546,-0.06662336,-0.05195478,-0.0
 6397947,0.06720292,-0.00391772,0.00071881,-0.00107836,0.00129657,-0.00
 258925,0.00093633,-0.00026240,0.00043653,-0.00069913,-0.01489397,0.010
 37791,-0.01929166,0.00080854,0.00036744,0.00138748,-0.24797550,-0.0251
 5615,-0.06092401,-0.04240689,0.00009343,-0.02083217,0.00152436,0.00127
 493,0.00050134,-0.00035849,-0.00396930,0.00091937,-0.00242714,-0.00024
 355,-0.00091136,0.38994630,0.00283252,0.00168930,-0.00349489,-0.006322
 19,-0.00194130,0.00453413,0.00127199,-0.00030916,0.00117962,0.03622275
 ,0.00190740,0.01957290,0.00064219,-0.00042510,-0.00269679,-0.00070689,
 -0.07749643,0.03702419,-0.02041754,0.00898544,-0.01042889,0.00192381,-
 0.00095130,-0.00095015,-0.00008250,-0.00167830,0.00863347,-0.00096936,
 0.00029438,-0.00037972,-0.00250822,0.24076076,-0.00318015,-0.00427685,
 -0.00001080,0.00457156,0.00611929,0.00103271,-0.00154333,0.00083363,-0
 .00114781,-0.04511413,0.00860662,-0.02113190,0.00106645,-0.00279027,-0
 .00005197,-0.08615121,0.02697750,-0.10391589,-0.00040707,-0.00188452,0
 .00850989,-0.00017269,-0.00122958,-0.00155257,-0.00288472,0.00691630,-
 0.00117971,-0.00018654,-0.00007549,0.00032247,0.13712497,-0.17667068,0
 .30570939,0.00020018,0.00032932,-0.00006038,0.00008664,0.00078752,-0.0
 0142797,-0.00037255,0.00007537,-0.00011348,-0.00418681,-0.00242557,-0.
 00027043,0.00016607,0.00036582,-0.00003987,-0.01191022,0.02910984,-0.0
 3274181,-0.00249258,0.00091572,-0.00199956,-0.00282490,0.00114072,-0.0
 0183871,0.00082362,0.00048295,-0.00040537,0.00016936,0.00001787,0.0000
 9888,-0.08772263,-0.01529412,0.00398318,0.62211947,-0.00022772,0.00044
 919,-0.00097900,-0.00197353,0.00046657,0.00038647,-0.00016463,0.000087
 17,-0.00043758,-0.00228178,0.00163774,-0.00034701,0.00025301,-0.000198
 82,-0.00031110,0.01588807,-0.00460652,0.00660534,-0.00460787,0.0019980
 1,-0.00433067,-0.00029042,-0.00077559,-0.00054949,-0.00036218,-0.00050
 944,0.00098858,-0.00052685,-0.00019273,-0.00013828,0.00542890,-0.13902
 107,0.08270053,0.01744527,0.52301348,0.00049550,-0.00079606,0.00055647
 ,0.00138978,0.00152305,0.00070197,0.00013441,-0.00033550,0.00012810,-0
 .00031263,-0.00041260,0.00247830,0.00007701,-0.00027103,-0.00034061,-0
 .01915684,0.01206058,-0.02512521,0.00383098,-0.00193581,0.00323192,-0.
 00044904,0.00008415,-0.00138722,0.00040829,0.00136772,-0.00056382,0.00
 066045,0.00009812,0.00007430,-0.01734651,0.07415410,-0.14297475,0.0015
 8346,0.06183680,0.51300470,-0.00010272,0.00009073,-0.00009873,-0.00009
 946,0.00005674,-0.00008469,-0.00003151,0.00003211,-0.00002764,-0.00025
 536,-0.00011967,-0.00011906,0.00001048,0.00001723,-0.00001031,0.003025
 25,0.00013895,0.00081456,-0.00026648,-0.00032067,0.00007929,0.00001575
 ,0.00037967,-0.00025809,0.00015154,0.00010484,-0.00011853,-0.00004095,
 -0.00002511,-0.00000238,-0.00281148,0.00260921,-0.00385925,-0.30038351
 ,-0.02684263,-0.07832062,0.31929193,-0.00001950,0.00006829,-0.00015047
 ,-0.00020756,-0.00028641,0.00016739,0.00011439,-0.00004612,0.00005093,
 0.00119344,0.00026202,0.00054105,-0.00005110,-0.00001781,-0.00000389,-
 0.00137190,-0.00243414,0.00264654,-0.00075061,-0.00051933,0.00045849,-
 0.00010962,0.00037716,-0.00064938,0.00030003,0.00032300,-0.00002902,0.
 00004179,0.00001133,0.00003068,0.02945198,-0.00252755,0.01541039,-0.03
 589335,-0.05332081,-0.01400417,0.02764797,0.05702470,0.00000166,-0.000
 11613,0.00003849,0.00019231,0.00029329,-0.00022944,-0.00011276,0.00001
 877,-0.00010567,-0.00146058,-0.00001114,-0.00032100,0.00005783,0.00002
 252,-0.00000236,0.00241754,0.00321879,-0.00162845,0.00054556,0.0006600
 4,-0.00015036,0.00023361,-0.00044908,0.00031431,-0.00031870,-0.0001072
 6,0.00013995,-0.00007117,0.00000228,-0.00000773,-0.03136792,0.00402843
 ,-0.01704140,-0.06905602,-0.01018555,-0.07122928,0.08771922,0.00139783
 ,0.08280948,-0.00018879,-0.00041687,0.00042671,0.00074964,0.00009877,0
 .00007527,0.00000455,0.00001550,0.00003990,-0.00037228,0.00020729,-0.0
 0071549,-0.00002230,-0.00000845,0.00004141,0.00132844,0.00107908,0.001
 19626,0.00004248,-0.00010943,0.00077562,-0.00162522,0.00100274,0.00008
 127,-0.00030404,0.00002415,-0.00067330,0.00002222,0.00003801,0.0000227
 6,0.00216678,0.00486638,0.00079139,-0.05826620,-0.03852169,-0.01563424
 ,-0.00230907,-0.02770123,-0.01086150,0.05529502,0.00022264,0.00011408,
 -0.00010999,-0.00020329,0.00013681,0.00002259,0.00006123,-0.00004860,0
 .00006115,0.00084688,-0.00020386,0.00071558,0.00002174,0.00001291,-0.0
 0017690,-0.00528592,0.00062068,-0.00291925,-0.00008294,-0.00015482,0.0
 0038649,0.00025127,0.00046256,-0.00038189,0.00035382,0.00018610,0.0000
 5933,0.00008723,0.00001820,0.00001884,0.00097037,-0.02981761,0.0095403
 9,-0.03550248,-0.26471206,-0.08707747,-0.00070088,-0.00025894,-0.00181
 536,0.04060506,0.29796010,-0.00042104,-0.00030704,0.00031945,0.0007425
 7,-0.00004575,-0.00002267,-0.00002672,0.00006993,0.00000988,-0.0004936
 1,0.00013375,-0.00120241,-0.00005089,0.00004065,0.00015364,0.00393062,
 0.00031108,0.00304496,-0.00075598,-0.00122798,0.00066737,-0.00068188,0
 .00078513,-0.00008591,-0.00015948,0.00022936,-0.00073388,-0.00003718,0
 .00000049,0.00000783,0.00169804,0.03609289,0.00439162,-0.01543707,-0.0
 9249007,-0.08773138,-0.00006251,-0.00760898,-0.00246770,0.01663714,0.0
 8564989,0.09042745,-0.00018356,-0.00053167,0.00034482,0.00077940,0.000
 27441,0.00021678,0.00004628,-0.00004805,-0.00000443,-0.00038696,0.0006
 7001,-0.00027227,-0.00000936,-0.00003663,-0.00002476,0.00140024,-0.000
 67101,-0.00088716,-0.00009304,-0.00107920,0.00059474,-0.00099805,-0.00
 041680,-0.00177488,-0.00040894,0.00068223,-0.00030324,0.00006026,-0.00
 000680,-0.00001759,0.00703367,-0.00406803,-0.00403846,-0.15540595,0.03
 678406,0.12264000,-0.01619440,0.00735528,0.02208093,0.00347877,-0.0016
 4472,-0.00488202,0.16088163,0.00027321,0.00025138,-0.00000502,-0.00028
 106,-0.00019523,-0.00022962,0.00000509,-0.00000137,0.00006951,0.000608
 53,-0.00067337,0.00025268,-0.00003495,0.00013378,0.00004146,-0.0038231
 8,0.00102378,-0.00172608,0.00090041,0.00064493,-0.00069291,-0.00010567
 ,-0.00019820,0.00025099,0.00012901,-0.00036999,0.00022494,0.00004821,0
 .00001696,0.00000513,-0.01465383,0.00053052,0.02982274,0.03844510,-0.0
 6431513,-0.04629188,-0.00306851,0.00134462,0.00304256,0.01882069,-0.00
 431554,-0.02163334,-0.03726306,0.06612285,-0.00027593,-0.00042440,0.00
 017660,0.00043893,0.00019356,0.00030269,-0.00003985,0.00001810,-0.0000
 7797,-0.00110520,0.00062028,-0.00071927,0.00004069,-0.00018738,0.00001
 420,0.00613550,-0.00096680,0.00269813,-0.00002457,-0.00000161,-0.00002
 158,-0.00059211,-0.00069192,-0.00032393,-0.00059059,0.00017292,-0.0001
 0359,-0.00006869,-0.00002320,-0.00002743,0.00988360,0.00940139,-0.0309
 5927,0.11772514,-0.04274897,-0.19082349,-0.00565126,0.00174260,0.00988
 115,0.00779681,-0.00397340,-0.00677825,-0.13367247,0.03686883,0.216762
 02\\0.00000368,0.00000603,-0.00000349,0.00000574,0.00000571,0.00000065
 ,0.00000835,0.00000748,0.00000249,0.00000405,0.00000244,0.00000336,0.0
 0000535,0.00000206,0.00000684,0.00000045,-0.00000019,0.00000145,-0.000
 00125,0.00000024,-0.00000310,-0.00000401,-0.00000175,-0.00000477,0.000
 00064,0.00000341,-0.00000564,-0.00000109,0.00000361,-0.00000898,-0.000
 00095,-0.00000322,0.00000402,-0.00000453,-0.00000591,0.00000212,-0.000
 00523,-0.00000799,0.00000475,-0.00000494,-0.00000481,-0.00000074,-0.00
 000626,-0.00000712,0.00000105\\\@
 The archive entry for this job was punched.


 ERROR IS A HARDY PLANT... IT FLOURISHETH IN EVERY SOIL.
            MARTIN FARQUHAR TUPPER
 Job cpu time:       0 days  0 hours 28 minutes 20.4 seconds.
 Elapsed time:       0 days  0 hours  0 minutes 56.2 seconds.
 File lengths (MBytes):  RWF=    102 Int=      0 D2E=      0 Chk=     12 Scr=      1
 Normal termination of Gaussian 16 at Tue May 27 08:12:08 2025.
