/home/tahminaafroz
cn007.cluster.local
tahminaafroz
Sat Apr 19 13:13:32 CDT 2025
 Entering Gaussian System, Link 0=g16
 Initial command:
 /home/apps/g16/l1.exe "/tmp/4-br-phboh2-opt-freq/Gau-62602.inp" -scrdir="/tmp/4-br-phboh2-opt-freq/"
 Entering Link 1 = /home/apps/g16/l1.exe PID=     62603.
  
 Copyright (c) 1988-2019, Gaussian, Inc.  All Rights Reserved.
  
 This is part of the Gaussian(R) 16 program.  It is based on
 the Gaussian(R) 09 system (copyright 2009, Gaussian, Inc.),
 the Gaussian(R) 03 system (copyright 2003, Gaussian, Inc.),
 the Gaussian(R) 98 system (copyright 1998, Gaussian, Inc.),
 the Gaussian(R) 94 system (copyright 1995, Gaussian, Inc.),
 the Gaussian 92(TM) system (copyright 1992, Gaussian, Inc.),
 the Gaussian 90(TM) system (copyright 1990, Gaussian, Inc.),
 the Gaussian 88(TM) system (copyright 1988, Gaussian, Inc.),
 the Gaussian 86(TM) system (copyright 1986, Carnegie Mellon
 University), and the Gaussian 82(TM) system (copyright 1983,
 Carnegie Mellon University). Gaussian is a federally registered
 trademark of Gaussian, Inc.
  
 This software contains proprietary and confidential information,
 including trade secrets, belonging to Gaussian, Inc.
  
 This software is provided under written license and may be
 used, copied, transmitted, or stored only in accord with that
 written license.
  
 The following legend is applicable only to US Government
 contracts under FAR:
  
                    RESTRICTED RIGHTS LEGEND
  
 Use, reproduction and disclosure by the US Government is
 subject to restrictions as set forth in subparagraphs (a)
 and (c) of the Commercial Computer Software - Restricted
 Rights clause in FAR 52.227-19.
  
 Gaussian, Inc.
 340 Quinnipiac St., Bldg. 40, Wallingford CT 06492
  
  
 ---------------------------------------------------------------
 Warning -- This program may not be used in any manner that
 competes with the business of Gaussian, Inc. or will provide
 assistance to any competitor of Gaussian, Inc.  The licensee
 of this program is prohibited from giving any competitor of
 Gaussian, Inc. access to this program.  By using this program,
 the user acknowledges that Gaussian, Inc. is engaged in the
 business of creating and licensing software in the field of
 computational chemistry and represents and warrants to the
 licensee that it is not a competitor of Gaussian, Inc. and that
 it will not use this program in any manner prohibited above.
 ---------------------------------------------------------------
  

 Cite this work as:
 Gaussian 16, Revision C.01,
 M. J. Frisch, G. W. Trucks, H. B. Schlegel, G. E. Scuseria, 
 M. A. Robb, J. R. Cheeseman, G. Scalmani, V. Barone, 
 G. A. Petersson, H. Nakatsuji, X. Li, M. Caricato, A. V. Marenich, 
 J. Bloino, B. G. Janesko, R. Gomperts, B. Mennucci, H. P. Hratchian, 
 J. V. Ortiz, A. F. Izmaylov, J. L. Sonnenberg, D. Williams-Young, 
 F. Ding, F. Lipparini, F. Egidi, J. Goings, B. Peng, A. Petrone, 
 T. Henderson, D. Ranasinghe, V. G. Zakrzewski, J. Gao, N. Rega, 
 G. Zheng, W. Liang, M. Hada, M. Ehara, K. Toyota, R. Fukuda, 
 J. Hasegawa, M. Ishida, T. Nakajima, Y. Honda, O. Kitao, H. Nakai, 
 T. Vreven, K. Throssell, J. A. Montgomery, Jr., J. E. Peralta, 
 F. Ogliaro, M. J. Bearpark, J. J. Heyd, E. N. Brothers, K. N. Kudin, 
 V. N. Staroverov, T. A. Keith, R. Kobayashi, J. Normand, 
 K. Raghavachari, A. P. Rendell, J. C. Burant, S. S. Iyengar, 
 J. Tomasi, M. Cossi, J. M. Millam, M. Klene, C. Adamo, R. Cammi, 
 J. W. Ochterski, R. L. Martin, K. Morokuma, O. Farkas, 
 J. B. Foresman, and D. J. Fox, Gaussian, Inc., Wallingford CT, 2019.
 
 ******************************************
 Gaussian 16:  AS64L-G16RevC.01  3-Jul-2019
                19-Apr-2025 
 ******************************************
 %mem=20GB
 %nprocshared=32
 Will use up to   32 processors via shared memory.
 %chk=4-br-phboh2-opt-freq.chk
 ----------------------------------------------------------------------
 # opt=(calcfc,tight) freq 6-311+g(d,p) nosymm scf=(qc,fermi,xqc) geom=
 connectivity int=ultrafine m062x
 ----------------------------------------------------------------------
 1/7=10,10=4,18=20,19=15,26=4,38=1,57=2/1,3;
 2/9=110,12=2,15=1,17=6,18=5,40=1/2;
 3/5=4,6=6,7=111,11=2,25=1,30=1,71=2,74=-55,75=-5,140=1/1,2,3;
 4//1;
 5/5=2,22=13,38=5/2;
 8/6=4,10=90,11=11/1;
 11/6=1,8=1,9=11,15=111,16=1,31=1/1,2,10;
 10/6=1,13=1,31=1/2;
 6/7=2,8=2,9=2,10=2,28=1/1;
 7/10=1,25=1,30=1/1,2,3,16;
 1/7=10,10=4,18=20,19=15,26=4/3(2);
 2/9=110,15=1/2;
 99//99;
 2/9=110,15=1/2;
 3/5=4,6=6,7=111,11=2,25=1,30=1,71=1,74=-55,75=-5/1,2,3;
 4/5=5,16=3,69=1/1;
 5/5=2,22=13,38=5/2;
 7/30=1/1,2,3,16;
 1/7=10,18=20,19=15,26=4/3(-5);
 2/9=110,15=1/2;
 6/7=2,8=2,9=2,10=2,19=2,28=1/1;
 99/9=1/99;
 --------------------
 4-br-phboh2-opt-freq
 --------------------
 Symbolic Z-matrix:
 Charge =  0 Multiplicity = 1
 O                     8.68569   7.45586   5.54061 
 H                     9.4977    7.14697   5.95239 
 C                     6.24302   6.99509   5.1735 
 B                     7.63876   6.61493   5.77171 
 O                     7.87825   5.4917    6.51605 
 H                     7.10904   4.94282   6.67473 
 C                     5.11776   6.17203   5.28892 
 H                     5.17976   5.21741   5.80391 
 C                     3.88888   6.53449   4.75095 
 H                     3.01249   5.90462   4.83393 
 C                     3.8004    7.74547   4.08726 
 C                     4.88309   8.59566   3.94268 
 H                     4.75955   9.5316    3.41271 
 C                     6.0998    8.20895   4.48874 
 H                     6.96274   8.85692   4.38693 
 Br                    2.11899   8.26084   3.34204 
 

 GradGradGradGradGradGradGradGradGradGradGradGradGradGradGradGradGradGrad
 Berny optimization.
 Initialization pass.
                           ----------------------------
                           !    Initial Parameters    !
                           ! (Angstroms and Degrees)  !
 --------------------------                            --------------------------
 ! Name  Definition              Value          Derivative Info.                !
 --------------------------------------------------------------------------------
 ! R1    R(1,2)                  0.9614         calculate D2E/DX2 analytically  !
 ! R2    R(1,4)                  1.3626         calculate D2E/DX2 analytically  !
 ! R3    R(3,4)                  1.5654         calculate D2E/DX2 analytically  !
 ! R4    R(3,7)                  1.3989         calculate D2E/DX2 analytically  !
 ! R5    R(3,14)                 1.401          calculate D2E/DX2 analytically  !
 ! R6    R(4,5)                  1.3686         calculate D2E/DX2 analytically  !
 ! R7    R(5,6)                  0.9582         calculate D2E/DX2 analytically  !
 ! R8    R(7,8)                  1.0864         calculate D2E/DX2 analytically  !
 ! R9    R(7,9)                  1.3896         calculate D2E/DX2 analytically  !
 ! R10   R(9,10)                 1.0824         calculate D2E/DX2 analytically  !
 ! R11   R(9,11)                 1.3838         calculate D2E/DX2 analytically  !
 ! R12   R(11,12)                1.3842         calculate D2E/DX2 analytically  !
 ! R13   R(11,16)                1.91           calculate D2E/DX2 analytically  !
 ! R14   R(12,13)                1.0826         calculate D2E/DX2 analytically  !
 ! R15   R(12,14)                1.3886         calculate D2E/DX2 analytically  !
 ! R16   R(14,15)                1.0839         calculate D2E/DX2 analytically  !
 ! A1    A(2,1,4)              112.21           calculate D2E/DX2 analytically  !
 ! A2    A(4,3,7)              122.8737         calculate D2E/DX2 analytically  !
 ! A3    A(4,3,14)             119.231          calculate D2E/DX2 analytically  !
 ! A4    A(7,3,14)             117.8953         calculate D2E/DX2 analytically  !
 ! A5    A(1,4,3)              118.0587         calculate D2E/DX2 analytically  !
 ! A6    A(1,4,5)              117.6656         calculate D2E/DX2 analytically  !
 ! A7    A(3,4,5)              124.2756         calculate D2E/DX2 analytically  !
 ! A8    A(4,5,6)              114.8176         calculate D2E/DX2 analytically  !
 ! A9    A(3,7,8)              120.6759         calculate D2E/DX2 analytically  !
 ! A10   A(3,7,9)              121.732          calculate D2E/DX2 analytically  !
 ! A11   A(8,7,9)              117.5915         calculate D2E/DX2 analytically  !
 ! A12   A(7,9,10)             122.3133         calculate D2E/DX2 analytically  !
 ! A13   A(7,9,11)             118.0671         calculate D2E/DX2 analytically  !
 ! A14   A(10,9,11)            119.6196         calculate D2E/DX2 analytically  !
 ! A15   A(9,11,12)            122.5211         calculate D2E/DX2 analytically  !
 ! A16   A(9,11,16)            118.6566         calculate D2E/DX2 analytically  !
 ! A17   A(12,11,16)           118.8223         calculate D2E/DX2 analytically  !
 ! A18   A(11,12,13)           119.5293         calculate D2E/DX2 analytically  !
 ! A19   A(11,12,14)           118.2453         calculate D2E/DX2 analytically  !
 ! A20   A(13,12,14)           122.2253         calculate D2E/DX2 analytically  !
 ! A21   A(3,14,12)            121.5387         calculate D2E/DX2 analytically  !
 ! A22   A(3,14,15)            118.8462         calculate D2E/DX2 analytically  !
 ! A23   A(12,14,15)           119.615          calculate D2E/DX2 analytically  !
 ! D1    D(2,1,4,3)            179.4195         calculate D2E/DX2 analytically  !
 ! D2    D(2,1,4,5)             -0.4629         calculate D2E/DX2 analytically  !
 ! D3    D(7,3,4,1)            176.5693         calculate D2E/DX2 analytically  !
 ! D4    D(7,3,4,5)             -3.5568         calculate D2E/DX2 analytically  !
 ! D5    D(14,3,4,1)            -3.3624         calculate D2E/DX2 analytically  !
 ! D6    D(14,3,4,5)           176.5115         calculate D2E/DX2 analytically  !
 ! D7    D(4,3,7,8)             -0.4094         calculate D2E/DX2 analytically  !
 ! D8    D(4,3,7,9)            179.8584         calculate D2E/DX2 analytically  !
 ! D9    D(14,3,7,8)           179.5232         calculate D2E/DX2 analytically  !
 ! D10   D(14,3,7,9)            -0.209          calculate D2E/DX2 analytically  !
 ! D11   D(4,3,14,12)         -179.8018         calculate D2E/DX2 analytically  !
 ! D12   D(4,3,14,15)            0.1616         calculate D2E/DX2 analytically  !
 ! D13   D(7,3,14,12)            0.263          calculate D2E/DX2 analytically  !
 ! D14   D(7,3,14,15)         -179.7736         calculate D2E/DX2 analytically  !
 ! D15   D(1,4,5,6)            178.3146         calculate D2E/DX2 analytically  !
 ! D16   D(3,4,5,6)             -1.5598         calculate D2E/DX2 analytically  !
 ! D17   D(3,7,9,10)           179.944          calculate D2E/DX2 analytically  !
 ! D18   D(3,7,9,11)             0.047          calculate D2E/DX2 analytically  !
 ! D19   D(8,7,9,10)             0.2039         calculate D2E/DX2 analytically  !
 ! D20   D(8,7,9,11)          -179.6931         calculate D2E/DX2 analytically  !
 ! D21   D(7,9,11,12)            0.0713         calculate D2E/DX2 analytically  !
 ! D22   D(7,9,11,16)         -179.9675         calculate D2E/DX2 analytically  !
 ! D23   D(10,9,11,12)        -179.8286         calculate D2E/DX2 analytically  !
 ! D24   D(10,9,11,16)           0.1327         calculate D2E/DX2 analytically  !
 ! D25   D(9,11,12,13)         179.9196         calculate D2E/DX2 analytically  !
 ! D26   D(9,11,12,14)          -0.0193         calculate D2E/DX2 analytically  !
 ! D27   D(16,11,12,13)         -0.0416         calculate D2E/DX2 analytically  !
 ! D28   D(16,11,12,14)       -179.9805         calculate D2E/DX2 analytically  !
 ! D29   D(11,12,14,3)          -0.1529         calculate D2E/DX2 analytically  !
 ! D30   D(11,12,14,15)        179.884          calculate D2E/DX2 analytically  !
 ! D31   D(13,12,14,3)         179.91           calculate D2E/DX2 analytically  !
 ! D32   D(13,12,14,15)         -0.0531         calculate D2E/DX2 analytically  !
 --------------------------------------------------------------------------------
 Trust Radius=3.00D-01 FncErr=1.00D-07 GrdErr=1.00D-06 EigMax=2.50D+02 EigMin=1.00D-04
 Number of steps in this run=     81 maximum allowed number of steps=    100.
 GradGradGradGradGradGradGradGradGradGradGradGradGradGradGradGradGradGrad

                          Input orientation:                          
 ---------------------------------------------------------------------
 Center     Atomic      Atomic             Coordinates (Angstroms)
 Number     Number       Type             X           Y           Z
 ---------------------------------------------------------------------
      1          8           0        8.685690    7.455861    5.540605
      2          1           0        9.497703    7.146967    5.952393
      3          6           0        6.243019    6.995091    5.173497
      4          5           0        7.638764    6.614933    5.771710
      5          8           0        7.878250    5.491704    6.516050
      6          1           0        7.109042    4.942816    6.674732
      7          6           0        5.117764    6.172034    5.288922
      8          1           0        5.179757    5.217412    5.803915
      9          6           0        3.888879    6.534492    4.750949
     10          1           0        3.012486    5.904620    4.833931
     11          6           0        3.800398    7.745473    4.087257
     12          6           0        4.883088    8.595663    3.942679
     13          1           0        4.759553    9.531597    3.412707
     14          6           0        6.099800    8.208946    4.488735
     15          1           0        6.962741    8.856921    4.386934
     16         35           0        2.118985    8.260837    3.342038
 ---------------------------------------------------------------------
                    Distance matrix (angstroms):
                    1          2          3          4          5
     1  O    0.000000
     2  H    0.961431   0.000000
     3  C    2.512711   3.350032   0.000000
     4  B    1.362580   1.941999   1.565402   0.000000
     5  O    2.336956   2.383324   2.595496   1.368590   0.000000
     6  H    3.176076   3.329528   2.686175   1.972823   0.958196
     7  C    3.800217   4.535918   1.398908   2.604743   3.096607
     8  H    4.167919   4.731795   2.165201   2.828572   2.804325
     9  C    4.947916   5.768665   2.435708   3.887166   4.485317
    10  H    5.923764   6.697195   3.426482   4.773513   5.164851
    11  C    5.105112   6.024635   2.776578   4.341492   5.254273
    12  C    4.279287   5.237589   2.434370   3.855178   5.022728
    13  H    4.924549   5.881031   3.425626   4.728814   5.973085
    14  C    2.891435   3.849135   1.401019   2.560334   3.828354
    15  H    2.502495   3.435206   2.145482   2.720500   4.086071
    16  Br   6.971606   7.905703   4.686578   6.251421   7.135235
                    6          7          8          9         10
     6  H    0.000000
     7  C    2.719675   0.000000
     8  H    2.134447   1.086446   0.000000
     9  C    4.074779   1.389586   2.123630   0.000000
    10  H    4.592971   2.170420   2.471879   1.082446   0.000000
    11  C    5.049459   2.378059   3.352706   1.383760   2.137070
    12  C    5.075655   2.782341   3.868435   2.426969   3.396350
    13  H    6.100641   3.864604   4.950418   3.395821   4.269319
    14  C    4.057679   2.398688   3.394916   2.785808   3.867892
    15  H    4.536038   3.380257   4.293354   3.869730   4.951808
    16  Br   6.856878   4.140789   4.969064   2.845667   2.928455
                   11         12         13         14         15
    11  C    0.000000
    12  C    1.384176   0.000000
    13  H    2.136641   1.082637   0.000000
    14  C    2.379757   1.388566   2.168756   0.000000
    15  H    3.365343   2.142563   2.501668   1.083929   0.000000
    16  Br   1.910000   2.848358   2.931283   4.143005   4.990901
                   16
    16  Br   0.000000
 Symmetry turned off by external request.
 Stoichiometry    C6H6BBrO2
 Framework group  C1[X(C6H6BBrO2)]
 Deg. of freedom    42
 Full point group                 C1      NOp   1
 Rotational constants (GHZ):           3.6889434           0.3520461           0.3214257
 Standard basis: 6-311+G(d,p) (5D, 7F)
   282 basis functions,   466 primitive gaussians,   294 cartesian basis functions
    49 alpha electrons       49 beta electrons
       nuclear repulsion energy       679.0334571596 Hartrees.
 NAtoms=   16 NActive=   16 NUniq=   16 SFac= 1.00D+00 NAtFMM=   60 NAOKFM=F Big=F
 Integral buffers will be    131072 words long.
 Raffenetti 2 integral format.
 Two-electron integral symmetry is turned off.
 One-electron integrals computed using PRISM.
 NBasis=   282 RedAO= T EigKep=  2.34D-06  NBF=   282
 NBsUse=   282 1.00D-06 EigRej= -1.00D+00 NBFU=   282
 ExpMin= 3.15D-02 ExpMax= 4.40D+05 ExpMxC= 1.51D+04 IAcc=3 IRadAn=         5 AccDes= 0.00D+00
 Harris functional with IExCor= 1009 and IRadAn=       5 diagonalized for initial guess.
 HarFok:  IExCor= 1009 AccDes= 0.00D+00 IRadAn=         5 IDoV= 1 UseB2=F ITyADJ=14
 ICtDFT=  3500011 ScaDFX=  1.000000  1.000000  1.000000  1.000000
 FoFCou: FMM=F IPFlag=           0 FMFlag=      100000 FMFlg1=           0
         NFxFlg=           0 DoJE=T BraDBF=F KetDBF=T FulRan=T
         wScrn=  0.000000 ICntrl=       500 IOpCl=  0 I1Cent=   200000004 NGrid=           0
         NMat0=    1 NMatS0=      1 NMatT0=    0 NMatD0=    1 NMtDS0=    0 NMtDT0=    0
 Symmetry not used in FoFCou.
 Requested convergence on RMS density matrix=1.00D-08 within 128 cycles.
 Requested convergence on MAX density matrix=1.00D-06.
 Requested convergence on             energy=1.00D-06.
 Level shift goal  0.100 maximum shift  0.100.
 No special actions if energy rises.
 Dynamic level shift is on during FON iterations.
 SCF Done:  E(RM062X) =  -2981.79736136     A.U. after   14 cycles
            NFock= 14  Conv=0.82D-08     -V/T= 2.0015
 DoSCS=F DFT=T ScalE2(SS,OS)=  1.000000  1.000000
 Range of M.O.s used for correlation:     1   282
 NBasis=   282 NAE=    49 NBE=    49 NFC=     0 NFV=     0
 NROrb=    282 NOA=    49 NOB=    49 NVA=   233 NVB=   233

 **** Warning!!: The largest alpha MO coefficient is  0.14096582D+03

 Symmetrizing basis deriv contribution to polar:
 IMax=3 JMax=2 DiffMx= 0.00D+00
 G2DrvN: will do    17 centers at a time, making    1 passes.
 Calling FoFCou, ICntrl=  3107 FMM=F I1Cent=   0 AccDes= 0.00D+00.
 End of G2Drv F.D. properties file   721 does not exist.
 End of G2Drv F.D. properties file   722 does not exist.
 End of G2Drv F.D. properties file   788 does not exist.
          IDoAtm=1111111111111111
          Differentiating once with respect to nuclear coordinates.
 Keep R1 ints in memory in canonical form, NReq=832100182.
          There are    51 degrees of freedom in the 1st order CPHF.  IDoFFX=6 NUNeed=     0.
     45 vectors produced by pass  0 Test12= 2.24D-14 1.96D-09 XBig12= 1.60D-01 1.05D-01.
 AX will form    45 AO Fock derivatives at one time.
     45 vectors produced by pass  1 Test12= 2.24D-14 1.96D-09 XBig12= 1.01D-02 3.12D-02.
     45 vectors produced by pass  2 Test12= 2.24D-14 1.96D-09 XBig12= 3.45D-04 2.71D-03.
     45 vectors produced by pass  3 Test12= 2.24D-14 1.96D-09 XBig12= 2.96D-06 2.65D-04.
     45 vectors produced by pass  4 Test12= 2.24D-14 1.96D-09 XBig12= 2.32D-08 2.04D-05.
     45 vectors produced by pass  5 Test12= 2.24D-14 1.96D-09 XBig12= 9.48D-11 1.24D-06.
     45 vectors produced by pass  6 Test12= 2.24D-14 1.96D-09 XBig12= 3.94D-13 6.84D-08.
     11 vectors produced by pass  7 Test12= 2.24D-14 1.96D-09 XBig12= 1.66D-15 4.15D-09.
 InvSVY:  IOpt=1 It=  1 EMax= 5.55D-16
 Solved reduced A of dimension   326 with    51 vectors.
 End of Minotr F.D. properties file   721 does not exist.
 End of Minotr F.D. properties file   722 does not exist.
 End of Minotr F.D. properties file   788 does not exist.

 **********************************************************************

            Population analysis using the SCF Density.

 **********************************************************************

 Alpha  occ. eigenvalues -- -485.33871 -63.33060 -57.15807 -57.15551 -57.15543
 Alpha  occ. eigenvalues --  -19.64712 -19.63876 -10.61390 -10.56955 -10.56565
 Alpha  occ. eigenvalues --  -10.56312 -10.56114 -10.54397  -9.01774  -7.09361
 Alpha  occ. eigenvalues --   -6.84568  -6.83540  -6.83526  -2.87723  -2.87366
 Alpha  occ. eigenvalues --   -2.87349  -2.86439  -2.86438  -1.17729  -1.14016
 Alpha  occ. eigenvalues --   -0.99199  -0.90704  -0.86697  -0.82495  -0.71596
 Alpha  occ. eigenvalues --   -0.69417  -0.66220  -0.64084  -0.59345  -0.54452
 Alpha  occ. eigenvalues --   -0.54085  -0.51342  -0.50894  -0.49070  -0.46617
 Alpha  occ. eigenvalues --   -0.46427  -0.45006  -0.42420  -0.41343  -0.39649
 Alpha  occ. eigenvalues --   -0.38176  -0.35390  -0.32875  -0.30578
 Alpha virt. eigenvalues --   -0.01809  -0.00966   0.00016   0.01144   0.01426
 Alpha virt. eigenvalues --    0.01881   0.02840   0.03381   0.04046   0.05055
 Alpha virt. eigenvalues --    0.05335   0.06593   0.07422   0.07876   0.08828
 Alpha virt. eigenvalues --    0.09832   0.10218   0.11327   0.11936   0.12727
 Alpha virt. eigenvalues --    0.13153   0.14120   0.14643   0.14815   0.15103
 Alpha virt. eigenvalues --    0.15661   0.16003   0.17130   0.18249   0.18800
 Alpha virt. eigenvalues --    0.19174   0.19936   0.20924   0.21611   0.22121
 Alpha virt. eigenvalues --    0.22676   0.23004   0.23791   0.24014   0.24161
 Alpha virt. eigenvalues --    0.24696   0.24985   0.25519   0.26685   0.27706
 Alpha virt. eigenvalues --    0.27987   0.29202   0.31019   0.32265   0.32686
 Alpha virt. eigenvalues --    0.33759   0.35466   0.37160   0.38815   0.39473
 Alpha virt. eigenvalues --    0.44326   0.44424   0.45036   0.46559   0.48673
 Alpha virt. eigenvalues --    0.49421   0.49956   0.51560   0.51899   0.54088
 Alpha virt. eigenvalues --    0.55013   0.56654   0.56710   0.58908   0.59068
 Alpha virt. eigenvalues --    0.59690   0.62080   0.62518   0.63143   0.65056
 Alpha virt. eigenvalues --    0.66199   0.68009   0.68945   0.69473   0.69743
 Alpha virt. eigenvalues --    0.70207   0.70665   0.73482   0.74241   0.77310
 Alpha virt. eigenvalues --    0.77847   0.78057   0.80295   0.83511   0.85034
 Alpha virt. eigenvalues --    0.87144   0.87269   0.89640   0.90125   0.91189
 Alpha virt. eigenvalues --    0.91920   0.93823   0.94518   0.99223   1.01283
 Alpha virt. eigenvalues --    1.02342   1.05452   1.06081   1.07646   1.07873
 Alpha virt. eigenvalues --    1.09472   1.10369   1.10992   1.12169   1.12737
 Alpha virt. eigenvalues --    1.16786   1.19461   1.19619   1.26180   1.30660
 Alpha virt. eigenvalues --    1.31922   1.32984   1.34667   1.38018   1.44866
 Alpha virt. eigenvalues --    1.47702   1.49116   1.50144   1.52661   1.53469
 Alpha virt. eigenvalues --    1.57736   1.59923   1.60700   1.64370   1.65556
 Alpha virt. eigenvalues --    1.67808   1.69651   1.70596   1.74498   1.76588
 Alpha virt. eigenvalues --    1.79245   1.79458   1.84002   1.85937   1.90543
 Alpha virt. eigenvalues --    1.94615   1.95329   1.95673   1.97034   1.99652
 Alpha virt. eigenvalues --    2.00610   2.01088   2.05747   2.06367   2.09783
 Alpha virt. eigenvalues --    2.11786   2.13745   2.15407   2.16767   2.20471
 Alpha virt. eigenvalues --    2.28226   2.31284   2.35636   2.38559   2.42060
 Alpha virt. eigenvalues --    2.43160   2.48314   2.56563   2.58170   2.60614
 Alpha virt. eigenvalues --    2.62900   2.65005   2.67774   2.71476   2.71918
 Alpha virt. eigenvalues --    2.74458   2.76675   2.77608   2.78545   2.79642
 Alpha virt. eigenvalues --    2.83724   2.84958   2.93637   2.94514   2.97439
 Alpha virt. eigenvalues --    3.06439   3.09053   3.10530   3.13111   3.23348
 Alpha virt. eigenvalues --    3.25825   3.25934   3.30671   3.39765   3.41438
 Alpha virt. eigenvalues --    3.47161   3.53362   3.54784   3.60060   3.63075
 Alpha virt. eigenvalues --    3.65762   3.75770   3.91587   3.94441   4.02778
 Alpha virt. eigenvalues --    4.10196   4.17491   4.18988   4.28430   4.33832
 Alpha virt. eigenvalues --    4.36948   4.52681   4.71039   4.84404   5.07394
 Alpha virt. eigenvalues --    5.08512   5.38531   5.49107   5.68223   5.75980
 Alpha virt. eigenvalues --    6.89829   7.63976   7.76434   7.80697  14.78989
 Alpha virt. eigenvalues --   23.61653  24.00296  24.02532  24.12653  24.17111
 Alpha virt. eigenvalues --   24.25174  48.41593  49.99479  50.04901 290.78519
 Alpha virt. eigenvalues --  290.91998 290.989381020.98564
          Condensed to atoms (all electrons):
               1          2          3          4          5          6
     1  O    7.768340   0.269259   0.064536   0.445122  -0.124466   0.020390
     2  H    0.269259   0.450554   0.045990  -0.005123  -0.034348   0.003201
     3  C    0.064536   0.045990   9.494152   0.224087  -0.193839   0.027430
     4  B    0.445122  -0.005123   0.224087   3.354119   0.369860   0.016308
     5  O   -0.124466  -0.034348  -0.193839   0.369860   7.982771   0.252620
     6  H    0.020390   0.003201   0.027430   0.016308   0.252620   0.436594
     7  C    0.030495  -0.007438  -1.385146   0.138040   0.058264  -0.069169
     8  H    0.002298  -0.000041   0.041802   0.013143  -0.006357   0.011563
     9  C    0.051698   0.004756  -0.081936   0.046688  -0.007014   0.049117
    10  H   -0.000042  -0.000001  -0.010661   0.000044   0.000306  -0.000036
    11  C   -0.009707  -0.001021  -1.507230   0.013009   0.010790  -0.004493
    12  C   -0.009948  -0.016468  -0.461150  -0.018111   0.048285  -0.012627
    13  H    0.000417   0.000000   0.002590   0.000330  -0.000027   0.000003
    14  C   -0.143592  -0.017360   0.096161  -0.059282  -0.003137   0.017082
    15  H    0.003713  -0.000652   0.067961  -0.009090   0.002215  -0.000092
    16  Br  -0.000027  -0.000016   0.097094  -0.004558   0.000041  -0.000043
               7          8          9         10         11         12
     1  O    0.030495   0.002298   0.051698  -0.000042  -0.009707  -0.009948
     2  H   -0.007438  -0.000041   0.004756  -0.000001  -0.001021  -0.016468
     3  C   -1.385146   0.041802  -0.081936  -0.010661  -1.507230  -0.461150
     4  B    0.138040   0.013143   0.046688   0.000044   0.013009  -0.018111
     5  O    0.058264  -0.006357  -0.007014   0.000306   0.010790   0.048285
     6  H   -0.069169   0.011563   0.049117  -0.000036  -0.004493  -0.012627
     7  C   11.534921   0.299512  -1.801219   0.060426   0.045276  -0.365967
     8  H    0.299512   0.539307   0.029890  -0.006460  -0.023244  -0.007875
     9  C   -1.801219   0.029890  10.186009   0.259235  -0.326888  -1.362499
    10  H    0.060426  -0.006460   0.259235   0.481210   0.052866  -0.009311
    11  C    0.045276  -0.023244  -0.326888   0.052866   7.747774  -0.105886
    12  C   -0.365967  -0.007875  -1.362499  -0.009311  -0.105886   9.849999
    13  H   -0.000678   0.000070  -0.005158  -0.000114   0.030615   0.262426
    14  C   -2.473155  -0.023052  -0.910680   0.004309  -0.084052  -1.697037
    15  H   -0.002625  -0.000128  -0.007135   0.000048  -0.016043  -0.013634
    16  Br   0.023452  -0.000482   0.313489  -0.010728  -0.658336   0.332434
              13         14         15         16
     1  O    0.000417  -0.143592   0.003713  -0.000027
     2  H    0.000000  -0.017360  -0.000652  -0.000016
     3  C    0.002590   0.096161   0.067961   0.097094
     4  B    0.000330  -0.059282  -0.009090  -0.004558
     5  O   -0.000027  -0.003137   0.002215   0.000041
     6  H    0.000003   0.017082  -0.000092  -0.000043
     7  C   -0.000678  -2.473155  -0.002625   0.023452
     8  H    0.000070  -0.023052  -0.000128  -0.000482
     9  C   -0.005158  -0.910680  -0.007135   0.313489
    10  H   -0.000114   0.004309   0.000048  -0.010728
    11  C    0.030615  -0.084052  -0.016043  -0.658336
    12  C    0.262426  -1.697037  -0.013634   0.332434
    13  H    0.478198   0.067151  -0.005575  -0.011345
    14  C    0.067151  11.108701   0.323029  -0.006213
    15  H   -0.005575   0.323029   0.468064   0.000085
    16  Br  -0.011345  -0.006213   0.000085  35.096770
 Mulliken charges:
               1
     1  O   -0.368486
     2  H    0.308707
     3  C   -0.521841
     4  B    0.475414
     5  O   -0.355964
     6  H    0.252151
     7  C   -0.084990
     8  H    0.130055
     9  C   -0.438352
    10  H    0.178908
    11  C    0.836571
    12  C   -0.412632
    13  H    0.181096
    14  C   -0.198875
    15  H    0.189857
    16  Br  -0.171618
 Sum of Mulliken charges =   0.00000
 Mulliken charges with hydrogens summed into heavy atoms:
               1
     1  O   -0.059779
     3  C   -0.521841
     4  B    0.475414
     5  O   -0.103813
     7  C    0.045064
     9  C   -0.259444
    11  C    0.836571
    12  C   -0.231536
    14  C   -0.009018
    16  Br  -0.171618
 APT charges:
               1
     1  O   -0.404597
     2  H    2.037431
     3  C   -1.688583
     4  B   -0.386005
     5  O    1.263242
     6  H   -1.166222
     7  C   -0.286355
     8  H   -0.177840
     9  C    0.990228
    10  H   -0.804659
    11  C   -0.947505
    12  C   -0.856163
    13  H    1.154332
    14  C   -0.493617
    15  H    1.894852
    16  Br  -0.128540
 Sum of APT charges =   0.00000
 APT charges with hydrogens summed into heavy atoms:
               1
     1  O    1.632834
     3  C   -1.688583
     4  B   -0.386005
     5  O    0.097020
     7  C   -0.464195
     9  C    0.185569
    11  C   -0.947505
    12  C    0.298169
    14  C    1.401236
    16  Br  -0.128540
 Electronic spatial extent (au):  <R**2>=          37318.9008
 Charge=              0.0000 electrons
 Dipole moment (field-independent basis, Debye):
    X=              0.7476    Y=             -1.3960    Z=              1.0998  Tot=              1.9280
 Quadrupole moment (field-independent basis, Debye-Ang):
   XX=            -63.2617   YY=            -86.1801   ZZ=            -61.4839
   XY=              0.5952   XZ=              9.0743   YZ=             -2.4899
 Traceless Quadrupole moment (field-independent basis, Debye-Ang):
   XX=              7.0468   YY=            -15.8715   ZZ=              8.8247
   XY=              0.5952   XZ=              9.0743   YZ=             -2.4899
 Octapole moment (field-independent basis, Debye-Ang**2):
  XXX=           -975.0049  YYY=          -1690.1492  ZZZ=           -918.7721  XYY=           -363.6777
  XXY=           -481.8904  XXZ=           -255.3560  XZZ=           -288.5769  YZZ=           -524.6761
  YYZ=           -395.3080  XYZ=             26.1270
 Hexadecapole moment (field-independent basis, Debye-Ang**3):
 XXXX=         -11610.2911 YYYY=         -24457.2358 ZZZZ=          -9212.8922 XXXY=          -6972.8048
 XXXZ=          -4592.0694 YYYX=          -7642.2051 YYYZ=          -7793.5084 ZZZX=          -4929.0773
 ZZZY=          -7034.6102 XXYY=          -5833.9057 XXZZ=          -3239.2692 YYZZ=          -5916.9981
 XXYZ=          -1954.5160 YYXZ=          -1773.6798 ZZXY=          -2326.6988
 N-N= 6.790334571596D+02 E-N=-8.463689139888D+03  KE= 2.977298571320D+03
  Exact polarizability:       0.000       0.000       0.000       0.000       0.000       0.000
 Approx polarizability:     160.964      -0.649     128.750      22.831     -26.212     101.042
 Calling FoFJK, ICntrl=    100127 FMM=F ISym2X=0 I1Cent= 0 IOpClX= 0 NMat=1 NMatS=1 NMatT=0.
 -------------------------------------------------------------------
 Center     Atomic                   Forces (Hartrees/Bohr)
 Number     Number              X              Y              Z
 -------------------------------------------------------------------
      1        8          -0.000683491   -0.000199902   -0.000051967
      2        1           0.000068233   -0.000015497    0.000015225
      3        6          -0.001616149    0.000689396   -0.000837171
      4        5           0.001742988   -0.000425065    0.000715169
      5        8          -0.000343377    0.000486588   -0.000361726
      6        1          -0.000038740   -0.000139034    0.000060294
      7        6           0.000559349   -0.000937836    0.000660571
      8        1           0.000008147   -0.000155579    0.000082010
      9        6           0.000723092   -0.001170778    0.000790092
     10        1           0.001309053   -0.001103870    0.000969303
     11        6          -0.008851856    0.002577413   -0.003877960
     12        6           0.001506258    0.000611958    0.000096392
     13        1           0.001896975    0.000079105    0.000505512
     14        6           0.001343286    0.000212616    0.000265039
     15        1           0.000148988    0.000117754   -0.000018285
     16       35           0.002227243   -0.000627270    0.000987501
 -------------------------------------------------------------------
 Cartesian Forces:  Max     0.008851856 RMS     0.001654714
 FormGI is forming the generalized inverse of G from B-inverse, IUseBI=4.

 GradGradGradGradGradGradGradGradGradGradGradGradGradGradGradGradGradGrad
 Berny optimization.
 Internal  Forces:  Max     0.004447212 RMS     0.001105590
 Search for a local minimum.
 Step number   1 out of a maximum of   81
 All quantities printed in internal units (Hartrees-Bohrs-Radians)
 Mixed Optimization -- RFO/linear search
 Second derivative matrix not updated -- analytic derivatives used.
 ITU=  0
     Eigenvalues ---    0.00082   0.01018   0.01253   0.01501   0.01713
     Eigenvalues ---    0.01769   0.02131   0.02361   0.02611   0.02755
     Eigenvalues ---    0.02853   0.02918   0.03960   0.10321   0.11183
     Eigenvalues ---    0.11220   0.11469   0.11979   0.12638   0.14999
     Eigenvalues ---    0.15959   0.17680   0.18536   0.18966   0.19490
     Eigenvalues ---    0.19644   0.24023   0.27969   0.29345   0.35635
     Eigenvalues ---    0.36524   0.36687   0.36848   0.39282   0.42513
     Eigenvalues ---    0.42802   0.48159   0.48491   0.49185   0.52556
     Eigenvalues ---    0.55224   0.56316
 RFO step:  Lambda=-4.06344514D-04 EMin= 8.24247915D-04
 Linear search not attempted -- first point.
 Iteration  1 RMS(Cart)=  0.00754677 RMS(Int)=  0.00007698
 Iteration  2 RMS(Cart)=  0.00009355 RMS(Int)=  0.00000896
 Iteration  3 RMS(Cart)=  0.00000000 RMS(Int)=  0.00000896
 Variable       Old X    -DE/DX   Delta X   Delta X   Delta X     New X
                                 (Linear)    (Quad)   (Total)
    R1        1.81684   0.00007   0.00000   0.00013   0.00013   1.81697
    R2        2.57490  -0.00059   0.00000  -0.00157  -0.00157   2.57333
    R3        2.95818   0.00088   0.00000   0.00414   0.00414   2.96232
    R4        2.64355  -0.00047   0.00000  -0.00171  -0.00172   2.64183
    R5        2.64754  -0.00067   0.00000  -0.00238  -0.00239   2.64515
    R6        2.58626  -0.00052   0.00000  -0.00171  -0.00171   2.58455
    R7        1.81073   0.00011   0.00000   0.00015   0.00015   1.81088
    R8        2.05308   0.00018   0.00000   0.00038   0.00038   2.05347
    R9        2.62594   0.00061   0.00000   0.00086   0.00086   2.62680
   R10        2.04553  -0.00034   0.00000  -0.00040  -0.00040   2.04513
   R11        2.61493   0.00434   0.00000   0.00945   0.00947   2.62439
   R12        2.61571   0.00445   0.00000   0.00968   0.00970   2.62541
   R13        3.60938  -0.00252   0.00000  -0.02095  -0.02095   3.58843
   R14        2.04589  -0.00040   0.00000  -0.00057  -0.00057   2.04532
   R15        2.62401   0.00071   0.00000   0.00115   0.00115   2.62516
   R16        2.04833   0.00019   0.00000   0.00038   0.00038   2.04871
    A1        1.95843   0.00004   0.00000   0.00138   0.00138   1.95981
    A2        2.14455  -0.00038   0.00000   0.00038   0.00039   2.14494
    A3        2.08097  -0.00035   0.00000   0.00103   0.00104   2.08201
    A4        2.05766   0.00074   0.00000  -0.00140  -0.00143   2.05623
    A5        2.06051  -0.00030   0.00000  -0.00185  -0.00185   2.05867
    A6        2.05365   0.00044   0.00000   0.00303   0.00303   2.05668
    A7        2.16902  -0.00013   0.00000  -0.00119  -0.00119   2.16783
    A8        2.00395   0.00018   0.00000   0.00109   0.00109   2.00503
    A9        2.10619  -0.00015   0.00000   0.00151   0.00152   2.10771
   A10        2.12462   0.00029   0.00000   0.00044   0.00042   2.12505
   A11        2.05236  -0.00014   0.00000  -0.00195  -0.00194   2.05042
   A12        2.13477  -0.00253   0.00000  -0.02105  -0.02106   2.11371
   A13        2.06066   0.00109   0.00000   0.00986   0.00987   2.07053
   A14        2.08776   0.00145   0.00000   0.01119   0.01119   2.09894
   A15        2.13840  -0.00346   0.00000  -0.01916  -0.01913   2.11927
   A16        2.07095   0.00180   0.00000   0.00995   0.00994   2.08089
   A17        2.07384   0.00166   0.00000   0.00921   0.00919   2.08303
   A18        2.08618   0.00140   0.00000   0.01084   0.01083   2.09701
   A19        2.06377   0.00111   0.00000   0.01003   0.01005   2.07382
   A20        2.13323  -0.00252   0.00000  -0.02087  -0.02088   2.11235
   A21        2.12125   0.00024   0.00000   0.00023   0.00022   2.12147
   A22        2.07426  -0.00011   0.00000   0.00190   0.00190   2.07616
   A23        2.08768  -0.00013   0.00000  -0.00213  -0.00212   2.08555
    D1        3.13146   0.00001   0.00000   0.00012   0.00012   3.13158
    D2       -0.00808   0.00001   0.00000   0.00048   0.00048  -0.00760
    D3        3.08172   0.00000   0.00000   0.00006   0.00005   3.08177
    D4       -0.06208   0.00000   0.00000  -0.00032  -0.00032  -0.06240
    D5       -0.05869   0.00000   0.00000  -0.00085  -0.00085  -0.05954
    D6        3.08071  -0.00001   0.00000  -0.00123  -0.00123   3.07947
    D7       -0.00714   0.00000   0.00000  -0.00092  -0.00093  -0.00807
    D8        3.13912  -0.00001   0.00000  -0.00118  -0.00118   3.13795
    D9        3.13327   0.00000   0.00000  -0.00002  -0.00003   3.13324
   D10       -0.00365   0.00000   0.00000  -0.00028  -0.00028  -0.00393
   D11       -3.13813   0.00001   0.00000   0.00124   0.00124  -3.13689
   D12        0.00282   0.00000   0.00000   0.00082   0.00083   0.00365
   D13        0.00459   0.00001   0.00000   0.00037   0.00038   0.00497
   D14       -3.13764   0.00000   0.00000  -0.00004  -0.00004  -3.13768
   D15        3.11218   0.00001   0.00000   0.00075   0.00075   3.11292
   D16       -0.02722   0.00001   0.00000   0.00113   0.00113  -0.02609
   D17        3.14062   0.00002   0.00000   0.00069   0.00068   3.14130
   D18        0.00082   0.00000   0.00000  -0.00014  -0.00014   0.00068
   D19        0.00356   0.00001   0.00000   0.00044   0.00043   0.00399
   D20       -3.13624  -0.00001   0.00000  -0.00039  -0.00039  -3.13663
   D21        0.00124   0.00000   0.00000   0.00047   0.00047   0.00171
   D22       -3.14103   0.00003   0.00000   0.00142   0.00142  -3.13960
   D23       -3.13860  -0.00001   0.00000  -0.00031  -0.00032  -3.13892
   D24        0.00232   0.00001   0.00000   0.00064   0.00064   0.00295
   D25        3.14019   0.00001   0.00000   0.00014   0.00015   3.14034
   D26       -0.00034   0.00000   0.00000  -0.00037  -0.00037  -0.00070
   D27       -0.00073  -0.00001   0.00000  -0.00081  -0.00081  -0.00153
   D28       -3.14125  -0.00002   0.00000  -0.00132  -0.00132   3.14061
   D29       -0.00267   0.00000   0.00000  -0.00007  -0.00006  -0.00273
   D30        3.13957   0.00001   0.00000   0.00035   0.00035   3.13992
   D31        3.14002  -0.00002   0.00000  -0.00061  -0.00061   3.13941
   D32       -0.00093   0.00000   0.00000  -0.00020  -0.00019  -0.00112
         Item               Value     Threshold  Converged?
 Maximum Force            0.004447     0.000015     NO 
 RMS     Force            0.001106     0.000010     NO 
 Maximum Displacement     0.036016     0.000060     NO 
 RMS     Displacement     0.007537     0.000040     NO 
 Predicted change in Energy=-2.036971D-04
 GradGradGradGradGradGradGradGradGradGradGradGradGradGradGradGradGradGrad

                          Input orientation:                          
 ---------------------------------------------------------------------
 Center     Atomic      Atomic             Coordinates (Angstroms)
 Number     Number       Type             X           Y           Z
 ---------------------------------------------------------------------
      1          8           0        8.684899    7.455896    5.540576
      2          1           0        9.498143    7.149460    5.951932
      3          6           0        6.242596    6.994933    5.172312
      4          5           0        7.639795    6.614285    5.772551
      5          8           0        7.876725    5.491926    6.517358
      6          1           0        7.107309    4.942938    6.675166
      7          6           0        5.117522    6.173086    5.287064
      8          1           0        5.177160    5.217841    5.801606
      9          6           0        3.888333    6.536213    4.749058
     10          1           0        3.024143    5.891678    4.843860
     11          6           0        3.786561    7.749529    4.081088
     12          6           0        4.880940    8.594089    3.942407
     13          1           0        4.778612    9.534618    3.416685
     14          6           0        6.098565    8.207536    4.488089
     15          1           0        6.960086    8.857518    4.384927
     16         35           0        2.114532    8.263822    3.342376
 ---------------------------------------------------------------------
                    Distance matrix (angstroms):
                    1          2          3          4          5
     1  O    0.000000
     2  H    0.961500   0.000000
     3  C    2.512558   3.351159   0.000000
     4  B    1.361750   1.942176   1.567592   0.000000
     5  O    2.337612   2.386655   2.595873   1.367686   0.000000
     6  H    3.176640   3.332850   2.686444   1.972728   0.958275
     7  C    3.799480   4.537091   1.397996   2.606187   3.096902
     8  H    4.169084   4.735467   2.165461   2.831161   2.806256
     9  C    4.947663   5.770004   2.435595   3.889357   4.486055
    10  H    5.914081   6.687489   3.418113   4.763284   5.148587
    11  C    5.119574   6.040058   2.791468   4.358582   5.268930
    12  C    4.280155   5.238674   2.433942   3.857503   5.022799
    13  H    4.908266   5.864335   3.416940   4.718561   5.962872
    14  C    2.891680   3.849609   1.399754   2.561967   3.828096
    15  H    2.505005   3.437252   2.145691   2.723894   4.088362
    16  Br   6.975281   7.910075   4.690379   6.257416   7.139102
                    6          7          8          9         10
     6  H    0.000000
     7  C    2.720173   0.000000
     8  H    2.136388   1.086648   0.000000
     9  C    4.075564   1.390043   2.122978   0.000000
    10  H    4.574498   2.158207   2.450881   1.082237   0.000000
    11  C    5.062960   2.389772   3.362052   1.388769   2.148189
    12  C    5.074996   2.779447   3.865672   2.422975   3.400491
    13  H    6.092951   3.861745   4.947853   3.399743   4.287890
    14  C    4.056903   2.395786   3.393021   2.783263   3.865468
    15  H    4.537709   3.378619   4.293374   3.867392   4.949593
    16  Br   6.860290   4.143783   4.970463   2.847764   2.951087
                   11         12         13         14         15
    11  C    0.000000
    12  C    1.389308   0.000000
    13  H    2.147588   1.082335   0.000000
    14  C    2.391816   1.389174   2.156695   0.000000
    15  H    3.375087   2.141977   2.480884   1.084130   0.000000
    16  Br   1.898914   2.849934   2.952586   4.145883   4.991871
                   16
    16  Br   0.000000
 Symmetry turned off by external request.
 Stoichiometry    C6H6BBrO2
 Framework group  C1[X(C6H6BBrO2)]
 Deg. of freedom    42
 Full point group                 C1      NOp   1
 Rotational constants (GHZ):           3.6912555           0.3515420           0.3210246
 Standard basis: 6-311+G(d,p) (5D, 7F)
   282 basis functions,   466 primitive gaussians,   294 cartesian basis functions
    49 alpha electrons       49 beta electrons
       nuclear repulsion energy       678.9098064284 Hartrees.
 NAtoms=   16 NActive=   16 NUniq=   16 SFac= 1.00D+00 NAtFMM=   60 NAOKFM=F Big=F
 Integral buffers will be    131072 words long.
 Raffenetti 2 integral format.
 Two-electron integral symmetry is turned off.
 One-electron integrals computed using PRISM.
 NBasis=   282 RedAO= T EigKep=  2.32D-06  NBF=   282
 NBsUse=   282 1.00D-06 EigRej= -1.00D+00 NBFU=   282
 Initial guess from the checkpoint file:  "4-br-phboh2-opt-freq.chk"
 B after Tr=    -0.010687    0.005416    0.000147
         Rot=    1.000000   -0.000048   -0.000124    0.000129 Ang=  -0.02 deg.
 ExpMin= 3.15D-02 ExpMax= 4.40D+05 ExpMxC= 1.51D+04 IAcc=3 IRadAn=         5 AccDes= 0.00D+00
 Harris functional with IExCor= 1009 and IRadAn=       5 diagonalized for initial guess.
 HarFok:  IExCor= 1009 AccDes= 0.00D+00 IRadAn=         5 IDoV= 1 UseB2=F ITyADJ=14
 ICtDFT=  3500011 ScaDFX=  1.000000  1.000000  1.000000  1.000000
 FoFCou: FMM=F IPFlag=           0 FMFlag=      100000 FMFlg1=           0
         NFxFlg=           0 DoJE=T BraDBF=F KetDBF=T FulRan=T
         wScrn=  0.000000 ICntrl=       500 IOpCl=  0 I1Cent=   200000004 NGrid=           0
         NMat0=    1 NMatS0=      1 NMatT0=    0 NMatD0=    1 NMtDS0=    0 NMtDT0=    0
 Symmetry not used in FoFCou.
 Requested convergence on RMS density matrix=1.00D-08 within 128 cycles.
 Requested convergence on MAX density matrix=1.00D-06.
 Requested convergence on             energy=1.00D-06.
 Level shift goal  0.100 maximum shift  0.100.
 No special actions if energy rises.
 Dynamic level shift is on during FON iterations.
 SCF Done:  E(RM062X) =  -2981.79756458     A.U. after   11 cycles
            NFock= 11  Conv=0.62D-08     -V/T= 2.0015
 Calling FoFJK, ICntrl=      2127 FMM=F ISym2X=0 I1Cent= 0 IOpClX= 0 NMat=1 NMatS=1 NMatT=0.
 -------------------------------------------------------------------
 Center     Atomic                   Forces (Hartrees/Bohr)
 Number     Number              X              Y              Z
 -------------------------------------------------------------------
      1        8           0.000000449   -0.000005166    0.000000843
      2        1           0.000000226   -0.000008605    0.000001352
      3        6           0.000008695   -0.000005098    0.000003762
      4        5           0.000004907   -0.000005851    0.000003029
      5        8          -0.000005385   -0.000007017   -0.000000093
      6        1          -0.000004770   -0.000005462   -0.000002304
      7        6           0.000013187   -0.000006495    0.000007688
      8        1          -0.000003417   -0.000000295   -0.000002321
      9        6          -0.000027408   -0.000059701    0.000023394
     10        1          -0.000002442    0.000001056    0.000000113
     11        6           0.000016391   -0.000004816    0.000011101
     12        6           0.000044075    0.000063346   -0.000018662
     13        1           0.000005267    0.000011304   -0.000002062
     14        6           0.000021783   -0.000000687    0.000008226
     15        1           0.000003629   -0.000001742    0.000002566
     16       35          -0.000075188    0.000035229   -0.000036633
 -------------------------------------------------------------------
 Cartesian Forces:  Max     0.000075188 RMS     0.000021048

 GradGradGradGradGradGradGradGradGradGradGradGradGradGradGradGradGradGrad
 Berny optimization.
 Using GEDIIS/GDIIS optimizer.
 FormGI is forming the generalized inverse of G from B-inverse, IUseBI=4.
 Internal  Forces:  Max     0.000090051 RMS     0.000018170
 Search for a local minimum.
 Step number   2 out of a maximum of   81
 All quantities printed in internal units (Hartrees-Bohrs-Radians)
 Mixed Optimization -- En-DIIS/RFO-DIIS
 Update second derivatives using D2CorX and points    1    2
 DE= -2.03D-04 DEPred=-2.04D-04 R= 9.98D-01
 TightC=F SS=  1.41D+00  RLast= 5.08D-02 DXNew= 5.0454D-01 1.5228D-01
 Trust test= 9.98D-01 RLast= 5.08D-02 DXMaxT set to 3.00D-01
 ITU=  1  0
 Use linear search instead of GDIIS.
     Eigenvalues ---    0.00082   0.01018   0.01253   0.01501   0.01713
     Eigenvalues ---    0.01769   0.02130   0.02361   0.02611   0.02755
     Eigenvalues ---    0.02853   0.02918   0.03960   0.10322   0.11183
     Eigenvalues ---    0.11228   0.11484   0.11980   0.12639   0.15148
     Eigenvalues ---    0.15959   0.17680   0.18536   0.18965   0.19489
     Eigenvalues ---    0.19645   0.24027   0.27969   0.29338   0.35635
     Eigenvalues ---    0.36523   0.36688   0.36848   0.39282   0.42452
     Eigenvalues ---    0.42733   0.48122   0.48488   0.49166   0.52333
     Eigenvalues ---    0.55224   0.56316
 RFO step:  Lambda=-6.94260519D-08 EMin= 8.24250373D-04
 Quartic linear search produced a step of -0.00092.
 Iteration  1 RMS(Cart)=  0.00012907 RMS(Int)=  0.00000001
 Iteration  2 RMS(Cart)=  0.00000001 RMS(Int)=  0.00000001
 Variable       Old X    -DE/DX   Delta X   Delta X   Delta X     New X
                                 (Linear)    (Quad)   (Total)
    R1        1.81697   0.00000   0.00000   0.00000   0.00000   1.81697
    R2        2.57333   0.00000   0.00000   0.00000   0.00000   2.57333
    R3        2.96232   0.00001   0.00000   0.00003   0.00003   2.96235
    R4        2.64183   0.00002   0.00000   0.00002   0.00002   2.64185
    R5        2.64515   0.00002   0.00000   0.00003   0.00003   2.64518
    R6        2.58455   0.00000   0.00000   0.00000   0.00000   2.58455
    R7        1.81088   0.00000   0.00000   0.00000   0.00000   1.81088
    R8        2.05347   0.00000   0.00000   0.00000   0.00000   2.05347
    R9        2.62680   0.00003   0.00000   0.00006   0.00006   2.62686
   R10        2.04513   0.00000   0.00000   0.00000   0.00000   2.04513
   R11        2.62439   0.00008  -0.00001   0.00014   0.00013   2.62452
   R12        2.62541   0.00008  -0.00001   0.00015   0.00015   2.62556
   R13        3.58843   0.00009   0.00002   0.00043   0.00045   3.58887
   R14        2.04532   0.00001   0.00000   0.00002   0.00002   2.04533
   R15        2.62516   0.00003   0.00000   0.00006   0.00005   2.62521
   R16        2.04871   0.00000   0.00000   0.00000   0.00000   2.04871
    A1        1.95981   0.00000   0.00000   0.00001   0.00001   1.95982
    A2        2.14494  -0.00001   0.00000  -0.00001  -0.00001   2.14493
    A3        2.08201   0.00000   0.00000  -0.00001  -0.00001   2.08201
    A4        2.05623   0.00001   0.00000   0.00002   0.00002   2.05625
    A5        2.05867   0.00000   0.00000  -0.00001  -0.00001   2.05866
    A6        2.05668   0.00000   0.00000   0.00002   0.00001   2.05670
    A7        2.16783   0.00000   0.00000   0.00000   0.00000   2.16783
    A8        2.00503   0.00000   0.00000   0.00002   0.00001   2.00505
    A9        2.10771  -0.00001   0.00000  -0.00002  -0.00002   2.10769
   A10        2.12505   0.00001   0.00000   0.00004   0.00004   2.12509
   A11        2.05042   0.00000   0.00000  -0.00002  -0.00002   2.05040
   A12        2.11371   0.00000   0.00002   0.00000   0.00002   2.11373
   A13        2.07053  -0.00001  -0.00001  -0.00007  -0.00008   2.07045
   A14        2.09894   0.00001  -0.00001   0.00007   0.00006   2.09900
   A15        2.11927  -0.00001   0.00002   0.00004   0.00006   2.11933
   A16        2.08089   0.00001  -0.00001   0.00000  -0.00001   2.08088
   A17        2.08303   0.00000  -0.00001  -0.00004  -0.00005   2.08298
   A18        2.09701   0.00001  -0.00001   0.00003   0.00002   2.09703
   A19        2.07382  -0.00001  -0.00001  -0.00006  -0.00007   2.07375
   A20        2.11235   0.00000   0.00002   0.00003   0.00005   2.11240
   A21        2.12147   0.00001   0.00000   0.00003   0.00003   2.12150
   A22        2.07616   0.00000   0.00000  -0.00001  -0.00001   2.07615
   A23        2.08555   0.00000   0.00000  -0.00002  -0.00002   2.08554
    D1        3.13158   0.00000   0.00000   0.00006   0.00006   3.13165
    D2       -0.00760   0.00000   0.00000   0.00004   0.00004  -0.00755
    D3        3.08177   0.00000   0.00000   0.00015   0.00015   3.08192
    D4       -0.06240   0.00000   0.00000   0.00017   0.00017  -0.06223
    D5       -0.05954   0.00000   0.00000   0.00016   0.00016  -0.05938
    D6        3.07947   0.00000   0.00000   0.00018   0.00018   3.07966
    D7       -0.00807   0.00000   0.00000   0.00004   0.00004  -0.00803
    D8        3.13795   0.00000   0.00000   0.00004   0.00004   3.13799
    D9        3.13324   0.00000   0.00000   0.00002   0.00002   3.13327
   D10       -0.00393   0.00000   0.00000   0.00003   0.00003  -0.00390
   D11       -3.13689   0.00000   0.00000  -0.00004  -0.00004  -3.13694
   D12        0.00365   0.00000   0.00000  -0.00002  -0.00002   0.00362
   D13        0.00497   0.00000   0.00000  -0.00003  -0.00003   0.00494
   D14       -3.13768   0.00000   0.00000  -0.00001  -0.00001  -3.13769
   D15        3.11292   0.00000   0.00000   0.00012   0.00012   3.11304
   D16       -0.02609   0.00000   0.00000   0.00010   0.00010  -0.02600
   D17        3.14130   0.00000   0.00000   0.00000   0.00000   3.14130
   D18        0.00068   0.00000   0.00000  -0.00001  -0.00001   0.00067
   D19        0.00399   0.00000   0.00000   0.00000   0.00000   0.00399
   D20       -3.13663   0.00000   0.00000  -0.00001  -0.00001  -3.13664
   D21        0.00171   0.00000   0.00000  -0.00001  -0.00001   0.00170
   D22       -3.13960   0.00000   0.00000  -0.00004  -0.00004  -3.13964
   D23       -3.13892   0.00000   0.00000  -0.00001  -0.00001  -3.13893
   D24        0.00295   0.00000   0.00000  -0.00004  -0.00004   0.00291
   D25        3.14034   0.00000   0.00000  -0.00001  -0.00001   3.14033
   D26       -0.00070   0.00000   0.00000   0.00000   0.00000  -0.00070
   D27       -0.00153   0.00000   0.00000   0.00002   0.00002  -0.00151
   D28        3.14061   0.00000   0.00000   0.00003   0.00004   3.14065
   D29       -0.00273   0.00000   0.00000   0.00001   0.00001  -0.00272
   D30        3.13992   0.00000   0.00000  -0.00001  -0.00001   3.13991
   D31        3.13941   0.00000   0.00000   0.00003   0.00003   3.13944
   D32       -0.00112   0.00000   0.00000   0.00001   0.00001  -0.00111
         Item               Value     Threshold  Converged?
 Maximum Force            0.000090     0.000015     NO 
 RMS     Force            0.000018     0.000010     NO 
 Maximum Displacement     0.000479     0.000060     NO 
 RMS     Displacement     0.000129     0.000040     NO 
 Predicted change in Energy=-3.489058D-08
 GradGradGradGradGradGradGradGradGradGradGradGradGradGradGradGradGradGrad

                          Input orientation:                          
 ---------------------------------------------------------------------
 Center     Atomic      Atomic             Coordinates (Angstroms)
 Number     Number       Type             X           Y           Z
 ---------------------------------------------------------------------
      1          8           0        8.684881    7.455970    5.540714
      2          1           0        9.498150    7.149504    5.951999
      3          6           0        6.242598    6.994953    5.172357
      4          5           0        7.639813    6.614287    5.772586
      5          8           0        7.876771    5.491844    6.517256
      6          1           0        7.107399    4.942752    6.674912
      7          6           0        5.117512    6.173113    5.287159
      8          1           0        5.177165    5.217898    5.801758
      9          6           0        3.888273    6.536175    4.749139
     10          1           0        3.024094    5.891631    4.843988
     11          6           0        3.786551    7.749526    4.081084
     12          6           0        4.880975    8.594145    3.942349
     13          1           0        4.778652    9.534651    3.416566
     14          6           0        6.098594    8.207551    4.488090
     15          1           0        6.960137    8.857503    4.384917
     16         35           0        2.114354    8.263866    3.342179
 ---------------------------------------------------------------------
                    Distance matrix (angstroms):
                    1          2          3          4          5
     1  O    0.000000
     2  H    0.961500   0.000000
     3  C    2.512563   3.351171   0.000000
     4  B    1.361750   1.942180   1.567607   0.000000
     5  O    2.337620   2.386677   2.595884   1.367685   0.000000
     6  H    3.176652   3.332874   2.686463   1.972735   0.958274
     7  C    3.799491   4.537107   1.398005   2.606199   3.096898
     8  H    4.169074   4.735460   2.165460   2.831146   2.806217
     9  C    4.947733   5.770075   2.435659   3.889421   4.486088
    10  H    5.914144   6.687551   3.418174   4.763338   5.148605
    11  C    5.119603   6.040092   2.791491   4.358620   5.268962
    12  C    4.280177   5.238701   2.433998   3.857563   5.022869
    13  H    4.908314   5.864385   3.417017   4.718644   5.962962
    14  C    2.891673   3.849607   1.399768   2.561987   3.828119
    15  H    2.504976   3.437226   2.145697   2.723895   4.088368
    16  Br   6.975534   7.910336   4.690638   6.257690   7.139375
                    6          7          8          9         10
     6  H    0.000000
     7  C    2.720165   0.000000
     8  H    2.136330   1.086649   0.000000
     9  C    4.075582   1.390075   2.122994   0.000000
    10  H    4.574498   2.158247   2.450909   1.082238   0.000000
    11  C    5.062998   2.389801   3.362093   1.388836   2.148287
    12  C    5.075089   2.779543   3.865770   2.423140   3.400668
    13  H    6.093063   3.861849   4.947960   3.399910   4.288077
    14  C    4.056943   2.395824   3.393049   2.783373   3.865579
    15  H    4.537735   3.378647   4.293385   3.867502   4.949705
    16  Br   6.860568   4.144050   4.970741   2.848024   2.951365
                   11         12         13         14         15
    11  C    0.000000
    12  C    1.389385   0.000000
    13  H    2.147677   1.082344   0.000000
    14  C    2.391858   1.389202   2.156758   0.000000
    15  H    3.375140   2.141993   2.480949   1.084130   0.000000
    16  Br   1.899150   2.850172   2.952781   4.146137   4.992126
                   16
    16  Br   0.000000
 Symmetry turned off by external request.
 Stoichiometry    C6H6BBrO2
 Framework group  C1[X(C6H6BBrO2)]
 Deg. of freedom    42
 Full point group                 C1      NOp   1
 Rotational constants (GHZ):           3.6910645           0.3515133           0.3209989
 Standard basis: 6-311+G(d,p) (5D, 7F)
   282 basis functions,   466 primitive gaussians,   294 cartesian basis functions
    49 alpha electrons       49 beta electrons
       nuclear repulsion energy       678.8817661247 Hartrees.
 NAtoms=   16 NActive=   16 NUniq=   16 SFac= 1.00D+00 NAtFMM=   60 NAOKFM=F Big=F
 Integral buffers will be    131072 words long.
 Raffenetti 2 integral format.
 Two-electron integral symmetry is turned off.
 One-electron integrals computed using PRISM.
 NBasis=   282 RedAO= T EigKep=  2.32D-06  NBF=   282
 NBsUse=   282 1.00D-06 EigRej= -1.00D+00 NBFU=   282
 Initial guess from the checkpoint file:  "4-br-phboh2-opt-freq.chk"
 B after Tr=     0.000174    0.000023   -0.000387
         Rot=    1.000000   -0.000003    0.000010   -0.000004 Ang=   0.00 deg.
 Requested convergence on RMS density matrix=1.00D-08 within 128 cycles.
 Requested convergence on MAX density matrix=1.00D-06.
 Requested convergence on             energy=1.00D-06.
 Level shift goal  0.100 maximum shift  0.100.
 No special actions if energy rises.
 Dynamic level shift is on during FON iterations.
 SCF Done:  E(RM062X) =  -2981.79756461     A.U. after    7 cycles
            NFock=  7  Conv=0.66D-08     -V/T= 2.0015
 Calling FoFJK, ICntrl=      2127 FMM=F ISym2X=0 I1Cent= 0 IOpClX= 0 NMat=1 NMatS=1 NMatT=0.
 -------------------------------------------------------------------
 Center     Atomic                   Forces (Hartrees/Bohr)
 Number     Number              X              Y              Z
 -------------------------------------------------------------------
      1        8           0.000000577   -0.000006331    0.000001671
      2        1          -0.000000341   -0.000008490    0.000001650
      3        6          -0.000000200   -0.000001098    0.000000108
      4        5          -0.000001505   -0.000004556    0.000000091
      5        8          -0.000003801   -0.000006055   -0.000001011
      6        1          -0.000005016   -0.000004596   -0.000002073
      7        6          -0.000002070    0.000001173   -0.000001558
      8        1          -0.000004083    0.000000291   -0.000002584
      9        6          -0.000000957    0.000002815   -0.000000771
     10        1          -0.000002346    0.000005745   -0.000002699
     11        6          -0.000001798    0.000005934   -0.000001587
     12        6           0.000004672    0.000004125    0.000001239
     13        1           0.000005436    0.000003979    0.000002507
     14        6           0.000002262   -0.000000043    0.000001467
     15        1           0.000003729   -0.000001564    0.000002631
     16       35           0.000005440    0.000008671    0.000000919
 -------------------------------------------------------------------
 Cartesian Forces:  Max     0.000008671 RMS     0.000003539

 GradGradGradGradGradGradGradGradGradGradGradGradGradGradGradGradGradGrad
 Berny optimization.
 Using GEDIIS/GDIIS optimizer.
 FormGI is forming the generalized inverse of G from B-inverse, IUseBI=4.
 Internal  Forces:  Max     0.000002745 RMS     0.000000395
 Search for a local minimum.
 Step number   3 out of a maximum of   81
 All quantities printed in internal units (Hartrees-Bohrs-Radians)
 Mixed Optimization -- En-DIIS/RFO-DIIS
 Swapping is turned off.
 Update second derivatives using D2CorX and points    1    2    3
 DE= -3.45D-08 DEPred=-3.49D-08 R= 9.88D-01
 Trust test= 9.88D-01 RLast= 6.52D-04 DXMaxT set to 3.00D-01
 ITU=  0  1  0
     Eigenvalues ---    0.00082   0.01018   0.01253   0.01501   0.01713
     Eigenvalues ---    0.01770   0.02130   0.02361   0.02611   0.02755
     Eigenvalues ---    0.02853   0.02918   0.03960   0.10322   0.11183
     Eigenvalues ---    0.11227   0.11484   0.11980   0.12640   0.15406
     Eigenvalues ---    0.15960   0.17680   0.18531   0.18965   0.19492
     Eigenvalues ---    0.19643   0.24300   0.27969   0.29338   0.35635
     Eigenvalues ---    0.36523   0.36687   0.36848   0.39282   0.42319
     Eigenvalues ---    0.42684   0.47962   0.48482   0.49139   0.51904
     Eigenvalues ---    0.55224   0.56316
 En-DIIS/RFO-DIIS/Sim-DIIS IScMMF=       -3 using points:     3    2
 RFO step:  Lambda=-4.01908630D-11.
 DidBck=F Rises=F RFO-DIIS coefs:    0.96330    0.03670
 Iteration  1 RMS(Cart)=  0.00000723 RMS(Int)=  0.00000000
 Iteration  2 RMS(Cart)=  0.00000000 RMS(Int)=  0.00000000
 Variable       Old X    -DE/DX   Delta X   Delta X   Delta X     New X
                                 (Linear)    (Quad)   (Total)
    R1        1.81697   0.00000   0.00000   0.00000   0.00000   1.81697
    R2        2.57333   0.00000   0.00000   0.00000   0.00000   2.57333
    R3        2.96235   0.00000   0.00000   0.00000   0.00000   2.96235
    R4        2.64185   0.00000   0.00000   0.00000   0.00000   2.64185
    R5        2.64518   0.00000   0.00000   0.00000   0.00000   2.64518
    R6        2.58455   0.00000   0.00000   0.00000   0.00000   2.58455
    R7        1.81088   0.00000   0.00000   0.00000   0.00000   1.81088
    R8        2.05347   0.00000   0.00000   0.00000   0.00000   2.05347
    R9        2.62686   0.00000   0.00000   0.00000   0.00000   2.62686
   R10        2.04513   0.00000   0.00000   0.00000   0.00000   2.04513
   R11        2.62452   0.00000   0.00000   0.00001   0.00000   2.62452
   R12        2.62556   0.00000  -0.00001   0.00001   0.00000   2.62556
   R13        3.58887   0.00000  -0.00002   0.00000  -0.00001   3.58886
   R14        2.04533   0.00000   0.00000   0.00000   0.00000   2.04533
   R15        2.62521   0.00000   0.00000   0.00000   0.00000   2.62521
   R16        2.04871   0.00000   0.00000   0.00000   0.00000   2.04871
    A1        1.95982   0.00000   0.00000   0.00000   0.00000   1.95982
    A2        2.14493   0.00000   0.00000   0.00000   0.00000   2.14493
    A3        2.08201   0.00000   0.00000   0.00000   0.00000   2.08201
    A4        2.05625   0.00000   0.00000   0.00000   0.00000   2.05625
    A5        2.05866   0.00000   0.00000   0.00000   0.00000   2.05866
    A6        2.05670   0.00000   0.00000   0.00000   0.00000   2.05670
    A7        2.16783   0.00000   0.00000   0.00000   0.00000   2.16783
    A8        2.00505   0.00000   0.00000   0.00000   0.00000   2.00505
    A9        2.10769   0.00000   0.00000   0.00000   0.00000   2.10769
   A10        2.12509   0.00000   0.00000   0.00000   0.00000   2.12509
   A11        2.05040   0.00000   0.00000   0.00000   0.00000   2.05040
   A12        2.11373   0.00000   0.00000   0.00000   0.00000   2.11373
   A13        2.07045   0.00000   0.00000   0.00000   0.00000   2.07045
   A14        2.09900   0.00000   0.00000   0.00000   0.00000   2.09900
   A15        2.11933   0.00000   0.00000   0.00000   0.00000   2.11933
   A16        2.08088   0.00000   0.00000   0.00000   0.00000   2.08088
   A17        2.08298   0.00000   0.00000   0.00000   0.00000   2.08298
   A18        2.09703   0.00000   0.00000   0.00000   0.00000   2.09703
   A19        2.07375   0.00000   0.00000   0.00000   0.00000   2.07375
   A20        2.11240   0.00000   0.00000   0.00000   0.00000   2.11241
   A21        2.12150   0.00000   0.00000   0.00000   0.00000   2.12150
   A22        2.07615   0.00000   0.00000   0.00000   0.00000   2.07615
   A23        2.08554   0.00000   0.00000   0.00000   0.00000   2.08554
    D1        3.13165   0.00000   0.00000   0.00000   0.00000   3.13164
    D2       -0.00755   0.00000   0.00000   0.00000   0.00000  -0.00755
    D3        3.08192   0.00000  -0.00001   0.00000  -0.00001   3.08191
    D4       -0.06223   0.00000  -0.00001  -0.00001  -0.00001  -0.06225
    D5       -0.05938   0.00000  -0.00001  -0.00001  -0.00001  -0.05939
    D6        3.07966   0.00000  -0.00001  -0.00001  -0.00001   3.07964
    D7       -0.00803   0.00000   0.00000   0.00000   0.00000  -0.00804
    D8        3.13799   0.00000   0.00000   0.00000   0.00000   3.13798
    D9        3.13327   0.00000   0.00000   0.00000   0.00000   3.13326
   D10       -0.00390   0.00000   0.00000   0.00000   0.00000  -0.00390
   D11       -3.13694   0.00000   0.00000   0.00000   0.00000  -3.13693
   D12        0.00362   0.00000   0.00000   0.00000   0.00000   0.00363
   D13        0.00494   0.00000   0.00000   0.00000   0.00000   0.00494
   D14       -3.13769   0.00000   0.00000   0.00000   0.00000  -3.13769
   D15        3.11304   0.00000   0.00000   0.00000  -0.00001   3.11303
   D16       -0.02600   0.00000   0.00000   0.00000   0.00000  -0.02600
   D17        3.14130   0.00000   0.00000   0.00000   0.00000   3.14130
   D18        0.00067   0.00000   0.00000   0.00000   0.00000   0.00067
   D19        0.00399   0.00000   0.00000   0.00000   0.00000   0.00399
   D20       -3.13664   0.00000   0.00000   0.00000   0.00000  -3.13663
   D21        0.00170   0.00000   0.00000   0.00000   0.00000   0.00170
   D22       -3.13964   0.00000   0.00000   0.00000   0.00000  -3.13964
   D23       -3.13893   0.00000   0.00000   0.00000   0.00000  -3.13893
   D24        0.00291   0.00000   0.00000   0.00000   0.00000   0.00291
   D25        3.14033   0.00000   0.00000   0.00000   0.00000   3.14033
   D26       -0.00070   0.00000   0.00000   0.00000   0.00000  -0.00070
   D27       -0.00151   0.00000   0.00000   0.00000   0.00000  -0.00151
   D28        3.14065   0.00000   0.00000   0.00000   0.00000   3.14064
   D29       -0.00272   0.00000   0.00000   0.00000   0.00000  -0.00272
   D30        3.13991   0.00000   0.00000   0.00000   0.00000   3.13991
   D31        3.13944   0.00000   0.00000   0.00000   0.00000   3.13944
   D32       -0.00111   0.00000   0.00000   0.00000   0.00000  -0.00111
         Item               Value     Threshold  Converged?
 Maximum Force            0.000003     0.000015     YES
 RMS     Force            0.000000     0.000010     YES
 Maximum Displacement     0.000032     0.000060     YES
 RMS     Displacement     0.000007     0.000040     YES
 Predicted change in Energy=-2.545504D-11
 Optimization completed.
    -- Stationary point found.
                           ----------------------------
                           !   Optimized Parameters   !
                           ! (Angstroms and Degrees)  !
 --------------------------                            --------------------------
 ! Name  Definition              Value          Derivative Info.                !
 --------------------------------------------------------------------------------
 ! R1    R(1,2)                  0.9615         -DE/DX =    0.0                 !
 ! R2    R(1,4)                  1.3617         -DE/DX =    0.0                 !
 ! R3    R(3,4)                  1.5676         -DE/DX =    0.0                 !
 ! R4    R(3,7)                  1.398          -DE/DX =    0.0                 !
 ! R5    R(3,14)                 1.3998         -DE/DX =    0.0                 !
 ! R6    R(4,5)                  1.3677         -DE/DX =    0.0                 !
 ! R7    R(5,6)                  0.9583         -DE/DX =    0.0                 !
 ! R8    R(7,8)                  1.0866         -DE/DX =    0.0                 !
 ! R9    R(7,9)                  1.3901         -DE/DX =    0.0                 !
 ! R10   R(9,10)                 1.0822         -DE/DX =    0.0                 !
 ! R11   R(9,11)                 1.3888         -DE/DX =    0.0                 !
 ! R12   R(11,12)                1.3894         -DE/DX =    0.0                 !
 ! R13   R(11,16)                1.8991         -DE/DX =    0.0                 !
 ! R14   R(12,13)                1.0823         -DE/DX =    0.0                 !
 ! R15   R(12,14)                1.3892         -DE/DX =    0.0                 !
 ! R16   R(14,15)                1.0841         -DE/DX =    0.0                 !
 ! A1    A(2,1,4)              112.2895         -DE/DX =    0.0                 !
 ! A2    A(4,3,7)              122.8954         -DE/DX =    0.0                 !
 ! A3    A(4,3,14)             119.2901         -DE/DX =    0.0                 !
 ! A4    A(7,3,14)             117.8144         -DE/DX =    0.0                 !
 ! A5    A(1,4,3)              117.9524         -DE/DX =    0.0                 !
 ! A6    A(1,4,5)              117.8401         -DE/DX =    0.0                 !
 ! A7    A(3,4,5)              124.2074         -DE/DX =    0.0                 !
 ! A8    A(4,5,6)              114.8807         -DE/DX =    0.0                 !
 ! A9    A(3,7,8)              120.7618         -DE/DX =    0.0                 !
 ! A10   A(3,7,9)              121.7585         -DE/DX =    0.0                 !
 ! A11   A(8,7,9)              117.4792         -DE/DX =    0.0                 !
 ! A12   A(7,9,10)             121.1078         -DE/DX =    0.0                 !
 ! A13   A(7,9,11)             118.6281         -DE/DX =    0.0                 !
 ! A14   A(10,9,11)            120.2641         -DE/DX =    0.0                 !
 ! A15   A(9,11,12)            121.4285         -DE/DX =    0.0                 !
 ! A16   A(9,11,16)            119.2254         -DE/DX =    0.0                 !
 ! A17   A(12,11,16)           119.3461         -DE/DX =    0.0                 !
 ! A18   A(11,12,13)           120.1511         -DE/DX =    0.0                 !
 ! A19   A(11,12,14)           118.817          -DE/DX =    0.0                 !
 ! A20   A(13,12,14)           121.0319         -DE/DX =    0.0                 !
 ! A21   A(3,14,12)            121.5527         -DE/DX =    0.0                 !
 ! A22   A(3,14,15)            118.9547         -DE/DX =    0.0                 !
 ! A23   A(12,14,15)           119.4926         -DE/DX =    0.0                 !
 ! D1    D(2,1,4,3)            179.4301         -DE/DX =    0.0                 !
 ! D2    D(2,1,4,5)             -0.4327         -DE/DX =    0.0                 !
 ! D3    D(7,3,4,1)            176.5809         -DE/DX =    0.0                 !
 ! D4    D(7,3,4,5)             -3.5658         -DE/DX =    0.0                 !
 ! D5    D(14,3,4,1)            -3.4021         -DE/DX =    0.0                 !
 ! D6    D(14,3,4,5)           176.4512         -DE/DX =    0.0                 !
 ! D7    D(4,3,7,8)             -0.4603         -DE/DX =    0.0                 !
 ! D8    D(4,3,7,9)            179.7933         -DE/DX =    0.0                 !
 ! D9    D(14,3,7,8)           179.5229         -DE/DX =    0.0                 !
 ! D10   D(14,3,7,9)            -0.2235         -DE/DX =    0.0                 !
 ! D11   D(4,3,14,12)         -179.7332         -DE/DX =    0.0                 !
 ! D12   D(4,3,14,15)            0.2076         -DE/DX =    0.0                 !
 ! D13   D(7,3,14,12)            0.283          -DE/DX =    0.0                 !
 ! D14   D(7,3,14,15)         -179.7762         -DE/DX =    0.0                 !
 ! D15   D(1,4,5,6)            178.364          -DE/DX =    0.0                 !
 ! D16   D(3,4,5,6)             -1.4895         -DE/DX =    0.0                 !
 ! D17   D(3,7,9,10)           179.983          -DE/DX =    0.0                 !
 ! D18   D(3,7,9,11)             0.0384         -DE/DX =    0.0                 !
 ! D19   D(8,7,9,10)             0.2286         -DE/DX =    0.0                 !
 ! D20   D(8,7,9,11)          -179.716          -DE/DX =    0.0                 !
 ! D21   D(7,9,11,12)            0.0976         -DE/DX =    0.0                 !
 ! D22   D(7,9,11,16)         -179.8882         -DE/DX =    0.0                 !
 ! D23   D(10,9,11,12)        -179.8474         -DE/DX =    0.0                 !
 ! D24   D(10,9,11,16)           0.1667         -DE/DX =    0.0                 !
 ! D25   D(9,11,12,13)         179.9275         -DE/DX =    0.0                 !
 ! D26   D(9,11,12,14)          -0.0401         -DE/DX =    0.0                 !
 ! D27   D(16,11,12,13)         -0.0866         -DE/DX =    0.0                 !
 ! D28   D(16,11,12,14)        179.9457         -DE/DX =    0.0                 !
 ! D29   D(11,12,14,3)          -0.1557         -DE/DX =    0.0                 !
 ! D30   D(11,12,14,15)        179.9038         -DE/DX =    0.0                 !
 ! D31   D(13,12,14,3)         179.8769         -DE/DX =    0.0                 !
 ! D32   D(13,12,14,15)         -0.0636         -DE/DX =    0.0                 !
 --------------------------------------------------------------------------------
 GradGradGradGradGradGradGradGradGradGradGradGradGradGradGradGradGradGrad

                          Input orientation:                          
 ---------------------------------------------------------------------
 Center     Atomic      Atomic             Coordinates (Angstroms)
 Number     Number       Type             X           Y           Z
 ---------------------------------------------------------------------
      1          8           0        8.684881    7.455970    5.540714
      2          1           0        9.498150    7.149504    5.951999
      3          6           0        6.242598    6.994953    5.172357
      4          5           0        7.639813    6.614287    5.772586
      5          8           0        7.876771    5.491844    6.517256
      6          1           0        7.107399    4.942752    6.674912
      7          6           0        5.117512    6.173113    5.287159
      8          1           0        5.177165    5.217898    5.801758
      9          6           0        3.888273    6.536175    4.749139
     10          1           0        3.024094    5.891631    4.843988
     11          6           0        3.786551    7.749526    4.081084
     12          6           0        4.880975    8.594145    3.942349
     13          1           0        4.778652    9.534651    3.416566
     14          6           0        6.098594    8.207551    4.488090
     15          1           0        6.960137    8.857503    4.384917
     16         35           0        2.114354    8.263866    3.342179
 ---------------------------------------------------------------------
                    Distance matrix (angstroms):
                    1          2          3          4          5
     1  O    0.000000
     2  H    0.961500   0.000000
     3  C    2.512563   3.351171   0.000000
     4  B    1.361750   1.942180   1.567607   0.000000
     5  O    2.337620   2.386677   2.595884   1.367685   0.000000
     6  H    3.176652   3.332874   2.686463   1.972735   0.958274
     7  C    3.799491   4.537107   1.398005   2.606199   3.096898
     8  H    4.169074   4.735460   2.165460   2.831146   2.806217
     9  C    4.947733   5.770075   2.435659   3.889421   4.486088
    10  H    5.914144   6.687551   3.418174   4.763338   5.148605
    11  C    5.119603   6.040092   2.791491   4.358620   5.268962
    12  C    4.280177   5.238701   2.433998   3.857563   5.022869
    13  H    4.908314   5.864385   3.417017   4.718644   5.962962
    14  C    2.891673   3.849607   1.399768   2.561987   3.828119
    15  H    2.504976   3.437226   2.145697   2.723895   4.088368
    16  Br   6.975534   7.910336   4.690638   6.257690   7.139375
                    6          7          8          9         10
     6  H    0.000000
     7  C    2.720165   0.000000
     8  H    2.136330   1.086649   0.000000
     9  C    4.075582   1.390075   2.122994   0.000000
    10  H    4.574498   2.158247   2.450909   1.082238   0.000000
    11  C    5.062998   2.389801   3.362093   1.388836   2.148287
    12  C    5.075089   2.779543   3.865770   2.423140   3.400668
    13  H    6.093063   3.861849   4.947960   3.399910   4.288077
    14  C    4.056943   2.395824   3.393049   2.783373   3.865579
    15  H    4.537735   3.378647   4.293385   3.867502   4.949705
    16  Br   6.860568   4.144050   4.970741   2.848024   2.951365
                   11         12         13         14         15
    11  C    0.000000
    12  C    1.389385   0.000000
    13  H    2.147677   1.082344   0.000000
    14  C    2.391858   1.389202   2.156758   0.000000
    15  H    3.375140   2.141993   2.480949   1.084130   0.000000
    16  Br   1.899150   2.850172   2.952781   4.146137   4.992126
                   16
    16  Br   0.000000
 Symmetry turned off by external request.
 Stoichiometry    C6H6BBrO2
 Framework group  C1[X(C6H6BBrO2)]
 Deg. of freedom    42
 Full point group                 C1      NOp   1
 Rotational constants (GHZ):           3.6910645           0.3515133           0.3209989

 **********************************************************************

            Population analysis using the SCF Density.

 **********************************************************************

 Alpha  occ. eigenvalues -- -485.33981 -63.33172 -57.15919 -57.15663 -57.15655
 Alpha  occ. eigenvalues --  -19.64704 -19.63876 -10.61442 -10.56862 -10.56554
 Alpha  occ. eigenvalues --  -10.56298 -10.56022 -10.54326  -9.01890  -7.09337
 Alpha  occ. eigenvalues --   -6.84688  -6.83657  -6.83641  -2.87845  -2.87486
 Alpha  occ. eigenvalues --   -2.87466  -2.86553  -2.86552  -1.17731  -1.14033
 Alpha  occ. eigenvalues --   -0.99064  -0.90841  -0.86567  -0.82481  -0.71419
 Alpha  occ. eigenvalues --   -0.69419  -0.66240  -0.64074  -0.59256  -0.54409
 Alpha  occ. eigenvalues --   -0.54038  -0.51256  -0.50808  -0.49051  -0.46547
 Alpha  occ. eigenvalues --   -0.46418  -0.45178  -0.42360  -0.41349  -0.39594
 Alpha  occ. eigenvalues --   -0.38273  -0.35439  -0.32777  -0.30498
[...]
     6          9.34025870         17.94494074          0.41327607
     5         11.18352048         18.75919274          2.58465448
     8         10.68477664         18.45920913          5.10282100
     1          9.06849928         17.73398691          5.47828477
     6          7.05327518         16.70142037          0.86352122
     1          6.47025528         16.23494755          2.77643243
     6          5.44808531         16.00658189         -1.09631621
     1          3.68226626         15.04399633         -0.72499344
     6          6.15440345         16.57068236         -3.56025861
     6          8.41342756         17.79956010         -4.08962085
     1          8.92629654         18.21806589         -6.02487573
     6          9.98532399         18.47173641         -2.09737091
     1         11.75436850         19.42874982         -2.48700304
    35          3.98258592         15.64138544         -6.26204065

 Electric dipole moment (dipole orientation):
 (Debye = 10**-18 statcoulomb cm , SI units = C m)
                  (au)            (Debye)         (10**-30 SI)
   Tot        0.746956D+00      0.189857D+01      0.633296D+01
   x          0.000000D+00      0.000000D+00      0.000000D+00
   y          0.000000D+00      0.000000D+00      0.000000D+00
   z          0.746956D+00      0.189857D+01      0.633296D+01

 Dipole polarizability, Alpha (dipole orientation).
 (esu units = cm**3 , SI units = C**2 m**2 J**-1)
 Alpha(0;0):
               (au)            (10**-24 esu)      (10**-40 SI)
   iso        0.106123D+03      0.157258D+02      0.174973D+02
   aniso      0.815995D+02      0.120918D+02      0.134539D+02
   xx         0.113347D+03      0.167962D+02      0.186883D+02
   yx         0.253699D+02      0.375943D+01      0.418293D+01
   yy         0.734780D+02      0.108883D+02      0.121149D+02
   zx         0.250301D+02      0.370907D+01      0.412690D+01
   zy         0.820466D+01      0.121580D+01      0.135277D+01
   zz         0.131544D+03      0.194927D+02      0.216886D+02

 ----------------------------------------------------------------------
 Unable to Open any file for archive entry.
 1\1\GINC-CN007\Freq\RM062X\6-311+G(d,p)\C6H6B1Br1O2\TAHMINAAFROZ\19-Ap
 r-2025\0\\#N Geom=AllCheck Guess=TCheck SCRF=Check GenChk RM062X/6-311
 +G(d,p) Freq\\4-br-phboh2-opt-freq\\0,1\O,8.6848811809,7.4559695436,5.
 5407142342\H,9.4981502633,7.1495040098,5.951999308\C,6.2425978414,6.99
 49532706,5.1723567174\B,7.639812663,6.6142869552,5.7725862093\O,7.8767
 708608,5.4918435401,6.5172563356\H,7.107398729,4.9427524271,6.67491226
 \C,5.1175120731,6.1731129018,5.2871587325\H,5.1771653514,5.2178977676,
 5.8017581471\C,3.8882728757,6.5361746818,4.7491389193\H,3.0240937825,5
 .8916310234,4.8439884806\C,3.7865514994,7.749526046,4.081083847\C,4.88
 09754345,8.5941447828,3.9423488648\H,4.7786521191,9.5346507881,3.41656
 58411\C,6.0985942027,8.2075510989,4.4880900016\H,6.9601367504,8.857502
 7898,4.3849167217\Br,2.1143538727,8.2638657433,3.3421792396\\Version=A
 S64L-G16RevC.01\HF=-2981.7975646\RMSD=2.881e-09\RMSF=3.538e-06\ZeroPoi
 nt=0.1157478\Thermal=0.125065\ETot=-2981.6724997\HTot=-2981.6715555\GT
 ot=-2981.7184966\Dipole=0.2828907,-0.5442826,0.4262304\DipoleDeriv=-1.
 4110893,-0.2797099,-0.0573386,-0.4125525,-0.7041966,-0.0075189,0.02952
 6,0.0245078,-0.5458649,0.3716162,0.0371768,-0.0166787,0.0665139,0.2950
 036,0.0492096,-0.0422097,0.0437603,0.30827,-0.669293,0.1424607,-0.2194
 621,0.125152,-0.2417997,0.0814562,-0.2015206,0.0898741,-0.2680261,2.09
 07971,-0.0677341,0.4449216,0.0527688,1.3669298,-0.4906259,0.3759185,-0
 .5158429,0.9625235,-0.7356328,0.2337266,-0.1991775,0.2301502,-1.110285
 3,0.4166509,-0.2008464,0.4089453,-0.8326997,0.2411188,-0.0998086,0.041
 2951,-0.0972523,0.3725727,-0.0583972,0.0487399,-0.0562394,0.3693668,0.
 1308605,-0.0861652,0.113376,0.0867634,0.0462005,-0.0570491,0.0048691,-
 0.1099776,-0.0542425,0.054278,0.0307279,-0.0352806,0.0334138,-0.067921
 8,0.1101169,-0.0362918,0.1080255,0.0530015,-0.2775095,0.1988843,-0.151
 354,0.1780697,-0.1455079,0.069498,-0.1347784,0.0816029,-0.1908425,0.01
 3525,-0.050287,-0.0087858,-0.043806,0.068487,0.0248951,-0.0120929,0.02
 24736,0.1239699,0.9731986,-0.2625179,0.4213154,-0.2960214,0.1412836,-0
 .1747185,0.432481,-0.1675045,0.1796004,-0.4292114,-0.0167425,-0.080631
 5,0.0637131,-0.0176713,-0.0292842,-0.1181086,-0.0509234,-0.1147544,0.0
 805608,0.0170615,-0.025291,0.0103046,0.0300634,0.0594734,-0.0215792,0.
 0616246,0.099006,0.0981501,0.1039209,-0.0042606,-0.10433,0.0263708,-0.
 0928701,0.1032106,-0.0370748,-0.0435224,0.0334956,-0.0536154,0.0023246
 ,-0.0468179,0.0518476,0.0257269,-0.0036514,0.0241522,0.1107735,-0.5648
 646,0.1526218,-0.2249726,0.1539306,-0.1113765,0.073437,-0.2236661,0.07
 25963,-0.1565591\Polar=141.1463816,-7.5165933,97.116481,26.4130998,-21
 .7486464,80.1053213\Quadrupole=5.2022824,-11.6612893,6.4590069,0.29320
 49,6.6561421,-1.9124714\PG=C01 [X(C6H6B1Br1O2)]\NImag=0\\0.66208845,0.
 02993485,0.28333130,0.15253724,-0.14408077,0.16583605,-0.38689676,0.11
 809815,-0.17486626,0.41441609,0.14921629,-0.08124148,0.08278908,-0.127
 28958,0.07430875,-0.19404090,0.07429794,-0.11211881,0.18884182,-0.0744
 1863,0.10784158,-0.02928800,-0.00181477,-0.00903590,-0.00038863,-0.002
 15587,0.00003043,0.61416004,-0.01719887,0.00803121,-0.00404269,-0.0036
 0294,-0.00080334,0.00209184,0.06832203,0.54187081,0.00002893,-0.000049
 02,0.00909405,0.00089286,0.00251616,0.00293569,0.10028826,-0.19992316,
 0.26590763,-0.24548605,-0.11516742,0.01777428,-0.03129560,-0.02249524,
 0.00437021,-0.17174492,0.02704265,-0.04488126,0.54704525,-0.14278195,-
 0.16761439,0.03311411,0.00749213,0.00933290,-0.00171951,0.02614149,-0.
 07943778,0.01597954,0.07848205,0.49677313,0.03477792,0.04069210,-0.065
 49219,-0.01397036,-0.00981552,0.00547626,-0.04496052,0.01603521,-0.084
 85526,0.05848332,-0.18996374,0.27850927,0.00581091,-0.03414447,0.01866
 375,0.00406754,0.00241144,0.00055870,0.00187762,0.02115194,-0.01692958
 ,-0.09372306,0.02306663,-0.02639332,0.45319345,-0.02168439,-0.04162450
 ,0.02743142,0.00457896,-0.00144879,0.00003351,0.00491889,-0.00543638,0
 .01494912,0.05538369,-0.23952099,0.13311331,0.20819500,0.48082876,0.01
 133329,0.02426162,0.00085156,-0.00082459,-0.00061576,-0.00326208,-0.00
 674960,0.01922450,0.00352738,-0.04652980,0.12557678,-0.13284705,-0.027
 12849,-0.22925039,0.16355823,0.00242295,0.00196659,-0.00209103,0.00018
 733,0.00041310,0.00001084,-0.00144581,0.00093419,-0.00015070,0.0040793
 5,0.00232095,0.00014459,-0.36575286,-0.25349812,0.07226170,0.36212433,
 0.00057925,-0.00106853,0.00452313,0.00061716,-0.00042094,-0.00005592,0
 .00041965,0.00089432,-0.00228886,-0.02539809,-0.01791784,0.00349917,-0
 .22292987,-0.19223517,0.06044704,0.24716388,0.20910649,-0.00142397,0.0
 0473659,0.00299019,-0.00007230,-0.00007673,-0.00079213,-0.00001729,-0.
 00206511,-0.00144589,0.01745164,0.00961838,-0.00411911,0.05343393,0.05
 372197,-0.02993049,-0.06859848,-0.06595033,0.03231297,-0.00074757,0.00
 096931,-0.00112607,-0.00072345,-0.00030766,0.00006258,-0.25197571,-0.0
 7692464,-0.01400277,-0.01941381,-0.00811299,-0.00170189,0.00070563,-0.
 00342523,0.00257204,0.00113072,0.00043485,0.00011375,0.63615313,0.0049
 0165,-0.00023204,0.00187599,0.00058592,0.00044373,0.00005438,-0.126491
 41,-0.18094734,0.02736386,-0.00089261,0.01185025,-0.00588681,0.0000978
 1,-0.00501955,0.00213780,0.00349816,0.00062817,0.00121806,0.05145655,0
 .60579659,-0.00296479,0.00087070,-0.00037462,-0.00056015,-0.00015988,0
 .00034082,0.01229274,0.04094526,-0.07992185,-0.00560131,-0.00766249,0.
 00394241,0.00066378,0.00087274,-0.00129430,-0.00164321,0.00002086,-0.0
 0037279,0.11381247,-0.23075053,0.29070462,0.00028032,0.00038422,-0.000
 20297,-0.00005021,-0.00008383,-0.00003195,0.00715154,-0.02007702,0.012
 12478,0.00015133,-0.00100163,0.00138983,-0.00000917,0.00082194,-0.0001
 0928,-0.00201648,0.00021199,-0.00155018,-0.05864078,0.00975429,-0.0108
 8195,0.05963005,-0.00016477,0.00064919,-0.00033393,-0.00016548,-0.0000
 3891,0.00008615,0.00246893,-0.01184323,0.00776991,0.00160516,-0.003105
 01,0.00068566,0.00098354,0.00181944,-0.00104180,-0.00139868,0.00095427
 ,-0.00030178,0.01321566,-0.26613730,0.12281086,-0.01228335,0.28026615,
 0.00021476,-0.00011167,0.00028669,0.00001950,0.00012231,0.00014520,0.0
 0052562,0.00149939,0.00098063,0.00003475,-0.00016637,-0.00289402,-0.00
 040526,-0.00107712,-0.00015536,-0.00056906,0.00038115,0.00098647,-0.01
 292470,0.12134839,-0.10492477,0.01652637,-0.13677922,0.10089127,-0.002
 71872,0.00031781,-0.00071660,-0.00002651,-0.00010877,0.00016016,-0.053
 07044,-0.03888074,0.00288773,0.00109277,-0.00692470,0.00231466,0.00063
 157,0.00141286,-0.00073009,-0.00042906,0.00023034,-0.00001706,-0.29455
 584,0.07497938,-0.10515885,0.00140834,-0.00175962,0.00005660,0.7002885
 0,0.00068513,0.00091119,-0.00062001,-0.00044783,-0.00014970,-0.0001790
 2,0.00894357,0.05178398,-0.01990303,-0.00482865,0.00018117,0.00180184,
 0.00040177,0.00041875,0.00002193,-0.00081470,-0.00016020,-0.00073534,0
 .00506020,-0.12827268,0.03682893,0.02580368,-0.00493097,0.01234403,0.1
 0840766,0.58802763,-0.00117686,-0.00064030,-0.00032341,0.00033478,-0.0
 0021019,-0.00028810,-0.02240816,-0.03301201,0.02110901,0.00119726,0.00
 111890,0.00571827,-0.00014283,0.00025065,-0.00005212,0.00063914,-0.000
 30780,-0.00028732,-0.06829400,0.05644363,-0.11012630,-0.01440256,0.004
 42623,-0.00198357,0.10406163,-0.21099718,0.26875729,-0.00058703,0.0000
 2513,-0.00012447,-0.00004660,-0.00003620,0.00002720,-0.00290612,0.0018
 4045,-0.00393907,0.00027649,-0.00101747,0.00053658,-0.00012474,0.00032
 058,-0.00021685,-0.00005166,-0.00009731,0.00003646,-0.01530121,-0.0171
 1275,0.00370952,0.00047319,0.00066859,0.00098343,-0.24119117,-0.143170
 01,0.01747364,0.25265999,0.00017436,-0.00005853,-0.00000330,0.00004079
 ,0.00000375,-0.00001919,0.00156880,0.00194734,0.00335761,0.00016164,0.
 00044334,-0.00003019,-0.00003253,-0.00007696,0.00003400,0.00003806,0.0
 0002264,0.00000944,0.00857105,0.00926665,-0.00064699,0.00022349,-0.000
 32382,-0.00199683,-0.14051299,-0.15692812,0.02363804,0.15128943,0.1619
 1431,-0.00021689,-0.00003747,-0.00018581,-0.00002936,-0.00003764,-0.00
 003041,-0.00370930,0.00348107,0.00457840,-0.00007898,-0.00036374,0.000
 45490,-0.00003416,0.00015237,-0.00007430,-0.00003200,-0.00004309,0.000
 01162,-0.00989477,-0.00795258,0.00482701,0.00120309,-0.00183821,-0.002
 92440,0.01607860,0.02280137,-0.04377603,-0.01529026,-0.02914908,0.0360
 8516,0.00077227,0.00048489,0.00001000,-0.00009474,-0.00004460,-0.00004
 370,-0.01240560,-0.02808272,0.01344072,-0.00292129,-0.00097452,-0.0002
 0099,0.00113224,-0.00105737,0.00097637,-0.00002778,0.00040134,-0.00028
 608,0.02730810,0.02806955,-0.00890197,-0.00302417,0.00065431,-0.003393
 47,-0.10932892,0.02817659,-0.02867845,0.00409957,-0.02233877,0.0123309
 4,0.50026514,-0.00176757,-0.00005764,-0.00042125,0.00015121,-0.0000896
 4,0.00005412,-0.02958624,-0.06050674,0.02024781,0.00035634,-0.00379875
 ,0.00185024,0.00048768,0.00026672,-0.00018766,0.00006046,0.00026941,0.
 00009266,0.08967896,0.00011644,0.02833258,0.00043872,0.00291460,0.0026
 1129,-0.03704179,-0.27607522,0.10293974,0.00444405,-0.01217306,0.00889
 430,0.09741068,0.53653678,0.00120652,0.00009544,0.00005512,-0.00012586
 ,0.00005918,0.00002312,0.01397117,0.02041974,-0.01382452,-0.00094716,0
 .00150077,-0.00144358,0.00017946,-0.00057413,0.00017046,-0.00017984,0.
 00015662,0.00014849,-0.04128644,0.01109179,-0.01124465,-0.00322859,0.0
 0260821,0.00532255,0.00574163,0.12152073,-0.12276014,-0.00179293,0.001
 21365,0.00098207,0.05624045,-0.19412192,0.23368977,0.00016723,-0.00036
 341,0.00017480,0.00008757,0.00020056,-0.00001768,0.02450210,0.07524725
 ,-0.03609692,0.00448658,0.00116372,-0.00097688,-0.00105326,0.00121918,
 -0.00054758,-0.00000737,-0.00048535,0.00019163,-0.07550285,-0.01335383
 ,-0.01287386,-0.00132191,-0.00010971,-0.00005527,0.04641165,-0.0611262
 5,0.04365341,0.00159266,0.00099381,-0.00193201,-0.23275090,-0.08045470
 ,-0.00596302,0.63283428,-0.00018078,0.00085669,-0.00057269,0.00012800,
 0.00009833,-0.00002926,0.02921111,0.00391313,0.01157063,-0.00178301,-0
 .00343215,0.00460520,0.00178751,-0.00024571,0.00011346,-0.00017171,0.0
 0026802,-0.00022545,-0.01465879,-0.00496402,-0.00393058,-0.00012315,0.
 00023164,-0.00072310,-0.01300182,-0.03333749,0.01736379,0.00066616,-0.
 00256248,0.00489414,-0.14601502,-0.19619049,0.03039798,0.04534290,0.63
 020119,0.00002005,-0.00063927,0.00025439,-0.00003065,-0.00002243,-0.00
 001211,-0.01151597,0.02490911,-0.00587762,0.00059769,0.00531195,0.0033
 9341,-0.00086197,-0.00027992,-0.00138519,0.00010204,-0.00018970,0.0002
 5892,-0.01217397,-0.00355901,-0.00615584,-0.00001775,-0.00070967,-0.00
 070507,0.01809600,0.00374554,0.00951387,-0.00171766,0.00499226,0.00326
 792,0.02867999,0.04894288,-0.07852996,0.11664240,-0.25050034,0.2967994
 7,-0.00027256,-0.00021923,0.00005052,0.00000877,0.00001496,-0.00001631
 ,-0.00412631,0.00052732,-0.00356238,0.00089693,0.00093051,-0.00027771,
 -0.00053175,0.00029269,-0.00029026,-0.00003012,-0.00010086,0.00005431,
 -0.00139941,-0.00025136,-0.00000624,0.00005158,0.00016412,0.00021850,-
 0.00354872,-0.00361136,-0.00089102,0.00038333,-0.00112413,0.00062559,0
 .00406937,-0.02230201,0.01231136,-0.05772721,0.02254929,-0.01757383,0.
 05854000,0.00016318,0.00005825,0.00000868,-0.00001353,0.00000376,0.000
 01214,0.00056351,0.00275286,0.00274195,-0.00044176,-0.00009915,-0.0000
 0520,0.00016246,-0.00014926,0.00003465,0.00000079,0.00003876,-0.000014
 26,-0.00021760,0.00042568,-0.00076439,0.00014158,-0.00026903,-0.000367
 67,-0.00388577,0.00078878,0.00189451,0.00017069,-0.00048881,0.00043193
 ,0.00449846,-0.01223760,0.00889311,0.01972316,-0.27333375,0.13020740,-
 0.02104097,0.28453607,-0.00014329,-0.00009164,0.00001120,-0.00000109,0
 .00001898,0.00002416,-0.00361670,0.00266225,0.00521507,0.00043877,0.00
 037382,0.00003837,-0.00017141,0.00004871,-0.00027425,-0.00000462,-0.00
 002585,0.00004193,0.00000849,-0.00075376,-0.00049484,0.00023258,-0.000
 35356,-0.00078948,-0.00074182,0.00199088,0.00517107,-0.00005344,0.0000
 7565,0.00018626,-0.00187455,0.00133131,0.00098717,-0.01603456,0.131029
 35,-0.11137605,0.02040900,-0.14278484,0.10682746,-0.00266415,-0.000551
 32,-0.00027491,0.00060691,0.00024158,0.00002671,-0.12381955,-0.0144791
 5,-0.00842799,0.00268670,0.02073672,-0.01094017,-0.00531648,0.00192289
 ,-0.00328098,-0.00035034,-0.00069837,0.00039556,0.04722567,-0.01750223
 ,0.02102659,-0.00353868,-0.00438044,-0.00077686,-0.02626627,0.02952723
 ,-0.02174845,0.00008284,0.00104703,-0.00019398,-0.05911491,-0.04790784
 ,0.00693284,-0.29091010,0.08098771,-0.10626110,0.00274140,-0.00122589,
 0.00020393,0.69561290,-0.00275306,-0.00285484,0.00067635,-0.00034596,-
 0.00034174,0.00001033,0.03696281,-0.26096451,0.11442659,0.01084819,-0.
 00130923,0.00471665,-0.00223214,0.00189431,-0.00092485,-0.00024531,-0.
 00051205,0.00018943,-0.06251701,-0.03833489,0.00541019,-0.00399972,0.0
 0080662,0.00237360,0.02953542,-0.03668819,0.02529188,0.00098017,-0.000
 59448,0.00001279,0.01265713,0.05724871,-0.02321410,0.01104965,-0.13603
 128,0.04088733,0.02444014,-0.00204768,0.01009019,0.09158819,0.57755227
 ,0.00098319,0.00121070,-0.00079872,0.00037905,0.00011103,-0.00017851,-
 0.03584513,0.09996171,-0.12770488,-0.00593442,0.00769674,-0.00359984,-
 0.00066674,0.00030939,0.00096184,-0.00007645,0.00004208,0.00004461,0.0
 4487675,0.01803293,0.00822319,-0.00099074,0.00223880,0.00605313,-0.021
 74014,0.02525662,-0.02411711,-0.00020084,0.00006687,-0.00108334,-0.025
 18136,-0.04040713,0.02063124,-0.06912799,0.06067466,-0.11542677,-0.013
 27314,0.00285598,-0.00128159,0.10573353,-0.20341475,0.28216696,-0.0013
 7451,0.00046807,-0.00058312,-0.00004031,-0.00001329,0.00004150,0.00632
 142,0.00234339,-0.00020372,0.00065922,0.00116947,0.00030388,-0.0000448
 3,-0.00043511,0.00012731,0.00003564,-0.00002176,0.00004022,0.00174727,
 0.00080760,-0.00194460,0.00031680,0.00029935,-0.00010259,-0.00012072,0
 .00100348,-0.00024538,-0.00009081,0.00004782,0.00021425,-0.00210241,0.
 00098349,-0.00331296,-0.01593666,-0.01692731,0.00315324,0.00051937,0.0
 0068304,0.00100797,-0.23803314,-0.13903418,0.01838923,0.24920482,0.000
 31414,0.00067502,-0.00040185,0.00022434,0.00034618,-0.00020698,-0.0211
 4009,-0.01183127,0.00169801,-0.00193525,-0.00241005,-0.00063791,0.0003
 4136,0.00067042,-0.00004224,-0.00013556,0.00004177,-0.00010622,0.00060
 356,-0.00262167,0.00539474,-0.00114938,-0.00069641,0.00012562,0.000890
 61,-0.00049113,-0.00010854,0.00002316,-0.00015828,-0.00041259,0.001151
 06,0.00218222,0.00337461,0.00918405,0.00920028,0.00022651,0.00016292,-
 0.00046424,-0.00203044,-0.13808973,-0.15769289,0.02314957,0.14885477,0
 .16321240,-0.00040719,-0.00033029,-0.00009875,-0.00007040,-0.00027049,
 -0.00010587,0.01210611,0.00823988,0.00159373,0.00202995,0.00017499,-0.
 00234399,-0.00035515,-0.00012583,0.00047109,0.00008119,-0.00006835,0.0
 0002846,-0.00185347,0.00542756,0.00380396,0.00066541,0.00053907,0.0000
 6539,-0.00021347,-0.00005474,-0.00117890,0.00023124,-0.00039925,-0.000
 66502,-0.00342668,0.00327647,0.00522402,-0.01065961,-0.00710443,0.0055
 5523,0.00128471,-0.00188116,-0.00302231,0.01796535,0.02286104,-0.04815
 268,-0.01673376,-0.03014860,0.03903367,-0.00150678,-0.00038838,-0.0001
 8926,0.00018860,0.00003712,0.00002039,-0.00284164,0.00183687,-0.001468
 90,0.00321012,-0.00069041,0.00147105,-0.00086280,0.00103355,-0.0008632
 2,0.00013117,-0.00032686,0.00024785,0.00399013,0.00145328,-0.00096817,
 -0.00086175,0.00020239,-0.00035230,-0.01857645,0.00598948,-0.00937215,
 0.00073127,-0.00014786,0.00095923,-0.11587598,0.02504857,-0.03974662,-
 0.03487181,0.01218890,-0.01713851,0.00042534,0.00071864,0.00034075,0.0
 0105720,-0.00693434,0.00267521,-0.00106116,0.00070004,-0.00064423,0.16
 672453,0.00056254,0.00023910,0.00005773,-0.00005134,-0.00000287,-0.000
 01190,0.00166758,0.00057694,-0.00045712,-0.00093769,0.00006455,-0.0006
 5999,0.00025189,-0.00014111,0.00021093,-0.00013208,0.00009088,-0.00011
 131,-0.00382622,-0.00199802,0.00242800,0.00093815,-0.00029725,0.000416
 18,0.02634212,-0.00507781,0.01190865,0.00100532,-0.00023347,-0.0008335
 6,0.02500899,-0.03840575,0.01657831,-0.00823104,0.00532807,-0.00332264
 ,-0.00043202,0.00048535,-0.00158104,-0.00121639,-0.00013012,0.00221480
 ,-0.00022884,0.00003765,-0.00013588,-0.04072098,0.03946386,-0.00072800
 ,-0.00018464,0.00001308,0.00008303,0.00001055,0.00000120,-0.00135575,-
 0.00042698,-0.00131156,0.00159506,-0.00059014,0.00006217,-0.00041073,0
 .00042419,-0.00026541,0.00010588,-0.00014016,0.00012406,0.00181200,0.0
 0390830,0.00306795,-0.00072609,0.00019328,-0.00035467,-0.02007898,0.00
 617745,-0.00537654,0.00033744,-0.00114270,-0.00165403,-0.03969123,0.01
 656455,-0.03943117,-0.00637686,0.00243665,0.00042542,0.00093690,-0.001
 26285,-0.00126416,-0.00038007,0.00060735,0.00426247,-0.00015149,0.0001
 2631,-0.00020801,0.06502889,-0.02670116,0.04190920\\-0.00000058,0.0000
 0634,-0.00000168,0.00000033,0.00000849,-0.00000165,0.00000020,0.000001
 10,-0.00000011,0.00000153,0.00000452,-0.00000007,0.00000379,0.00000606
 ,0.00000100,0.00000502,0.00000461,0.00000207,0.00000200,-0.00000115,0.
 00000153,0.00000409,-0.00000029,0.00000258,0.00000100,-0.00000284,0.00
 000080,0.00000235,-0.00000574,0.00000270,0.00000180,-0.00000594,0.0000
 0159,-0.00000465,-0.00000413,-0.00000123,-0.00000544,-0.00000397,-0.00
 000251,-0.00000228,0.00000004,-0.00000147,-0.00000372,0.00000157,-0.00
 000263,-0.00000546,-0.00000866,-0.00000092\\\@
 The archive entry for this job was punched.


      LET US REMEMBER, PLEASE, THAT THE SEARCH FOR THE CONSTITUTION
      OF THE WORLD IS ONE OF THE GREATEST AND NOBLEST PROBLEMS PRESENTED 
      BY NATURE.

                                                  -- GALILEO
 Job cpu time:       0 days  0 hours 42 minutes  5.9 seconds.
 Elapsed time:       0 days  0 hours  1 minutes 21.1 seconds.
 File lengths (MBytes):  RWF=    145 Int=      0 D2E=      0 Chk=      8 Scr=      1
 Normal termination of Gaussian 16 at Sat Apr 19 13:16:41 2025.
