/home/tahminaafroz
cn017.cluster.local
Mon May  5 08:15:26 CDT 2025
 Entering Gaussian System, Link 0=g16
 Initial command:
 /home/apps/g16/l1.exe "/tmp/4-br-ph-opt-freq-thf/Gau-3499526.inp" -scrdir="/tmp/4-br-ph-opt-freq-thf/"
 Entering Link 1 = /home/apps/g16/l1.exe PID=   3499527.
  
 Copyright (c) 1988-2019, Gaussian, Inc.  All Rights Reserved.
  
 This is part of the Gaussian(R) 16 program.  It is based on
 the Gaussian(R) 09 system (copyright 2009, Gaussian, Inc.),
 the Gaussian(R) 03 system (copyright 2003, Gaussian, Inc.),
 the Gaussian(R) 98 system (copyright 1998, Gaussian, Inc.),
 the Gaussian(R) 94 system (copyright 1995, Gaussian, Inc.),
 the Gaussian 92(TM) system (copyright 1992, Gaussian, Inc.),
 the Gaussian 90(TM) system (copyright 1990, Gaussian, Inc.),
 the Gaussian 88(TM) system (copyright 1988, Gaussian, Inc.),
 the Gaussian 86(TM) system (copyright 1986, Carnegie Mellon
 University), and the Gaussian 82(TM) system (copyright 1983,
 Carnegie Mellon University). Gaussian is a federally registered
 trademark of Gaussian, Inc.
  
 This software contains proprietary and confidential information,
 including trade secrets, belonging to Gaussian, Inc.
  
 This software is provided under written license and may be
 used, copied, transmitted, or stored only in accord with that
 written license.
  
 The following legend is applicable only to US Government
 contracts under FAR:
  
                    RESTRICTED RIGHTS LEGEND
  
 Use, reproduction and disclosure by the US Government is
 subject to restrictions as set forth in subparagraphs (a)
 and (c) of the Commercial Computer Software - Restricted
 Rights clause in FAR 52.227-19.
  
 Gaussian, Inc.
 340 Quinnipiac St., Bldg. 40, Wallingford CT 06492
  
  
 ---------------------------------------------------------------
 Warning -- This program may not be used in any manner that
 competes with the business of Gaussian, Inc. or will provide
 assistance to any competitor of Gaussian, Inc.  The licensee
 of this program is prohibited from giving any competitor of
 Gaussian, Inc. access to this program.  By using this program,
 the user acknowledges that Gaussian, Inc. is engaged in the
 business of creating and licensing software in the field of
 computational chemistry and represents and warrants to the
 licensee that it is not a competitor of Gaussian, Inc. and that
 it will not use this program in any manner prohibited above.
 ---------------------------------------------------------------
  

 Cite this work as:
 Gaussian 16, Revision C.01,
 M. J. Frisch, G. W. Trucks, H. B. Schlegel, G. E. Scuseria, 
 M. A. Robb, J. R. Cheeseman, G. Scalmani, V. Barone, 
 G. A. Petersson, H. Nakatsuji, X. Li, M. Caricato, A. V. Marenich, 
 J. Bloino, B. G. Janesko, R. Gomperts, B. Mennucci, H. P. Hratchian, 
 J. V. Ortiz, A. F. Izmaylov, J. L. Sonnenberg, D. Williams-Young, 
 F. Ding, F. Lipparini, F. Egidi, J. Goings, B. Peng, A. Petrone, 
 T. Henderson, D. Ranasinghe, V. G. Zakrzewski, J. Gao, N. Rega, 
 G. Zheng, W. Liang, M. Hada, M. Ehara, K. Toyota, R. Fukuda, 
 J. Hasegawa, M. Ishida, T. Nakajima, Y. Honda, O. Kitao, H. Nakai, 
 T. Vreven, K. Throssell, J. A. Montgomery, Jr., J. E. Peralta, 
 F. Ogliaro, M. J. Bearpark, J. J. Heyd, E. N. Brothers, K. N. Kudin, 
 V. N. Staroverov, T. A. Keith, R. Kobayashi, J. Normand, 
 K. Raghavachari, A. P. Rendell, J. C. Burant, S. S. Iyengar, 
 J. Tomasi, M. Cossi, J. M. Millam, M. Klene, C. Adamo, R. Cammi, 
 J. W. Ochterski, R. L. Martin, K. Morokuma, O. Farkas, 
 J. B. Foresman, and D. J. Fox, Gaussian, Inc., Wallingford CT, 2019.
 
 ******************************************
 Gaussian 16:  AS64L-G16RevC.01  3-Jul-2019
                 5-May-2025 
 ******************************************
 %mem=20GB
 %nprocshared=32
 Will use up to   32 processors via shared memory.
 %chk=4-br-ph-opt-freq-thf.chk
 ----------------------------------------------------------------------
 # opt=(calcfc,tight) freq 6-311+g(d,p) scrf=(smd,solvent=thf) nosymm s
 cf=(qc,fermi,xqc) geom=connectivity int=ultrafine m062x
 ----------------------------------------------------------------------
 1/7=10,10=4,18=20,19=15,26=6,38=1,57=2/1,3;
 2/9=110,12=2,15=1,17=6,18=5,40=1/2;
 3/5=4,6=6,7=111,11=2,25=1,30=1,70=32201,71=2,72=20,74=-55,75=-5,140=1/1,2,3;
 4//1;
 5/5=2,22=13,38=5,53=20/2;
 8/6=4,10=90,11=11/1;
 11/6=1,8=1,9=11,15=111,16=1,31=1/1,2,10;
 10/6=1,13=1,31=1/2;
 6/7=2,8=2,9=2,10=2,28=1/1;
 7/10=1,25=1,30=1/1,2,3,16;
 1/7=10,10=4,18=20,19=15,26=6/3(2);
 2/9=110,15=1/2;
 99//99;
 2/9=110,15=1/2;
 3/5=4,6=6,7=111,11=2,25=1,30=1,70=32205,71=1,72=20,74=-55,75=-5/1,2,3;
 4/5=5,16=3,69=1/1;
 5/5=2,22=13,38=5,53=20/2;
 7/30=1/1,2,3,16;
 1/7=10,18=20,19=15,26=6/3(-5);
 2/9=110,15=1/2;
 6/7=2,8=2,9=2,10=2,19=2,28=1/1;
 99/9=1/99;
 --------------------
 4-br-ph-opt-freq-thf
 --------------------
 Symbolic Z-matrix:
 Charge =  0 Multiplicity = 2
 C                     6.24162   6.99757   5.17489 
 C                     5.11388   6.17912   5.30147 
 H                     5.16655   5.23106   5.82922 
 C                     3.88452   6.5419    4.76092 
 H                     3.0216    5.89685   4.86883 
 C                     3.7881    7.74884   4.08069 
 C                     4.88272   8.5908    3.92966 
 H                     4.78931   9.5279    3.39519 
 C                     6.09974   8.2047    4.47935 
 H                     6.95793   8.85768   4.36531 
 Br                    2.11123   8.26351   3.33778 
 

 GradGradGradGradGradGradGradGradGradGradGradGradGradGradGradGradGradGrad
 Berny optimization.
 Initialization pass.
                           ----------------------------
                           !    Initial Parameters    !
                           ! (Angstroms and Degrees)  !
 --------------------------                            --------------------------
 ! Name  Definition              Value          Derivative Info.                !
 --------------------------------------------------------------------------------
 ! R1    R(1,2)                  1.3992         calculate D2E/DX2 analytically  !
 ! R2    R(1,9)                  1.4004         calculate D2E/DX2 analytically  !
 ! R3    R(2,3)                  1.0863         calculate D2E/DX2 analytically  !
 ! R4    R(2,4)                  1.3911         calculate D2E/DX2 analytically  !
 ! R5    R(4,5)                  1.0828         calculate D2E/DX2 analytically  !
 ! R6    R(4,6)                  1.3888         calculate D2E/DX2 analytically  !
 ! R7    R(6,7)                  1.3892         calculate D2E/DX2 analytically  !
 ! R8    R(6,11)                 1.9049         calculate D2E/DX2 analytically  !
 ! R9    R(7,8)                  1.0828         calculate D2E/DX2 analytically  !
 ! R10   R(7,9)                  1.3901         calculate D2E/DX2 analytically  !
 ! R11   R(9,10)                 1.0844         calculate D2E/DX2 analytically  !
 ! A1    A(2,1,9)              117.8725         calculate D2E/DX2 analytically  !
 ! A2    A(1,2,3)              121.0223         calculate D2E/DX2 analytically  !
 ! A3    A(1,2,4)              121.6406         calculate D2E/DX2 analytically  !
 ! A4    A(3,2,4)              117.337          calculate D2E/DX2 analytically  !
 ! A5    A(2,4,5)              120.6782         calculate D2E/DX2 analytically  !
 ! A6    A(2,4,6)              118.5764         calculate D2E/DX2 analytically  !
 ! A7    A(5,4,6)              120.7453         calculate D2E/DX2 analytically  !
 ! A8    A(4,6,7)              121.6856         calculate D2E/DX2 analytically  !
 ! A9    A(4,6,11)             119.1401         calculate D2E/DX2 analytically  !
 ! A10   A(7,6,11)             119.1743         calculate D2E/DX2 analytically  !
 ! A11   A(6,7,8)              120.6768         calculate D2E/DX2 analytically  !
 ! A12   A(6,7,9)              118.5883         calculate D2E/DX2 analytically  !
 ! A13   A(8,7,9)              120.735          calculate D2E/DX2 analytically  !
 ! A14   A(1,9,7)              121.6364         calculate D2E/DX2 analytically  !
 ! A15   A(1,9,10)             119.4139         calculate D2E/DX2 analytically  !
 ! A16   A(7,9,10)             118.9497         calculate D2E/DX2 analytically  !
 ! D1    D(9,1,2,3)            179.8976         calculate D2E/DX2 analytically  !
 ! D2    D(9,1,2,4)             -0.1241         calculate D2E/DX2 analytically  !
 ! D3    D(2,1,9,7)              0.1262         calculate D2E/DX2 analytically  !
 ! D4    D(2,1,9,10)          -179.931          calculate D2E/DX2 analytically  !
 ! D5    D(1,2,4,5)           -179.9533         calculate D2E/DX2 analytically  !
 ! D6    D(1,2,4,6)              0.0267         calculate D2E/DX2 analytically  !
 ! D7    D(3,2,4,5)              0.0257         calculate D2E/DX2 analytically  !
 ! D8    D(3,2,4,6)           -179.9942         calculate D2E/DX2 analytically  !
 ! D9    D(2,4,6,7)              0.0746         calculate D2E/DX2 analytically  !
 ! D10   D(2,4,6,11)          -179.8492         calculate D2E/DX2 analytically  !
 ! D11   D(5,4,6,7)           -179.9454         calculate D2E/DX2 analytically  !
 ! D12   D(5,4,6,11)             0.1308         calculate D2E/DX2 analytically  !
 ! D13   D(4,6,7,8)            179.9389         calculate D2E/DX2 analytically  !
 ! D14   D(4,6,7,9)             -0.0726         calculate D2E/DX2 analytically  !
 ! D15   D(11,6,7,8)            -0.1373         calculate D2E/DX2 analytically  !
 ! D16   D(11,6,7,9)           179.8511         calculate D2E/DX2 analytically  !
 ! D17   D(6,7,9,1)             -0.0307         calculate D2E/DX2 analytically  !
 ! D18   D(6,7,9,10)          -179.9738         calculate D2E/DX2 analytically  !
 ! D19   D(8,7,9,1)            179.9577         calculate D2E/DX2 analytically  !
 ! D20   D(8,7,9,10)             0.0146         calculate D2E/DX2 analytically  !
 --------------------------------------------------------------------------------
 Trust Radius=3.00D-01 FncErr=5.00D-06 GrdErr=5.00D-06 EigMax=2.50D+02 EigMin=1.00D-04
 Number of steps in this run=     57 maximum allowed number of steps=    100.
 GradGradGradGradGradGradGradGradGradGradGradGradGradGradGradGradGradGrad

                          Input orientation:                          
 ---------------------------------------------------------------------
 Center     Atomic      Atomic             Coordinates (Angstroms)
 Number     Number       Type             X           Y           Z
 ---------------------------------------------------------------------
      1          6           0        6.241617    6.997570    5.174887
      2          6           0        5.113879    6.179115    5.301469
      3          1           0        5.166551    5.231059    5.829221
      4          6           0        3.884518    6.541902    4.760923
      5          1           0        3.021595    5.896847    4.868828
      6          6           0        3.788095    7.748839    4.080693
      7          6           0        4.882718    8.590803    3.929663
      8          1           0        4.789313    9.527904    3.395189
      9          6           0        6.099736    8.204699    4.479345
     10          1           0        6.957927    8.857675    4.365314
     11         35           0        2.111232    8.263509    3.337780
 ---------------------------------------------------------------------
                    Distance matrix (angstroms):
                    1          2          3          4          5
     1  C    0.000000
     2  C    1.399173   0.000000
     3  H    2.168982   1.086327   0.000000
     4  C    2.436168   1.391091   2.122069   0.000000
     5  H    3.416695   2.155112   2.442635   1.082763   0.000000
     6  C    2.789523   2.389986   3.361057   1.388779   2.153730
     7  C    2.436305   2.784156   3.869982   2.425983   3.406348
     8  H    3.417470   3.866993   4.952746   3.405891   4.298955
     9  C    1.400382   2.398081   3.396400   2.784128   3.866889
    10  H    2.151395   3.384019   4.301674   3.868482   4.951236
    11  Br   4.694427   4.149297   4.973732   2.851984   2.962087
                    6          7          8          9         10
     6  C    0.000000
     7  C    1.389213   0.000000
     8  H    2.153468   1.082841   0.000000
     9  C    2.389648   1.390093   2.154872   0.000000
    10  H    3.370217   2.137172   2.468448   1.084377   0.000000
    11  Br   1.904908   2.852820   2.962112   4.149071   4.989921
                   11
    11  Br   0.000000
 Symmetry turned off by external request.
 Stoichiometry    C6H4Br(2)
 Framework group  C1[X(C6H4Br)]
 Deg. of freedom    27
 Full point group                 C1      NOp   1
 Rotational constants (GHZ):           5.7134347           1.0241229           0.8684546
 Standard basis: 6-311+G(d,p) (5D, 7F)
   204 basis functions,   342 primitive gaussians,   213 cartesian basis functions
    38 alpha electrons       37 beta electrons
       nuclear repulsion energy       418.5649870686 Hartrees.
 NAtoms=   11 NActive=   11 NUniq=   11 SFac= 1.00D+00 NAtFMM=   60 NAOKFM=F Big=F
 Integral buffers will be    131072 words long.
 Raffenetti 2 integral format.
 Two-electron integral symmetry is turned off.
 Force inversion solution in PCM.
 ------------------------------------------------------------------------------
 Polarizable Continuum Model (PCM)
 =================================
 Model                : PCM.
 Atomic radii         : SMD-Coulomb.
 Polarization charges : Total charges.
 Charge compensation  : None.
 Solution method      : Matrix inversion.
 Cavity type          : VdW (van der Waals Surface) (Alpha=1.000).
 Cavity algorithm     : GePol (No added spheres)
                        Default sphere list used, NSphG=   11.
                        Lebedev-Laikov grids with approx.  5.0 points / Ang**2.
                        Smoothing algorithm: York/Karplus (Gamma=1.0000).
                        Polarization charges: spherical gaussians, with
                                              point-specific exponents (IZeta= 3).
                        Self-potential: point-specific (ISelfS= 7).
                        Self-field    : sphere-specific E.n sum rule (ISelfD= 2).
 1st derivatives      : Analytical E(r).r(x)/FMM algorithm (CHGder, D1EAlg=3).
                        Cavity 1st derivative terms included.
 2nd derivatives      : Analytical E(r).r(xy)/FMM algorithm (CHGder, D2EAlg=3).
                        Cavity 2nd derivative terms included.
 Solvent              : TetraHydroFuran, Eps=   7.425700 Eps(inf)=   1.974025
 ------------------------------------------------------------------------------
 Spheres list:
 ISph  on   Nord     Re0    Alpha      Xe            Ye            Ze
    1   C      1    1.8500  1.000      6.241617      6.997570      5.174887
    2   C      2    1.8500  1.000      5.113879      6.179115      5.301469
    3   H      3    1.2000  1.000      5.166551      5.231059      5.829221
    4   C      4    1.8500  1.000      3.884518      6.541902      4.760923
    5   H      5    1.2000  1.000      3.021595      5.896847      4.868828
    6   C      6    1.8500  1.000      3.788095      7.748839      4.080693
    7   C      7    1.8500  1.000      4.882718      8.590803      3.929663
    8   H      8    1.2000  1.000      4.789313      9.527904      3.395189
    9   C      9    1.8500  1.000      6.099736      8.204699      4.479345
   10   H     10    1.2000  1.000      6.957927      8.857675      4.365314
   11  Br     11    3.0600  1.000      2.111232      8.263509      3.337780
 ------------------------------------------------------------------------------
 ------------------------------------------------------------------------------
 Atomic radii for non-electrostatic terms: SMD-CDS.
 ------------------------------------------------------------------------------
 Nuclear repulsion after PCM non-electrostatic terms =      418.5602369213 Hartrees.
 One-electron integrals computed using PRISM.
 NBasis=   204 RedAO= T EigKep=  4.26D-06  NBF=   204
 NBsUse=   204 1.00D-06 EigRej= -1.00D+00 NBFU=   204
 ExpMin= 3.50D-02 ExpMax= 4.40D+05 ExpMxC= 1.51D+04 IAcc=3 IRadAn=         5 AccDes= 0.00D+00
 Harris functional with IExCor= 1009 and IRadAn=       5 diagonalized for initial guess.
 HarFok:  IExCor= 1009 AccDes= 0.00D+00 IRadAn=         5 IDoV= 1 UseB2=F ITyADJ=14
 ICtDFT=  3500011 ScaDFX=  1.000000  1.000000  1.000000  1.000000
 FoFCou: FMM=F IPFlag=           0 FMFlag=      100000 FMFlg1=           0
         NFxFlg=           0 DoJE=T BraDBF=F KetDBF=T FulRan=T
         wScrn=  0.000000 ICntrl=       500 IOpCl=  0 I1Cent=   200000004 NGrid=           0
         NMat0=    1 NMatS0=      1 NMatT0=    0 NMatD0=    1 NMtDS0=    0 NMtDT0=    0
 Symmetry not used in FoFCou.
 Initial guess <Sx>= 0.0000 <Sy>= 0.0000 <Sz>= 0.5000 <S**2>= 0.7500 S= 0.5000
 Keep R1 and R2 ints in memory in canonical form, NReq=470641351.
 Requested convergence on RMS density matrix=1.00D-08 within 128 cycles.
 Requested convergence on MAX density matrix=1.00D-06.
 Requested convergence on             energy=1.00D-06.
 Level shift goal  0.100 maximum shift  0.100.
 No special actions if energy rises.
 Dynamic level shift is on during FON iterations.
 Inv3:  Mode=1 IEnd=     4620243.
 Iteration    1 A*A^-1 deviation from unit magnitude is 3.55D-15 for   1236.
 Iteration    1 A*A^-1 deviation from orthogonality  is 2.01D-15 for   1229    948.
 Iteration    1 A^-1*A deviation from unit magnitude is 3.55D-15 for   1236.
 Iteration    1 A^-1*A deviation from orthogonality  is 1.74D-15 for   1229    948.
 Error on total polarization charges =  0.02113
 SCF Done:  E(UM062X) =  -2805.08946379     A.U. after   17 cycles
            NFock= 17  Conv=0.50D-08     -V/T= 2.0014
 <Sx>= 0.0000 <Sy>= 0.0000 <Sz>= 0.5000 <S**2>= 0.7640 S= 0.5070
 <L.S>=  0.00000000000    
 SMD-CDS (non-electrostatic) energy       (kcal/mol) =      -2.98
 (included in total energy above)
 Annihilation of the first spin contaminant:
 S**2 before annihilation     0.7640,   after     0.7501
 DoSCS=F DFT=T ScalE2(SS,OS)=  1.000000  1.000000
 Range of M.O.s used for correlation:     1   204
 NBasis=   204 NAE=    38 NBE=    37 NFC=     0 NFV=     0
 NROrb=    204 NOA=    38 NOB=    37 NVA=   166 NVB=   167

 **** Warning!!: The largest alpha MO coefficient is  0.13816154D+03


 **** Warning!!: The largest beta MO coefficient is  0.13570775D+03

 Symmetrizing basis deriv contribution to polar:
 IMax=3 JMax=2 DiffMx= 0.00D+00
 G2DrvN: will do    12 centers at a time, making    1 passes.
 Calling FoFCou, ICntrl=  3107 FMM=F I1Cent=   0 AccDes= 0.00D+00.
 NEqPCM:  Using equilibrium solvation (IEInf=0, Eps=   7.4257, EpsInf=   1.9740)
 G2PCM: DoFxE=T DoFxN=T DoGrad=T DoDP/DQ/DG/TGxP=FFFF NFrqRd=   0 IEInf=0 SqF1=F DoCFld=F IF1Alg=4.
 End of G2Drv F.D. properties file   721 does not exist.
 End of G2Drv F.D. properties file   722 does not exist.
 End of G2Drv F.D. properties file   788 does not exist.
          IDoAtm=11111111111
 NEqPCM:  Using equilibrium solvation (IEInf=0, Eps=   7.4257, EpsInf=   1.9740)
          Differentiating once with respect to nuclear coordinates.
 Keep R1 and R2 ints in memory in canonical form, NReq=470540480.
          There are    36 degrees of freedom in the 1st order CPHF.  IDoFFX=6 NUNeed=     0.
     30 vectors produced by pass  0 Test12= 3.47D-14 2.78D-09 XBig12= 1.83D-01 1.01D-01.
 AX will form    30 AO Fock derivatives at one time.
     30 vectors produced by pass  1 Test12= 3.47D-14 2.78D-09 XBig12= 2.75D-02 5.05D-02.
     30 vectors produced by pass  2 Test12= 3.47D-14 2.78D-09 XBig12= 6.40D-04 6.77D-03.
     30 vectors produced by pass  3 Test12= 3.47D-14 2.78D-09 XBig12= 1.88D-05 1.35D-03.
     30 vectors produced by pass  4 Test12= 3.47D-14 2.78D-09 XBig12= 4.28D-07 1.79D-04.
     30 vectors produced by pass  5 Test12= 3.47D-14 2.78D-09 XBig12= 6.11D-09 1.43D-05.
     30 vectors produced by pass  6 Test12= 3.47D-14 2.78D-09 XBig12= 6.64D-11 1.22D-06.
     23 vectors produced by pass  7 Test12= 3.47D-14 2.78D-09 XBig12= 4.20D-13 8.25D-08.
      2 vectors produced by pass  8 Test12= 3.47D-14 2.78D-09 XBig12= 2.12D-15 5.41D-09.
 InvSVY:  IOpt=1 It=  1 EMax= 2.00D-15
 Solved reduced A of dimension   235 with    30 vectors.
 End of Minotr F.D. properties file   721 does not exist.
 End of Minotr F.D. properties file   722 does not exist.
 End of Minotr F.D. properties file   788 does not exist.

 **********************************************************************

            Population analysis using the SCF Density.

 **********************************************************************

 Alpha  occ. eigenvalues -- -485.33986 -63.33176 -57.15924 -57.15666 -57.15661
 Alpha  occ. eigenvalues --  -10.61030 -10.58938 -10.56564 -10.56537 -10.56397
 Alpha  occ. eigenvalues --  -10.56393  -9.01893  -6.84689  -6.83656  -6.83648
 Alpha  occ. eigenvalues --   -2.87843  -2.87484  -2.87470  -2.86560  -2.86559
 Alpha  occ. eigenvalues --   -0.99192  -0.90795  -0.86567  -0.82106  -0.70949
 Alpha  occ. eigenvalues --   -0.68237  -0.58586  -0.54570  -0.53414  -0.50652
 Alpha  occ. eigenvalues --   -0.47195  -0.45198  -0.42537  -0.38659  -0.35482
 Alpha  occ. eigenvalues --   -0.33631  -0.32720  -0.30863
 Alpha virt. eigenvalues --   -0.00225   0.00353   0.00990   0.01722   0.03072
 Alpha virt. eigenvalues --    0.04331   0.04883   0.05365   0.06140   0.06443
 Alpha virt. eigenvalues --    0.07979   0.08025   0.09218   0.09324   0.11251
 Alpha virt. eigenvalues --    0.12079   0.13788   0.13895   0.14788   0.14878
 Alpha virt. eigenvalues --    0.15486   0.16014   0.17677   0.18127   0.19153
 Alpha virt. eigenvalues --    0.20678   0.20912   0.21318   0.22056   0.22872
 Alpha virt. eigenvalues --    0.23295   0.24557   0.25834   0.26203   0.27289
 Alpha virt. eigenvalues --    0.27564   0.32652   0.33001   0.35095   0.36331
 Alpha virt. eigenvalues --    0.43081   0.44454   0.46281   0.49665   0.51569
 Alpha virt. eigenvalues --    0.52897   0.55339   0.56515   0.57698   0.57854
 Alpha virt. eigenvalues --    0.59195   0.60586   0.62700   0.62894   0.63363
 Alpha virt. eigenvalues --    0.63782   0.63904   0.68795   0.69091   0.69532
 Alpha virt. eigenvalues --    0.72872   0.75276   0.75429   0.76189   0.77159
 Alpha virt. eigenvalues --    0.77549   0.81915   0.85734   0.85855   0.86561
 Alpha virt. eigenvalues --    0.89454   0.89796   0.91085   0.92656   0.98303
 Alpha virt. eigenvalues --    1.02327   1.03680   1.04158   1.08753   1.12200
 Alpha virt. eigenvalues --    1.12939   1.17854   1.20768   1.21102   1.30979
 Alpha virt. eigenvalues --    1.38055   1.50756   1.52269   1.53676   1.56134
 Alpha virt. eigenvalues --    1.59931   1.64638   1.66877   1.68356   1.70519
 Alpha virt. eigenvalues --    1.73427   1.76984   1.80303   1.87740   1.89451
 Alpha virt. eigenvalues --    1.92956   1.93537   1.93651   1.95506   1.95689
 Alpha virt. eigenvalues --    2.02092   2.04502   2.04687   2.05076   2.09836
 Alpha virt. eigenvalues --    2.15134   2.24502   2.29441   2.30925   2.34742
 Alpha virt. eigenvalues --    2.39061   2.40220   2.44848   2.53623   2.61058
 Alpha virt. eigenvalues --    2.69497   2.69623   2.71413   2.72419   2.72650
 Alpha virt. eigenvalues --    2.75611   2.77352   2.82262   2.83620   2.92061
 Alpha virt. eigenvalues --    2.93687   2.93786   2.95184   3.11468   3.17307
 Alpha virt. eigenvalues --    3.18613   3.37456   3.41805   3.52447   3.59996
 Alpha virt. eigenvalues --    3.71247   3.83374   4.01094   4.12697   4.15833
 Alpha virt. eigenvalues --    4.28254   4.32915   4.36835   4.51785   4.70745
 Alpha virt. eigenvalues --    4.81252   6.87353   7.63728   7.74940   7.80057
 Alpha virt. eigenvalues --   23.55548  23.93720  24.01714  24.09455  24.15860
 Alpha virt. eigenvalues --   24.22244  48.39574 290.78311 290.90424 290.98281
 Alpha virt. eigenvalues -- 1020.96041
  Beta  occ. eigenvalues -- -485.33985 -63.33176 -57.15920 -57.15670 -57.15661
  Beta  occ. eigenvalues --  -10.61071 -10.57861 -10.56494 -10.56469 -10.56383
  Beta  occ. eigenvalues --  -10.56381  -9.01892  -6.84680  -6.83665  -6.83648
  Beta  occ. eigenvalues --   -2.87839  -2.87485  -2.87466  -2.86563  -2.86563
  Beta  occ. eigenvalues --   -0.98700  -0.90123  -0.86218  -0.80847  -0.70465
  Beta  occ. eigenvalues --   -0.67196  -0.57058  -0.53688  -0.52874  -0.50291
  Beta  occ. eigenvalues --   -0.46839  -0.43936  -0.41918  -0.38035  -0.35467
  Beta  occ. eigenvalues --   -0.32773  -0.29807
  Beta virt. eigenvalues --   -0.07165   0.00273   0.00961   0.00971   0.01711
  Beta virt. eigenvalues --    0.03119   0.04707   0.04905   0.05362   0.06199
  Beta virt. eigenvalues --    0.07247   0.08013   0.08023   0.09268   0.09918
  Beta virt. eigenvalues --    0.11369   0.11931   0.13373   0.13872   0.14733
  Beta virt. eigenvalues --    0.15053   0.15600   0.16294   0.17753   0.17963
  Beta virt. eigenvalues --    0.18957   0.21129   0.21684   0.21735   0.22238
  Beta virt. eigenvalues --    0.22795   0.23012   0.25005   0.25339   0.26582
  Beta virt. eigenvalues --    0.27270   0.27459   0.32749   0.33253   0.36442
  Beta virt. eigenvalues --    0.37110   0.42993   0.44448   0.46383   0.47549
  Beta virt. eigenvalues --    0.51647   0.51668   0.55529   0.56766   0.57635
  Beta virt. eigenvalues --    0.57789   0.58494   0.59226   0.63028   0.63276
  Beta virt. eigenvalues --    0.63329   0.63773   0.63936   0.68791   0.69287
  Beta virt. eigenvalues --    0.70303   0.72798   0.75001   0.75601   0.76380
  Beta virt. eigenvalues --    0.77144   0.77411   0.81657   0.84963   0.85803
  Beta virt. eigenvalues --    0.86246   0.89615   0.89935   0.91725   0.91790
  Beta virt. eigenvalues --    0.98925   1.02257   1.04164   1.04668   1.08530
  Beta virt. eigenvalues --    1.12221   1.12863   1.18385   1.21050   1.22962
  Beta virt. eigenvalues --    1.30974   1.38443   1.51164   1.53807   1.53882
  Beta virt. eigenvalues --    1.57114   1.60338   1.64616   1.67721   1.68617
  Beta virt. eigenvalues --    1.70714   1.73937   1.77184   1.80307   1.88751
  Beta virt. eigenvalues --    1.89309   1.93242   1.94302   1.94392   1.95737
  Beta virt. eigenvalues --    1.95986   2.02533   2.04586   2.04816   2.04976
  Beta virt. eigenvalues --    2.09807   2.15116   2.24799   2.29578   2.31640
  Beta virt. eigenvalues --    2.35036   2.39582   2.40654   2.45086   2.53494
  Beta virt. eigenvalues --    2.61280   2.69872   2.69902   2.71742   2.72643
  Beta virt. eigenvalues --    2.72856   2.75725   2.77446   2.82542   2.83497
  Beta virt. eigenvalues --    2.92377   2.93649   2.95082   2.95253   3.11543
  Beta virt. eigenvalues --    3.17760   3.19799   3.37933   3.42088   3.52632
  Beta virt. eigenvalues --    3.60682   3.71485   3.83860   4.01183   4.12665
  Beta virt. eigenvalues --    4.16260   4.28226   4.32884   4.36840   4.51823
  Beta virt. eigenvalues --    4.70768   4.81579   6.87341   7.63720   7.74938
  Beta virt. eigenvalues --    7.80067  23.55745  23.94248  24.01722  24.09813
  Beta virt. eigenvalues --   24.15847  24.22320  48.39571 290.78303 290.90424
  Beta virt. eigenvalues --  290.982901020.96042
          Condensed to atoms (all electrons):
               1          2          3          4          5          6
     1  C    5.501981  -0.003388   0.000683   0.559338  -0.017345  -0.795384
     2  C   -0.003388   6.136894   0.383590  -0.288198   0.049268   0.458498
     3  H    0.000683   0.383590   0.449308  -0.033618  -0.005551   0.000544
     4  C    0.559338  -0.288198  -0.033618   7.185521   0.328729  -0.505006
     5  H   -0.017345   0.049268  -0.005551   0.328729   0.440321   0.013709
     6  C   -0.795384   0.458498   0.000544  -0.505006   0.013709   6.638996
     7  C    0.553975  -1.034511  -0.001517  -0.007864  -0.023390  -0.492949
     8  H   -0.018172   0.012392   0.000033  -0.023492  -0.000076   0.014968
     9  C   -0.004176   0.620079  -0.005399  -1.049431   0.012065   0.454141
    10  H   -0.003051  -0.006386  -0.000065  -0.000990   0.000033   0.000275
    11  Br   0.072825  -0.010234   0.000297   0.228789  -0.008403  -0.397962
               7          8          9         10         11
     1  C    0.553975  -0.018172  -0.004176  -0.003051   0.072825
     2  C   -1.034511   0.012392   0.620079  -0.006386  -0.010234
     3  H   -0.001517   0.000033  -0.005399  -0.000065   0.000297
     4  C   -0.007864  -0.023492  -1.049431  -0.000990   0.228789
     5  H   -0.023390  -0.000076   0.012065   0.000033  -0.008403
     6  C   -0.492949   0.014968   0.454141   0.000275  -0.397962
     7  C    7.157635   0.326550  -0.274662  -0.028682   0.226792
     8  H    0.326550   0.439816   0.050726  -0.005257  -0.008640
     9  C   -0.274662   0.050726   6.148562   0.382995  -0.009780
    10  H   -0.028682  -0.005257   0.382995   0.448535   0.000307
    11  Br   0.226792  -0.008640  -0.009780   0.000307  35.076387
          Atomic-Atomic Spin Densities.
               1          2          3          4          5          6
     1  C    1.236898  -0.351539   0.017579   0.287548   0.003999  -0.305546
     2  C   -0.351539   0.445058  -0.021033  -0.414063  -0.007294   0.354152
     3  H    0.017579  -0.021033   0.022285   0.017751   0.000925  -0.016758
     4  C    0.287548  -0.414063   0.017751   0.486137   0.008348  -0.340239
     5  H    0.003999  -0.007294   0.000925   0.008348   0.002775  -0.006390
     6  C   -0.305546   0.354152  -0.016758  -0.340239  -0.006390   0.267066
     7  C    0.284020  -0.317363   0.010999   0.278348   0.002965  -0.336871
     8  H    0.004052  -0.002633   0.000010   0.003015   0.000025  -0.006512
     9  C   -0.349745   0.398758  -0.017747  -0.319227  -0.002571   0.351479
    10  H    0.017440  -0.018160   0.000133   0.011230   0.000010  -0.016707
    11  Br  -0.000160  -0.001534   0.000144  -0.001509  -0.000227   0.012170
               7          8          9         10         11
     1  C    0.284020   0.004052  -0.349745   0.017440  -0.000160
     2  C   -0.317363  -0.002633   0.398758  -0.018160  -0.001534
     3  H    0.010999   0.000010  -0.017747   0.000133   0.000144
     4  C    0.278348   0.003015  -0.319227   0.011230  -0.001509
     5  H    0.002965   0.000025  -0.002571   0.000010  -0.000227
     6  C   -0.336871  -0.006512   0.351479  -0.016707   0.012170
     7  C    0.474849   0.008391  -0.404298   0.017180  -0.001488
     8  H    0.008391   0.002801  -0.007252   0.000893  -0.000217
     9  C   -0.404298  -0.007252   0.438952  -0.020606  -0.001552
    10  H    0.017180   0.000893  -0.020606   0.022383   0.000144
    11  Br  -0.001488  -0.000217  -0.001552   0.000144  -0.004135
 Mulliken charges and spin densities:
               1          2
     1  C    0.152714   0.844546
     2  C   -0.318004   0.064348
     3  H    0.211695   0.014288
     4  C   -0.393776   0.017338
     5  H    0.210639   0.002564
     6  C    0.610169  -0.044155
     7  C   -0.401377   0.016730
     8  H    0.211152   0.002574
     9  C   -0.325119   0.066191
    10  H    0.212287   0.013939
    11  Br  -0.170379   0.001636
 Sum of Mulliken charges =   0.00000   1.00000
 Mulliken charges and spin densities with hydrogens summed into heavy atoms:
               1          2
     1  C    0.152714   0.844546
     2  C   -0.106309   0.078636
     4  C   -0.183137   0.019902
     6  C    0.610169  -0.044155
     7  C   -0.190225   0.019304
     9  C   -0.112832   0.080130
    11  Br  -0.170379   0.001636
 APT charges:
               1
     1  C    1.608019
     2  C   -0.967428
     3  H   -0.105333
     4  C    0.494198
     5  H   -0.800911
     6  C   -1.090603
     7  C   -0.140096
     8  H    1.240679
     9  C   -2.035041
    10  H    1.931674
    11  Br  -0.135158
 Sum of APT charges =   0.00000
 APT charges with hydrogens summed into heavy atoms:
               1
     1  C    1.608019
     2  C   -1.072761
     4  C   -0.306713
     6  C   -1.090603
     7  C    1.100583
     9  C   -0.103367
    11  Br  -0.135158
 Electronic spatial extent (au):  <R**2>=          25327.6761
 Charge=              0.0000 electrons
 Dipole moment (field-independent basis, Debye):
    X=              1.0807    Y=             -0.3402    Z=              0.4828  Tot=              1.2315
 Quadrupole moment (field-independent basis, Debye-Ang):
   XX=            -44.5628   YY=            -53.8945   ZZ=            -51.5994
   XY=             10.4887   XZ=              5.7108   YZ=             -1.4888
 Traceless Quadrupole moment (field-independent basis, Debye-Ang):
   XX=              5.4561   YY=             -3.8756   ZZ=             -1.5805
   XY=             10.4887   XZ=              5.7108   YZ=             -1.4888
 Octapole moment (field-independent basis, Debye-Ang**2):
  XXX=           -584.8983  YYY=          -1187.5618  ZZZ=           -673.3783  XYY=            -93.9516
  XXY=           -312.1249  XXZ=           -186.1837  XZZ=           -195.8586  YZZ=           -436.8139
  YYZ=           -249.8491  XYZ=             36.3575
 Hexadecapole moment (field-independent basis, Debye-Ang**3):
 XXXX=          -5658.6783 YYYY=         -18318.2403 ZZZZ=          -5967.9047 XXXY=          -4163.0822
 XXXZ=          -2617.6118 YYYX=          -3475.2085 YYYZ=          -5232.5711 ZZZX=          -2839.2356
 ZZZY=          -5345.9864 XXYY=          -3108.8473 XXZZ=          -1878.4311 YYZZ=          -4559.8481
 XXYZ=          -1353.3552 YYXZ=           -607.2474 ZZXY=          -1597.0525
 N-N= 4.185602369213D+02 E-N=-7.526044586770D+03  KE= 2.801032955961D+03
  Exact polarizability:       0.000       0.000       0.000       0.000       0.000       0.000
 Approx polarizability:     131.224      -0.344     106.129      18.552     -22.146      82.598
                          Isotropic Fermi Contact Couplings
        Atom                 a.u.       MegaHertz       Gauss      10(-4) cm-1
     1  C(13)              0.55851     627.87199     224.04034     209.43555
     2  C(13)              0.02434      27.35882       9.76231       9.12592
     3  H(1)               0.00925      41.36033      14.75840      13.79632
     4  C(13)              0.04148      46.62649      16.63749      15.55292
     5  H(1)               0.00157       7.03597       2.51061       2.34695
     6  C(13)             -0.01195     -13.43184      -4.79282      -4.48038
     7  C(13)              0.04061      45.65123      16.28949      15.22761
     8  H(1)               0.00157       7.03130       2.50894       2.34539
     9  C(13)              0.02431      27.32419       9.74995       9.11437
    10  H(1)               0.00933      41.69777      14.87880      13.90888
    11  Br(79)             0.00937      10.53437       3.75892       3.51389
 --------------------------------------------------------
       Center         ----  Spin Dipole Couplings  ----
                      3XX-RR        3YY-RR        3ZZ-RR
 --------------------------------------------------------
     1   Atom        0.585747     -0.398877     -0.186870
     2   Atom        0.090434     -0.011338     -0.079096
     3   Atom        0.002286      0.008189     -0.010475
     4   Atom        0.035061     -0.029990     -0.005071
     5   Atom        0.006860     -0.001945     -0.004914
     6   Atom        0.028162      0.007309     -0.035471
     7   Atom        0.022116     -0.021830     -0.000285
     8   Atom       -0.003307      0.004412     -0.001105
     9   Atom       -0.001335      0.045743     -0.044409
    10   Atom       -0.010198      0.016286     -0.006087
    11   Atom        0.069221     -0.014906     -0.054315
 --------------------------------------------------------
                        XY            XZ            YZ
 --------------------------------------------------------
     1   Atom       -0.359528      0.459353     -0.078647
     2   Atom        0.056934      0.024032     -0.034393
     3   Atom        0.016453     -0.004671     -0.006730
     4   Atom       -0.018455      0.021797      0.007141
     5   Atom        0.005611      0.000299     -0.000117
     6   Atom        0.006725      0.020859     -0.034535
     7   Atom       -0.028804      0.023735      0.000054
     8   Atom       -0.003285      0.002260     -0.006030
     9   Atom       -0.023778      0.041790     -0.088151
    10   Atom        0.006150     -0.002531     -0.014256
    11   Atom       -0.014026      0.052632     -0.046605
 --------------------------------------------------------


 ---------------------------------------------------------------------------------
              Anisotropic Spin Dipole Couplings in Principal Axis System
 ---------------------------------------------------------------------------------

       Atom             a.u.   MegaHertz   Gauss  10(-4) cm-1        Axes

              Baa    -0.5412   -72.621   -25.913   -24.224  0.4096  0.8451 -0.3435
     1 C(13)  Bbb    -0.3582   -48.065   -17.151   -16.033 -0.2391  0.4628  0.8536
              Bcc     0.8994   120.686    43.064    40.256  0.8804 -0.2675  0.3917
 
              Baa    -0.1045   -14.020    -5.003    -4.676 -0.2402  0.4621  0.8537
     2 C(13)  Bbb    -0.0118    -1.579    -0.564    -0.527 -0.3196  0.7928 -0.5190
              Bcc     0.1162    15.599     5.566     5.203  0.9166  0.3975  0.0428
 
              Baa    -0.0128    -6.830    -2.437    -2.278 -0.2364  0.4598  0.8560
     3 H(1)   Bbb    -0.0111    -5.917    -2.111    -1.974  0.7476 -0.4766  0.4625
              Bcc     0.0239    12.747     4.548     4.252  0.6206  0.7493 -0.2311
 
              Baa    -0.0400    -5.367    -1.915    -1.790  0.3233  0.8670 -0.3791
     4 C(13)  Bbb    -0.0073    -0.978    -0.349    -0.326 -0.2382  0.4623  0.8541
              Bcc     0.0473     6.344     2.264     2.116  0.9158 -0.1858  0.3560
 
              Baa    -0.0051    -2.701    -0.964    -0.901 -0.2394  0.4631  0.8534
     5 H(1)   Bbb    -0.0045    -2.417    -0.863    -0.806 -0.3661  0.7710 -0.5211
              Bcc     0.0096     5.118     1.826     1.707  0.8992  0.4372  0.0150
 
              Baa    -0.0600    -8.046    -2.871    -2.684 -0.2375  0.4623  0.8543
     6 C(13)  Bbb     0.0246     3.301     1.178     1.101  0.4116  0.8445 -0.3426
              Bcc     0.0354     4.745     1.693     1.583  0.8799 -0.2702  0.3909
 
              Baa    -0.0395    -5.294    -1.889    -1.766  0.4971  0.8133 -0.3023
     7 C(13)  Bbb    -0.0069    -0.925    -0.330    -0.308 -0.2386  0.4631  0.8536
              Bcc     0.0463     6.219     2.219     2.074  0.8343 -0.3522  0.4243
 
              Baa    -0.0050    -2.673    -0.954    -0.891 -0.2416  0.4620  0.8534
     8 H(1)   Bbb    -0.0045    -2.408    -0.859    -0.803  0.9239  0.3783  0.0568
              Bcc     0.0095     5.081     1.813     1.695 -0.2966  0.8021 -0.5182
 
              Baa    -0.1041   -13.967    -4.984    -4.659 -0.2396  0.4638  0.8529
     9 C(13)  Bbb    -0.0111    -1.494    -0.533    -0.498  0.9071  0.4201  0.0264
              Bcc     0.1152    15.461     5.517     5.157 -0.3461  0.7800 -0.5214
 
              Baa    -0.0131    -7.001    -2.498    -2.335 -0.2351  0.4634  0.8544
    10 H(1)   Bbb    -0.0114    -6.065    -2.164    -2.023  0.9536 -0.0600  0.2949
              Bcc     0.0245    13.067     4.663     4.359  0.1880  0.8841 -0.4278
 
              Baa    -0.0940   -12.611    -4.500    -4.207 -0.2360  0.4618  0.8550
    11 Br(79) Bbb    -0.0029    -0.390    -0.139    -0.130  0.4135  0.8439 -0.3417
              Bcc     0.0969    13.001     4.639     4.337  0.8794 -0.2729  0.3901
 

 ---------------------------------------------------------------------------------

 D2PCM: PCM CHGder 2nd derivatives, FixD1E=F FixD2E=F DoIter=F DoCFld=F I1PDM=0
 Calling FoFJK, ICntrl=    100127 FMM=F ISym2X=0 I1Cent= 0 IOpClX= 1 NMat=1 NMatS=1 NMatT=0.
 -------------------------------------------------------------------
 Center     Atomic                   Forces (Hartrees/Bohr)
 Number     Number              X              Y              Z
 -------------------------------------------------------------------
      1        6          -0.046243863    0.013347775   -0.020396813
      2        6           0.021658545   -0.010148910    0.011578918
      3        1           0.001478299    0.000426190    0.000215095
      4        6           0.000746444    0.006899467   -0.003508313
      5        1           0.000975992   -0.000859619    0.000747492
      6        6          -0.000771061    0.000355413   -0.000395028
      7        6          -0.004845166   -0.004339794    0.001005554
      8        1           0.001482025    0.000080040    0.000363434
      9        6           0.025536573   -0.007623123    0.011396550
     10        1           0.000002563    0.001745795   -0.000939620
     11       35          -0.000020351    0.000116768   -0.000067268
 -------------------------------------------------------------------
 Cartesian Forces:  Max     0.046243863 RMS     0.011539885
 FormGI is forming the generalized inverse of G from B-inverse, IUseBI=4.

 GradGradGradGradGradGradGradGradGradGradGradGradGradGradGradGradGradGrad
 Berny optimization.
 Internal  Forces:  Max     0.028571572 RMS     0.006863696
 Search for a local minimum.
 Step number   1 out of a maximum of   57
 All quantities printed in internal units (Hartrees-Bohrs-Radians)
 Mixed Optimization -- RFO/linear search
 Second derivative matrix not updated -- analytic derivatives used.
 ITU=  0
     Eigenvalues ---    0.01705   0.01799   0.01996   0.02523   0.02634
     Eigenvalues ---    0.02890   0.03098   0.03330   0.10778   0.11089
     Eigenvalues ---    0.11518   0.12248   0.15162   0.16398   0.18840
     Eigenvalues ---    0.19886   0.24470   0.25808   0.35705   0.36105
     Eigenvalues ---    0.36633   0.36822   0.39962   0.41579   0.46416
     Eigenvalues ---    0.47812   0.51400
 RFO step:  Lambda=-8.95976593D-03 EMin= 1.70493063D-02
 Linear search not attempted -- first point.
 Iteration  1 RMS(Cart)=  0.02760020 RMS(Int)=  0.00119758
 Iteration  2 RMS(Cart)=  0.00171464 RMS(Int)=  0.00041996
 Iteration  3 RMS(Cart)=  0.00000062 RMS(Int)=  0.00041996
 Variable       Old X    -DE/DX   Delta X   Delta X   Delta X     New X
                                 (Linear)    (Quad)   (Total)
    R1        2.64405  -0.01915   0.00000  -0.05186  -0.05126   2.59279
    R2        2.64634  -0.01891   0.00000  -0.05382  -0.05323   2.59311
    R3        2.05286  -0.00020   0.00000  -0.00444  -0.00444   2.04842
    R4        2.62878   0.00177   0.00000   0.01118   0.01118   2.63996
    R5        2.04613  -0.00019   0.00000   0.00060   0.00060   2.04673
    R6        2.62441   0.00280   0.00000   0.00299   0.00241   2.62682
    R7        2.62523   0.00244   0.00000   0.00202   0.00143   2.62666
    R8        3.59975   0.00008   0.00000   0.00332   0.00332   3.60307
    R9        2.04627  -0.00024   0.00000   0.00039   0.00039   2.04666
   R10        2.62690   0.00153   0.00000   0.01271   0.01270   2.63960
   R11        2.04917   0.00115   0.00000  -0.00075  -0.00075   2.04843
    A1        2.05726   0.02857   0.00000   0.12454   0.12610   2.18337
    A2        2.11224   0.00574   0.00000   0.02471   0.02445   2.13669
    A3        2.12303  -0.01467   0.00000  -0.07410  -0.07358   2.04945
    A4        2.04792   0.00893   0.00000   0.04939   0.04913   2.09705
    A5        2.10623  -0.00156   0.00000  -0.00740  -0.00707   2.09916
    A6        2.06955   0.00006   0.00000   0.00637   0.00571   2.07526
    A7        2.10740   0.00151   0.00000   0.00102   0.00135   2.10876
    A8        2.12381   0.00051   0.00000   0.01087   0.00963   2.13344
    A9        2.07939  -0.00008   0.00000  -0.00496  -0.00434   2.07505
   A10        2.07998  -0.00043   0.00000  -0.00591  -0.00529   2.07469
   A11        2.10621   0.00158   0.00000   0.00183   0.00217   2.10837
   A12        2.06976  -0.00010   0.00000   0.00614   0.00546   2.07521
   A13        2.10722  -0.00148   0.00000  -0.00797  -0.00762   2.09960
   A14        2.12296  -0.01436   0.00000  -0.07382  -0.07332   2.04963
   A15        2.08417   0.00885   0.00000   0.04943   0.04918   2.13335
   A16        2.07606   0.00551   0.00000   0.02439   0.02414   2.10021
    D1        3.13981   0.00003   0.00000   0.00138   0.00142   3.14123
    D2       -0.00217   0.00002   0.00000   0.00129   0.00131  -0.00085
    D3        0.00220  -0.00004   0.00000  -0.00162  -0.00163   0.00057
    D4       -3.14039  -0.00001   0.00000  -0.00089  -0.00092  -3.14131
    D5       -3.14078  -0.00002   0.00000  -0.00025  -0.00022  -3.14099
    D6        0.00047  -0.00002   0.00000  -0.00029  -0.00024   0.00023
    D7        0.00045  -0.00002   0.00000  -0.00034  -0.00033   0.00012
    D8       -3.14149  -0.00002   0.00000  -0.00038  -0.00035   3.14134
    D9        0.00130  -0.00003   0.00000  -0.00067  -0.00065   0.00065
   D10       -3.13896  -0.00002   0.00000  -0.00056  -0.00057  -3.13953
   D11       -3.14064  -0.00003   0.00000  -0.00072  -0.00068  -3.14132
   D12        0.00228  -0.00002   0.00000  -0.00060  -0.00060   0.00169
   D13        3.14053   0.00002   0.00000   0.00033   0.00029   3.14081
   D14       -0.00127   0.00002   0.00000   0.00036   0.00033  -0.00094
   D15       -0.00240   0.00001   0.00000   0.00021   0.00020  -0.00219
   D16        3.13899   0.00001   0.00000   0.00025   0.00025   3.13924
   D17       -0.00054   0.00004   0.00000   0.00093   0.00087   0.00034
   D18       -3.14114   0.00001   0.00000   0.00019   0.00016  -3.14097
   D19        3.14085   0.00004   0.00000   0.00096   0.00092  -3.14141
   D20        0.00026   0.00001   0.00000   0.00022   0.00021   0.00046
         Item               Value     Threshold  Converged?
 Maximum Force            0.028572     0.000015     NO 
 RMS     Force            0.006864     0.000010     NO 
 Maximum Displacement     0.139756     0.000060     NO 
 RMS     Displacement     0.027497     0.000040     NO 
 Predicted change in Energy=-4.653753D-03
 GradGradGradGradGradGradGradGradGradGradGradGradGradGradGradGradGradGrad

                          Input orientation:                          
 ---------------------------------------------------------------------
 Center     Atomic      Atomic             Coordinates (Angstroms)
 Number     Number       Type             X           Y           Z
 ---------------------------------------------------------------------
      1          6           0        6.167661    7.016443    5.142707
      2          6           0        5.109452    6.159406    5.310625
      3          1           0        5.200959    5.220639    5.844805
      4          6           0        3.881561    6.537996    4.762366
      5          1           0        3.015366    5.896430    4.868019
      6          6           0        3.793463    7.747437    4.082853
      7          6           0        4.885927    8.593023    3.929499
      8          1           0        4.791170    9.530087    3.394782
      9          6           0        6.113987    8.215513    4.477634
     10          1           0        6.981004    8.857554    4.372362
     11         35           0        2.116630    8.265393    3.337659
 ---------------------------------------------------------------------
                    Distance matrix (angstroms):
                    1          2          3          4          5
     1  C    0.000000
     2  C    1.372048   0.000000
     3  H    2.156935   1.083977   0.000000
     4  C    2.366394   1.397009   2.155903   0.000000
     5  H    3.356613   2.156445   2.487494   1.083081   0.000000
     6  C    2.700826   2.400228   3.386773   1.390053   2.155956
     7  C    2.366499   2.807127   3.891094   2.434245   3.413419
     8  H    3.356840   3.890148   4.974122   3.413251   4.304344
     9  C    1.372214   2.435270   3.416438   2.806930   3.889987
    10  H    2.155144   3.415120   4.308573   3.890886   4.973954
    11  Br   4.607486   4.157495   5.006935   2.851083   2.960019
                    6          7          8          9         10
     6  C    0.000000
     7  C    1.389968   0.000000
     8  H    2.155621   1.083047   0.000000
     9  C    2.399954   1.396816   2.156506   0.000000
    10  H    3.387712   2.157649   2.490650   1.083982   0.000000
    11  Br   1.906662   2.850724   2.959034   4.157030   5.008333
                   11
    11  Br   0.000000
 Symmetry turned off by external request.
 Stoichiometry    C6H4Br(2)
 Framework group  C1[X(C6H4Br)]
 Deg. of freedom    27
 Full point group                 C1      NOp   1
 Rotational constants (GHZ):           5.6261161           1.0364837           0.8752408
 Standard basis: 6-311+G(d,p) (5D, 7F)
   204 basis functions,   342 primitive gaussians,   213 cartesian basis functions
    38 alpha electrons       37 beta electrons
       nuclear repulsion energy       419.5758594435 Hartrees.
 NAtoms=   11 NActive=   11 NUniq=   11 SFac= 1.00D+00 NAtFMM=   60 NAOKFM=F Big=F
 Integral buffers will be    131072 words long.
 Raffenetti 2 integral format.
 Two-electron integral symmetry is turned off.
 ------------------------------------------------------------------------------
 Polarizable Continuum Model (PCM)
 =================================
 Model                : PCM.
 Atomic radii         : SMD-Coulomb.
 Polarization charges : Total charges.
 Charge compensation  : None.
 Solution method      : Matrix inversion.
 Cavity type          : VdW (van der Waals Surface) (Alpha=1.000).
 Cavity algorithm     : GePol (No added spheres)
                        Default sphere list used, NSphG=   11.
                        Lebedev-Laikov grids with approx.  5.0 points / Ang**2.
                        Smoothing algorithm: York/Karplus (Gamma=1.0000).
                        Polarization charges: spherical gaussians, with
                                              point-specific exponents (IZeta= 3).
                        Self-potential: point-specific (ISelfS= 7).
                        Self-field    : sphere-specific E.n sum rule (ISelfD= 2).
 1st derivatives      : Analytical E(r).r(x)/FMM algorithm (CHGder, D1EAlg=3).
                        Cavity 1st derivative terms included.
 Solvent              : TetraHydroFuran, Eps=   7.425700 Eps(inf)=   1.974025
 ------------------------------------------------------------------------------
 Spheres list:
 ISph  on   Nord     Re0    Alpha      Xe            Ye            Ze
    1   C      1    1.8500  1.000      6.167661      7.016443      5.142707
    2   C      2    1.8500  1.000      5.109452      6.159406      5.310625
    3   H      3    1.2000  1.000      5.200959      5.220639      5.844805
    4   C      4    1.8500  1.000      3.881561      6.537996      4.762366
    5   H      5    1.2000  1.000      3.015366      5.896430      4.868019
    6   C      6    1.8500  1.000      3.793463      7.747437      4.082853
    7   C      7    1.8500  1.000      4.885927      8.593023      3.929499
    8   H      8    1.2000  1.000      4.791170      9.530087      3.394782
    9   C      9    1.8500  1.000      6.113987      8.215513      4.477634
   10   H     10    1.2000  1.000      6.981004      8.857554      4.372362
   11  Br     11    3.0600  1.000      2.116630      8.265393      3.337659
 ------------------------------------------------------------------------------
 ------------------------------------------------------------------------------
 Atomic radii for non-electrostatic terms: SMD-CDS.
 ------------------------------------------------------------------------------
 Nuclear repulsion after PCM non-electrostatic terms =      419.5710410798 Hartrees.
 One-electron integrals computed using PRISM.
 NBasis=   204 RedAO= T EigKep=  3.67D-06  NBF=   204
 NBsUse=   204 1.00D-06 EigRej= -1.00D+00 NBFU=   204
 Initial guess from the checkpoint file:  "4-br-ph-opt-freq-thf.chk"
 B after Tr=    -0.013942    0.012714   -0.012421
         Rot=    1.000000   -0.000167    0.000342    0.000557 Ang=  -0.08 deg.
 Initial guess <Sx>= 0.0000 <Sy>= 0.0000 <Sz>= 0.5000 <S**2>= 0.7636 S= 0.5068
 ExpMin= 3.50D-02 ExpMax= 4.40D+05 ExpMxC= 1.51D+04 IAcc=3 IRadAn=         5 AccDes= 0.00D+00
 Harris functional with IExCor= 1009 and IRadAn=       5 diagonalized for initial guess.
 HarFok:  IExCor= 1009 AccDes= 0.00D+00 IRadAn=         5 IDoV= 1 UseB2=F ITyADJ=14
 ICtDFT=  3500011 ScaDFX=  1.000000  1.000000  1.000000  1.000000
 FoFCou: FMM=F IPFlag=           0 FMFlag=      100000 FMFlg1=           0
         NFxFlg=           0 DoJE=T BraDBF=F KetDBF=T FulRan=T
         wScrn=  0.000000 ICntrl=       500 IOpCl=  0 I1Cent=   200000004 NGrid=           0
         NMat0=    1 NMatS0=      1 NMatT0=    0 NMatD0=    1 NMtDS0=    0 NMtDT0=    0
 Symmetry not used in FoFCou.
 Keep R1 and R2 ints in memory in canonical form, NReq=470641351.
 Requested convergence on RMS density matrix=1.00D-08 within 128 cycles.
 Requested convergence on MAX density matrix=1.00D-06.
 Requested convergence on             energy=1.00D-06.
 Level shift goal  0.100 maximum shift  0.100.
 No special actions if energy rises.
 Dynamic level shift is on during FON iterations.
 Inv3:  Mode=1 IEnd=     4642608.
 Iteration    1 A*A^-1 deviation from unit magnitude is 3.77D-15 for   1239.
 Iteration    1 A*A^-1 deviation from orthogonality  is 1.35D-15 for   1221    170.
 Iteration    1 A^-1*A deviation from unit magnitude is 3.89D-15 for   1239.
 Iteration    1 A^-1*A deviation from orthogonality  is 1.46D-15 for    611    380.
 Error on total polarization charges =  0.02107
 SCF Done:  E(UM062X) =  -2805.09411460     A.U. after   15 cycles
            NFock= 15  Conv=0.67D-08     -V/T= 2.0014
 <Sx>= 0.0000 <Sy>= 0.0000 <Sz>= 0.5000 <S**2>= 0.7622 S= 0.5061
 <L.S>=  0.00000000000    
 SMD-CDS (non-electrostatic) energy       (kcal/mol) =      -3.02
 (included in total energy above)
 Annihilation of the first spin contaminant:
 S**2 before annihilation     0.7622,   after     0.7501
 D1PCM: PCM CHGder 1st derivatives, ID1Alg=3 FixD1E=F DoIter=F DoCFld=F I1PDM=0.
 Calling FoFJK, ICntrl=      2127 FMM=F ISym2X=0 I1Cent= 0 IOpClX= 1 NMat=1 NMatS=1 NMatT=0.
 -------------------------------------------------------------------
 Center     Atomic                   Forces (Hartrees/Bohr)
 Number     Number              X              Y              Z
 -------------------------------------------------------------------
      1        6          -0.001071546    0.000233154   -0.000449748
      2        6           0.000190691   -0.002059843    0.001167464
      3        1           0.000068447   -0.000114884    0.000068761
      4        6          -0.000535537    0.000102625   -0.000206352
      5        1          -0.000044012   -0.000033025    0.000009344
      6        6          -0.000389520    0.000139422   -0.000174578
      7        6          -0.000456980    0.000317887   -0.000283845
      8        1           0.000026632    0.000050976   -0.000012049
      9        6           0.002206138    0.001084054    0.000015524
     10        1          -0.000040980    0.000280837   -0.000158271
     11       35           0.000046665   -0.000001203    0.000023750
 -------------------------------------------------------------------
 Cartesian Forces:  Max     0.002206138 RMS     0.000655030

 GradGradGradGradGradGradGradGradGradGradGradGradGradGradGradGradGradGrad
 Berny optimization.
 Using GEDIIS/GDIIS optimizer.
 FormGI is forming the generalized inverse of G from B-inverse, IUseBI=4.
 Internal  Forces:  Max     0.001463585 RMS     0.000480097
 Search for a local minimum.
 Step number   2 out of a maximum of   57
 All quantities printed in internal units (Hartrees-Bohrs-Radians)
 Mixed Optimization -- En-DIIS/RFO-DIIS
 Update second derivatives using D2CorX and points    1    2
 DE= -4.65D-03 DEPred=-4.65D-03 R= 9.99D-01
 TightC=F SS=  1.41D+00  RLast= 1.97D-01 DXNew= 5.0454D-01 5.9108D-01
 Trust test= 9.99D-01 RLast= 1.97D-01 DXMaxT set to 5.05D-01
 ITU=  1  0
 Use linear search instead of GDIIS.
     Eigenvalues ---    0.01704   0.01799   0.01995   0.02521   0.02634
     Eigenvalues ---    0.02890   0.03093   0.03327   0.10773   0.11088
     Eigenvalues ---    0.11515   0.12248   0.15162   0.16396   0.18840
     Eigenvalues ---    0.19418   0.24391   0.25804   0.35714   0.36126
     Eigenvalues ---    0.36635   0.36824   0.40769   0.41572   0.46415
     Eigenvalues ---    0.47818   0.51749
 RFO step:  Lambda=-2.53558136D-05 EMin= 1.70400861D-02
 Quartic linear search produced a step of  0.03995.
 Iteration  1 RMS(Cart)=  0.00223831 RMS(Int)=  0.00001840
 Iteration  2 RMS(Cart)=  0.00000478 RMS(Int)=  0.00001798
 Iteration  3 RMS(Cart)=  0.00000000 RMS(Int)=  0.00001798
 Variable       Old X    -DE/DX   Delta X   Delta X   Delta X     New X
                                 (Linear)    (Quad)   (Total)
    R1        2.59279   0.00106  -0.00205   0.00411   0.00209   2.59489
    R2        2.59311   0.00107  -0.00213   0.00395   0.00185   2.59496
    R3        2.04842   0.00014  -0.00018   0.00017  -0.00001   2.04841
    R4        2.63996   0.00079   0.00045   0.00140   0.00185   2.64181
    R5        2.04673   0.00005   0.00002   0.00019   0.00021   2.04694
    R6        2.62682   0.00079   0.00010   0.00111   0.00118   2.62800
    R7        2.62666   0.00078   0.00006   0.00103   0.00107   2.62773
    R8        3.60307  -0.00005   0.00013  -0.00013   0.00000   3.60307
    R9        2.04666   0.00005   0.00002   0.00018   0.00020   2.04686
   R10        2.63960   0.00081   0.00051   0.00168   0.00219   2.64179
   R11        2.04843   0.00015  -0.00003   0.00003   0.00000   2.04843
    A1        2.18337   0.00146   0.00504   0.00222   0.00733   2.19069
    A2        2.13669   0.00045   0.00098   0.00031   0.00128   2.13797
    A3        2.04945  -0.00104  -0.00294  -0.00214  -0.00506   2.04439
    A4        2.09705   0.00059   0.00196   0.00183   0.00378   2.10083
    A5        2.09916  -0.00006  -0.00028   0.00037   0.00010   2.09927
    A6        2.07526   0.00009   0.00023   0.00038   0.00058   2.07585
    A7        2.10876  -0.00003   0.00005  -0.00076  -0.00069   2.10807
    A8        2.13344   0.00045   0.00038   0.00137   0.00170   2.13514
    A9        2.07505  -0.00023  -0.00017  -0.00077  -0.00091   2.07414
   A10        2.07469  -0.00022  -0.00021  -0.00060  -0.00079   2.07391
   A11        2.10837  -0.00003   0.00009  -0.00068  -0.00058   2.10779
   A12        2.07521   0.00010   0.00022   0.00060   0.00079   2.07600
   A13        2.09960  -0.00008  -0.00030   0.00009  -0.00020   2.09939
   A14        2.04963  -0.00106  -0.00293  -0.00243  -0.00534   2.04430
   A15        2.13335   0.00084   0.00196   0.00276   0.00471   2.13806
   A16        2.10021   0.00022   0.00096  -0.00033   0.00062   2.10083
    D1        3.14123   0.00000   0.00006   0.00008   0.00014   3.14137
    D2       -0.00085   0.00000   0.00005   0.00014   0.00020  -0.00066
    D3        0.00057   0.00000  -0.00007  -0.00009  -0.00015   0.00041
    D4       -3.14131  -0.00001  -0.00004  -0.00028  -0.00032   3.14155
    D5       -3.14099   0.00000  -0.00001  -0.00004  -0.00004  -3.14104
    D6        0.00023   0.00000  -0.00001  -0.00005  -0.00005   0.00017
    D7        0.00012   0.00000  -0.00001   0.00003   0.00002   0.00013
    D8        3.14134   0.00000  -0.00001   0.00002   0.00000   3.14134
    D9        0.00065   0.00000  -0.00003  -0.00009  -0.00012   0.00053
   D10       -3.13953   0.00000  -0.00002  -0.00017  -0.00020  -3.13973
   D11       -3.14132   0.00000  -0.00003  -0.00011  -0.00013  -3.14145
   D12        0.00169   0.00000  -0.00002  -0.00019  -0.00021   0.00148
   D13        3.14081   0.00000   0.00001   0.00006   0.00007   3.14089
   D14       -0.00094   0.00000   0.00001   0.00015   0.00016  -0.00078
   D15       -0.00219   0.00000   0.00001   0.00014   0.00015  -0.00204
   D16        3.13924   0.00001   0.00001   0.00023   0.00024   3.13948
   D17        0.00034   0.00000   0.00003  -0.00006  -0.00003   0.00031
   D18       -3.14097   0.00000   0.00001   0.00013   0.00013  -3.14084
   D19       -3.14141   0.00000   0.00004   0.00003   0.00006  -3.14135
   D20        0.00046   0.00001   0.00001   0.00021   0.00022   0.00068
         Item               Value     Threshold  Converged?
 Maximum Force            0.001464     0.000015     NO 
 RMS     Force            0.000480     0.000010     NO 
 Maximum Displacement     0.005993     0.000060     NO 
 RMS     Displacement     0.002236     0.000040     NO 
 Predicted change in Energy=-1.956797D-05
 GradGradGradGradGradGradGradGradGradGradGradGradGradGradGradGradGradGrad

                          Input orientation:                          
 ---------------------------------------------------------------------
 Center     Atomic      Atomic             Coordinates (Angstroms)
 Number     Number       Type             X           Y           Z
 ---------------------------------------------------------------------
      1          6           0        6.164870    7.016821    5.141500
      2          6           0        5.108531    6.156235    5.312062
      3          1           0        5.202259    5.217921    5.846641
      4          6           0        3.880718    6.537079    4.762696
      5          1           0        3.013361    5.896746    4.867467
      6          6           0        3.794031    7.747302    4.083115
      7          6           0        4.886432    8.593809    3.929283
      8          1           0        4.790389    9.530732    3.394333
      9          6           0        6.116354    8.217597    4.477086
     10          1           0        6.982862    8.860270    4.371503
     11         35           0        2.117374    8.265411    3.337626
 ---------------------------------------------------------------------
                    Distance matrix (angstroms):
                    1          2          3          4          5
     1  C    0.000000
     2  C    1.373155   0.000000
     3  H    2.158677   1.083971   0.000000
     4  C    2.364529   1.397988   2.159071   0.000000
     5  H    3.355842   2.157483   2.492160   1.083195   0.000000
     6  C    2.697158   2.402023   3.389823   1.390677   2.156202
     7  C    2.364479   2.811258   3.895206   2.436427   3.415074
     8  H    3.355821   3.894372   4.978332   3.414949   4.305091
     9  C    1.373194   2.441742   3.421886   2.811366   3.894523
    10  H    2.158775   3.421926   4.314312   3.895324   4.978493
    11  Br   4.603821   4.158610   5.009877   2.850849   2.958678
                    6          7          8          9         10
     6  C    0.000000
     7  C    1.390532   0.000000
     8  H    2.155870   1.083153   0.000000
     9  C    2.401994   1.397974   2.157513   0.000000
    10  H    3.389766   2.159069   2.492252   1.083981   0.000000
    11  Br   1.906665   2.850542   2.957916   4.158425   5.009565
                   11
    11  Br   0.000000
 Symmetry turned off by external request.
 Stoichiometry    C6H4Br(2)
 Framework group  C1[X(C6H4Br)]
 Deg. of freedom    27
 Full point group                 C1      NOp   1
 Rotational constants (GHZ):           5.6085511           1.0370261           0.8752009
 Standard basis: 6-311+G(d,p) (5D, 7F)
   204 basis functions,   342 primitive gaussians,   213 cartesian basis functions
    38 alpha electrons       37 beta electrons
       nuclear repulsion energy       419.4759392091 Hartrees.
 NAtoms=   11 NActive=   11 NUniq=   11 SFac= 1.00D+00 NAtFMM=   60 NAOKFM=F Big=F
 Integral buffers will be    131072 words long.
 Raffenetti 2 integral format.
 Two-electron integral symmetry is turned off.
 ------------------------------------------------------------------------------
 Polarizable Continuum Model (PCM)
 =================================
 Model                : PCM.
 Atomic radii         : SMD-Coulomb.
 Polarization charges : Total charges.
 Charge compensation  : None.
 Solution method      : Matrix inversion.
 Cavity type          : VdW (van der Waals Surface) (Alpha=1.000).
 Cavity algorithm     : GePol (No added spheres)
                        Default sphere list used, NSphG=   11.
                        Lebedev-Laikov grids with approx.  5.0 points / Ang**2.
                        Smoothing algorithm: York/Karplus (Gamma=1.0000).
                        Polarization charges: spherical gaussians, with
                                              point-specific exponents (IZeta= 3).
                        Self-potential: point-specific (ISelfS= 7).
                        Self-field    : sphere-specific E.n sum rule (ISelfD= 2).
 1st derivatives      : Analytical E(r).r(x)/FMM algorithm (CHGder, D1EAlg=3).
                        Cavity 1st derivative terms included.
 Solvent              : TetraHydroFuran, Eps=   7.425700 Eps(inf)=   1.974025
 ------------------------------------------------------------------------------
 Spheres list:
 ISph  on   Nord     Re0    Alpha      Xe            Ye            Ze
    1   C      1    1.8500  1.000      6.164870      7.016821      5.141500
    2   C      2    1.8500  1.000      5.108531      6.156235      5.312062
    3   H      3    1.2000  1.000      5.202259      5.217921      5.846641
    4   C      4    1.8500  1.000      3.880718      6.537079      4.762696
    5   H      5    1.2000  1.000      3.013361      5.896746      4.867467
    6   C      6    1.8500  1.000      3.794031      7.747302      4.083115
    7   C      7    1.8500  1.000      4.886432      8.593809      3.929283
    8   H      8    1.2000  1.000      4.790389      9.530732      3.394333
    9   C      9    1.8500  1.000      6.116354      8.217597      4.477086
   10   H     10    1.2000  1.000      6.982862      8.860270      4.371503
   11  Br     11    3.0600  1.000      2.117374      8.265411      3.337626
 ------------------------------------------------------------------------------
 ------------------------------------------------------------------------------
 Atomic radii for non-electrostatic terms: SMD-CDS.
 ------------------------------------------------------------------------------
 Nuclear repulsion after PCM non-electrostatic terms =      419.4711272731 Hartrees.
 One-electron integrals computed using PRISM.
 NBasis=   204 RedAO= T EigKep=  3.68D-06  NBF=   204
 NBsUse=   204 1.00D-06 EigRej= -1.00D+00 NBFU=   204
 Initial guess from the checkpoint file:  "4-br-ph-opt-freq-thf.chk"
 B after Tr=    -0.000411    0.000757   -0.000874
         Rot=    1.000000   -0.000007    0.000047    0.000055 Ang=  -0.01 deg.
 Initial guess <Sx>= 0.0000 <Sy>= 0.0000 <Sz>= 0.5000 <S**2>= 0.7623 S= 0.5061
 Keep R1 and R2 ints in memory in canonical form, NReq=470641351.
 Requested convergence on RMS density matrix=1.00D-08 within 128 cycles.
 Requested convergence on MAX density matrix=1.00D-06.
 Requested convergence on             energy=1.00D-06.
 Level shift goal  0.100 maximum shift  0.100.
 No special actions if energy rises.
 Dynamic level shift is on during FON iterations.
 Inv3:  Mode=1 IEnd=     4642608.
 Iteration    1 A*A^-1 deviation from unit magnitude is 2.78D-15 for   1238.
 Iteration    1 A*A^-1 deviation from orthogonality  is 2.01D-15 for    281     73.
 Iteration    1 A^-1*A deviation from unit magnitude is 2.78D-15 for   1238.
 Iteration    1 A^-1*A deviation from orthogonality  is 1.43D-15 for   1230   1110.
 Error on total polarization charges =  0.02108
 SCF Done:  E(UM062X) =  -2805.09413418     A.U. after   11 cycles
            NFock= 11  Conv=0.63D-08     -V/T= 2.0014
 <Sx>= 0.0000 <Sy>= 0.0000 <Sz>= 0.5000 <S**2>= 0.7623 S= 0.5061
 <L.S>=  0.00000000000    
 SMD-CDS (non-electrostatic) energy       (kcal/mol) =      -3.02
 (included in total energy above)
 Annihilation of the first spin contaminant:
 S**2 before annihilation     0.7623,   after     0.7501
 D1PCM: PCM CHGder 1st derivatives, ID1Alg=3 FixD1E=F DoIter=F DoCFld=F I1PDM=0.
 Calling FoFJK, ICntrl=      2127 FMM=F ISym2X=0 I1Cent= 0 IOpClX= 1 NMat=1 NMatS=1 NMatT=0.
 -------------------------------------------------------------------
 Center     Atomic                   Forces (Hartrees/Bohr)
 Number     Number              X              Y              Z
 -------------------------------------------------------------------
      1        6          -0.000158523    0.000029885   -0.000070584
      2        6           0.000186358    0.000094201   -0.000007735
      3        1          -0.000004732   -0.000025174   -0.000001946
      4        6          -0.000061064   -0.000034001    0.000001595
      5        1          -0.000012144    0.000009071   -0.000007962
      6        6          -0.000033274    0.000018970   -0.000013217
      7        6          -0.000010315    0.000065607   -0.000033272
      8        1           0.000000038    0.000006613    0.000006673
      9        6           0.000078766   -0.000193768    0.000124434
     10        1           0.000009497    0.000013864   -0.000008667
     11       35           0.000005394    0.000014732    0.000010681
 -------------------------------------------------------------------
 Cartesian Forces:  Max     0.000193768 RMS     0.000066903

 GradGradGradGradGradGradGradGradGradGradGradGradGradGradGradGradGradGrad
 Berny optimization.
 Using GEDIIS/GDIIS optimizer.
 FormGI is forming the generalized inverse of G from B-inverse, IUseBI=4.
 Internal  Forces:  Max     0.000149088 RMS     0.000036672
 Search for a local minimum.
 Step number   3 out of a maximum of   57
 All quantities printed in internal units (Hartrees-Bohrs-Radians)
 Mixed Optimization -- En-DIIS/RFO-DIIS
 Swapping is turned off.
 Update second derivatives using D2CorX and points    1    2    3
 DE= -1.96D-05 DEPred=-1.96D-05 R= 1.00D+00
 TightC=F SS=  1.41D+00  RLast= 1.31D-02 DXNew= 8.4853D-01 3.9286D-02
 Trust test= 1.00D+00 RLast= 1.31D-02 DXMaxT set to 5.05D-01
 ITU=  1  1  0
     Eigenvalues ---    0.01704   0.01799   0.01994   0.02521   0.02634
     Eigenvalues ---    0.02890   0.03093   0.03327   0.10745   0.11095
     Eigenvalues ---    0.11503   0.12221   0.15163   0.16396   0.18840
     Eigenvalues ---    0.19070   0.24188   0.25802   0.35693   0.36103
     Eigenvalues ---    0.36635   0.36824   0.41568   0.41599   0.46414
     Eigenvalues ---    0.48120   0.51825
 En-DIIS/RFO-DIIS/Sim-DIIS IScMMF=       -3 using points:     3    2
 RFO step:  Lambda=-1.79333926D-07.
 DidBck=F Rises=F RFO-DIIS coefs:    1.01559   -0.01559
 Iteration  1 RMS(Cart)=  0.00008918 RMS(Int)=  0.00000002
 Iteration  2 RMS(Cart)=  0.00000001 RMS(Int)=  0.00000002
 Variable       Old X    -DE/DX   Delta X   Delta X   Delta X     New X
                                 (Linear)    (Quad)   (Total)
    R1        2.59489  -0.00015   0.00003  -0.00041  -0.00038   2.59451
    R2        2.59496  -0.00014   0.00003  -0.00040  -0.00038   2.59458
    R3        2.04841   0.00002   0.00000   0.00006   0.00006   2.04847
    R4        2.64181   0.00006   0.00003   0.00014   0.00017   2.64198
    R5        2.04694   0.00000   0.00000   0.00000   0.00000   2.04694
    R6        2.62800   0.00004   0.00002   0.00009   0.00011   2.62811
    R7        2.62773   0.00003   0.00002   0.00008   0.00010   2.62782
    R8        3.60307   0.00000   0.00000  -0.00002  -0.00002   3.60305
    R9        2.04686   0.00000   0.00000   0.00000   0.00000   2.04687
   R10        2.64179   0.00007   0.00003   0.00016   0.00019   2.64198
   R11        2.04843   0.00002   0.00000   0.00006   0.00006   2.04848
    A1        2.19069   0.00006   0.00011   0.00015   0.00027   2.19096
    A2        2.13797  -0.00001   0.00002   0.00003   0.00005   2.13802
    A3        2.04439   0.00001  -0.00008   0.00005  -0.00002   2.04437
    A4        2.10083   0.00000   0.00006  -0.00009  -0.00003   2.10080
    A5        2.09927   0.00002   0.00000   0.00013   0.00014   2.09940
    A6        2.07585  -0.00003   0.00001  -0.00012  -0.00011   2.07574
    A7        2.10807   0.00001  -0.00001  -0.00001  -0.00002   2.10805
    A8        2.13514  -0.00002   0.00003  -0.00001   0.00001   2.13515
    A9        2.07414   0.00001  -0.00001   0.00000  -0.00002   2.07412
   A10        2.07391   0.00001  -0.00001   0.00002   0.00000   2.07391
   A11        2.10779   0.00001  -0.00001   0.00000  -0.00001   2.10778
   A12        2.07600  -0.00003   0.00001  -0.00012  -0.00011   2.07589
   A13        2.09939   0.00002   0.00000   0.00012   0.00012   2.09951
   A14        2.04430   0.00001  -0.00008   0.00005  -0.00004   2.04426
   A15        2.13806   0.00002   0.00007   0.00018   0.00025   2.13831
   A16        2.10083  -0.00002   0.00001  -0.00023  -0.00022   2.10061
    D1        3.14137   0.00000   0.00000   0.00000   0.00000   3.14136
    D2       -0.00066   0.00000   0.00000   0.00000   0.00000  -0.00066
    D3        0.00041   0.00000   0.00000  -0.00001  -0.00001   0.00040
    D4        3.14155   0.00000   0.00000   0.00000  -0.00001   3.14155
    D5       -3.14104   0.00000   0.00000   0.00000   0.00000  -3.14104
    D6        0.00017   0.00000   0.00000   0.00001   0.00001   0.00018
    D7        0.00013   0.00000   0.00000   0.00000   0.00000   0.00013
    D8        3.14134   0.00000   0.00000   0.00001   0.00001   3.14135
    D9        0.00053   0.00000   0.00000  -0.00001  -0.00001   0.00052
   D10       -3.13973   0.00000   0.00000  -0.00001  -0.00001  -3.13974
   D11       -3.14145   0.00000   0.00000   0.00000   0.00000  -3.14145
   D12        0.00148   0.00000   0.00000   0.00000   0.00000   0.00148
   D13        3.14089   0.00000   0.00000  -0.00001   0.00000   3.14088
   D14       -0.00078   0.00000   0.00000   0.00000   0.00000  -0.00078
   D15       -0.00204   0.00000   0.00000   0.00000   0.00000  -0.00204
   D16        3.13948   0.00000   0.00000   0.00000   0.00000   3.13948
   D17        0.00031   0.00000   0.00000   0.00001   0.00001   0.00032
   D18       -3.14084   0.00000   0.00000   0.00000   0.00001  -3.14083
   D19       -3.14135   0.00000   0.00000   0.00001   0.00001  -3.14134
   D20        0.00068   0.00000   0.00000   0.00001   0.00001   0.00069
         Item               Value     Threshold  Converged?
 Maximum Force            0.000149     0.000015     NO 
 RMS     Force            0.000037     0.000010     NO 
 Maximum Displacement     0.000307     0.000060     NO 
 RMS     Displacement     0.000089     0.000040     NO 
 Predicted change in Energy=-8.966707D-08
 GradGradGradGradGradGradGradGradGradGradGradGradGradGradGradGradGradGrad

                          Input orientation:                          
 ---------------------------------------------------------------------
 Center     Atomic      Atomic             Coordinates (Angstroms)
 Number     Number       Type             X           Y           Z
 ---------------------------------------------------------------------
      1          6           0        6.164708    7.016842    5.141438
      2          6           0        5.108616    6.156279    5.312060
      3          1           0        5.202415    5.217947    5.846661
      4          6           0        3.880670    6.537041    4.762710
      5          1           0        3.013288    5.896738    4.867459
      6          6           0        3.794005    7.747316    4.083104
      7          6           0        4.886452    8.593849    3.929267
      8          1           0        4.790404    9.530770    3.394309
      9          6           0        6.116396    8.217476    4.477167
     10          1           0        6.982866    8.860243    4.371526
     11         35           0        2.117361    8.265421    3.337611
 ---------------------------------------------------------------------
                    Distance matrix (angstroms):
                    1          2          3          4          5
     1  C    0.000000
     2  C    1.372956   0.000000
     3  H    2.158557   1.084004   0.000000
     4  C    2.364417   1.398075   2.159159   0.000000
     5  H    3.355763   2.157645   2.492363   1.083196   0.000000
     6  C    2.697016   2.402068   3.389906   1.390734   2.156240
     7  C    2.364371   2.811266   3.895247   2.436531   3.415165
     8  H    3.355742   3.894382   4.978376   3.415047   4.305171
     9  C    1.372995   2.441557   3.421703   2.811382   3.894540
    10  H    2.158767   3.421818   4.314203   3.895370   4.978540
    11  Br   4.603668   4.158669   5.009989   2.850871   2.958678
                    6          7          8          9         10
     6  C    0.000000
     7  C    1.390584   0.000000
     8  H    2.155911   1.083155   0.000000
     9  C    2.402049   1.398075   2.157678   0.000000
    10  H    3.389783   2.159053   2.492278   1.084010   0.000000
    11  Br   1.906653   2.850576   2.957951   4.158505   5.009584
                   11
    11  Br   0.000000
 Symmetry turned off by external request.
 Stoichiometry    C6H4Br(2)
 Framework group  C1[X(C6H4Br)]
 Deg. of freedom    27
 Full point group                 C1      NOp   1
 Rotational constants (GHZ):           5.6087076           1.0370221           0.8752019
 Standard basis: 6-311+G(d,p) (5D, 7F)
   204 basis functions,   342 primitive gaussians,   213 cartesian basis functions
    38 alpha electrons       37 beta electrons
       nuclear repulsion energy       419.4769422389 Hartrees.
 NAtoms=   11 NActive=   11 NUniq=   11 SFac= 1.00D+00 NAtFMM=   60 NAOKFM=F Big=F
 Integral buffers will be    131072 words long.
 Raffenetti 2 integral format.
 Two-electron integral symmetry is turned off.
 ------------------------------------------------------------------------------
 Polarizable Continuum Model (PCM)
 =================================
 Model                : PCM.
 Atomic radii         : SMD-Coulomb.
 Polarization charges : Total charges.
 Charge compensation  : None.
 Solution method      : Matrix inversion.
 Cavity type          : VdW (van der Waals Surface) (Alpha=1.000).
 Cavity algorithm     : GePol (No added spheres)
                        Default sphere list used, NSphG=   11.
                        Lebedev-Laikov grids with approx.  5.0 points / Ang**2.
                        Smoothing algorithm: York/Karplus (Gamma=1.0000).
                        Polarization charges: spherical gaussians, with
                                              point-specific exponents (IZeta= 3).
                        Self-potential: point-specific (ISelfS= 7).
                        Self-field    : sphere-specific E.n sum rule (ISelfD= 2).
 1st derivatives      : Analytical E(r).r(x)/FMM algorithm (CHGder, D1EAlg=3).
                        Cavity 1st derivative terms included.
 Solvent              : TetraHydroFuran, Eps=   7.425700 Eps(inf)=   1.974025
 ------------------------------------------------------------------------------
 Spheres list:
 ISph  on   Nord     Re0    Alpha      Xe            Ye            Ze
    1   C      1    1.8500  1.000      6.164708      7.016842      5.141438
    2   C      2    1.8500  1.000      5.108616      6.156279      5.312060
    3   H      3    1.2000  1.000      5.202415      5.217947      5.846661
    4   C      4    1.8500  1.000      3.880670      6.537041      4.762710
    5   H      5    1.2000  1.000      3.013288      5.896738      4.867459
    6   C      6    1.8500  1.000      3.794005      7.747316      4.083104
    7   C      7    1.8500  1.000      4.886452      8.593849      3.929267
    8   H      8    1.2000  1.000      4.790404      9.530770      3.394309
    9   C      9    1.8500  1.000      6.116396      8.217476      4.477167
   10   H     10    1.2000  1.000      6.982866      8.860243      4.371526
   11  Br     11    3.0600  1.000      2.117361      8.265421      3.337611
 ------------------------------------------------------------------------------
 ------------------------------------------------------------------------------
 Atomic radii for non-electrostatic terms: SMD-CDS.
 ------------------------------------------------------------------------------
[...]
    A4        2.10080   0.00000   0.00000  -0.00001  -0.00001   2.10079
    A5        2.09940   0.00000   0.00000  -0.00001  -0.00001   2.09940
    A6        2.07574   0.00000   0.00000   0.00000   0.00000   2.07574
    A7        2.10805   0.00000   0.00000   0.00000   0.00000   2.10805
    A8        2.13515   0.00000   0.00000   0.00000   0.00000   2.13516
    A9        2.07412   0.00000   0.00000   0.00000   0.00000   2.07412
   A10        2.07391   0.00000   0.00000   0.00000   0.00000   2.07391
   A11        2.10778   0.00000   0.00000   0.00000   0.00000   2.10778
   A12        2.07589   0.00000   0.00000   0.00000   0.00000   2.07589
   A13        2.09951   0.00000   0.00000  -0.00001  -0.00001   2.09951
   A14        2.04426   0.00000   0.00000   0.00001   0.00001   2.04427
   A15        2.13831   0.00000   0.00000  -0.00001  -0.00001   2.13831
   A16        2.10061   0.00000   0.00000   0.00000   0.00000   2.10061
    D1        3.14136   0.00000   0.00000   0.00000   0.00000   3.14136
    D2       -0.00066   0.00000   0.00000   0.00000   0.00000  -0.00066
    D3        0.00040   0.00000   0.00000   0.00000   0.00000   0.00041
    D4        3.14155   0.00000   0.00000   0.00000   0.00000   3.14155
    D5       -3.14104   0.00000   0.00000   0.00000   0.00000  -3.14104
    D6        0.00018   0.00000   0.00000   0.00000   0.00000   0.00018
    D7        0.00013   0.00000   0.00000   0.00000   0.00000   0.00013
    D8        3.14135   0.00000   0.00000   0.00000   0.00000   3.14135
    D9        0.00052   0.00000   0.00000   0.00000   0.00000   0.00052
   D10       -3.13974   0.00000   0.00000   0.00000   0.00000  -3.13974
   D11       -3.14145   0.00000   0.00000   0.00000   0.00000  -3.14145
   D12        0.00148   0.00000   0.00000   0.00000   0.00000   0.00148
   D13        3.14088   0.00000   0.00000   0.00000   0.00000   3.14088
   D14       -0.00078   0.00000   0.00000   0.00000   0.00000  -0.00078
   D15       -0.00204   0.00000   0.00000   0.00000   0.00000  -0.00204
   D16        3.13948   0.00000   0.00000   0.00000   0.00000   3.13948
   D17        0.00032   0.00000   0.00000   0.00000   0.00000   0.00032
   D18       -3.14083   0.00000   0.00000   0.00000   0.00000  -3.14083
   D19       -3.14134   0.00000   0.00000   0.00000   0.00000  -3.14134
   D20        0.00069   0.00000   0.00000   0.00000   0.00000   0.00069
         Item               Value     Threshold  Converged?
 Maximum Force            0.000012     0.000015     YES
 RMS     Force            0.000003     0.000010     YES
 Maximum Displacement     0.000031     0.000060     YES
 RMS     Displacement     0.000008     0.000040     YES
 Predicted change in Energy=-4.157898D-10
 Optimization completed.
    -- Stationary point found.
                           ----------------------------
                           !   Optimized Parameters   !
                           ! (Angstroms and Degrees)  !
 --------------------------                            --------------------------
 ! Name  Definition              Value          Derivative Info.                !
 --------------------------------------------------------------------------------
 ! R1    R(1,2)                  1.373          -DE/DX =    0.0                 !
 ! R2    R(1,9)                  1.373          -DE/DX =    0.0                 !
 ! R3    R(2,3)                  1.084          -DE/DX =    0.0                 !
 ! R4    R(2,4)                  1.3981         -DE/DX =    0.0                 !
 ! R5    R(4,5)                  1.0832         -DE/DX =    0.0                 !
 ! R6    R(4,6)                  1.3907         -DE/DX =    0.0                 !
 ! R7    R(6,7)                  1.3906         -DE/DX =    0.0                 !
 ! R8    R(6,11)                 1.9067         -DE/DX =    0.0                 !
 ! R9    R(7,8)                  1.0832         -DE/DX =    0.0                 !
 ! R10   R(7,9)                  1.3981         -DE/DX =    0.0                 !
 ! R11   R(9,10)                 1.084          -DE/DX =    0.0                 !
 ! A1    A(2,1,9)              125.5328         -DE/DX =    0.0                 !
 ! A2    A(1,2,3)              122.4995         -DE/DX =    0.0                 !
 ! A3    A(1,2,4)              117.1338         -DE/DX =    0.0                 !
 ! A4    A(3,2,4)              120.3667         -DE/DX =    0.0                 !
 ! A5    A(2,4,5)              120.2869         -DE/DX =    0.0                 !
 ! A6    A(2,4,6)              118.9309         -DE/DX =    0.0                 !
 ! A7    A(5,4,6)              120.7822         -DE/DX =    0.0                 !
 ! A8    A(4,6,7)              122.3353         -DE/DX =    0.0                 !
 ! A9    A(4,6,11)             118.8384         -DE/DX =    0.0                 !
 ! A10   A(7,6,11)             118.8262         -DE/DX =    0.0                 !
 ! A11   A(6,7,8)              120.767          -DE/DX =    0.0                 !
 ! A12   A(6,7,9)              118.9398         -DE/DX =    0.0                 !
 ! A13   A(8,7,9)              120.2932         -DE/DX =    0.0                 !
 ! A14   A(1,9,7)              117.1275         -DE/DX =    0.0                 !
 ! A15   A(1,9,10)             122.5163         -DE/DX =    0.0                 !
 ! A16   A(7,9,10)             120.3562         -DE/DX =    0.0                 !
 ! D1    D(9,1,2,3)            179.9869         -DE/DX =    0.0                 !
 ! D2    D(9,1,2,4)             -0.0377         -DE/DX =    0.0                 !
 ! D3    D(2,1,9,7)              0.0231         -DE/DX =    0.0                 !
 ! D4    D(2,1,9,10)           179.9975         -DE/DX =    0.0                 !
 ! D5    D(1,2,4,5)           -179.9683         -DE/DX =    0.0                 !
 ! D6    D(1,2,4,6)              0.0103         -DE/DX =    0.0                 !
 ! D7    D(3,2,4,5)              0.0077         -DE/DX =    0.0                 !
 ! D8    D(3,2,4,6)            179.9862         -DE/DX =    0.0                 !
 ! D9    D(2,4,6,7)              0.0298         -DE/DX =    0.0                 !
 ! D10   D(2,4,6,11)          -179.8939         -DE/DX =    0.0                 !
 ! D11   D(5,4,6,7)           -179.9917         -DE/DX =    0.0                 !
 ! D12   D(5,4,6,11)             0.0846         -DE/DX =    0.0                 !
 ! D13   D(4,6,7,8)            179.9593         -DE/DX =    0.0                 !
 ! D14   D(4,6,7,9)             -0.0446         -DE/DX =    0.0                 !
 ! D15   D(11,6,7,8)            -0.117          -DE/DX =    0.0                 !
 ! D16   D(11,6,7,9)           179.8791         -DE/DX =    0.0                 !
 ! D17   D(6,7,9,1)              0.0183         -DE/DX =    0.0                 !
 ! D18   D(6,7,9,10)          -179.9566         -DE/DX =    0.0                 !
 ! D19   D(8,7,9,1)           -179.9856         -DE/DX =    0.0                 !
 ! D20   D(8,7,9,10)             0.0395         -DE/DX =    0.0                 !
 --------------------------------------------------------------------------------
 GradGradGradGradGradGradGradGradGradGradGradGradGradGradGradGradGradGrad


 ----------------------------------------------------------------------

 Electric dipole moment (input orientation):
 (Debye = 10**-18 statcoulomb cm , SI units = C m)
                  (au)            (Debye)         (10**-30 SI)
   Tot        0.513163D+00      0.130433D+01      0.435078D+01
   x          0.451160D+00      0.114674D+01      0.382510D+01
   y         -0.139173D+00     -0.353744D+00     -0.117996D+01
   z          0.201050D+00      0.511017D+00      0.170457D+01

 Dipole polarizability, Alpha (input orientation).
 (esu units = cm**3 , SI units = C**2 m**2 J**-1)
 Alpha(0;0):
               (au)            (10**-24 esu)      (10**-40 SI)
   iso        0.106536D+03      0.157870D+02      0.175654D+02
   aniso      0.694425D+02      0.102903D+02      0.114495D+02
   xx         0.132599D+03      0.196491D+02      0.218626D+02
   yx        -0.524095D+00     -0.776629D-01     -0.864117D-01
   yy         0.105978D+03      0.157043D+02      0.174734D+02
   zx         0.197422D+02      0.292550D+01      0.325506D+01
   zy        -0.235015D+02     -0.348256D+01     -0.387488D+01
   zz         0.810301D+02      0.120074D+02      0.133601D+02

 ----------------------------------------------------------------------

 Dipole orientation:
     6         -1.09051557         17.18996860         10.45242756
     6         -2.53995562         15.39522447          9.26520176
     1         -3.65311065         14.02009705         10.29774392
     6         -2.53576001         15.39764592          6.62322685
     1         -3.64589127         14.02446887          5.58786779
     6         -1.08765802         17.18750505          5.35580708
     6          0.35990091         18.97751038          6.62305056
     1          1.47130162         20.34919970          5.58723178
     6          0.36121432         18.98284893          9.26502386
     1          1.47285724         20.35968345         10.29694307
    35         -1.09013699         17.18996287          1.75275673

 Electric dipole moment (dipole orientation):
 (Debye = 10**-18 statcoulomb cm , SI units = C m)
                  (au)            (Debye)         (10**-30 SI)
   Tot        0.513163D+00      0.130433D+01      0.435078D+01
   x          0.000000D+00      0.000000D+00      0.000000D+00
   y          0.000000D+00      0.000000D+00      0.000000D+00
   z          0.513163D+00      0.130433D+01      0.435078D+01

 Dipole polarizability, Alpha (dipole orientation).
 (esu units = cm**3 , SI units = C**2 m**2 J**-1)
 Alpha(0;0):
               (au)            (10**-24 esu)      (10**-40 SI)
   iso        0.106536D+03      0.157870D+02      0.175654D+02
   aniso      0.694425D+02      0.102903D+02      0.114495D+02
   xx         0.835223D+02      0.123767D+02      0.137710D+02
   yx         0.256255D+02      0.379730D+01      0.422507D+01
   yy         0.945151D+02      0.140057D+02      0.155834D+02
   zx        -0.178305D-01     -0.264221D-02     -0.293985D-02
   zy        -0.132367D-01     -0.196147D-02     -0.218243D-02
   zz         0.141570D+03      0.209785D+02      0.233417D+02

 ----------------------------------------------------------------------
 Unable to Open any file for archive entry.
 1\1\GINC-CN017\Freq\UM062X\6-311+G(d,p)\C6H4Br1(2)\UNKNOWN\05-May-2025
 \0\\#N Geom=AllCheck Guess=TCheck SCRF=Check GenChk UM062X/6-311+G(d,p
 ) Freq\\4-br-ph-opt-freq-thf\\0,2\C,6.1647075612,7.0168416181,5.141438
 3451\C,5.1086159209,6.1562793105,5.3120596131\H,5.2024152063,5.2179466
 838,5.846660824\C,3.8806702945,6.5370409079,4.7627103825\H,3.013287543
 8,5.8967383502,4.8674591813\C,3.7940049882,7.7473161669,4.0831036309\C
 ,4.8864518283,8.5938489199,3.9292670203\H,4.7904036622,9.5307695395,3.
 3943092497\C,6.1163964322,8.2174763927,4.4771665958\H,6.9828660817,8.8
 602428308,4.3715262545\Br,2.1173614807,8.2654212798,3.3376109028\\Vers
 ion=AS64L-G16RevC.01\HF=-2805.0941343\S2=0.762282\S2-1=0.\S2A=0.750068
 \RMSD=5.426e-09\RMSF=7.611e-06\ZeroPoint=0.0778134\Thermal=0.0834725\E
 Tot=-2805.0106618\HTot=-2805.0097176\GTot=-2805.0477618\Dipole=0.45116
 04,-0.1391735,0.2010498\DipoleDeriv=-0.0934923,0.062378,-0.0231756,0.0
 608586,0.001491,-0.0520148,-0.0250115,-0.0502866,-0.1069886,-0.0902638
 ,-0.0414445,0.0241822,0.085151,-0.0413701,-0.0053807,-0.043075,-0.0438
 415,-0.0832205,0.1229671,0.0026277,-0.0233695,0.0056213,0.0561473,0.07
 97786,-0.0254102,0.079583,0.1514827,-0.1987906,0.1097883,-0.072254,0.0
 350038,-0.0743486,-0.0364793,-0.0296203,-0.0143325,-0.1590127,0.026603
 ,-0.0653578,-0.0057225,-0.0228594,0.1130094,0.0278085,-0.0277509,0.016
 4721,0.158431,0.9832503,-0.3213598,0.4641071,-0.3226287,0.0405283,-0.1
 398536,0.461619,-0.1385812,0.1520311,-0.2152964,0.024443,-0.0270203,0.
 0990992,-0.0704958,-0.02088,-0.069031,-0.0421644,-0.1564813,0.1058397,
 0.0444821,-0.0438325,0.0023943,0.0645865,0.0603894,-0.0205317,0.070340
 6,0.1328105,-0.0784043,0.0938029,-0.0482155,-0.0329643,-0.0440653,-0.0
 374353,0.0225314,-0.000797,-0.0887285,0.0472268,-0.0592268,-0.010458,-
 0.060991,0.1024826,0.0368733,-0.0096328,0.0373981,0.178072,-0.6096396,
 0.149867,-0.2342414,0.1513151,-0.1479652,0.087194,-0.2340869,0.0862094
 ,-0.1783957\Polar=132.598937,-0.5240954,105.9781891,19.7422448,-23.501
 5106,81.0301417\Quadrupole=4.161562,-3.0065238,-1.1550382,8.2746294,4.
 4267125,-1.0550393\PG=C01 [X(C6H4Br1)]\NImag=0\\0.39447244,0.14475993,
 0.52723546,0.01109302,-0.20477914,0.18889747,-0.24609126,-0.11361178,0
 .00750552,0.58782946,-0.14596513,-0.19871298,0.03809349,0.07033748,0.6
 1904886,0.02503292,0.04710961,-0.07146305,0.09112181,-0.24696634,0.285
 92155,0.00548029,-0.01925368,0.01211301,-0.05406937,0.01754285,-0.0148
 0278,0.05400991,-0.00018859,-0.01290922,0.00664288,0.02227268,-0.26677
 148,0.13112564,-0.01878932,0.27933709,0.00181480,0.00129713,-0.0007474
 3,-0.01737689,0.12981740,-0.11151572,0.01895620,-0.14374119,0.10699043
 ,-0.06261557,-0.05115447,0.00681283,-0.27234490,0.08052067,-0.10303027
 ,0.00125802,-0.00169161,-0.00033818,0.68179456,0.00559726,0.05383949,-
 0.02089922,0.00377231,-0.12346781,0.03552150,0.02441577,-0.00214618,0.
 01108884,0.11231043,0.57319239,-0.02406932,-0.03675434,0.02568095,-0.0
 6139969,0.05695527,-0.10775813,-0.01446823,0.00378572,-0.00038378,0.09
 392595,-0.20993564,0.26740252,-0.00386720,0.00046164,-0.00334599,-0.01
 577157,-0.01555324,0.00270393,0.00096132,0.00046260,0.00121387,-0.2418
 4490,-0.14294486,0.02030190,0.25319658,0.00178594,0.00251198,0.0030224
 6,0.00931394,0.00866884,0.00047735,-0.00008127,-0.00048153,-0.00208178
 ,-0.14016313,-0.15450016,0.02453877,0.15001100,0.15874896,-0.00403048,
 0.00267157,0.00460187,-0.01078418,-0.00646632,0.00523523,0.00150048,-0
 .00193115,-0.00280812,0.01877897,0.02373402,-0.04453999,-0.01773476,-0
 .03074368,0.03645072,-0.01813054,-0.03063774,0.01318195,0.02514355,0.0
 2652940,-0.00895667,-0.00257930,0.00031492,-0.00289761,-0.10755282,0.0
 2416365,-0.02639378,0.00429404,-0.02094640,0.01189992,0.49303392,-0.03
 069544,-0.06664209,0.02443260,0.08617183,0.00324595,0.02536044,0.00019
 745,0.00293692,0.00236824,-0.03864348,-0.26987354,0.10281723,0.0048137
 3,-0.01114588,0.00867931,0.09913035,0.52549073,0.01316021,0.02441330,-
 0.01529733,-0.04126737,0.00869232,-0.01048517,-0.00283568,0.00240405,0
 .00510492,0.00755593,0.12039107,-0.12303796,-0.00206837,0.00145669,0.0
 0098011,0.05193474,-0.19495061,0.23313874,0.03003069,0.08609568,-0.041
 77880,-0.07448938,-0.01545942,-0.01206691,-0.00130230,-0.00036937,-0.0
 0006154,0.04336699,-0.06177295,0.04462104,0.00144097,0.00086367,-0.001
 74303,-0.22893661,-0.08083067,-0.00356927,0.61104752,0.02935324,-0.004
 66731,0.01741753,-0.01850234,-0.00172011,-0.00487012,0.00008932,0.0002
 1665,-0.00028971,-0.01303234,-0.03632432,0.01799792,0.00047423,-0.0022
 1092,0.00453745,-0.14362898,-0.19324745,0.03201710,0.05049958,0.617429
 68,-0.01095948,0.03329247,-0.00863624,-0.01046374,-0.00402121,-0.00196
 014,-0.00030611,-0.00042600,-0.00023733,0.01818110,0.00434636,0.006310
 15,-0.00151680,0.00465072,0.00299567,0.03034686,0.04958592,-0.07829003
 ,0.10797747,-0.25098907,0.29402933,-0.00361747,0.00198720,-0.00409430,
 -0.00078272,-0.00055248,0.00042531,0.00007799,0.00013222,0.00012604,-0
 .00323730,-0.00318708,-0.00083509,0.00044935,-0.00105697,0.00061231,0.
 00377633,-0.02139716,0.01200126,-0.05591009,0.02110820,-0.01683149,0.0
 5767105,0.00069531,0.00235610,0.00281732,-0.00014466,0.00027547,-0.000
 85481,0.00009030,-0.00018712,-0.00021498,-0.00359545,0.00075795,0.0018
 1357,0.00018535,-0.00035988,0.00040525,0.00437130,-0.01079276,0.008341
 34,0.01833889,-0.27117017,0.13197610,-0.01929646,0.28091179,-0.0033964
 4,0.00315205,0.00451487,0.00021713,-0.00096792,-0.00063306,0.00014859,
 -0.00020327,-0.00047773,-0.00062384,0.00193025,0.00471343,-0.00005789,
 0.00005786,0.00024501,-0.00195494,0.00110516,0.00121359,-0.01533805,0.
 13282411,-0.11351253,0.01982042,-0.14405964,0.10854186,-0.10059824,-0.
 01987431,-0.00267380,0.04608702,-0.02067236,0.02287915,-0.00320761,-0.
 00244635,-0.00120457,-0.02020668,0.03167125,-0.02249417,0.00053799,0.0
 0059360,0.00018061,-0.05606859,-0.04399533,0.00660333,-0.27444685,0.07
 864164,-0.10259713,0.00031423,-0.00163515,-0.00037655,0.64604476,0.012
 48488,-0.29039298,0.13235268,-0.05618400,-0.03604373,0.00619438,-0.004
 35720,0.00057259,0.00160962,0.02865197,-0.03600408,0.02686307,0.001001
 37,-0.00055331,-0.00009226,0.01555672,0.05461190,-0.02208773,0.0018780
 0,-0.12222072,0.03426386,0.02325061,-0.00151925,0.00989520,0.12103420,
 0.58292368,-0.02019175,0.12335107,-0.12565880,0.04215291,0.01607008,0.
 00731100,-0.00015978,0.00215758,0.00459672,-0.02084375,0.02768910,-0.0
 2203498,-0.00004829,-0.00019490,-0.00112127,-0.02576528,-0.03876059,0.
 01954735,-0.06109149,0.05575408,-0.10700154,-0.01382678,0.00294158,-0.
 00072378,0.07997174,-0.21380834,0.26462926,0.00598355,0.00024931,0.001
 69274,0.00139842,0.00153981,-0.00207831,0.00024811,0.00023137,0.000025
 05,-0.00028830,0.00052510,-0.00025703,-0.00006615,0.00001001,0.0001544
 7,-0.00152088,0.00120259,-0.00310020,-0.01665340,-0.01721283,0.0030686
 2,0.00107665,0.00056476,0.00119661,-0.23825767,-0.13744776,0.01783326,
 0.24925897,-0.01883131,-0.01325643,0.00160884,-0.00036039,-0.00233244,
 0.00430665,-0.00074483,-0.00039188,-0.00014948,0.00097146,-0.00042375,
 0.00029566,-0.00003132,-0.00009791,-0.00029792,0.00112083,0.00226041,0
 .00298197,0.00889413,0.00919518,0.00059931,0.00002016,-0.00055455,-0.0
 0201195,-0.14219613,-0.15125443,0.02278100,0.15052963,0.15683970,0.012
 04355,0.00695235,-0.00094378,-0.00103510,0.00485218,0.00289588,0.00055
 244,0.00012230,-0.00019532,-0.00050532,0.00017386,-0.00061742,0.000174
 70,-0.00028601,-0.00042810,-0.00303711,0.00300727,0.00472333,-0.011035
 10,-0.00671137,0.00625211,0.00147842,-0.00186538,-0.00284766,0.0203429
 9,0.02409531,-0.04318767,-0.01833677,-0.03022970,0.03455934,-0.0010467
 0,0.00097823,-0.00050619,0.00309074,0.00173242,-0.00122818,-0.00087707
 ,0.00007146,-0.00025716,-0.01832912,0.00544913,-0.00893159,0.00066957,
 -0.00033040,0.00116568,-0.11145909,0.02404613,-0.03841457,-0.03414754,
 0.01221027,-0.01689930,0.00018198,0.00042580,0.00036497,-0.00019836,-0
 .00586878,0.00196923,-0.00117931,0.00062777,-0.00064270,0.16329489,0.0
 0100391,0.00063799,-0.00070944,-0.00306509,-0.00219059,0.00259570,0.00
 089062,-0.00017584,0.00029591,0.02582595,-0.00504998,0.01162276,0.0011
 1951,-0.00058018,-0.00049627,0.02402596,-0.03684419,0.01634050,-0.0081
 3753,0.00471951,-0.00327845,-0.00100825,0.00028242,-0.00172185,-0.0011
 2105,-0.00011967,0.00201934,-0.00019199,0.00001612,-0.00011081,-0.0393
 4203,0.03930440,-0.00049702,-0.00070607,-0.00094853,0.00132959,0.00394
 105,0.00245161,-0.00069813,0.00006343,-0.00032664,-0.01991342,0.005959
 86,-0.00573479,0.00037770,-0.00089749,-0.00161113,-0.03835807,0.016355
 03,-0.03759756,-0.00591431,0.00231208,0.00005054,0.00112389,-0.0013003
 3,-0.00103401,-0.00063161,0.00071421,0.00364371,-0.00019844,0.00011561
 ,-0.00021071,0.06337981,-0.02655739,0.04131752\\-0.00001263,0.00001283
 ,-0.00000118,0.00001439,0.00001274,0.00000586,0.00000802,0.00000763,0.
 00001222,0.00000362,-0.00000273,0.00000299,0.00000561,-0.00000567,0.00
 000418,-0.00000158,-0.00000582,-0.00000351,-0.00000267,-0.00000163,-0.
 00000504,-0.00000706,-0.00000488,-0.00000989,-0.00000121,-0.00000530,0
 .00000570,-0.00000509,0.00000957,-0.00000260,-0.00000140,-0.00001674,-
 0.00000873\\\@
 The archive entry for this job was punched.


 In the beginning there was nothing, which exploded.
 Job cpu time:       0 days  0 hours 29 minutes 33.9 seconds.
 Elapsed time:       0 days  0 hours  0 minutes 58.7 seconds.
 File lengths (MBytes):  RWF=    138 Int=      0 D2E=      0 Chk=     12 Scr=      1
 Normal termination of Gaussian 16 at Mon May  5 08:18:05 2025.
