/home/tahminaafroz
cn008.cluster.local
tahminaafroz
Tue May 27 04:24:06 CDT 2025
 Entering Gaussian System, Link 0=g16
 Initial command:
 /home/apps/g16/l1.exe "/tmp/4-br-ph-anion-opt-freq-thf/Gau-2420905.inp" -scrdir="/tmp/4-br-ph-anion-opt-freq-thf/"
 Entering Link 1 = /home/apps/g16/l1.exe PID=   2420906.
  
 Copyright (c) 1988-2019, Gaussian, Inc.  All Rights Reserved.
  
 This is part of the Gaussian(R) 16 program.  It is based on
 the Gaussian(R) 09 system (copyright 2009, Gaussian, Inc.),
 the Gaussian(R) 03 system (copyright 2003, Gaussian, Inc.),
 the Gaussian(R) 98 system (copyright 1998, Gaussian, Inc.),
 the Gaussian(R) 94 system (copyright 1995, Gaussian, Inc.),
 the Gaussian 92(TM) system (copyright 1992, Gaussian, Inc.),
 the Gaussian 90(TM) system (copyright 1990, Gaussian, Inc.),
 the Gaussian 88(TM) system (copyright 1988, Gaussian, Inc.),
 the Gaussian 86(TM) system (copyright 1986, Carnegie Mellon
 University), and the Gaussian 82(TM) system (copyright 1983,
 Carnegie Mellon University). Gaussian is a federally registered
 trademark of Gaussian, Inc.
  
 This software contains proprietary and confidential information,
 including trade secrets, belonging to Gaussian, Inc.
  
 This software is provided under written license and may be
 used, copied, transmitted, or stored only in accord with that
 written license.
  
 The following legend is applicable only to US Government
 contracts under FAR:
  
                    RESTRICTED RIGHTS LEGEND
  
 Use, reproduction and disclosure by the US Government is
 subject to restrictions as set forth in subparagraphs (a)
 and (c) of the Commercial Computer Software - Restricted
 Rights clause in FAR 52.227-19.
  
 Gaussian, Inc.
 340 Quinnipiac St., Bldg. 40, Wallingford CT 06492
  
  
 ---------------------------------------------------------------
 Warning -- This program may not be used in any manner that
 competes with the business of Gaussian, Inc. or will provide
 assistance to any competitor of Gaussian, Inc.  The licensee
 of this program is prohibited from giving any competitor of
 Gaussian, Inc. access to this program.  By using this program,
 the user acknowledges that Gaussian, Inc. is engaged in the
 business of creating and licensing software in the field of
 computational chemistry and represents and warrants to the
 licensee that it is not a competitor of Gaussian, Inc. and that
 it will not use this program in any manner prohibited above.
 ---------------------------------------------------------------
  

 Cite this work as:
 Gaussian 16, Revision C.01,
 M. J. Frisch, G. W. Trucks, H. B. Schlegel, G. E. Scuseria, 
 M. A. Robb, J. R. Cheeseman, G. Scalmani, V. Barone, 
 G. A. Petersson, H. Nakatsuji, X. Li, M. Caricato, A. V. Marenich, 
 J. Bloino, B. G. Janesko, R. Gomperts, B. Mennucci, H. P. Hratchian, 
 J. V. Ortiz, A. F. Izmaylov, J. L. Sonnenberg, D. Williams-Young, 
 F. Ding, F. Lipparini, F. Egidi, J. Goings, B. Peng, A. Petrone, 
 T. Henderson, D. Ranasinghe, V. G. Zakrzewski, J. Gao, N. Rega, 
 G. Zheng, W. Liang, M. Hada, M. Ehara, K. Toyota, R. Fukuda, 
 J. Hasegawa, M. Ishida, T. Nakajima, Y. Honda, O. Kitao, H. Nakai, 
 T. Vreven, K. Throssell, J. A. Montgomery, Jr., J. E. Peralta, 
 F. Ogliaro, M. J. Bearpark, J. J. Heyd, E. N. Brothers, K. N. Kudin, 
 V. N. Staroverov, T. A. Keith, R. Kobayashi, J. Normand, 
 K. Raghavachari, A. P. Rendell, J. C. Burant, S. S. Iyengar, 
 J. Tomasi, M. Cossi, J. M. Millam, M. Klene, C. Adamo, R. Cammi, 
 J. W. Ochterski, R. L. Martin, K. Morokuma, O. Farkas, 
 J. B. Foresman, and D. J. Fox, Gaussian, Inc., Wallingford CT, 2019.
 
 ******************************************
 Gaussian 16:  AS64L-G16RevC.01  3-Jul-2019
                27-May-2025 
 ******************************************
 %mem=20GB
 %nprocshared=32
 Will use up to   32 processors via shared memory.
 %chk=4-br-ph-anion-opt-freq-thf.chk
 ----------------------------------------------------------------------
 # opt=(calcfc,tight) freq 6-311+g(d,p) scrf=(smd,solvent=thf) nosymm s
 cf=(qc,fermi,xqc) geom=connectivity int=ultrafine m062x
 ----------------------------------------------------------------------
 1/7=10,10=4,18=20,19=15,26=6,38=1,57=2/1,3;
 2/9=110,12=2,15=1,17=6,18=5,40=1/2;
 3/5=4,6=6,7=111,11=2,25=1,30=1,70=32201,71=2,72=20,74=-55,75=-5,140=1/1,2,3;
 4//1;
 5/5=2,22=13,38=5,53=20/2;
 8/6=4,10=90,11=11/1;
 11/6=1,8=1,9=11,15=111,16=1,31=1/1,2,10;
 10/6=1,13=1,31=1/2;
 6/7=2,8=2,9=2,10=2,28=1/1;
 7/10=1,25=1,30=1/1,2,3,16;
 1/7=10,10=4,18=20,19=15,26=6/3(2);
 2/9=110,15=1/2;
 99//99;
 2/9=110,15=1/2;
 3/5=4,6=6,7=111,11=2,25=1,30=1,70=32205,71=1,72=20,74=-55,75=-5/1,2,3;
 4/5=5,16=3,69=1/1;
 5/5=2,22=13,38=5,53=20/2;
 7/30=1/1,2,3,16;
 1/7=10,18=20,19=15,26=6/3(-5);
 2/9=110,15=1/2;
 6/7=2,8=2,9=2,10=2,19=2,28=1/1;
 99/9=1/99;
 --------------------------
 4-br-ph-anion-opt-freq-thf
 --------------------------
 Symbolic Z-matrix:
 Charge = -1 Multiplicity = 1
 C                     6.16471   7.01684   5.14144 
 C                     5.10862   6.15628   5.31206 
 H                     5.20242   5.21795   5.84666 
 C                     3.88067   6.53704   4.76271 
 H                     3.01329   5.89674   4.86746 
 C                     3.79401   7.74732   4.0831 
 C                     4.88645   8.59385   3.92927 
 H                     4.7904    9.53077   3.39431 
 C                     6.1164    8.21748   4.47717 
 H                     6.98287   8.86024   4.37153 
 Br                    2.11736   8.26542   3.33761 
 

 GradGradGradGradGradGradGradGradGradGradGradGradGradGradGradGradGradGrad
 Berny optimization.
 Initialization pass.
                           ----------------------------
                           !    Initial Parameters    !
                           ! (Angstroms and Degrees)  !
 --------------------------                            --------------------------
 ! Name  Definition              Value          Derivative Info.                !
 --------------------------------------------------------------------------------
 ! R1    R(1,2)                  1.373          calculate D2E/DX2 analytically  !
 ! R2    R(1,9)                  1.373          calculate D2E/DX2 analytically  !
 ! R3    R(2,3)                  1.084          calculate D2E/DX2 analytically  !
 ! R4    R(2,4)                  1.3981         calculate D2E/DX2 analytically  !
 ! R5    R(4,5)                  1.0832         calculate D2E/DX2 analytically  !
 ! R6    R(4,6)                  1.3907         calculate D2E/DX2 analytically  !
 ! R7    R(6,7)                  1.3906         calculate D2E/DX2 analytically  !
 ! R8    R(6,11)                 1.9067         calculate D2E/DX2 analytically  !
 ! R9    R(7,8)                  1.0832         calculate D2E/DX2 analytically  !
 ! R10   R(7,9)                  1.3981         calculate D2E/DX2 analytically  !
 ! R11   R(9,10)                 1.084          calculate D2E/DX2 analytically  !
 ! A1    A(2,1,9)              125.5328         calculate D2E/DX2 analytically  !
 ! A2    A(1,2,3)              122.4996         calculate D2E/DX2 analytically  !
 ! A3    A(1,2,4)              117.1337         calculate D2E/DX2 analytically  !
 ! A4    A(3,2,4)              120.3667         calculate D2E/DX2 analytically  !
 ! A5    A(2,4,5)              120.2869         calculate D2E/DX2 analytically  !
 ! A6    A(2,4,6)              118.9309         calculate D2E/DX2 analytically  !
 ! A7    A(5,4,6)              120.7823         calculate D2E/DX2 analytically  !
 ! A8    A(4,6,7)              122.3353         calculate D2E/DX2 analytically  !
 ! A9    A(4,6,11)             118.8384         calculate D2E/DX2 analytically  !
 ! A10   A(7,6,11)             118.8262         calculate D2E/DX2 analytically  !
 ! A11   A(6,7,8)              120.767          calculate D2E/DX2 analytically  !
 ! A12   A(6,7,9)              118.9397         calculate D2E/DX2 analytically  !
 ! A13   A(8,7,9)              120.2933         calculate D2E/DX2 analytically  !
 ! A14   A(1,9,7)              117.1275         calculate D2E/DX2 analytically  !
 ! A15   A(1,9,10)             122.5163         calculate D2E/DX2 analytically  !
 ! A16   A(7,9,10)             120.3562         calculate D2E/DX2 analytically  !
 ! D1    D(9,1,2,3)            179.987          calculate D2E/DX2 analytically  !
 ! D2    D(9,1,2,4)             -0.0376         calculate D2E/DX2 analytically  !
 ! D3    D(2,1,9,7)              0.0231         calculate D2E/DX2 analytically  !
 ! D4    D(2,1,9,10)           179.9975         calculate D2E/DX2 analytically  !
 ! D5    D(1,2,4,5)           -179.9683         calculate D2E/DX2 analytically  !
 ! D6    D(1,2,4,6)              0.0102         calculate D2E/DX2 analytically  !
 ! D7    D(3,2,4,5)              0.0077         calculate D2E/DX2 analytically  !
 ! D8    D(3,2,4,6)            179.9862         calculate D2E/DX2 analytically  !
 ! D9    D(2,4,6,7)              0.0299         calculate D2E/DX2 analytically  !
 ! D10   D(2,4,6,11)          -179.8939         calculate D2E/DX2 analytically  !
 ! D11   D(5,4,6,7)           -179.9917         calculate D2E/DX2 analytically  !
 ! D12   D(5,4,6,11)             0.0846         calculate D2E/DX2 analytically  !
 ! D13   D(4,6,7,8)            179.9593         calculate D2E/DX2 analytically  !
 ! D14   D(4,6,7,9)             -0.0447         calculate D2E/DX2 analytically  !
 ! D15   D(11,6,7,8)            -0.117          calculate D2E/DX2 analytically  !
 ! D16   D(11,6,7,9)           179.8791         calculate D2E/DX2 analytically  !
 ! D17   D(6,7,9,1)              0.0184         calculate D2E/DX2 analytically  !
 ! D18   D(6,7,9,10)          -179.9566         calculate D2E/DX2 analytically  !
 ! D19   D(8,7,9,1)           -179.9855         calculate D2E/DX2 analytically  !
 ! D20   D(8,7,9,10)             0.0395         calculate D2E/DX2 analytically  !
 --------------------------------------------------------------------------------
 Trust Radius=3.00D-01 FncErr=5.00D-06 GrdErr=5.00D-06 EigMax=2.50D+02 EigMin=1.00D-04
 Number of steps in this run=     57 maximum allowed number of steps=    100.
 GradGradGradGradGradGradGradGradGradGradGradGradGradGradGradGradGradGrad

                          Input orientation:                          
 ---------------------------------------------------------------------
 Center     Atomic      Atomic             Coordinates (Angstroms)
 Number     Number       Type             X           Y           Z
 ---------------------------------------------------------------------
      1          6           0        6.164708    7.016842    5.141438
      2          6           0        5.108616    6.156279    5.312060
      3          1           0        5.202415    5.217947    5.846661
      4          6           0        3.880670    6.537041    4.762710
      5          1           0        3.013288    5.896738    4.867459
      6          6           0        3.794005    7.747316    4.083104
      7          6           0        4.886452    8.593849    3.929267
      8          1           0        4.790404    9.530770    3.394309
      9          6           0        6.116396    8.217476    4.477167
     10          1           0        6.982866    8.860243    4.371526
     11         35           0        2.117361    8.265421    3.337611
 ---------------------------------------------------------------------
                    Distance matrix (angstroms):
                    1          2          3          4          5
     1  C    0.000000
     2  C    1.372957   0.000000
     3  H    2.158558   1.084003   0.000000
     4  C    2.364418   1.398076   2.159159   0.000000
     5  H    3.355763   2.157645   2.492362   1.083195   0.000000
     6  C    2.697016   2.402069   3.389906   1.390734   2.156240
     7  C    2.364371   2.811267   3.895247   2.436531   3.415165
     8  H    3.355742   3.894383   4.978376   3.415048   4.305171
     9  C    1.372994   2.441557   3.421703   2.811382   3.894539
    10  H    2.158767   3.421818   4.314203   3.895371   4.978540
    11  Br   4.603668   4.158670   5.009989   2.850871   2.958679
                    6          7          8          9         10
     6  C    0.000000
     7  C    1.390584   0.000000
     8  H    2.155912   1.083156   0.000000
     9  C    2.402048   1.398075   2.157679   0.000000
    10  H    3.389783   2.159053   2.492278   1.084011   0.000000
    11  Br   1.906654   2.850577   2.957952   4.158505   5.009584
                   11
    11  Br   0.000000
 Symmetry turned off by external request.
 Stoichiometry    C6H4Br(1-)
 Framework group  C1[X(C6H4Br)]
 Deg. of freedom    27
 Full point group                 C1      NOp   1
 Rotational constants (GHZ):           5.6087078           1.0370220           0.8752018
 Standard basis: 6-311+G(d,p) (5D, 7F)
   204 basis functions,   342 primitive gaussians,   213 cartesian basis functions
    38 alpha electrons       38 beta electrons
       nuclear repulsion energy       419.4769121527 Hartrees.
 NAtoms=   11 NActive=   11 NUniq=   11 SFac= 1.00D+00 NAtFMM=   60 NAOKFM=F Big=F
 Integral buffers will be    131072 words long.
 Raffenetti 2 integral format.
 Two-electron integral symmetry is turned off.
 Force inversion solution in PCM.
 ------------------------------------------------------------------------------
 Polarizable Continuum Model (PCM)
 =================================
 Model                : PCM.
 Atomic radii         : SMD-Coulomb.
 Polarization charges : Total charges.
 Charge compensation  : None.
 Solution method      : Matrix inversion.
 Cavity type          : VdW (van der Waals Surface) (Alpha=1.000).
 Cavity algorithm     : GePol (No added spheres)
                        Default sphere list used, NSphG=   11.
                        Lebedev-Laikov grids with approx.  5.0 points / Ang**2.
                        Smoothing algorithm: York/Karplus (Gamma=1.0000).
                        Polarization charges: spherical gaussians, with
                                              point-specific exponents (IZeta= 3).
                        Self-potential: point-specific (ISelfS= 7).
                        Self-field    : sphere-specific E.n sum rule (ISelfD= 2).
 1st derivatives      : Analytical E(r).r(x)/FMM algorithm (CHGder, D1EAlg=3).
                        Cavity 1st derivative terms included.
 2nd derivatives      : Analytical E(r).r(xy)/FMM algorithm (CHGder, D2EAlg=3).
                        Cavity 2nd derivative terms included.
 Solvent              : TetraHydroFuran, Eps=   7.425700 Eps(inf)=   1.974025
 ------------------------------------------------------------------------------
 Spheres list:
 ISph  on   Nord     Re0    Alpha      Xe            Ye            Ze
    1   C      1    1.8500  1.000      6.164708      7.016842      5.141438
    2   C      2    1.8500  1.000      5.108616      6.156279      5.312060
    3   H      3    1.2000  1.000      5.202415      5.217947      5.846661
    4   C      4    1.8500  1.000      3.880670      6.537041      4.762710
    5   H      5    1.2000  1.000      3.013288      5.896738      4.867459
    6   C      6    1.8500  1.000      3.794005      7.747316      4.083104
    7   C      7    1.8500  1.000      4.886452      8.593849      3.929267
    8   H      8    1.2000  1.000      4.790404      9.530770      3.394309
    9   C      9    1.8500  1.000      6.116396      8.217476      4.477167
   10   H     10    1.2000  1.000      6.982866      8.860243      4.371526
   11  Br     11    3.0600  1.000      2.117361      8.265421      3.337611
 ------------------------------------------------------------------------------
 ------------------------------------------------------------------------------
 Atomic radii for non-electrostatic terms: SMD-CDS.
 ------------------------------------------------------------------------------
 Nuclear repulsion after PCM non-electrostatic terms =      419.4720999413 Hartrees.
 One-electron integrals computed using PRISM.
 NBasis=   204 RedAO= T EigKep=  3.68D-06  NBF=   204
 NBsUse=   204 1.00D-06 EigRej= -1.00D+00 NBFU=   204
 ExpMin= 3.50D-02 ExpMax= 4.40D+05 ExpMxC= 1.51D+04 IAcc=3 IRadAn=         5 AccDes= 0.00D+00
 Harris functional with IExCor= 1009 and IRadAn=       5 diagonalized for initial guess.
 HarFok:  IExCor= 1009 AccDes= 0.00D+00 IRadAn=         5 IDoV= 1 UseB2=F ITyADJ=14
 ICtDFT=  3500011 ScaDFX=  1.000000  1.000000  1.000000  1.000000
 FoFCou: FMM=F IPFlag=           0 FMFlag=      100000 FMFlg1=           0
         NFxFlg=           0 DoJE=T BraDBF=F KetDBF=T FulRan=T
         wScrn=  0.000000 ICntrl=       500 IOpCl=  0 I1Cent=   200000004 NGrid=           0
         NMat0=    1 NMatS0=      1 NMatT0=    0 NMatD0=    1 NMtDS0=    0 NMtDT0=    0
 Symmetry not used in FoFCou.
 Keep R1 ints in memory in canonical form, NReq=252016846.
 Requested convergence on RMS density matrix=1.00D-08 within 128 cycles.
 Requested convergence on MAX density matrix=1.00D-06.
 Requested convergence on             energy=1.00D-06.
 Level shift goal  0.100 maximum shift  0.100.
 No special actions if energy rises.
 Dynamic level shift is on during FON iterations.
 Inv3:  Mode=1 IEnd=     4642608.
 Iteration    1 A*A^-1 deviation from unit magnitude is 4.22D-15 for   1236.
 Iteration    1 A*A^-1 deviation from orthogonality  is 1.45D-15 for    258     31.
 Iteration    1 A^-1*A deviation from unit magnitude is 4.00D-15 for   1217.
 Iteration    1 A^-1*A deviation from orthogonality  is 1.53D-15 for   1228    612.
 Error on total polarization charges =  0.04487
 SCF Done:  E(RM062X) =  -2805.20904208     A.U. after   18 cycles
            NFock= 18  Conv=0.15D-08     -V/T= 2.0014
 SMD-CDS (non-electrostatic) energy       (kcal/mol) =      -3.02
 (included in total energy above)
 DoSCS=F DFT=T ScalE2(SS,OS)=  1.000000  1.000000
 Range of M.O.s used for correlation:     1   204
 NBasis=   204 NAE=    38 NBE=    38 NFC=     0 NFV=     0
 NROrb=    204 NOA=    38 NOB=    38 NVA=   166 NVB=   166

 **** Warning!!: The largest alpha MO coefficient is  0.13906006D+03

 Symmetrizing basis deriv contribution to polar:
 IMax=3 JMax=2 DiffMx= 0.00D+00
 G2DrvN: will do    12 centers at a time, making    1 passes.
 Calling FoFCou, ICntrl=  3107 FMM=F I1Cent=   0 AccDes= 0.00D+00.
 NEqPCM:  Using equilibrium solvation (IEInf=0, Eps=   7.4257, EpsInf=   1.9740)
 G2PCM: DoFxE=T DoFxN=T DoGrad=T DoDP/DQ/DG/TGxP=FFFF NFrqRd=   0 IEInf=0 SqF1=F DoCFld=F IF1Alg=4.
 End of G2Drv F.D. properties file   721 does not exist.
 End of G2Drv F.D. properties file   722 does not exist.
 End of G2Drv F.D. properties file   788 does not exist.
          IDoAtm=11111111111
 NEqPCM:  Using equilibrium solvation (IEInf=0, Eps=   7.4257, EpsInf=   1.9740)
          Differentiating once with respect to nuclear coordinates.
 Keep R1 ints in memory in canonical form, NReq=251915771.
          There are    36 degrees of freedom in the 1st order CPHF.  IDoFFX=6 NUNeed=     0.
     30 vectors produced by pass  0 Test12= 1.75D-14 2.78D-09 XBig12= 1.04D-01 1.15D-01.
 AX will form    30 AO Fock derivatives at one time.
     30 vectors produced by pass  1 Test12= 1.75D-14 2.78D-09 XBig12= 1.06D-02 3.01D-02.
     30 vectors produced by pass  2 Test12= 1.75D-14 2.78D-09 XBig12= 3.63D-04 7.16D-03.
     30 vectors produced by pass  3 Test12= 1.75D-14 2.78D-09 XBig12= 5.52D-06 5.25D-04.
     30 vectors produced by pass  4 Test12= 1.75D-14 2.78D-09 XBig12= 5.92D-08 4.86D-05.
     30 vectors produced by pass  5 Test12= 1.75D-14 2.78D-09 XBig12= 4.33D-10 4.30D-06.
     30 vectors produced by pass  6 Test12= 1.75D-14 2.78D-09 XBig12= 2.14D-12 2.72D-07.
     14 vectors produced by pass  7 Test12= 1.75D-14 2.78D-09 XBig12= 7.70D-15 1.55D-08.
 InvSVY:  IOpt=1 It=  1 EMax= 1.67D-15
 Solved reduced A of dimension   224 with    30 vectors.
 End of Minotr F.D. properties file   721 does not exist.
 End of Minotr F.D. properties file   722 does not exist.
 End of Minotr F.D. properties file   788 does not exist.

 **********************************************************************

            Population analysis using the SCF Density.

 **********************************************************************

 Alpha  occ. eigenvalues -- -485.30828 -63.30028 -57.12762 -57.12524 -57.12523
 Alpha  occ. eigenvalues --  -10.56266 -10.51416 -10.51413 -10.49544 -10.49544
 Alpha  occ. eigenvalues --  -10.43868  -8.98749  -6.81499  -6.80542  -6.80536
 Alpha  occ. eigenvalues --   -2.84659  -2.84318  -2.84317  -2.83465  -2.83464
 Alpha  occ. eigenvalues --   -0.93611  -0.85742  -0.81000  -0.75616  -0.65362
 Alpha  occ. eigenvalues --   -0.61948  -0.52582  -0.48281  -0.48065  -0.45703
 Alpha  occ. eigenvalues --   -0.42191  -0.40114  -0.37182  -0.34112  -0.32488
 Alpha  occ. eigenvalues --   -0.27807  -0.24915  -0.17244
 Alpha virt. eigenvalues --    0.02713   0.03685   0.04498   0.04805   0.04942
 Alpha virt. eigenvalues --    0.06795   0.07006   0.07678   0.08283   0.09299
 Alpha virt. eigenvalues --    0.09733   0.10392   0.11332   0.12128   0.13428
 Alpha virt. eigenvalues --    0.14554   0.15815   0.16410   0.17029   0.17368
 Alpha virt. eigenvalues --    0.17696   0.18749   0.19674   0.20310   0.21119
 Alpha virt. eigenvalues --    0.23258   0.23457   0.24331   0.25111   0.25792
 Alpha virt. eigenvalues --    0.26784   0.26797   0.27711   0.28414   0.29879
 Alpha virt. eigenvalues --    0.30221   0.35892   0.38287   0.40689   0.42555
 Alpha virt. eigenvalues --    0.46052   0.46617   0.49273   0.54318   0.55409
 Alpha virt. eigenvalues --    0.57278   0.59962   0.61448   0.61831   0.62395
 Alpha virt. eigenvalues --    0.62989   0.66137   0.66831   0.67559   0.67734
 Alpha virt. eigenvalues --    0.68604   0.69550   0.71791   0.74008   0.75015
 Alpha virt. eigenvalues --    0.76629   0.77994   0.80394   0.81067   0.81624
 Alpha virt. eigenvalues --    0.81631   0.85701   0.88816   0.89734   0.90649
 Alpha virt. eigenvalues --    0.94025   0.95148   0.96013   0.99016   1.03961
 Alpha virt. eigenvalues --    1.05247   1.09093   1.10524   1.11113   1.16426
 Alpha virt. eigenvalues --    1.16467   1.23626   1.27788   1.32182   1.36431
 Alpha virt. eigenvalues --    1.41373   1.54737   1.59607   1.59915   1.65127
 Alpha virt. eigenvalues --    1.65829   1.68114   1.71589   1.72969   1.76822
 Alpha virt. eigenvalues --    1.77806   1.81653   1.84293   1.94627   1.94867
 Alpha virt. eigenvalues --    1.98625   1.99945   2.00399   2.02265   2.03210
 Alpha virt. eigenvalues --    2.07735   2.07836   2.10495   2.10860   2.15155
 Alpha virt. eigenvalues --    2.18679   2.31286   2.33047   2.38280   2.42705
 Alpha virt. eigenvalues --    2.46636   2.47772   2.49942   2.62944   2.65900
 Alpha virt. eigenvalues --    2.75045   2.75638   2.76204   2.77135   2.78653
 Alpha virt. eigenvalues --    2.79583   2.83265   2.88733   2.89422   2.99361
 Alpha virt. eigenvalues --    2.99748   3.00646   3.03402   3.18826   3.24574
 Alpha virt. eigenvalues --    3.26960   3.45523   3.46968   3.58885   3.70460
 Alpha virt. eigenvalues --    3.76733   3.87528   4.06802   4.19746   4.22671
 Alpha virt. eigenvalues --    4.31298   4.36018   4.39871   4.55005   4.73920
 Alpha virt. eigenvalues --    4.89622   6.89879   7.66694   7.78150   7.83319
 Alpha virt. eigenvalues --   23.62144  24.01936  24.10487  24.20791  24.21667
 Alpha virt. eigenvalues --   24.34281  48.42238 290.81497 290.93910 291.01591
 Alpha virt. eigenvalues -- 1020.98593
          Condensed to atoms (all electrons):
               1          2          3          4          5          6
     1  C    8.309423  -1.036391  -0.151179   0.970723  -0.037690  -0.884310
     2  C   -1.036391   6.700219   0.561197  -0.720869   0.096345   0.470893
     3  H   -0.151179   0.561197   0.533719  -0.163558  -0.000974   0.045097
     4  C    0.970723  -0.720869  -0.163558   7.381818   0.267519  -0.354415
     5  H   -0.037690   0.096345  -0.000974   0.267519   0.493868   0.028217
     6  C   -0.884310   0.470893   0.045097  -0.354415   0.028217   6.330426
     7  C    0.971695  -1.156236  -0.040998   0.160477  -0.037237  -0.360383
     8  H   -0.037674   0.024588   0.000137  -0.037262   0.000060   0.028146
     9  C   -1.036616   1.021223   0.052051  -1.156672   0.024610   0.469336
    10  H   -0.150858   0.052000   0.000397  -0.040942   0.000137   0.045079
    11  Br   0.055964   0.015604   0.001406   0.182688  -0.006439  -0.395484
               7          8          9         10         11
     1  C    0.971695  -0.037674  -1.036616  -0.150858   0.055964
     2  C   -1.156236   0.024588   1.021223   0.052000   0.015604
     3  H   -0.040998   0.000137   0.052051   0.000397   0.001406
     4  C    0.160477  -0.037262  -1.156672  -0.040942   0.182688
     5  H   -0.037237   0.000060   0.024610   0.000137  -0.006439
     6  C   -0.360383   0.028146   0.469336   0.045079  -0.395484
     7  C    7.388646   0.267585  -0.721188  -0.163851   0.181894
     8  H    0.267585   0.493934   0.096362  -0.000975  -0.006472
     9  C   -0.721188   0.096362   6.702602   0.561243   0.015618
    10  H   -0.163851  -0.000975   0.561243   0.533661   0.001405
    11  Br   0.181894  -0.006472   0.015618   0.001405  35.189633
 Mulliken charges:
               1
     1  C   -0.973086
     2  C   -0.028574
     3  H    0.162705
     4  C   -0.489508
     5  H    0.171586
     6  C    0.577396
     7  C   -0.490404
     8  H    0.171570
     9  C   -0.028571
    10  H    0.162703
    11  Br  -0.235817
 Sum of Mulliken charges =  -1.00000
 Mulliken charges with hydrogens summed into heavy atoms:
               1
     1  C   -0.973086
     2  C    0.134131
     4  C   -0.317921
     6  C    0.577396
     7  C   -0.318834
     9  C    0.134132
    11  Br  -0.235817
 APT charges:
               1
     1  C   -2.052003
     2  C    0.955672
     3  H    0.126353
     4  C   -0.173803
     5  H   -0.729284
     6  C   -0.527042
     7  C   -0.857542
     8  H    1.174169
     9  C   -0.537141
    10  H    1.762420
    11  Br  -0.141801
 Sum of APT charges =  -1.00000
 APT charges with hydrogens summed into heavy atoms:
               1
     1  C   -2.052003
     2  C    1.082025
     4  C   -0.903087
     6  C   -0.527042
     7  C    0.316627
     9  C    1.225279
    11  Br  -0.141801
 Electronic spatial extent (au):  <R**2>=          25742.9328
 Charge=             -1.0000 electrons
 Dipole moment (field-independent basis, Debye):
    X=            -27.7816    Y=            -34.2656    Z=            -23.8796  Tot=             50.1616
 Quadrupole moment (field-independent basis, Debye-Ang):
   XX=           -234.2841   YY=           -301.7887   ZZ=           -182.1023
   XY=           -191.3697   XZ=           -145.1487   YZ=           -170.7907
 Traceless Quadrupole moment (field-independent basis, Debye-Ang):
   XX=              5.1076   YY=            -62.3969   ZZ=             57.2894
   XY=           -191.3697   XZ=           -145.1487   YZ=           -170.7907
 Octapole moment (field-independent basis, Debye-Ang**2):
  XXX=          -1887.1262  YYY=          -3061.0173  ZZZ=          -1400.8668  XYY=          -1548.6151
  XXY=          -1633.0870  XXZ=          -1190.6200  XZZ=          -1018.9378  YZZ=          -1334.2418
  YYZ=          -1463.4245  XYZ=          -1006.7740
 Hexadecapole moment (field-independent basis, Debye-Ang**3):
 XXXX=         -14841.8473 YYYY=         -32958.5384 ZZZZ=         -10155.5675 XXXY=         -13201.9170
 XXXZ=          -9558.4595 YYYX=         -14282.2436 YYYZ=         -14205.7457 ZZZX=          -7480.7159
 ZZZY=         -10315.0087 XXYY=         -12557.3750 XXZZ=          -7399.5558 YYZZ=         -10909.8747
 XXYZ=          -8285.8207 YYXZ=          -8017.4533 ZZXY=          -7247.6903
 N-N= 4.194720999413D+02 E-N=-7.541145644789D+03  KE= 2.801383682079D+03
  Exact polarizability:       0.000       0.000       0.000       0.000       0.000       0.000
 Approx polarizability:     146.478       0.376     122.681      18.265     -22.859      97.736
 D2PCM: PCM CHGder 2nd derivatives, FixD1E=F FixD2E=F DoIter=F DoCFld=F I1PDM=0
 Calling FoFJK, ICntrl=    100127 FMM=F ISym2X=0 I1Cent= 0 IOpClX= 0 NMat=1 NMatS=1 NMatT=0.
 -------------------------------------------------------------------
 Center     Atomic                   Forces (Hartrees/Bohr)
 Number     Number              X              Y              Z
 -------------------------------------------------------------------
      1        6           0.074066652   -0.022643453    0.033263205
      2        6          -0.022555139    0.018890152   -0.016837840
      3        1          -0.001990813   -0.002317987    0.000694818
      4        6          -0.007852189   -0.008259299    0.002424406
      5        1          -0.004739460    0.000822424   -0.001703986
      6        6           0.003619850   -0.001169580    0.001548503
      7        6           0.001336805    0.010335328   -0.005202551
      8        1          -0.004180873    0.001942190   -0.002192489
      9        6          -0.032876719   -0.002011926   -0.008160616
     10        1           0.000574504    0.002748812   -0.001406172
     11       35          -0.005402617    0.001663338   -0.002427278
 -------------------------------------------------------------------
 Cartesian Forces:  Max     0.074066652 RMS     0.017235943
 FormGI is forming the generalized inverse of G from B-inverse, IUseBI=4.

 GradGradGradGradGradGradGradGradGradGradGradGradGradGradGradGradGradGrad
 Berny optimization.
 Internal  Forces:  Max     0.051103124 RMS     0.011695692
 Search for a local minimum.
 Step number   1 out of a maximum of   57
 All quantities printed in internal units (Hartrees-Bohrs-Radians)
 Mixed Optimization -- RFO/linear search
 Second derivative matrix not updated -- analytic derivatives used.
 ITU=  0
     Eigenvalues ---    0.01021   0.01869   0.02233   0.02576   0.02591
     Eigenvalues ---    0.03003   0.03685   0.03920   0.10864   0.10893
     Eigenvalues ---    0.11710   0.12091   0.14552   0.18645   0.19483
     Eigenvalues ---    0.20070   0.23803   0.28314   0.35405   0.35451
     Eigenvalues ---    0.36327   0.36455   0.42601   0.43347   0.45605
     Eigenvalues ---    0.50707   0.53073
 RFO step:  Lambda=-2.52074053D-02 EMin= 1.02113268D-02
 Linear search not attempted -- first point.
 Maximum step size (   0.300) exceeded in Quadratic search.
    -- Step size scaled by   0.917
 Iteration  1 RMS(Cart)=  0.04510192 RMS(Int)=  0.00286006
 Iteration  2 RMS(Cart)=  0.00406798 RMS(Int)=  0.00093226
 Iteration  3 RMS(Cart)=  0.00000357 RMS(Int)=  0.00093226
 Iteration  4 RMS(Cart)=  0.00000000 RMS(Int)=  0.00093226
 Variable       Old X    -DE/DX   Delta X   Delta X   Delta X     New X
                                 (Linear)    (Quad)   (Total)
    R1        2.59451   0.02607   0.00000   0.05947   0.06068   2.65519
    R2        2.59458   0.02598   0.00000   0.05914   0.06035   2.65494
    R3        2.04847   0.00218   0.00000   0.00826   0.00826   2.05673
    R4        2.64198   0.00974   0.00000   0.00378   0.00379   2.64578
    R5        2.04694   0.00314   0.00000   0.00276   0.00276   2.04970
    R6        2.62811  -0.00414   0.00000  -0.00965  -0.01091   2.61720
    R7        2.62782  -0.00410   0.00000  -0.00995  -0.01121   2.61662
    R8        3.60305   0.00615   0.00000   0.02439   0.02439   3.62745
    R9        2.04687   0.00313   0.00000   0.00260   0.00260   2.04947
   R10        2.64198   0.00974   0.00000   0.00282   0.00285   2.64483
   R11        2.04848   0.00223   0.00000   0.00844   0.00844   2.05692
    A1        2.19096  -0.05110   0.00000  -0.19971  -0.19605   1.99491
    A2        2.13802  -0.01084   0.00000  -0.04571  -0.04623   2.09179
    A3        2.04437   0.02629   0.00000   0.11576   0.11680   2.16117
    A4        2.10080  -0.01545   0.00000  -0.07005  -0.07057   2.03022
    A5        2.09940   0.00381   0.00000   0.01031   0.01107   2.11047
    A6        2.07574   0.00059   0.00000  -0.00515  -0.00666   2.06907
    A7        2.10805  -0.00441   0.00000  -0.00516  -0.00441   2.10364
    A8        2.13515  -0.00267   0.00000  -0.02206  -0.02480   2.11035
    A9        2.07412   0.00133   0.00000   0.01142   0.01280   2.08692
   A10        2.07391   0.00133   0.00000   0.01064   0.01201   2.08592
   A11        2.10778  -0.00444   0.00000  -0.00444  -0.00370   2.10409
   A12        2.07589   0.00062   0.00000  -0.00555  -0.00704   2.06885
   A13        2.09951   0.00382   0.00000   0.00999   0.01074   2.11025
   A14        2.04426   0.02627   0.00000   0.11670   0.11776   2.16202
   A15        2.13831  -0.01086   0.00000  -0.04710  -0.04763   2.09069
   A16        2.10061  -0.01541   0.00000  -0.06960  -0.07013   2.03048
    D1        3.14137  -0.00001   0.00000   0.00009   0.00010   3.14146
    D2       -0.00066  -0.00008   0.00000  -0.00035  -0.00036  -0.00101
    D3        0.00040   0.00004   0.00000  -0.00054  -0.00055  -0.00015
    D4        3.14155   0.00006   0.00000   0.00069   0.00071  -3.14093
    D5       -3.14104   0.00006   0.00000   0.00075   0.00077  -3.14027
    D6        0.00018   0.00009   0.00000   0.00120   0.00121   0.00139
    D7        0.00013  -0.00001   0.00000   0.00033   0.00034   0.00047
    D8        3.14135   0.00002   0.00000   0.00078   0.00078  -3.14105
    D9        0.00052  -0.00004   0.00000  -0.00113  -0.00110  -0.00058
   D10       -3.13974  -0.00005   0.00000  -0.00155  -0.00151  -3.14125
   D11       -3.14145  -0.00001   0.00000  -0.00067  -0.00065   3.14108
   D12        0.00148  -0.00002   0.00000  -0.00109  -0.00107   0.00041
   D13        3.14088   0.00001   0.00000  -0.00009  -0.00006   3.14082
   D14       -0.00078   0.00001   0.00000   0.00024   0.00028  -0.00050
   D15       -0.00204   0.00001   0.00000   0.00033   0.00035  -0.00169
   D16        3.13948   0.00001   0.00000   0.00066   0.00070   3.14018
   D17        0.00032  -0.00001   0.00000   0.00055   0.00056   0.00089
   D18       -3.14083  -0.00003   0.00000  -0.00066  -0.00066  -3.14149
   D19       -3.14134  -0.00001   0.00000   0.00088   0.00091  -3.14043
   D20        0.00069  -0.00003   0.00000  -0.00033  -0.00031   0.00038
         Item               Value     Threshold  Converged?
 Maximum Force            0.051103     0.000015     NO 
 RMS     Force            0.011696     0.000010     NO 
 Maximum Displacement     0.221314     0.000060     NO 
 RMS     Displacement     0.045418     0.000040     NO 
 Predicted change in Energy=-1.364733D-02
 GradGradGradGradGradGradGradGradGradGradGradGradGradGradGradGradGradGrad

                          Input orientation:                          
 ---------------------------------------------------------------------
 Center     Atomic      Atomic             Coordinates (Angstroms)
 Number     Number       Type             X           Y           Z
 ---------------------------------------------------------------------
      1          6           0        6.281822    6.980934    5.193397
      2          6           0        5.125053    6.190243    5.297829
      3          1           0        5.165147    5.238444    5.824168
      4          6           0        3.884225    6.549235    4.757729
      5          1           0        3.020417    5.902512    4.867560
      6          6           0        3.781192    7.751300    4.077623
      7          6           0        4.878581    8.583253    3.933191
      8          1           0        4.791492    9.522983    3.398836
      9          6           0        6.098479    8.183755    4.490943
     10          1           0        6.937048    8.864523    4.356264
     11         35           0        2.093725    8.272740    3.325773
 ---------------------------------------------------------------------
                    Distance matrix (angstroms):
                    1          2          3          4          5
     1  C    0.000000
     2  C    1.405067   0.000000
     3  H    2.163586   1.088376   0.000000
     4  C    2.474801   1.400084   2.120430   0.000000
     5  H    3.450496   2.167351   2.440481   1.084656   0.000000
     6  C    2.844568   2.394111   3.358601   1.384963   2.149604
     7  C    2.474799   2.765769   3.853006   2.409530   3.392961
     8  H    3.450151   3.850271   4.937522   3.393066   4.289716
     9  C    1.404932   2.360659   3.365034   2.765095   3.849724
    10  H    2.162873   3.364765   4.294510   3.852461   4.937097
    11  Br   4.764130   4.173098   4.988242   2.868250   2.975541
                    6          7          8          9         10
     6  C    0.000000
     7  C    1.384655   0.000000
     8  H    2.149492   1.084533   0.000000
     9  C    2.393255   1.399585   2.166666   0.000000
    10  H    3.358025   2.120233   2.440009   1.088476   0.000000
    11  Br   1.919562   2.867193   2.974288   4.171761   4.986972
                   11
    11  Br   0.000000
 Symmetry turned off by external request.
 Stoichiometry    C6H4Br(1-)
 Framework group  C1[X(C6H4Br)]
 Deg. of freedom    27
 Full point group                 C1      NOp   1
 Rotational constants (GHZ):           5.8198126           1.0041739           0.8564062
 Standard basis: 6-311+G(d,p) (5D, 7F)
   204 basis functions,   342 primitive gaussians,   213 cartesian basis functions
    38 alpha electrons       38 beta electrons
       nuclear repulsion energy       416.6648922561 Hartrees.
 NAtoms=   11 NActive=   11 NUniq=   11 SFac= 1.00D+00 NAtFMM=   60 NAOKFM=F Big=F
 Integral buffers will be    131072 words long.
 Raffenetti 2 integral format.
 Two-electron integral symmetry is turned off.
 ------------------------------------------------------------------------------
 Polarizable Continuum Model (PCM)
 =================================
 Model                : PCM.
 Atomic radii         : SMD-Coulomb.
 Polarization charges : Total charges.
 Charge compensation  : None.
 Solution method      : Matrix inversion.
 Cavity type          : VdW (van der Waals Surface) (Alpha=1.000).
 Cavity algorithm     : GePol (No added spheres)
                        Default sphere list used, NSphG=   11.
                        Lebedev-Laikov grids with approx.  5.0 points / Ang**2.
                        Smoothing algorithm: York/Karplus (Gamma=1.0000).
                        Polarization charges: spherical gaussians, with
                                              point-specific exponents (IZeta= 3).
                        Self-potential: point-specific (ISelfS= 7).
                        Self-field    : sphere-specific E.n sum rule (ISelfD= 2).
 1st derivatives      : Analytical E(r).r(x)/FMM algorithm (CHGder, D1EAlg=3).
                        Cavity 1st derivative terms included.
 Solvent              : TetraHydroFuran, Eps=   7.425700 Eps(inf)=   1.974025
 ------------------------------------------------------------------------------
 Spheres list:
 ISph  on   Nord     Re0    Alpha      Xe            Ye            Ze
    1   C      1    1.8500  1.000      6.281822      6.980934      5.193397
    2   C      2    1.8500  1.000      5.125053      6.190243      5.297829
    3   H      3    1.2000  1.000      5.165147      5.238444      5.824168
    4   C      4    1.8500  1.000      3.884225      6.549235      4.757729
    5   H      5    1.2000  1.000      3.020417      5.902512      4.867560
    6   C      6    1.8500  1.000      3.781192      7.751300      4.077623
    7   C      7    1.8500  1.000      4.878581      8.583253      3.933191
    8   H      8    1.2000  1.000      4.791492      9.522983      3.398836
    9   C      9    1.8500  1.000      6.098479      8.183755      4.490943
   10   H     10    1.2000  1.000      6.937048      8.864523      4.356264
   11  Br     11    3.0600  1.000      2.093725      8.272740      3.325773
 ------------------------------------------------------------------------------
 ------------------------------------------------------------------------------
 Atomic radii for non-electrostatic terms: SMD-CDS.
 ------------------------------------------------------------------------------
 Nuclear repulsion after PCM non-electrostatic terms =      416.6601608951 Hartrees.
 One-electron integrals computed using PRISM.
 NBasis=   204 RedAO= T EigKep=  4.66D-06  NBF=   204
 NBsUse=   204 1.00D-06 EigRej= -1.00D+00 NBFU=   204
 Initial guess from the checkpoint file:  "4-br-ph-anion-opt-freq-thf.chk"
 B after Tr=    -0.004680    0.001704   -0.005838
         Rot=    1.000000    0.000021    0.000143   -0.000033 Ang=   0.02 deg.
 ExpMin= 3.50D-02 ExpMax= 4.40D+05 ExpMxC= 1.51D+04 IAcc=3 IRadAn=         5 AccDes= 0.00D+00
 Harris functional with IExCor= 1009 and IRadAn=       5 diagonalized for initial guess.
 HarFok:  IExCor= 1009 AccDes= 0.00D+00 IRadAn=         5 IDoV= 1 UseB2=F ITyADJ=14
 ICtDFT=  3500011 ScaDFX=  1.000000  1.000000  1.000000  1.000000
 FoFCou: FMM=F IPFlag=           0 FMFlag=      100000 FMFlg1=           0
         NFxFlg=           0 DoJE=T BraDBF=F KetDBF=T FulRan=T
         wScrn=  0.000000 ICntrl=       500 IOpCl=  0 I1Cent=   200000004 NGrid=           0
         NMat0=    1 NMatS0=      1 NMatT0=    0 NMatD0=    1 NMtDS0=    0 NMtDT0=    0
 Symmetry not used in FoFCou.
 Keep R1 ints in memory in canonical form, NReq=252016846.
 Requested convergence on RMS density matrix=1.00D-08 within 128 cycles.
 Requested convergence on MAX density matrix=1.00D-06.
 Requested convergence on             energy=1.00D-06.
 Level shift goal  0.100 maximum shift  0.100.
 No special actions if energy rises.
 Dynamic level shift is on during FON iterations.
 Inv3:  Mode=1 IEnd=     4627692.
 Iteration    1 A*A^-1 deviation from unit magnitude is 4.22D-15 for   1234.
 Iteration    1 A*A^-1 deviation from orthogonality  is 1.56D-15 for    433    129.
 Iteration    1 A^-1*A deviation from unit magnitude is 4.00D-15 for   1234.
 Iteration    1 A^-1*A deviation from orthogonality  is 1.74D-15 for   1226    604.
 Error on total polarization charges =  0.04160
 SCF Done:  E(RM062X) =  -2805.22252325     A.U. after   13 cycles
            NFock= 13  Conv=0.81D-08     -V/T= 2.0014
 SMD-CDS (non-electrostatic) energy       (kcal/mol) =      -2.97
 (included in total energy above)
 D1PCM: PCM CHGder 1st derivatives, ID1Alg=3 FixD1E=F DoIter=F DoCFld=F I1PDM=0.
 Calling FoFJK, ICntrl=      2127 FMM=F ISym2X=0 I1Cent= 0 IOpClX= 0 NMat=1 NMatS=1 NMatT=0.
 -------------------------------------------------------------------
 Center     Atomic                   Forces (Hartrees/Bohr)
 Number     Number              X              Y              Z
 -------------------------------------------------------------------
      1        6           0.012613852   -0.004123989    0.005592840
      2        6          -0.003585106    0.003368522   -0.002758846
      3        1          -0.000709767   -0.001174230    0.000388006
      4        6          -0.001980615   -0.003380491    0.001327175
      5        1          -0.000919229    0.000037659   -0.000238618
      6        6          -0.000593704    0.000142626   -0.000264483
      7        6           0.001355774    0.003594340   -0.001564367
      8        1          -0.000764342    0.000488040   -0.000447190
      9        6          -0.004933708   -0.000420617   -0.001076263
     10        1           0.000398787    0.001234107   -0.000582098
     11       35          -0.000881942    0.000234032   -0.000376156
 -------------------------------------------------------------------
 Cartesian Forces:  Max     0.012613852 RMS     0.003048087

 GradGradGradGradGradGradGradGradGradGradGradGradGradGradGradGradGradGrad
 Berny optimization.
 Using GEDIIS/GDIIS optimizer.
 FormGI is forming the generalized inverse of G from B-inverse, IUseBI=4.
 Internal  Forces:  Max     0.007223079 RMS     0.002049935
 Search for a local minimum.
 Step number   2 out of a maximum of   57
 All quantities printed in internal units (Hartrees-Bohrs-Radians)
 Mixed Optimization -- RFO/linear search
 Update second derivatives using D2CorX and points    1    2
 DE= -1.35D-02 DEPred=-1.36D-02 R= 9.88D-01
 TightC=F SS=  1.41D+00  RLast= 3.00D-01 DXNew= 5.0454D-01 8.9945D-01
 Trust test= 9.88D-01 RLast= 3.00D-01 DXMaxT set to 5.05D-01
 ITU=  1  0
 Use linear search instead of GDIIS.
     Eigenvalues ---    0.01020   0.01868   0.02231   0.02576   0.02589
     Eigenvalues ---    0.02996   0.03669   0.03916   0.10864   0.10909
     Eigenvalues ---    0.11711   0.12097   0.14553   0.18644   0.20062
     Eigenvalues ---    0.20235   0.23898   0.28309   0.35410   0.35492
     Eigenvalues ---    0.36309   0.36445   0.42588   0.43273   0.45674
     Eigenvalues ---    0.50681   0.52044
 RFO step:  Lambda=-6.72168404D-05 EMin= 1.02024782D-02
 Quartic linear search produced a step of  0.18376.
 Iteration  1 RMS(Cart)=  0.00837197 RMS(Int)=  0.00021288
 Iteration  2 RMS(Cart)=  0.00012993 RMS(Int)=  0.00019457
 Iteration  3 RMS(Cart)=  0.00000001 RMS(Int)=  0.00019457
 Variable       Old X    -DE/DX   Delta X   Delta X   Delta X     New X
                                 (Linear)    (Quad)   (Total)
    R1        2.65519   0.00589   0.01115   0.00312   0.01452   2.66971
    R2        2.65494   0.00601   0.01109   0.00336   0.01470   2.66964
    R3        2.05673   0.00119   0.00152   0.00280   0.00432   2.06105
    R4        2.64578   0.00200   0.00070   0.00121   0.00191   2.64769
    R5        2.04970   0.00068   0.00051   0.00046   0.00097   2.05067
    R6        2.61720   0.00137  -0.00200   0.00517   0.00291   2.62011
    R7        2.61662   0.00153  -0.00206   0.00542   0.00310   2.61972
    R8        3.62745   0.00099   0.00448   0.00017   0.00465   3.63210
    R9        2.04947   0.00071   0.00048   0.00060   0.00108   2.05055
   R10        2.64483   0.00235   0.00052   0.00236   0.00289   2.64772
   R11        2.05692   0.00115   0.00155   0.00259   0.00414   2.06106
    A1        1.99491  -0.00722  -0.03603   0.00231  -0.03295   1.96196
    A2        2.09179  -0.00132  -0.00850   0.00341  -0.00519   2.08660
    A3        2.16117   0.00424   0.02146   0.00014   0.02182   2.18299
    A4        2.03022  -0.00292  -0.01297  -0.00355  -0.01663   2.01360
    A5        2.11047   0.00088   0.00203   0.00235   0.00454   2.11501
    A6        2.06907  -0.00043  -0.00122  -0.00233  -0.00386   2.06521
    A7        2.10364  -0.00045  -0.00081  -0.00002  -0.00067   2.10297
    A8        2.11035  -0.00017  -0.00456   0.00270  -0.00243   2.10792
    A9        2.08692   0.00000   0.00235  -0.00187   0.00076   2.08768
   A10        2.08592   0.00017   0.00221  -0.00083   0.00166   2.08758
   A11        2.10409  -0.00055  -0.00068  -0.00111  -0.00164   2.10245
   A12        2.06885  -0.00040  -0.00129  -0.00184  -0.00345   2.06540
   A13        2.11025   0.00095   0.00197   0.00295   0.00508   2.11534
   A14        2.16202   0.00398   0.02164  -0.00099   0.02087   2.18288
   A15        2.09069  -0.00113  -0.00875   0.00475  -0.00411   2.08658
   A16        2.03048  -0.00286  -0.01289  -0.00377  -0.01676   2.01372
    D1        3.14146   0.00001   0.00002   0.00069   0.00069  -3.14104
    D2       -0.00101   0.00004  -0.00007   0.00217   0.00209   0.00108
    D3       -0.00015  -0.00005  -0.00010  -0.00271  -0.00280  -0.00295
    D4       -3.14093  -0.00002   0.00013  -0.00181  -0.00165   3.14061
    D5       -3.14027  -0.00002   0.00014  -0.00062  -0.00049  -3.14076
    D6        0.00139   0.00000   0.00022  -0.00007   0.00014   0.00153
    D7        0.00047   0.00002   0.00006   0.00081   0.00087   0.00134
    D8       -3.14105   0.00004   0.00014   0.00136   0.00149  -3.13956
    D9       -0.00058  -0.00004  -0.00020  -0.00173  -0.00193  -0.00251
   D10       -3.14125  -0.00004  -0.00028  -0.00214  -0.00241   3.13953
   D11        3.14108  -0.00002  -0.00012  -0.00118  -0.00132   3.13977
   D12        0.00041  -0.00002  -0.00020  -0.00159  -0.00179  -0.00138
   D13        3.14082   0.00002  -0.00001   0.00109   0.00111  -3.14126
   D14       -0.00050   0.00003   0.00005   0.00124   0.00132   0.00082
   D15       -0.00169   0.00003   0.00006   0.00150   0.00158  -0.00011
   D16        3.14018   0.00004   0.00013   0.00165   0.00179  -3.14122
   D17        0.00089   0.00002   0.00010   0.00111   0.00124   0.00212
   D18       -3.14149  -0.00002  -0.00012   0.00024   0.00014  -3.14136
   D19       -3.14043   0.00003   0.00017   0.00126   0.00145  -3.13898
   D20        0.00038  -0.00001  -0.00006   0.00040   0.00035   0.00073
         Item               Value     Threshold  Converged?
 Maximum Force            0.007223     0.000015     NO 
 RMS     Force            0.002050     0.000010     NO 
 Maximum Displacement     0.041740     0.000060     NO 
 RMS     Displacement     0.008370     0.000040     NO 
 Predicted change in Energy=-3.841689D-04
 GradGradGradGradGradGradGradGradGradGradGradGradGradGradGradGradGradGrad

                          Input orientation:                          
 ---------------------------------------------------------------------
 Center     Atomic      Atomic             Coordinates (Angstroms)
 Number     Number       Type             X           Y           Z
 ---------------------------------------------------------------------
      1          6           0        6.303910    6.973182    5.201472
      2          6           0        5.128260    6.195481    5.295783
      3          1           0        5.156234    5.239559    5.820160
      4          6           0        3.883530    6.549373    4.758678
      5          1           0        3.019330    5.902497    4.869600
      6          6           0        3.779146    7.752090    4.076795
      7          6           0        4.878799    8.583970    3.933439
      8          1           0        4.791282    9.524288    3.399032
      9          6           0        6.097225    8.178240    4.493749
     10          1           0        6.929601    8.868725    4.352573
     11         35           0        2.089866    8.272517    3.322032
 ---------------------------------------------------------------------
                    Distance matrix (angstroms):
                    1          2          3          4          5
     1  C    0.000000
     2  C    1.412751   0.000000
     3  H    2.169190   1.090661   0.000000
     4  C    2.496782   1.401097   2.112375   0.000000
     5  H    3.470586   2.171418   2.430928   1.085170   0.000000
     6  C    2.871590   2.393548   3.353879   1.386502   2.151012
     7  C    2.496695   2.760994   3.849905   2.410636   3.394749
     8  H    3.470587   3.846060   4.934973   3.394521   4.291824
     9  C    1.412712   2.348081   3.358672   2.761130   3.846259
    10  H    2.169148   3.358676   4.297614   3.850047   4.935184
    11  Br   4.793614   4.176315   4.984184   2.872353   2.979239
                    6          7          8          9         10
     6  C    0.000000
     7  C    1.386295   0.000000
     8  H    2.150458   1.085103   0.000000
     9  C    2.393521   1.401115   2.171575   0.000000
    10  H    3.353848   2.112474   2.431340   1.090665   0.000000
    11  Br   1.922025   2.872102   2.978340   4.176210   4.984026
                   11
    11  Br   0.000000
 Symmetry turned off by external request.
 Stoichiometry    C6H4Br(1-)
 Framework group  C1[X(C6H4Br)]
 Deg. of freedom    27
 Full point group                 C1      NOp   1
 Rotational constants (GHZ):           5.8400379           0.9980485           0.8523793
 Standard basis: 6-311+G(d,p) (5D, 7F)
   204 basis functions,   342 primitive gaussians,   213 cartesian basis functions
    38 alpha electrons       38 beta electrons
       nuclear repulsion energy       415.9045738158 Hartrees.
 NAtoms=   11 NActive=   11 NUniq=   11 SFac= 1.00D+00 NAtFMM=   60 NAOKFM=F Big=F
 Integral buffers will be    131072 words long.
 Raffenetti 2 integral format.
 Two-electron integral symmetry is turned off.
 ------------------------------------------------------------------------------
 Polarizable Continuum Model (PCM)
 =================================
 Model                : PCM.
 Atomic radii         : SMD-Coulomb.
 Polarization charges : Total charges.
 Charge compensation  : None.
 Solution method      : Matrix inversion.
 Cavity type          : VdW (van der Waals Surface) (Alpha=1.000).
 Cavity algorithm     : GePol (No added spheres)
                        Default sphere list used, NSphG=   11.
                        Lebedev-Laikov grids with approx.  5.0 points / Ang**2.
                        Smoothing algorithm: York/Karplus (Gamma=1.0000).
                        Polarization charges: spherical gaussians, with
                                              point-specific exponents (IZeta= 3).
                        Self-potential: point-specific (ISelfS= 7).
                        Self-field    : sphere-specific E.n sum rule (ISelfD= 2).
 1st derivatives      : Analytical E(r).r(x)/FMM algorithm (CHGder, D1EAlg=3).
                        Cavity 1st derivative terms included.
 Solvent              : TetraHydroFuran, Eps=   7.425700 Eps(inf)=   1.974025
 ------------------------------------------------------------------------------
 Spheres list:
 ISph  on   Nord     Re0    Alpha      Xe            Ye            Ze
    1   C      1    1.8500  1.000      6.303910      6.973182      5.201472
    2   C      2    1.8500  1.000      5.128260      6.195481      5.295783
    3   H      3    1.2000  1.000      5.156234      5.239559      5.820160
    4   C      4    1.8500  1.000      3.883530      6.549373      4.758678
    5   H      5    1.2000  1.000      3.019330      5.902497      4.869600
    6   C      6    1.8500  1.000      3.779146      7.752090      4.076795
    7   C      7    1.8500  1.000      4.878799      8.583970      3.933439
    8   H      8    1.2000  1.000      4.791282      9.524288      3.399032
    9   C      9    1.8500  1.000      6.097225      8.178240      4.493749
   10   H     10    1.2000  1.000      6.929601      8.868725      4.352573
   11  Br     11    3.0600  1.000      2.089866      8.272517      3.322032
 ------------------------------------------------------------------------------
 ------------------------------------------------------------------------------
 Atomic radii for non-electrostatic terms: SMD-CDS.
 ------------------------------------------------------------------------------
 Nuclear repulsion after PCM non-electrostatic terms =      415.8998710014 Hartrees.
 One-electron integrals computed using PRISM.
 NBasis=   204 RedAO= T EigKep=  5.02D-06  NBF=   204
 NBsUse=   204 1.00D-06 EigRej= -1.00D+00 NBFU=   204
 Initial guess from the checkpoint file:  "4-br-ph-anion-opt-freq-thf.chk"
 B after Tr=     0.005433   -0.004434   -0.000845
         Rot=    1.000000    0.000126    0.000183   -0.000110 Ang=   0.03 deg.
 ExpMin= 3.50D-02 ExpMax= 4.40D+05 ExpMxC= 1.51D+04 IAcc=3 IRadAn=         5 AccDes= 0.00D+00
 Harris functional with IExCor= 1009 and IRadAn=       5 diagonalized for initial guess.
 HarFok:  IExCor= 1009 AccDes= 0.00D+00 IRadAn=         5 IDoV= 1 UseB2=F ITyADJ=14
 ICtDFT=  3500011 ScaDFX=  1.000000  1.000000  1.000000  1.000000
 FoFCou: FMM=F IPFlag=           0 FMFlag=      100000 FMFlg1=           0
         NFxFlg=           0 DoJE=T BraDBF=F KetDBF=T FulRan=T
         wScrn=  0.000000 ICntrl=       500 IOpCl=  0 I1Cent=   200000004 NGrid=           0
         NMat0=    1 NMatS0=      1 NMatT0=    0 NMatD0=    1 NMtDS0=    0 NMtDT0=    0
 Symmetry not used in FoFCou.
 Keep R1 ints in memory in canonical form, NReq=252016846.
 Requested convergence on RMS density matrix=1.00D-08 within 128 cycles.
 Requested convergence on MAX density matrix=1.00D-06.
 Requested convergence on             energy=1.00D-06.
 Level shift goal  0.100 maximum shift  0.100.
 No special actions if energy rises.
 Dynamic level shift is on during FON iterations.
 Inv3:  Mode=1 IEnd=     4635147.
 Iteration    1 A*A^-1 deviation from unit magnitude is 3.11D-15 for   1231.
 Iteration    1 A*A^-1 deviation from orthogonality  is 1.98D-15 for    632    483.
 Iteration    1 A^-1*A deviation from unit magnitude is 3.55D-15 for   1231.
 Iteration    1 A^-1*A deviation from orthogonality  is 1.63D-15 for   1235    950.
 Error on total polarization charges =  0.04103
 SCF Done:  E(RM062X) =  -2805.22291094     A.U. after   12 cycles
            NFock= 12  Conv=0.80D-08     -V/T= 2.0014
 SMD-CDS (non-electrostatic) energy       (kcal/mol) =      -2.95
 (included in total energy above)
 D1PCM: PCM CHGder 1st derivatives, ID1Alg=3 FixD1E=F DoIter=F DoCFld=F I1PDM=0.
 Calling FoFJK, ICntrl=      2127 FMM=F ISym2X=0 I1Cent= 0 IOpClX= 0 NMat=1 NMatS=1 NMatT=0.
 -------------------------------------------------------------------
 Center     Atomic                   Forces (Hartrees/Bohr)
 Number     Number              X              Y              Z
 -------------------------------------------------------------------
      1        6           0.000800203   -0.000274924    0.000343159
      2        6          -0.000385677   -0.000307171    0.000059653
      3        1          -0.000030973   -0.000175753    0.000062019
      4        6          -0.000241392   -0.000228887    0.000054592
      5        1          -0.000076422    0.000004585   -0.000008883
      6        6          -0.000154850    0.000062896   -0.000053979
      7        6           0.000013386    0.000286561   -0.000143750
      8        1          -0.000042035    0.000048668   -0.000015964
      9        6           0.000006948    0.000447730   -0.000266242
     10        1           0.000122040    0.000110721   -0.000062640
     11       35          -0.000011228    0.000025574    0.000032036
 -------------------------------------------------------------------
 Cartesian Forces:  Max     0.000800203 RMS     0.000225501

 GradGradGradGradGradGradGradGradGradGradGradGradGradGradGradGradGradGrad
 Berny optimization.
 Using GEDIIS/GDIIS optimizer.
 FormGI is forming the generalized inverse of G from B-inverse, IUseBI=4.
 Internal  Forces:  Max     0.000801930 RMS     0.000193065
 Search for a local minimum.
 Step number   3 out of a maximum of   57
 All quantities printed in internal units (Hartrees-Bohrs-Radians)
 Mixed Optimization -- En-DIIS/RFO-DIIS
 Update second derivatives using D2CorX and points    1    2    3
 DE= -3.88D-04 DEPred=-3.84D-04 R= 1.01D+00
 TightC=F SS=  1.41D+00  RLast= 5.70D-02 DXNew= 8.4853D-01 1.7092D-01
 Trust test= 1.01D+00 RLast= 5.70D-02 DXMaxT set to 5.05D-01
 ITU=  1  1  0
 Use linear search instead of GDIIS.
     Eigenvalues ---    0.01020   0.01868   0.02230   0.02576   0.02589
     Eigenvalues ---    0.02994   0.03663   0.03914   0.10864   0.10940
     Eigenvalues ---    0.11711   0.12084   0.14547   0.18644   0.20060
     Eigenvalues ---    0.20896   0.23980   0.28308   0.35409   0.35502
     Eigenvalues ---    0.36290   0.36437   0.42581   0.42857   0.45710
     Eigenvalues ---    0.50255   0.50674
 RFO step:  Lambda=-2.57711270D-06 EMin= 1.01997092D-02
 Quartic linear search produced a step of  0.04383.
 Iteration  1 RMS(Cart)=  0.00066090 RMS(Int)=  0.00000131
 Iteration  2 RMS(Cart)=  0.00000018 RMS(Int)=  0.00000131
 Variable       Old X    -DE/DX   Delta X   Delta X   Delta X     New X
                                 (Linear)    (Quad)   (Total)
    R1        2.66971   0.00079   0.00064   0.00112   0.00175   2.67147
    R2        2.66964   0.00080   0.00064   0.00115   0.00179   2.67143
    R3        2.06105   0.00018   0.00019   0.00031   0.00050   2.06155
    R4        2.64769   0.00028   0.00008   0.00041   0.00050   2.64819
    R5        2.05067   0.00006   0.00004   0.00010   0.00014   2.05081
    R6        2.62011   0.00031   0.00013   0.00047   0.00059   2.62070
    R7        2.61972   0.00031   0.00014   0.00046   0.00059   2.62031
    R8        3.63210   0.00000   0.00020  -0.00011   0.00009   3.63219
    R9        2.05055   0.00005   0.00005   0.00009   0.00014   2.05069
   R10        2.64772   0.00028   0.00013   0.00038   0.00051   2.64823
   R11        2.06106   0.00017   0.00018   0.00028   0.00046   2.06152
    A1        1.96196  -0.00011  -0.00144   0.00083  -0.00061   1.96135
    A2        2.08660   0.00004  -0.00023   0.00013  -0.00010   2.08650
    A3        2.18299  -0.00002   0.00096  -0.00069   0.00027   2.18326
    A4        2.01360  -0.00003  -0.00073   0.00056  -0.00017   2.01343
    A5        2.11501   0.00005   0.00020   0.00036   0.00056   2.11558
    A6        2.06521   0.00000  -0.00017  -0.00004  -0.00021   2.06500
    A7        2.10297  -0.00004  -0.00003  -0.00033  -0.00036   2.10261
    A8        2.10792   0.00016  -0.00011   0.00061   0.00050   2.10842
    A9        2.08768  -0.00008   0.00003  -0.00031  -0.00027   2.08741
   A10        2.08758  -0.00008   0.00007  -0.00030  -0.00023   2.08735
   A11        2.10245  -0.00004  -0.00007  -0.00030  -0.00037   2.10208
   A12        2.06540   0.00000  -0.00015   0.00000  -0.00015   2.06525
   A13        2.11534   0.00004   0.00022   0.00029   0.00052   2.11585
   A14        2.18288  -0.00003   0.00091  -0.00072   0.00020   2.18308
   A15        2.08658   0.00005  -0.00018   0.00011  -0.00007   2.08651
   A16        2.01372  -0.00002  -0.00073   0.00061  -0.00013   2.01359
    D1       -3.14104   0.00000   0.00003   0.00005   0.00008  -3.14096
    D2        0.00108   0.00000   0.00009   0.00018   0.00027   0.00135
    D3       -0.00295   0.00000  -0.00012   0.00041   0.00029  -0.00266
    D4        3.14061   0.00000  -0.00007   0.00035   0.00028   3.14089
    D5       -3.14076  -0.00001  -0.00002  -0.00045  -0.00047  -3.14122
    D6        0.00153  -0.00001   0.00001  -0.00055  -0.00055   0.00098
    D7        0.00134   0.00000   0.00004  -0.00032  -0.00029   0.00105
    D8       -3.13956   0.00000   0.00007  -0.00043  -0.00037  -3.13993
    D9       -0.00251   0.00000  -0.00008   0.00036   0.00028  -0.00223
   D10        3.13953   0.00000  -0.00011   0.00028   0.00018   3.13971
   D11        3.13977   0.00000  -0.00006   0.00026   0.00020   3.13997
   D12       -0.00138   0.00000  -0.00008   0.00018   0.00010  -0.00128
   D13       -3.14126   0.00000   0.00005   0.00014   0.00019  -3.14107
   D14        0.00082   0.00000   0.00006   0.00017   0.00022   0.00104
   D15       -0.00011   0.00000   0.00007   0.00022   0.00029   0.00018
   D16       -3.14122   0.00000   0.00008   0.00024   0.00032  -3.14090
   D17        0.00212  -0.00001   0.00005  -0.00059  -0.00053   0.00159
   D18       -3.14136  -0.00001   0.00001  -0.00054  -0.00053   3.14130
   D19       -3.13898  -0.00001   0.00006  -0.00057  -0.00050  -3.13948
   D20        0.00073   0.00000   0.00002  -0.00051  -0.00050   0.00023
         Item               Value     Threshold  Converged?
 Maximum Force            0.000802     0.000015     NO 
 RMS     Force            0.000193     0.000010     NO 
 Maximum Displacement     0.001741     0.000060     NO 
 RMS     Displacement     0.000661     0.000040     NO 
 Predicted change in Energy=-1.970226D-06
 GradGradGradGradGradGradGradGradGradGradGradGradGradGradGradGradGradGrad

                          Input orientation:                          
 ---------------------------------------------------------------------
 Center     Atomic      Atomic             Coordinates (Angstroms)
 Number     Number       Type             X           Y           Z
 ---------------------------------------------------------------------
      1          6           0        6.304831    6.972906    5.201909
      2          6           0        5.128143    6.195082    5.296176
      3          1           0        5.155836    5.238991    5.820810
      4          6           0        3.883283    6.548958    4.758678
      5          1           0        3.018721    5.902343    4.869016
      6          6           0        3.779183    7.752092    4.076850
      7          6           0        4.878863    8.584442    3.933409
      8          1           0        4.790626    9.524847    3.399123
      9          6           0        6.097652    8.178599    4.493516
     10          1           0        6.930165    8.869207    4.351848
     11         35           0        2.089879    8.272455    3.321975
 ---------------------------------------------------------------------
                    Distance matrix (angstroms):
                    1          2          3          4          5
     1  C    0.000000
     2  C    1.413680   0.000000
     3  H    2.170182   1.090926   0.000000
     4  C    2.498015   1.401360   2.112707   0.000000
     5  H    3.472095   2.172055   2.431710   1.085243   0.000000
     6  C    2.872593   2.393895   3.354438   1.386816   2.151139
     7  C    2.497904   2.761940   3.851109   2.411523   3.395459
     8  H    3.472069   3.847085   4.936245   3.395228   4.292175
     9  C    1.413662   2.349159   3.360063   2.762149   3.847357
    10  H    2.170162   3.360056   4.299367   3.851305   4.936510
    11  Br   4.794664   4.176601   4.984594   2.872430   2.978844
                    6          7          8          9         10
     6  C    0.000000
     7  C    1.386607   0.000000
     8  H    2.150579   1.085177   0.000000
     9  C    2.393913   1.401383   2.172187   0.000000
    10  H    3.354439   2.112823   2.432114   1.090911   0.000000
    11  Br   1.922072   2.872216   2.977998   4.176549   4.984488
                   11
    11  Br   0.000000
 Symmetry turned off by external request.
 Stoichiometry    C6H4Br(1-)
 Framework group  C1[X(C6H4Br)]
 Deg. of freedom    27
 Full point group                 C1      NOp   1
 Rotational constants (GHZ):           5.8356440           0.9978631           0.8521504
 Standard basis: 6-311+G(d,p) (5D, 7F)
   204 basis functions,   342 primitive gaussians,   213 cartesian basis functions
    38 alpha electrons       38 beta electrons
       nuclear repulsion energy       415.8312307434 Hartrees.
 NAtoms=   11 NActive=   11 NUniq=   11 SFac= 1.00D+00 NAtFMM=   60 NAOKFM=F Big=F
 Integral buffers will be    131072 words long.
 Raffenetti 2 integral format.
 Two-electron integral symmetry is turned off.
 ------------------------------------------------------------------------------
 Polarizable Continuum Model (PCM)
 =================================
 Model                : PCM.
 Atomic radii         : SMD-Coulomb.
 Polarization charges : Total charges.
 Charge compensation  : None.
 Solution method      : Matrix inversion.
 Cavity type          : VdW (van der Waals Surface) (Alpha=1.000).
 Cavity algorithm     : GePol (No added spheres)
                        Default sphere list used, NSphG=   11.
                        Lebedev-Laikov grids with approx.  5.0 points / Ang**2.
                        Smoothing algorithm: York/Karplus (Gamma=1.0000).
                        Polarization charges: spherical gaussians, with
                                              point-specific exponents (IZeta= 3).
                        Self-potential: point-specific (ISelfS= 7).
                        Self-field    : sphere-specific E.n sum rule (ISelfD= 2).
 1st derivatives      : Analytical E(r).r(x)/FMM algorithm (CHGder, D1EAlg=3).
                        Cavity 1st derivative terms included.
 Solvent              : TetraHydroFuran, Eps=   7.425700 Eps(inf)=   1.974025
 ------------------------------------------------------------------------------
 Spheres list:
 ISph  on   Nord     Re0    Alpha      Xe            Ye            Ze
    1   C      1    1.8500  1.000      6.304831      6.972906      5.201909
    2   C      2    1.8500  1.000      5.128143      6.195082      5.296176
    3   H      3    1.2000  1.000      5.155836      5.238991      5.820810
    4   C      4    1.8500  1.000      3.883283      6.548958      4.758678
    5   H      5    1.2000  1.000      3.018721      5.902343      4.869016
    6   C      6    1.8500  1.000      3.779183      7.752092      4.076850
    7   C      7    1.8500  1.000      4.878863      8.584442      3.933409
    8   H      8    1.2000  1.000      4.790626      9.524847      3.399123
    9   C      9    1.8500  1.000      6.097652      8.178599      4.493516
   10   H     10    1.2000  1.000      6.930165      8.869207      4.351848
   11  Br     11    3.0600  1.000      2.089879      8.272455      3.321975
 ------------------------------------------------------------------------------
 ------------------------------------------------------------------------------
 Atomic radii for non-electrostatic terms: SMD-CDS.
 ------------------------------------------------------------------------------
 Nuclear repulsion after PCM non-electrostatic terms =      415.8265321515 Hartrees.
 One-electron integrals computed using PRISM.
 NBasis=   204 RedAO= T EigKep=  5.04D-06  NBF=   204
 NBsUse=   204 1.00D-06 EigRej= -1.00D+00 NBFU=   204
 Initial guess from the checkpoint file:  "4-br-ph-anion-opt-freq-thf.chk"
 B after Tr=     0.000477   -0.000259    0.000067
         Rot=    1.000000    0.000005    0.000009   -0.000007 Ang=   0.00 deg.
 Keep R1 ints in memory in canonical form, NReq=252016846.
 Requested convergence on RMS density matrix=1.00D-08 within 128 cycles.
 Requested convergence on MAX density matrix=1.00D-06.
 Requested convergence on             energy=1.00D-06.
 Level shift goal  0.100 maximum shift  0.100.
 No special actions if energy rises.
 Dynamic level shift is on during FON iterations.
 Inv3:  Mode=1 IEnd=     4650075.
 Iteration    1 A*A^-1 deviation from unit magnitude is 3.77D-15 for   1237.
 Iteration    1 A*A^-1 deviation from orthogonality  is 1.79D-15 for   1222   1102.
 Iteration    1 A^-1*A deviation from unit magnitude is 3.55D-15 for   1237.
 Iteration    1 A^-1*A deviation from orthogonality  is 1.54D-15 for   1226   1106.
 Error on total polarization charges =  0.04101
 SCF Done:  E(RM062X) =  -2805.22291300     A.U. after   10 cycles
            NFock= 10  Conv=0.84D-08     -V/T= 2.0014
 SMD-CDS (non-electrostatic) energy       (kcal/mol) =      -2.95
 (included in total energy above)
 D1PCM: PCM CHGder 1st derivatives, ID1Alg=3 FixD1E=F DoIter=F DoCFld=F I1PDM=0.
 Calling FoFJK, ICntrl=      2127 FMM=F ISym2X=0 I1Cent= 0 IOpClX= 0 NMat=1 NMatS=1 NMatT=0.
 -------------------------------------------------------------------
 Center     Atomic                   Forces (Hartrees/Bohr)
 Number     Number              X              Y              Z
 -------------------------------------------------------------------
      1        6           0.000057634   -0.000033574    0.000005222
      2        6          -0.000069406   -0.000068190    0.000002233
      3        1          -0.000001093   -0.000009407   -0.000023691
      4        6           0.000003388    0.000032124   -0.000003396
      5        1          -0.000002574    0.000011548    0.000015282
      6        6           0.000005280    0.000007880    0.000016036
      7        6          -0.000012422   -0.000023079    0.000009440
      8        1           0.000009877    0.000001255    0.000011849
      9        6           0.000003890    0.000072420   -0.000059112
     10        1           0.000005321   -0.000016501   -0.000012139
     11       35           0.000000105    0.000025523    0.000038276
 -------------------------------------------------------------------
 Cartesian Forces:  Max     0.000072420 RMS     0.000029495

 GradGradGradGradGradGradGradGradGradGradGradGradGradGradGradGradGradGrad
 Berny optimization.
 Using GEDIIS/GDIIS optimizer.
 FormGI is forming the generalized inverse of G from B-inverse, IUseBI=4.
 Internal  Forces:  Max     0.000069068 RMS     0.000016026
 Search for a local minimum.
 Step number   4 out of a maximum of   57
 All quantities printed in internal units (Hartrees-Bohrs-Radians)
 Mixed Optimization -- En-DIIS/RFO-DIIS
 Swapping is turned off.
 Update second derivatives using D2CorX and points    1    2    3    4
 DE= -2.06D-06 DEPred=-1.97D-06 R= 1.05D+00
 TightC=F SS=  1.41D+00  RLast= 3.51D-03 DXNew= 8.4853D-01 1.0533D-02
 Trust test= 1.05D+00 RLast= 3.51D-03 DXMaxT set to 5.05D-01
 ITU=  1  1  1  0
     Eigenvalues ---    0.01028   0.01868   0.02230   0.02576   0.02590
     Eigenvalues ---    0.02994   0.03663   0.03914   0.10864   0.10949
     Eigenvalues ---    0.11711   0.12136   0.14582   0.18644   0.20061
     Eigenvalues ---    0.20942   0.23939   0.28308   0.35412   0.35580
     Eigenvalues ---    0.36285   0.36433   0.40021   0.42584   0.45673
     Eigenvalues ---    0.50016   0.50677
 En-DIIS/RFO-DIIS/Sim-DIIS IScMMF=       -3 using points:     4    3
 RFO step:  Lambda=-4.33283916D-08.
 DidBck=F Rises=F RFO-DIIS coefs:    0.91010    0.08990
 Iteration  1 RMS(Cart)=  0.00018037 RMS(Int)=  0.00000002
 Iteration  2 RMS(Cart)=  0.00000002 RMS(Int)=  0.00000001
 Variable       Old X    -DE/DX   Delta X   Delta X   Delta X     New X
                                 (Linear)    (Quad)   (Total)
    R1        2.67147   0.00007  -0.00016   0.00033   0.00018   2.67164
    R2        2.67143   0.00007  -0.00016   0.00034   0.00018   2.67162
    R3        2.06155   0.00000  -0.00004   0.00003  -0.00002   2.06153
    R4        2.64819  -0.00001  -0.00004   0.00002  -0.00003   2.64816
    R5        2.05081   0.00000  -0.00001   0.00001   0.00000   2.05081
    R6        2.62070  -0.00001  -0.00005   0.00002  -0.00004   2.62067
    R7        2.62031  -0.00001  -0.00005   0.00002  -0.00004   2.62027
    R8        3.63219  -0.00001  -0.00001  -0.00003  -0.00004   3.63215
    R9        2.05069   0.00000  -0.00001   0.00000  -0.00001   2.05068
   R10        2.64823  -0.00001  -0.00005   0.00001  -0.00003   2.64820
   R11        2.06152   0.00000  -0.00004   0.00003  -0.00002   2.06151
    A1        1.96135   0.00000   0.00006  -0.00008  -0.00002   1.96132
    A2        2.08650   0.00001   0.00001  -0.00002  -0.00001   2.08649
    A3        2.18326  -0.00002  -0.00002  -0.00003  -0.00005   2.18321
    A4        2.01343   0.00001   0.00002   0.00004   0.00006   2.01349
    A5        2.11558  -0.00001  -0.00005  -0.00001  -0.00007   2.11551
    A6        2.06500   0.00001   0.00002   0.00004   0.00005   2.06506
    A7        2.10261   0.00000   0.00003  -0.00002   0.00001   2.10262
    A8        2.10842   0.00001  -0.00005   0.00005   0.00001   2.10843
    A9        2.08741  -0.00001   0.00002  -0.00003   0.00000   2.08741
   A10        2.08735  -0.00001   0.00002  -0.00003  -0.00001   2.08734
   A11        2.10208   0.00000   0.00003  -0.00002   0.00002   2.10210
   A12        2.06525   0.00001   0.00001   0.00004   0.00005   2.06531
   A13        2.11585  -0.00001  -0.00005  -0.00002  -0.00007   2.11578
   A14        2.18308  -0.00002  -0.00002  -0.00003  -0.00005   2.18303
   A15        2.08651   0.00001   0.00001  -0.00002  -0.00002   2.08649
   A16        2.01359   0.00001   0.00001   0.00005   0.00007   2.01365
    D1       -3.14096   0.00000  -0.00001  -0.00020  -0.00021  -3.14116
    D2        0.00135   0.00000  -0.00002  -0.00016  -0.00018   0.00117
    D3       -0.00266   0.00000  -0.00003  -0.00012  -0.00014  -0.00281
    D4        3.14089   0.00000  -0.00003  -0.00016  -0.00019   3.14070
    D5       -3.14122   0.00000   0.00004   0.00023   0.00027  -3.14095
    D6        0.00098   0.00000   0.00005   0.00027   0.00032   0.00130
    D7        0.00105   0.00000   0.00003   0.00027   0.00029   0.00135
    D8       -3.13993   0.00000   0.00003   0.00031   0.00035  -3.13958
    D9       -0.00223   0.00000  -0.00002  -0.00011  -0.00014  -0.00237
   D10        3.13971   0.00000  -0.00002  -0.00011  -0.00013   3.13958
   D11        3.13997   0.00000  -0.00002  -0.00007  -0.00008   3.13988
   D12       -0.00128   0.00000  -0.00001  -0.00007  -0.00008  -0.00136
   D13       -3.14107   0.00000  -0.00002  -0.00008  -0.00010  -3.14117
   D14        0.00104   0.00000  -0.00002  -0.00014  -0.00016   0.00088
   D15        0.00018   0.00000  -0.00003  -0.00008  -0.00011   0.00007
   D16       -3.14090   0.00000  -0.00003  -0.00014  -0.00016  -3.14106
   D17        0.00159   0.00000   0.00005   0.00027   0.00031   0.00191
   D18        3.14130   0.00000   0.00005   0.00031   0.00036  -3.14153
   D19       -3.13948   0.00000   0.00005   0.00021   0.00026  -3.13922
   D20        0.00023   0.00000   0.00004   0.00025   0.00030   0.00053
         Item               Value     Threshold  Converged?
 Maximum Force            0.000069     0.000015     NO 
 RMS     Force            0.000016     0.000010     NO 
 Maximum Displacement     0.000484     0.000060     NO 
 RMS     Displacement     0.000180     0.000040     NO 
 Predicted change in Energy=-2.166420D-08
 GradGradGradGradGradGradGradGradGradGradGradGradGradGradGradGradGradGrad

                          Input orientation:                          
 ---------------------------------------------------------------------
 Center     Atomic      Atomic             Coordinates (Angstroms)
 Number     Number       Type             X           Y           Z
 ---------------------------------------------------------------------
      1          6           0        6.304867    6.972901    5.201940
      2          6           0        5.128116    6.194995    5.296133
      3          1           0        5.155868    5.238798    5.820554
      4          6           0        3.883259    6.549020    4.758765
      5          1           0        3.018662    5.902482    4.869252
      6          6           0        3.779191    7.752088    4.076853
      7          6           0        4.878880    8.584377    3.933309
      8          1           0        4.790696    9.524696    3.398871
      9          6           0        6.097644    8.178698    4.493543
     10          1           0        6.930095    8.869410    4.352089
     11         35           0        2.089903    8.272458    3.322002
 ---------------------------------------------------------------------
                    Distance matrix (angstroms):
                    1          2          3          4          5
     1  C    0.000000
     2  C    1.413773   0.000000
     3  H    2.170252   1.090917   0.000000
     4  C    2.498053   1.401345   2.112726   0.000000
     5  H    3.472121   2.172001   2.431687   1.085241   0.000000
     6  C    2.872629   2.393905   3.354453   1.386797   2.151126
     7  C    2.497943   2.761984   3.851144   2.411497   3.395433
     8  H    3.472093   3.847124   4.936275   3.395202   4.292151
     9  C    1.413759   2.349300   3.360195   2.762190   3.847395
    10  H    2.170231   3.360185   4.299490   3.851338   4.936541
    11  Br   4.794678   4.176575   4.984575   2.872394   2.978819
                    6          7          8          9         10
     6  C    0.000000
     7  C    1.386588   0.000000
     8  H    2.150568   1.085173   0.000000
     9  C    2.393920   1.401365   2.172126   0.000000
    10  H    3.354454   2.112843   2.432088   1.090902   0.000000
    11  Br   1.922050   2.872173   2.977967   4.176516   4.984465
                   11
    11  Br   0.000000
 Symmetry turned off by external request.
 Stoichiometry    C6H4Br(1-)
 Framework group  C1[X(C6H4Br)]
 Deg. of freedom    27
 Full point group                 C1      NOp   1
 Rotational constants (GHZ):           5.8353985           0.9978778           0.8521559
 Standard basis: 6-311+G(d,p) (5D, 7F)
   204 basis functions,   342 primitive gaussians,   213 cartesian basis functions
    38 alpha electrons       38 beta electrons
       nuclear repulsion energy       415.8312455800 Hartrees.
 NAtoms=   11 NActive=   11 NUniq=   11 SFac= 1.00D+00 NAtFMM=   60 NAOKFM=F Big=F
 Integral buffers will be    131072 words long.
 Raffenetti 2 integral format.
 Two-electron integral symmetry is turned off.
 ------------------------------------------------------------------------------
 Polarizable Continuum Model (PCM)
 =================================
 Model                : PCM.
[...]
    A4        2.01349   0.00000   0.00000   0.00000   0.00000   2.01349
    A5        2.11550   0.00000   0.00000   0.00000   0.00000   2.11550
    A6        2.06506   0.00000   0.00000   0.00000   0.00000   2.06506
    A7        2.10262   0.00000   0.00000   0.00000   0.00000   2.10262
    A8        2.10843   0.00000   0.00000   0.00000   0.00000   2.10843
    A9        2.08741   0.00000   0.00000   0.00000   0.00000   2.08741
   A10        2.08734   0.00000   0.00000   0.00000   0.00000   2.08734
   A11        2.10210   0.00000   0.00000   0.00000   0.00000   2.10210
   A12        2.06531   0.00000   0.00000   0.00000   0.00000   2.06531
   A13        2.11578   0.00000   0.00000   0.00000   0.00000   2.11578
   A14        2.18302   0.00000   0.00000   0.00000   0.00000   2.18302
   A15        2.08650   0.00000   0.00000   0.00000   0.00000   2.08650
   A16        2.01366   0.00000   0.00000   0.00000   0.00000   2.01366
    D1       -3.14108   0.00000   0.00000  -0.00001  -0.00001  -3.14109
    D2        0.00123   0.00000   0.00000  -0.00001  -0.00001   0.00122
    D3       -0.00273   0.00000   0.00000  -0.00001  -0.00001  -0.00273
    D4        3.14079   0.00000   0.00000  -0.00001  -0.00001   3.14078
    D5       -3.14107   0.00000   0.00000   0.00001   0.00001  -3.14106
    D6        0.00116   0.00000   0.00000   0.00002   0.00002   0.00118
    D7        0.00122   0.00000   0.00000   0.00001   0.00001   0.00123
    D8       -3.13974   0.00000   0.00000   0.00002   0.00002  -3.13972
    D9       -0.00230   0.00000   0.00000  -0.00001  -0.00001  -0.00231
   D10        3.13965   0.00000   0.00000  -0.00001  -0.00001   3.13964
   D11        3.13993   0.00000   0.00000  -0.00001  -0.00001   3.13992
   D12       -0.00131   0.00000   0.00000   0.00000   0.00000  -0.00132
   D13       -3.14113   0.00000   0.00000   0.00000   0.00000  -3.14113
   D14        0.00095   0.00000   0.00000  -0.00001  -0.00001   0.00094
   D15        0.00011   0.00000   0.00000   0.00000   0.00000   0.00011
   D16       -3.14100   0.00000   0.00000  -0.00001  -0.00001  -3.14101
   D17        0.00176   0.00000   0.00000   0.00002   0.00002   0.00178
   D18        3.14150   0.00000   0.00000   0.00002   0.00002   3.14152
   D19       -3.13935   0.00000   0.00000   0.00001   0.00001  -3.13933
   D20        0.00039   0.00000   0.00000   0.00001   0.00001   0.00041
         Item               Value     Threshold  Converged?
 Maximum Force            0.000002     0.000015     YES
 RMS     Force            0.000000     0.000010     YES
 Maximum Displacement     0.000026     0.000060     YES
 RMS     Displacement     0.000009     0.000040     YES
 Predicted change in Energy=-3.253228D-11
 Optimization completed.
    -- Stationary point found.
                           ----------------------------
                           !   Optimized Parameters   !
                           ! (Angstroms and Degrees)  !
 --------------------------                            --------------------------
 ! Name  Definition              Value          Derivative Info.                !
 --------------------------------------------------------------------------------
 ! R1    R(1,2)                  1.4138         -DE/DX =    0.0                 !
 ! R2    R(1,9)                  1.4138         -DE/DX =    0.0                 !
 ! R3    R(2,3)                  1.0909         -DE/DX =    0.0                 !
 ! R4    R(2,4)                  1.4013         -DE/DX =    0.0                 !
 ! R5    R(4,5)                  1.0852         -DE/DX =    0.0                 !
 ! R6    R(4,6)                  1.3868         -DE/DX =    0.0                 !
 ! R7    R(6,7)                  1.3866         -DE/DX =    0.0                 !
 ! R8    R(6,11)                 1.922          -DE/DX =    0.0                 !
 ! R9    R(7,8)                  1.0852         -DE/DX =    0.0                 !
 ! R10   R(7,9)                  1.4014         -DE/DX =    0.0                 !
 ! R11   R(9,10)                 1.0909         -DE/DX =    0.0                 !
 ! A1    A(2,1,9)              112.3762         -DE/DX =    0.0                 !
 ! A2    A(1,2,3)              119.5472         -DE/DX =    0.0                 !
 ! A3    A(1,2,4)              125.0882         -DE/DX =    0.0                 !
 ! A4    A(3,2,4)              115.3646         -DE/DX =    0.0                 !
 ! A5    A(2,4,5)              121.2093         -DE/DX =    0.0                 !
 ! A6    A(2,4,6)              118.3194         -DE/DX =    0.0                 !
 ! A7    A(5,4,6)              120.4713         -DE/DX =    0.0                 !
 ! A8    A(4,6,7)              120.8044         -DE/DX =    0.0                 !
 ! A9    A(4,6,11)             119.5996         -DE/DX =    0.0                 !
 ! A10   A(7,6,11)             119.596          -DE/DX =    0.0                 !
 ! A11   A(6,7,8)              120.4414         -DE/DX =    0.0                 !
 ! A12   A(6,7,9)              118.3336         -DE/DX =    0.0                 !
 ! A13   A(8,7,9)              121.225          -DE/DX =    0.0                 !
 ! A14   A(1,9,7)              125.0781         -DE/DX =    0.0                 !
 ! A15   A(1,9,10)             119.5476         -DE/DX =    0.0                 !
 ! A16   A(7,9,10)             115.3742         -DE/DX =    0.0                 !
 ! D1    D(9,1,2,3)           -179.9706         -DE/DX =    0.0                 !
 ! D2    D(9,1,2,4)              0.0706         -DE/DX =    0.0                 !
 ! D3    D(2,1,9,7)             -0.1562         -DE/DX =    0.0                 !
 ! D4    D(2,1,9,10)           179.9541         -DE/DX =    0.0                 !
 ! D5    D(1,2,4,5)           -179.9701         -DE/DX =    0.0                 !
 ! D6    D(1,2,4,6)              0.0664         -DE/DX =    0.0                 !
 ! D7    D(3,2,4,5)              0.0696         -DE/DX =    0.0                 !
 ! D8    D(3,2,4,6)           -179.8939         -DE/DX =    0.0                 !
 ! D9    D(2,4,6,7)             -0.1317         -DE/DX =    0.0                 !
 ! D10   D(2,4,6,11)           179.8886         -DE/DX =    0.0                 !
 ! D11   D(5,4,6,7)            179.9046         -DE/DX =    0.0                 !
 ! D12   D(5,4,6,11)            -0.0751         -DE/DX =    0.0                 !
 ! D13   D(4,6,7,8)           -179.9733         -DE/DX =    0.0                 !
 ! D14   D(4,6,7,9)              0.0542         -DE/DX =    0.0                 !
 ! D15   D(11,6,7,8)             0.0064         -DE/DX =    0.0                 !
 ! D16   D(11,6,7,9)          -179.9661         -DE/DX =    0.0                 !
 ! D17   D(6,7,9,1)              0.1009         -DE/DX =    0.0                 !
 ! D18   D(6,7,9,10)           179.9947         -DE/DX =    0.0                 !
 ! D19   D(8,7,9,1)           -179.8714         -DE/DX =    0.0                 !
 ! D20   D(8,7,9,10)             0.0225         -DE/DX =    0.0                 !
 --------------------------------------------------------------------------------
 GradGradGradGradGradGradGradGradGradGradGradGradGradGradGradGradGradGrad


 ----------------------------------------------------------------------

 Electric dipole moment (input orientation):
 (Debye = 10**-18 statcoulomb cm , SI units = C m)
                  (au)            (Debye)         (10**-30 SI)
   Tot        0.197720D+02      0.502554D+02      0.167634D+03
   x         -0.110013D+02     -0.279626D+02     -0.932732D+02
   y         -0.134583D+02     -0.342076D+02     -0.114104D+03
   z         -0.942213D+01     -0.239487D+02     -0.798842D+02

 Dipole polarizability, Alpha (input orientation).
 (esu units = cm**3 , SI units = C**2 m**2 J**-1)
 Alpha(0;0):
               (au)            (10**-24 esu)      (10**-40 SI)
   iso        0.132468D+03      0.196297D+02      0.218410D+02
   aniso      0.882582D+02      0.130785D+02      0.145518D+02
   xx         0.169125D+03      0.250617D+02      0.278849D+02
   yx        -0.673732D+01     -0.998368D+00     -0.111083D+01
   yy         0.125067D+03      0.185331D+02      0.206208D+02
   zx         0.280103D+02      0.415070D+01      0.461828D+01
   zy        -0.252852D+02     -0.374688D+01     -0.416896D+01
   zz         0.103212D+03      0.152945D+02      0.170174D+02

 ----------------------------------------------------------------------

 Dipole orientation:
     6          0.56678393          0.70514156        -20.28299254
     6         -0.91271098          1.26468557        -18.12992199
     1         -0.95934796          3.19268450        -17.40153820
     6         -2.37835169         -0.48905373        -16.79238312
     1         -3.47228910          0.07235444        -15.15106462
     6         -2.39999662         -2.97669285        -17.61642995
     6         -1.01018026         -3.70754790        -19.71406310
     1         -1.03584738         -5.65706352        -20.34968121
     6          0.41774130         -1.87014761        -20.97814719
     1          1.47509775         -2.54431900        -22.61438559
    35         -4.38149157         -5.44126350        -15.82980531

 Electric dipole moment (dipole orientation):
 (Debye = 10**-18 statcoulomb cm , SI units = C m)
                  (au)            (Debye)         (10**-30 SI)
   Tot        0.197720D+02      0.502554D+02      0.167634D+03
   x          0.000000D+00      0.000000D+00      0.000000D+00
   y          0.000000D+00      0.000000D+00      0.000000D+00
   z          0.197720D+02      0.502554D+02      0.167634D+03

 Dipole polarizability, Alpha (dipole orientation).
 (esu units = cm**3 , SI units = C**2 m**2 J**-1)
 Alpha(0;0):
               (au)            (10**-24 esu)      (10**-40 SI)
   iso        0.132468D+03      0.196297D+02      0.218410D+02
   aniso      0.882582D+02      0.130785D+02      0.145518D+02
   xx         0.116700D+03      0.172931D+02      0.192412D+02
   yx         0.271368D+02      0.402126D+01      0.447425D+01
   yy         0.153613D+03      0.227632D+02      0.253274D+02
   zx        -0.370507D+02     -0.549034D+01     -0.610883D+01
   zy        -0.111805D+02     -0.165677D+01     -0.184341D+01
   zz         0.127091D+03      0.188330D+02      0.209545D+02

 ----------------------------------------------------------------------
 Unable to Open any file for archive entry.
 1\1\GINC-CN008\Freq\RM062X\6-311+G(d,p)\C6H4Br1(1-)\TAHMINAAFROZ\27-Ma
 y-2025\0\\#N Geom=AllCheck Guess=TCheck SCRF=Check GenChk RM062X/6-311
 +G(d,p) Freq\\4-br-ph-anion-opt-freq-thf\\-1,1\C,6.304860781,6.9729043
 958,5.2019422232\C,5.1281037324,6.1950052726,5.2961625251\H,5.15583068
 25,5.2388625405,5.8206764842\C,3.883272534,6.5489967301,4.7587191453\H
 ,3.0186972409,5.9024192296,4.8691380478\C,3.7791929111,7.7520864035,4.
 0768524658\C,4.8788685735,8.584397427,3.9333512961\H,4.7906680026,9.52
 47536367,3.3989831732\C,6.097652501,8.1786878468,4.4935118397\H,6.9301
 271523,8.8693483089,4.3519656448\Br,2.0899068887,8.2724602085,3.322009
 1547\\Version=AS64L-G16RevC.01\HF=-2805.222913\RMSD=1.721e-09\RMSF=1.2
 43e-05\ZeroPoint=0.0770108\Thermal=0.0827251\ETot=-2805.1401879\HTot=-
 2805.1392437\GTot=-2805.1767961\Dipole=-4.1107898,1.2680339,-1.8311211
 \DipoleDeriv=-0.3797321,-0.1185936,0.1809554,-0.1212468,-0.7460478,-0.
 0661473,0.1870558,-0.0649829,-0.7199164,-0.0319179,0.0739958,0.0020511
 ,0.2444311,0.1588368,-0.1131819,-0.0897933,-0.1601504,-0.117608,0.0310
 151,-0.0104987,-0.0163528,-0.0598962,-0.1778816,0.1389721,0.0106117,0.
 1513512,0.0305692,-0.4079456,0.0651915,-0.1287969,0.0024782,-0.0178364
 ,-0.0359711,-0.0927102,-0.0184433,-0.1009477,-0.0793391,-0.1181948,-0.
 0051767,-0.0854005,0.0651105,0.0333416,-0.0231326,0.0245572,0.1508128,
 0.9832817,-0.3327972,0.488455,-0.3349287,-0.0005554,-0.1488963,0.48609
 24,-0.1484803,0.1131437,-0.2553291,0.1362377,-0.1202935,0.2000246,-0.1
 128963,0.0688598,-0.1570147,0.0536053,-0.1584526,0.0863041,0.0570756,-
 0.0546799,0.0245479,-0.0369924,0.119395,-0.0376937,0.1281103,0.0920073
 ,-0.053919,0.2213301,-0.084637,0.0500907,0.1727851,-0.1762954,0.000721
 4,-0.1293148,-0.1064592,-0.0960191,-0.1703794,0.0357941,-0.1179918,-0.
 096351,0.078147,0.0097665,0.0647471,0.0767137,-0.796399,0.196633,-0.29
 73188,0.1978914,-0.2081716,0.1017765,-0.2939032,0.0990005,-0.2598628\P
 olar=169.1247538,-6.7373212,125.0672799,28.0103231,-25.2851676,103.212
 2027\Quadrupole=2.7560654,-45.3870114,42.630946,-143.0747325,-108.8486
 481,-127.0534421\PG=C01 [X(C6H4Br1)]\NImag=0\\0.36750363,0.08456000,0.
 40551471,0.03823490,-0.15782436,0.16304514,-0.22917669,-0.08228988,-0.
 00501603,0.56423184,-0.10010119,-0.15062590,0.02518794,0.04396751,0.56
 480632,0.00453688,0.03027478,-0.06749645,0.09427676,-0.21913242,0.2821
 3089,0.00091593,-0.02210888,0.01278489,-0.05343690,0.00832439,-0.00795
 087,0.05960988,-0.00243441,-0.01283742,0.00508536,0.01251713,-0.251365
 11,0.11807932,-0.00615628,0.26891584,0.00211829,-0.00042657,-0.0014124
 1,-0.01016377,0.11693777,-0.10538200,0.01230939,-0.13312573,0.10122887
 ,-0.04837363,-0.03853277,0.00200634,-0.26626908,0.07073482,-0.09402019
 ,-0.00122870,-0.00155849,-0.00089671,0.65961305,0.00689212,0.05232434,
 -0.01581054,-0.00342797,-0.12454315,0.03174599,0.02587469,-0.00651686,
 0.01334898,0.11016116,0.58032432,-0.02263474,-0.02846915,0.02867317,-0
 .05394931,0.05258178,-0.10763606,-0.01569398,0.00570876,-0.00260049,0.
 08805419,-0.21528562,0.26935778,-0.00337193,0.00143946,-0.00344722,-0.
 01526486,-0.01821526,0.00439367,0.00078779,0.00064919,0.00097985,-0.23
 361416,-0.14001369,0.02090981,0.24513146,0.00094061,0.00188964,0.00264
 760,0.00778240,0.00898271,-0.00028136,0.00005998,-0.00032736,-0.001981
 47,-0.13568294,-0.15353205,0.02608724,0.14811610,0.15836942,-0.0032084
 9,0.00277013,0.00391589,-0.00970030,-0.00751692,0.00584558,0.00130350,
 -0.00181850,-0.00268378,0.01856895,0.02491494,-0.04405844,-0.01892178,
 -0.03163614,0.03609637,-0.01044055,-0.02817130,0.01427689,0.02222033,0
 .02417055,-0.00907396,-0.00217150,0.00087478,-0.00324607,-0.10022881,0
 .02731221,-0.02626253,0.00241086,-0.02209228,0.01211821,0.48051870,-0.
 02813839,-0.05807440,0.01973499,0.08844093,-0.00177380,0.02985655,0.00
 004416,0.00327196,0.00237271,-0.03690638,-0.27560501,0.10724405,0.0050
 9833,-0.01195386,0.00891549,0.10868479,0.53009219,0.01437014,0.0196954
 6,-0.01392186,-0.04377265,0.01179645,-0.01099940,-0.00275755,0.0026353
 3,0.00549655,0.00840314,0.12510238,-0.12471617,-0.00263049,0.00135094,
 0.00045432,0.04504055,-0.19893340,0.22720368,0.02609868,0.07148142,-0.
 03691491,-0.06648170,-0.00736235,-0.01248409,-0.00152460,-0.00015577,0
 .00011846,0.03758442,-0.05922417,0.04048893,0.00249089,0.00119718,-0.0
 0183923,-0.23335933,-0.08764700,-0.00122394,0.60770165,0.02617511,0.00
 524983,0.01500574,-0.01668233,-0.00544501,-0.00558809,-0.00039601,0.00
 010055,-0.00095600,-0.01242768,-0.03590503,0.01979623,0.00056600,-0.00
 229660,0.00505021,-0.15199469,-0.19265669,0.03009629,0.06484683,0.6136
 9709,-0.01227540,0.02766591,0.00114359,-0.00749867,-0.00294414,-0.0077
 0052,0.00020320,-0.00091011,-0.00094098,0.01525984,0.00693795,0.007818
 15,-0.00148142,0.00522961,0.00347103,0.03344460,0.04777307,-0.07584077
 ,0.09875426,-0.24555392,0.28807770,-0.00362435,0.00073226,-0.00315466,
 -0.00168959,-0.00021058,-0.00022521,0.00017248,0.00025358,0.00037700,-
 0.00321095,-0.00374394,-0.00075130,0.00027671,-0.00112615,0.00049048,0
 .00282493,-0.02174718,0.01204472,-0.05584995,0.01865544,-0.01564065,0.
 05571849,0.00120474,0.00206770,0.00262850,0.00020877,0.00060057,-0.000
 53074,0.00018085,-0.00042537,-0.00062301,-0.00438811,0.00128471,0.0017
 2992,0.00017523,-0.00038847,0.00064243,0.00546986,-0.01220908,0.009176
 29,0.01433219,-0.26523744,0.12848523,-0.01625559,0.27696296,-0.0034257
 7,0.00251007,0.00399234,-0.00046925,-0.00064940,-0.00027676,0.00041275
 ,-0.00060072,-0.00122212,-0.00038347,0.00188345,0.00559386,-0.00021384
 ,0.00027783,0.00049735,-0.00268087,0.00156603,0.00030995,-0.01333500,0
 .12975706,-0.10990907,0.01762246,-0.14166699,0.10595602,-0.10508256,0.
 00824132,-0.01926883,0.03690656,-0.02370823,0.02357703,-0.00174838,-0.
 00453143,-0.00086737,-0.02317620,0.03017794,-0.02083362,-0.00037400,0.
 00094065,-0.00047508,-0.06188425,-0.04873111,0.00692960,-0.25954773,0.
 07585547,-0.09574698,0.00355039,-0.00190787,0.00081863,0.62119120,0.02
 601917,-0.22931099,0.10154284,-0.04382065,-0.03566103,0.00655569,-0.00
 588484,0.00033821,0.00368641,0.02089986,-0.03291659,0.01968911,0.00135
 400,-0.00023748,0.00024090,0.01552059,0.05142406,-0.01925389,0.0018286
 8,-0.12851834,0.03542537,0.02408657,-0.00289127,0.01067004,0.09480203,
 0.52835054,-0.02885004,0.09649878,-0.11207154,0.03435508,0.01219612,0.
 00209793,-0.00012042,0.00403888,0.00790078,-0.01588366,0.02234241,-0.0
 2362979,-0.00071083,0.00012025,-0.00076120,-0.02783623,-0.03725076,0.0
 2015023,-0.05542159,0.05614455,-0.10966972,-0.01330136,0.00345900,-0.0
 0111317,0.08417539,-0.18397001,0.25909144,0.00717385,0.00308490,0.0009
 7801,0.00316655,-0.00029662,-0.00177983,0.00003370,0.00016389,-0.00006
 597,-0.00002891,0.00114057,-0.00020962,-0.00003838,0.00006594,0.000417
 86,-0.00142199,0.00151006,-0.00336577,-0.02192424,-0.01949676,0.003091
 41,0.00080282,0.00066737,0.00098832,-0.21156063,-0.12617932,0.01987198
 ,0.22584930,-0.01668846,-0.01684784,0.00326052,-0.00164158,-0.00275989
 ,0.00652997,-0.00107256,-0.00078554,0.00010471,0.00093524,-0.00086859,
 -0.00007671,-0.00000049,-0.00028874,-0.00074430,0.00067913,0.00283490,
 0.00280584,0.00788955,0.00654698,0.00128903,0.00008117,-0.00034893,-0.
 00196280,-0.13029031,-0.15093223,0.02415138,0.13952613,0.16341103,0.01
 164068,0.00874500,-0.00369362,-0.00107782,0.00689426,0.00613775,0.0006
 0135,0.00044788,-0.00012345,-0.00005316,-0.00003406,-0.00149447,0.0004
 5495,-0.00072840,-0.00114704,-0.00289752,0.00308327,0.00520845,-0.0117
 7836,-0.00636113,0.00500876,0.00130149,-0.00180850,-0.00267709,0.02214
 698,0.02533372,-0.04675790,-0.01937569,-0.03565335,0.03956617,-0.00162
 239,0.00156347,-0.00047937,0.00579354,0.00269697,-0.00125019,-0.001409
 71,0.00037780,-0.00066310,-0.02106702,0.00485107,-0.00911783,0.0015656
 2,-0.00020150,0.00124589,-0.09846839,0.01939179,-0.03303775,-0.0351880
 9,0.01489863,-0.01811018,0.00102901,0.00031256,0.00066605,0.00172559,-
 0.00862609,0.00372168,-0.00205208,0.00058217,-0.00096290,0.14969394,0.
 00157071,0.00065033,-0.00145859,-0.00505433,-0.00221572,0.00249032,0.0
 0113450,-0.00036891,0.00066220,0.02676528,-0.00404609,0.01099438,0.000
 83112,-0.00021721,-0.00081825,0.01954635,-0.03535028,0.01552832,-0.007
 18654,0.00446464,-0.00339800,-0.00072559,0.00058462,-0.00178457,-0.000
 84847,0.00035511,0.00226941,-0.00018616,0.00003883,0.00008131,-0.03584
 688,0.03610469,-0.00050645,-0.00144007,-0.00217425,0.00301596,0.004648
 56,0.00327903,-0.00109225,0.00045953,-0.00026096,-0.02105527,0.0048541
 1,-0.00730755,0.00066731,-0.00108611,-0.00163008,-0.03288308,0.0156380
 2,-0.03334499,-0.00636452,0.00260906,-0.00145817,0.00123702,-0.0014921
 3,-0.00115131,-0.00045574,0.00007982,0.00476294,-0.00055069,0.00029570
 ,-0.00002756,0.05798771,-0.02456650,0.03931289\\-0.00000220,0.00001558
 ,0.00002160,-0.00000107,0.00000650,0.00001166,0.00000223,0.00001053,0.
 00001771,0.00000424,-0.00000471,-0.00000533,0.00000802,-0.00001148,-0.
 00001114,0.00000287,-0.00000983,-0.00001245,-0.00000293,-0.00000244,-0
 .00000423,-0.00000345,-0.00000559,-0.00001061,-0.00000603,0.00001237,0
 .00001061,-0.00000888,0.00001628,0.00001698,0.00000721,-0.00002720,-0.
 00003479\\\@
 The archive entry for this job was punched.


 One man practicing sportsmanship is far better than 50 preaching it.
 -- Knute K. Rockne
 Job cpu time:       0 days  0 hours 18 minutes 10.9 seconds.
 Elapsed time:       0 days  0 hours  0 minutes 36.7 seconds.
 File lengths (MBytes):  RWF=     87 Int=      0 D2E=      0 Chk=     11 Scr=      1
 Normal termination of Gaussian 16 at Tue May 27 04:26:01 2025.
