/home/tahminaafroz
cn019.cluster.local
tahminaafroz
Sun May 11 03:54:34 CDT 2025
 Entering Gaussian System, Link 0=g16
 Initial command:
 /home/apps/g16/l1.exe "/tmp/4-beta-nap-ph-opt-freq-thf/Gau-57132.inp" -scrdir="/tmp/4-beta-nap-ph-opt-freq-thf/"
 Entering Link 1 = /home/apps/g16/l1.exe PID=     57133.
  
 Copyright (c) 1988-2019, Gaussian, Inc.  All Rights Reserved.
  
 This is part of the Gaussian(R) 16 program.  It is based on
 the Gaussian(R) 09 system (copyright 2009, Gaussian, Inc.),
 the Gaussian(R) 03 system (copyright 2003, Gaussian, Inc.),
 the Gaussian(R) 98 system (copyright 1998, Gaussian, Inc.),
 the Gaussian(R) 94 system (copyright 1995, Gaussian, Inc.),
 the Gaussian 92(TM) system (copyright 1992, Gaussian, Inc.),
 the Gaussian 90(TM) system (copyright 1990, Gaussian, Inc.),
 the Gaussian 88(TM) system (copyright 1988, Gaussian, Inc.),
 the Gaussian 86(TM) system (copyright 1986, Carnegie Mellon
 University), and the Gaussian 82(TM) system (copyright 1983,
 Carnegie Mellon University). Gaussian is a federally registered
 trademark of Gaussian, Inc.
  
 This software contains proprietary and confidential information,
 including trade secrets, belonging to Gaussian, Inc.
  
 This software is provided under written license and may be
 used, copied, transmitted, or stored only in accord with that
 written license.
  
 The following legend is applicable only to US Government
 contracts under FAR:
  
                    RESTRICTED RIGHTS LEGEND
  
 Use, reproduction and disclosure by the US Government is
 subject to restrictions as set forth in subparagraphs (a)
 and (c) of the Commercial Computer Software - Restricted
 Rights clause in FAR 52.227-19.
  
 Gaussian, Inc.
 340 Quinnipiac St., Bldg. 40, Wallingford CT 06492
  
  
 ---------------------------------------------------------------
 Warning -- This program may not be used in any manner that
 competes with the business of Gaussian, Inc. or will provide
 assistance to any competitor of Gaussian, Inc.  The licensee
 of this program is prohibited from giving any competitor of
 Gaussian, Inc. access to this program.  By using this program,
 the user acknowledges that Gaussian, Inc. is engaged in the
 business of creating and licensing software in the field of
 computational chemistry and represents and warrants to the
 licensee that it is not a competitor of Gaussian, Inc. and that
 it will not use this program in any manner prohibited above.
 ---------------------------------------------------------------
  

 Cite this work as:
 Gaussian 16, Revision C.01,
 M. J. Frisch, G. W. Trucks, H. B. Schlegel, G. E. Scuseria, 
 M. A. Robb, J. R. Cheeseman, G. Scalmani, V. Barone, 
 G. A. Petersson, H. Nakatsuji, X. Li, M. Caricato, A. V. Marenich, 
 J. Bloino, B. G. Janesko, R. Gomperts, B. Mennucci, H. P. Hratchian, 
 J. V. Ortiz, A. F. Izmaylov, J. L. Sonnenberg, D. Williams-Young, 
 F. Ding, F. Lipparini, F. Egidi, J. Goings, B. Peng, A. Petrone, 
 T. Henderson, D. Ranasinghe, V. G. Zakrzewski, J. Gao, N. Rega, 
 G. Zheng, W. Liang, M. Hada, M. Ehara, K. Toyota, R. Fukuda, 
 J. Hasegawa, M. Ishida, T. Nakajima, Y. Honda, O. Kitao, H. Nakai, 
 T. Vreven, K. Throssell, J. A. Montgomery, Jr., J. E. Peralta, 
 F. Ogliaro, M. J. Bearpark, J. J. Heyd, E. N. Brothers, K. N. Kudin, 
 V. N. Staroverov, T. A. Keith, R. Kobayashi, J. Normand, 
 K. Raghavachari, A. P. Rendell, J. C. Burant, S. S. Iyengar, 
 J. Tomasi, M. Cossi, J. M. Millam, M. Klene, C. Adamo, R. Cammi, 
 J. W. Ochterski, R. L. Martin, K. Morokuma, O. Farkas, 
 J. B. Foresman, and D. J. Fox, Gaussian, Inc., Wallingford CT, 2019.
 
 ******************************************
 Gaussian 16:  AS64L-G16RevC.01  3-Jul-2019
                11-May-2025 
 ******************************************
 %mem=20GB
 %nprocshared=32
 Will use up to   32 processors via shared memory.
 %chk=4-beta-nap-ph-opt-freq-thf.chk
 ----------------------------------------------------------------------
 # opt=(calcfc,tight) freq 6-311+g(d,p) scrf=(smd,solvent=thf) nosymm s
 cf=(qc,fermi,xqc) geom=connectivity int=ultrafine m062x
 ----------------------------------------------------------------------
 1/7=10,10=4,18=20,19=15,26=6,38=1,57=2/1,3;
 2/9=110,12=2,15=1,17=6,18=5,40=1/2;
 3/5=4,6=6,7=111,11=2,25=1,30=1,70=32201,71=2,72=20,74=-55,75=-5,140=1/1,2,3;
 4//1;
 5/5=2,22=13,38=5,53=20/2;
 8/6=4,10=90,11=11/1;
 11/6=1,8=1,9=11,15=111,16=1,31=1/1,2,10;
 10/6=1,13=1,31=1/2;
 6/7=2,8=2,9=2,10=2,28=1/1;
 7/10=1,25=1,30=1/1,2,3,16;
 1/7=10,10=4,18=20,19=15,26=6/3(2);
 2/9=110,15=1/2;
 99//99;
 2/9=110,15=1/2;
 3/5=4,6=6,7=111,11=2,25=1,30=1,70=32205,71=1,72=20,74=-55,75=-5/1,2,3;
 4/5=5,16=3,69=1/1;
 5/5=2,22=13,38=5,53=20/2;
 7/30=1/1,2,3,16;
 1/7=10,18=20,19=15,26=6/3(-5);
 2/9=110,15=1/2;
 6/7=2,8=2,9=2,10=2,19=2,28=1/1;
 99/9=1/99;
 --------------------------
 4-beta-nap-ph-opt-freq-thf
 --------------------------
 Symbolic Z-matrix:
 Charge =  0 Multiplicity = 2
 C                     6.23602   6.99711   5.28178 
 C                     5.37122   6.11375   4.6264 
 H                     5.62421   5.06185   4.52266 
 C                     4.16383   6.54771   4.08974 
 H                     3.51131   5.84636   3.58092 
 C                     3.78539   7.88923   4.18859 
 C                     4.64023   8.78091   4.84661 
 H                     4.35159   9.82201   4.9463 
 C                     5.84066   8.33787   5.38526 
 H                     6.48597   9.04196   5.89938 
 C                     2.47427   8.33926   3.64832 
 C                     2.37765   9.41721   2.7079 
 C                     1.32699   7.70692   4.07195 
 C                     3.51646   10.06799   2.15664 
 C                     1.08653   9.83388   2.27211 
 C                     0.05011   8.11791   3.62691 
 H                     1.4048    6.89275   4.78459 
 C                     3.37641   11.0915   1.25519 
 H                     4.50807   9.74062   2.44323 
 C                     0.97548   10.90392   1.34431 
 C                    -0.0692    9.16598   2.75527 
 H                    -0.83164   7.60401   3.9919 
 C                     2.09177   11.52393   0.85003 
 H                     4.25714   11.57042   0.84283 
 H                    -0.01573   11.21409   1.02988 
 H                    -1.04395   9.49921   2.41462 
 H                     1.99684   12.33781   0.14044 
 

 GradGradGradGradGradGradGradGradGradGradGradGradGradGradGradGradGradGrad
 Berny optimization.
 Initialization pass.
                           ----------------------------
                           !    Initial Parameters    !
                           ! (Angstroms and Degrees)  !
 --------------------------                            --------------------------
 ! Name  Definition              Value          Derivative Info.                !
 --------------------------------------------------------------------------------
 ! R1    R(1,2)                  1.3992         calculate D2E/DX2 analytically  !
 ! R2    R(1,9)                  1.4017         calculate D2E/DX2 analytically  !
 ! R3    R(2,3)                  1.0869         calculate D2E/DX2 analytically  !
 ! R4    R(2,4)                  1.3907         calculate D2E/DX2 analytically  !
 ! R5    R(4,5)                  1.0847         calculate D2E/DX2 analytically  !
 ! R6    R(4,6)                  1.3974         calculate D2E/DX2 analytically  !
 ! R7    R(6,7)                  1.3996         calculate D2E/DX2 analytically  !
 ! R8    R(6,11)                 1.4878         calculate D2E/DX2 analytically  !
 ! R9    R(7,8)                  1.085          calculate D2E/DX2 analytically  !
 ! R10   R(7,9)                  1.3883         calculate D2E/DX2 analytically  !
 ! R11   R(9,10)                 1.0847         calculate D2E/DX2 analytically  !
 ! R12   R(11,12)                1.4338         calculate D2E/DX2 analytically  !
 ! R13   R(11,13)                1.3768         calculate D2E/DX2 analytically  !
 ! R14   R(12,14)                1.4228         calculate D2E/DX2 analytically  !
 ! R15   R(12,15)                1.425          calculate D2E/DX2 analytically  !
 ! R16   R(13,16)                1.4133         calculate D2E/DX2 analytically  !
 ! R17   R(13,17)                1.0848         calculate D2E/DX2 analytically  !
 ! R18   R(14,18)                1.3711         calculate D2E/DX2 analytically  !
 ! R19   R(14,19)                1.0829         calculate D2E/DX2 analytically  !
 ! R20   R(15,20)                1.4206         calculate D2E/DX2 analytically  !
 ! R21   R(15,21)                1.4196         calculate D2E/DX2 analytically  !
 ! R22   R(16,21)                1.3684         calculate D2E/DX2 analytically  !
 ! R23   R(16,22)                1.0839         calculate D2E/DX2 analytically  !
 ! R24   R(18,23)                1.4147         calculate D2E/DX2 analytically  !
 ! R25   R(18,24)                1.084          calculate D2E/DX2 analytically  !
 ! R26   R(20,23)                1.3692         calculate D2E/DX2 analytically  !
 ! R27   R(20,25)                1.0852         calculate D2E/DX2 analytically  !
 ! R28   R(21,26)                1.085          calculate D2E/DX2 analytically  !
 ! R29   R(23,27)                1.0839         calculate D2E/DX2 analytically  !
 ! A1    A(2,1,9)              117.6547         calculate D2E/DX2 analytically  !
 ! A2    A(1,2,3)              120.7879         calculate D2E/DX2 analytically  !
 ! A3    A(1,2,4)              121.3552         calculate D2E/DX2 analytically  !
 ! A4    A(3,2,4)              117.8569         calculate D2E/DX2 analytically  !
 ! A5    A(2,4,5)              120.1004         calculate D2E/DX2 analytically  !
 ! A6    A(2,4,6)              120.4906         calculate D2E/DX2 analytically  !
 ! A7    A(5,4,6)              119.4062         calculate D2E/DX2 analytically  !
 ! A8    A(4,6,7)              118.651          calculate D2E/DX2 analytically  !
 ! A9    A(4,6,11)             120.2236         calculate D2E/DX2 analytically  !
 ! A10   A(7,6,11)             121.0834         calculate D2E/DX2 analytically  !
 ! A11   A(6,7,8)              119.4753         calculate D2E/DX2 analytically  !
 ! A12   A(6,7,9)              120.479          calculate D2E/DX2 analytically  !
 ! A13   A(8,7,9)              120.0398         calculate D2E/DX2 analytically  !
 ! A14   A(1,9,7)              121.3658         calculate D2E/DX2 analytically  !
 ! A15   A(1,9,10)             119.2161         calculate D2E/DX2 analytically  !
 ! A16   A(7,9,10)             119.4179         calculate D2E/DX2 analytically  !
 ! A17   A(6,11,12)            121.6681         calculate D2E/DX2 analytically  !
 ! A18   A(6,11,13)            118.9271         calculate D2E/DX2 analytically  !
 ! A19   A(12,11,13)           119.4035         calculate D2E/DX2 analytically  !
 ! A20   A(11,12,14)           122.9616         calculate D2E/DX2 analytically  !
 ! A21   A(11,12,15)           118.7835         calculate D2E/DX2 analytically  !
 ! A22   A(14,12,15)           118.2285         calculate D2E/DX2 analytically  !
 ! A23   A(11,13,16)           121.4947         calculate D2E/DX2 analytically  !
 ! A24   A(11,13,17)           119.1478         calculate D2E/DX2 analytically  !
 ! A25   A(16,13,17)           119.3356         calculate D2E/DX2 analytically  !
 ! A26   A(12,14,18)           120.96           calculate D2E/DX2 analytically  !
 ! A27   A(12,14,19)           119.4811         calculate D2E/DX2 analytically  !
 ! A28   A(18,14,19)           119.5535         calculate D2E/DX2 analytically  !
 ! A29   A(12,15,20)           119.3943         calculate D2E/DX2 analytically  !
 ! A30   A(12,15,21)           119.7354         calculate D2E/DX2 analytically  !
 ! A31   A(20,15,21)           120.8653         calculate D2E/DX2 analytically  !
 ! A32   A(13,16,21)           120.1386         calculate D2E/DX2 analytically  !
 ! A33   A(13,16,22)           119.4113         calculate D2E/DX2 analytically  !
 ! A34   A(21,16,22)           120.4456         calculate D2E/DX2 analytically  !
 ! A35   A(14,18,23)           120.6126         calculate D2E/DX2 analytically  !
 ! A36   A(14,18,24)           119.797          calculate D2E/DX2 analytically  !
 ! A37   A(23,18,24)           119.5889         calculate D2E/DX2 analytically  !
 ! A38   A(15,20,23)           120.8702         calculate D2E/DX2 analytically  !
 ! A39   A(15,20,25)           118.4206         calculate D2E/DX2 analytically  !
 ! A40   A(23,20,25)           120.7076         calculate D2E/DX2 analytically  !
 ! A41   A(15,21,16)           120.4091         calculate D2E/DX2 analytically  !
 ! A42   A(15,21,26)           118.6886         calculate D2E/DX2 analytically  !
 ! A43   A(16,21,26)           120.901          calculate D2E/DX2 analytically  !
 ! A44   A(18,23,20)           119.9015         calculate D2E/DX2 analytically  !
 ! A45   A(18,23,27)           119.7699         calculate D2E/DX2 analytically  !
 ! A46   A(20,23,27)           120.3248         calculate D2E/DX2 analytically  !
 ! D1    D(9,1,2,3)           -179.6111         calculate D2E/DX2 analytically  !
 ! D2    D(9,1,2,4)              0.2885         calculate D2E/DX2 analytically  !
 ! D3    D(2,1,9,7)             -0.6131         calculate D2E/DX2 analytically  !
 ! D4    D(2,1,9,10)           179.2274         calculate D2E/DX2 analytically  !
 ! D5    D(1,2,4,5)            179.6603         calculate D2E/DX2 analytically  !
 ! D6    D(1,2,4,6)              0.2682         calculate D2E/DX2 analytically  !
 ! D7    D(3,2,4,5)             -0.4372         calculate D2E/DX2 analytically  !
 ! D8    D(3,2,4,6)           -179.8293         calculate D2E/DX2 analytically  !
 ! D9    D(2,4,6,7)             -0.5048         calculate D2E/DX2 analytically  !
 ! D10   D(2,4,6,11)          -178.1715         calculate D2E/DX2 analytically  !
 ! D11   D(5,4,6,7)           -179.9011         calculate D2E/DX2 analytically  !
 ! D12   D(5,4,6,11)             2.4322         calculate D2E/DX2 analytically  !
 ! D13   D(4,6,7,8)           -178.9363         calculate D2E/DX2 analytically  !
 ! D14   D(4,6,7,9)              0.1845         calculate D2E/DX2 analytically  !
 ! D15   D(11,6,7,8)            -1.2905         calculate D2E/DX2 analytically  !
 ! D16   D(11,6,7,9)           177.8303         calculate D2E/DX2 analytically  !
 ! D17   D(4,6,11,12)         -125.7206         calculate D2E/DX2 analytically  !
 ! D18   D(4,6,11,13)           54.7052         calculate D2E/DX2 analytically  !
 ! D19   D(7,6,11,12)           56.6703         calculate D2E/DX2 analytically  !
 ! D20   D(7,6,11,13)         -122.9039         calculate D2E/DX2 analytically  !
 ! D21   D(6,7,9,1)              0.3832         calculate D2E/DX2 analytically  !
 ! D22   D(6,7,9,10)          -179.4569         calculate D2E/DX2 analytically  !
 ! D23   D(8,7,9,1)            179.4991         calculate D2E/DX2 analytically  !
 ! D24   D(8,7,9,10)            -0.3411         calculate D2E/DX2 analytically  !
 ! D25   D(6,11,12,14)           4.4447         calculate D2E/DX2 analytically  !
 ! D26   D(6,11,12,15)        -177.4581         calculate D2E/DX2 analytically  !
 ! D27   D(13,11,12,14)       -175.9831         calculate D2E/DX2 analytically  !
 ! D28   D(13,11,12,15)          2.1141         calculate D2E/DX2 analytically  !
 ! D29   D(6,11,13,16)         177.9553         calculate D2E/DX2 analytically  !
 ! D30   D(6,11,13,17)          -0.3323         calculate D2E/DX2 analytically  !
 ! D31   D(12,11,13,16)         -1.6287         calculate D2E/DX2 analytically  !
 ! D32   D(12,11,13,17)       -179.9164         calculate D2E/DX2 analytically  !
 ! D33   D(11,12,14,18)        179.7109         calculate D2E/DX2 analytically  !
 ! D34   D(11,12,14,19)          0.5626         calculate D2E/DX2 analytically  !
 ! D35   D(15,12,14,18)          1.6037         calculate D2E/DX2 analytically  !
 ! D36   D(15,12,14,19)       -177.5446         calculate D2E/DX2 analytically  !
 ! D37   D(11,12,15,20)        179.7698         calculate D2E/DX2 analytically  !
 ! D38   D(11,12,15,21)         -1.0331         calculate D2E/DX2 analytically  !
 ! D39   D(14,12,15,20)         -2.0421         calculate D2E/DX2 analytically  !
 ! D40   D(14,12,15,21)        177.1549         calculate D2E/DX2 analytically  !
 ! D41   D(11,13,16,21)         -0.0022         calculate D2E/DX2 analytically  !
 ! D42   D(11,13,16,22)       -179.2303         calculate D2E/DX2 analytically  !
 ! D43   D(17,13,16,21)        178.2823         calculate D2E/DX2 analytically  !
 ! D44   D(17,13,16,22)         -0.9458         calculate D2E/DX2 analytically  !
 ! D45   D(12,14,18,23)         -0.0853         calculate D2E/DX2 analytically  !
 ! D46   D(12,14,18,24)       -179.6591         calculate D2E/DX2 analytically  !
 ! D47   D(19,14,18,23)        179.0624         calculate D2E/DX2 analytically  !
 ! D48   D(19,14,18,24)         -0.5114         calculate D2E/DX2 analytically  !
 ! D49   D(12,15,20,23)          1.003          calculate D2E/DX2 analytically  !
 ! D50   D(12,15,20,25)       -179.4653         calculate D2E/DX2 analytically  !
 ! D51   D(21,15,20,23)       -178.1847         calculate D2E/DX2 analytically  !
 ! D52   D(21,15,20,25)          1.347          calculate D2E/DX2 analytically  !
 ! D53   D(12,15,21,16)         -0.5799         calculate D2E/DX2 analytically  !
 ! D54   D(12,15,21,26)        179.8159         calculate D2E/DX2 analytically  !
 ! D55   D(20,15,21,16)        178.6051         calculate D2E/DX2 analytically  !
 ! D56   D(20,15,21,26)         -0.9991         calculate D2E/DX2 analytically  !
 ! D57   D(13,16,21,15)          1.1207         calculate D2E/DX2 analytically  !
 ! D58   D(13,16,21,26)       -179.284          calculate D2E/DX2 analytically  !
 ! D59   D(22,16,21,15)       -179.6593         calculate D2E/DX2 analytically  !
 ! D60   D(22,16,21,26)         -0.064          calculate D2E/DX2 analytically  !
 ! D61   D(14,18,23,20)         -1.015          calculate D2E/DX2 analytically  !
 ! D62   D(14,18,23,27)        179.6839         calculate D2E/DX2 analytically  !
 ! D63   D(24,18,23,20)        178.5596         calculate D2E/DX2 analytically  !
 ! D64   D(24,18,23,27)         -0.7415         calculate D2E/DX2 analytically  !
 ! D65   D(15,20,23,18)          0.54           calculate D2E/DX2 analytically  !
 ! D66   D(15,20,23,27)        179.8371         calculate D2E/DX2 analytically  !
 ! D67   D(25,20,23,18)       -178.981          calculate D2E/DX2 analytically  !
 ! D68   D(25,20,23,27)          0.3161         calculate D2E/DX2 analytically  !
 --------------------------------------------------------------------------------
 Trust Radius=3.00D-01 FncErr=5.00D-06 GrdErr=5.00D-06 EigMax=2.50D+02 EigMin=1.00D-04
 Number of steps in this run=    153 maximum allowed number of steps=    162.
 GradGradGradGradGradGradGradGradGradGradGradGradGradGradGradGradGradGrad

                          Input orientation:                          
 ---------------------------------------------------------------------
 Center     Atomic      Atomic             Coordinates (Angstroms)
 Number     Number       Type             X           Y           Z
 ---------------------------------------------------------------------
      1          6           0        6.236025    6.997106    5.281778
      2          6           0        5.371216    6.113748    4.626395
      3          1           0        5.624207    5.061854    4.522661
      4          6           0        4.163835    6.547712    4.089739
      5          1           0        3.511311    5.846361    3.580916
      6          6           0        3.785385    7.889234    4.188589
      7          6           0        4.640233    8.780912    4.846611
      8          1           0        4.351586    9.822012    4.946304
      9          6           0        5.840658    8.337874    5.385259
     10          1           0        6.485974    9.041965    5.899383
     11          6           0        2.474273    8.339259    3.648318
     12          6           0        2.377645    9.417207    2.707902
     13          6           0        1.326985    7.706920    4.071946
     14          6           0        3.516463   10.067995    2.156644
     15          6           0        1.086530    9.833882    2.272111
     16          6           0        0.050108    8.117909    3.626913
     17          1           0        1.404796    6.892746    4.784588
     18          6           0        3.376414   11.091498    1.255193
     19          1           0        4.508071    9.740621    2.443234
     20          6           0        0.975477   10.903922    1.344309
     21          6           0       -0.069203    9.165983    2.755270
     22          1           0       -0.831638    7.604009    3.991899
     23          6           0        2.091774   11.523929    0.850034
     24          1           0        4.257143   11.570419    0.842828
     25          1           0       -0.015731   11.214092    1.029876
     26          1           0       -1.043952    9.499206    2.414615
     27          1           0        1.996838   12.337808    0.140443
 ---------------------------------------------------------------------
                    Distance matrix (angstroms):
                    1          2          3          4          5
     1  C    0.000000
     2  C    1.399194   0.000000
     3  H    2.166975   1.086851   0.000000
     4  C    2.432464   1.390717   2.127882   0.000000
     5  H    3.411922   2.150295   2.442676   1.084703   0.000000
     6  C    2.827824   2.420513   3.389240   1.397382   2.148886
     7  C    2.432671   2.774274   3.860640   2.405617   3.389401
     8  H    3.412294   3.859172   4.945517   3.389689   4.286741
     9  C    1.401671   2.396453   3.394589   2.773948   3.858646
    10  H    2.150665   3.381958   4.298754   3.858554   4.943257
    11  C    4.315130   3.781774   4.629033   2.501822   2.700839
    12  C    5.231522   4.853342   5.727357   3.651568   3.846855
    13  C    5.105507   4.381942   5.066126   3.064604   2.911026
    14  C    5.156825   5.017554   5.924700   4.067965   4.455420
    15  C    6.604748   6.143337   6.959004   4.855151   4.846943
    16  C    6.500796   5.773198   6.419690   4.427468   4.140286
    17  H    4.857866   4.045287   4.606973   2.866036   2.642187
    18  C    6.415201   6.334211   7.217030   5.413010   5.739220
    19  H    4.309296   4.320349   5.240290   3.608898   4.177692
    20  C    7.644622   7.282882   8.114331   6.056367   6.083731
    21  C    7.130440   6.512711   7.237573   5.153131   4.951935
    22  H    7.209992   6.410839   6.958606   5.106867   4.703131
    23  C    7.570158   7.367883   8.229501   6.289027   6.458141
    24  H    6.673488   6.732889   7.600753   5.981532   6.388915
    25  H    8.657141   8.244250   9.047568   6.971846   6.910888
    26  H    8.214572   7.583382   8.282409   6.215980   5.954322
    27  H    8.539738   8.381475   9.235862   7.336077   7.501291
                    6          7          8          9         10
     6  C    0.000000
     7  C    1.399588   0.000000
     8  H    2.151824   1.084963   0.000000
     9  C    2.420216   1.388324   2.147716   0.000000
    10  H    3.398350   2.140850   2.464233   1.084666   0.000000
    11  C    1.487760   2.514428   2.721696   3.788075   4.653476
    12  C    2.551248   3.177775   3.011769   4.508399   5.215815
    13  C    2.467909   3.568077   3.792931   4.743009   5.633564
    14  C    2.991341   3.186748   2.922352   4.338105   4.886597
    15  C    3.839057   4.512826   4.220431   5.876348   6.552727
    16  C    3.784186   4.795465   4.811182   6.055628   6.887552
    17  H    2.648661   3.746608   4.158163   4.703836   5.628524
    18  C    4.361945   4.453575   4.023289   5.541876   5.953020
    19  H    2.645028   2.591279   2.509277   3.521221   4.042918
    20  C    5.007380   5.495792   5.054009   6.825237   7.387906
    21  C    4.306082   5.167279   4.977387   6.521431   7.271257
    22  H    4.630004   5.661891   5.718062   6.855621   7.697640
    23  C    5.217785   5.476442   4.978223   6.691289   7.138982
    24  H    4.996778   4.894730   4.461430   5.795735   6.076966
    25  H    5.956562   6.493522   6.029076   7.844698   8.408472
    26  H    5.390871   6.224187   5.968709   7.587574   8.309781
    27  H    6.275046   6.464291   5.913575   7.634299   8.011262
                   11         12         13         14         15
    11  C    0.000000
    12  C    1.433768   0.000000
    13  C    1.376802   2.426847   0.000000
    14  C    2.509936   1.422785   3.746581   0.000000
    15  C    2.460422   1.424960   2.796639   2.443914   0.000000
    16  C    2.434344   2.819607   1.413287   4.240300   2.419550
    17  H    2.127743   3.410566   1.084801   4.631137   3.881252
    18  C    3.757090   2.431286   4.856915   1.371053   2.803442
    19  H    2.748159   2.171028   4.111928   1.082864   3.427087
    20  C    3.759301   2.456783   4.217153   2.795581   1.420611
    21  C    2.819624   2.460167   2.410776   3.745528   1.419595
    22  H    3.404069   3.903310   2.162557   5.324037   3.407253
    23  C    4.256621   2.823415   5.053234   2.420065   2.426742
    24  H    4.635709   3.412819   5.825775   2.128849   3.887312
    25  H    4.617469   3.431154   4.832942   3.880662   2.159423
    26  H    3.904537   3.435123   3.402995   4.602983   2.161312
    27  H    5.340555   3.907271   6.111509   3.395052   3.412084
                   16         17         18         19         20
    16  C    0.000000
    17  H    2.162502   0.000000
    18  C    5.052880   5.828673   0.000000
    19  H    4.889553   4.818988   2.125314   0.000000
    20  C    3.718663   5.301827   2.409901   3.878160   0.000000
    21  C    1.368377   3.385027   4.222572   4.623744   2.470344
    22  H    1.083875   2.477072   6.112270   5.956170   4.600524
    23  C    4.845661   6.115596   1.414726   3.399554   1.369246
    24  H    6.113109   6.749369   1.084017   2.443855   3.386005
    25  H    4.041693   5.898287   3.401830   4.963213   1.085158
    26  H    2.138835   4.290311   4.839348   5.557343   2.682699
    27  H    5.809714   7.181037   2.167761   4.284217   2.132721
                   21         22         23         24         25
    21  C    0.000000
    22  H    2.133148   0.000000
    23  C    3.722856   5.812351   0.000000
    24  H    5.306224   7.179467   2.165880   0.000000
    25  H    2.678543   4.740462   2.137737   4.291784   0.000000
    26  H    1.084997   2.474808   4.047245   5.904409   2.432195
    27  H    4.600687   6.726280   1.083942   2.488214   2.470681
                   26         27
    26  H    0.000000
    27  H    4.740878   0.000000
 Symmetry turned off by external request.
 Stoichiometry    C16H11(2)
 Framework group  C1[X(C16H11)]
 Deg. of freedom    75
 Full point group                 C1      NOp   1
 Rotational constants (GHZ):           1.0767093           0.3863463           0.3040407
 Standard basis: 6-311+G(d,p) (5D, 7F)
   418 basis functions,   664 primitive gaussians,   434 cartesian basis functions
    54 alpha electrons       53 beta electrons
       nuclear repulsion energy       940.9101156744 Hartrees.
 NAtoms=   27 NActive=   27 NUniq=   27 SFac= 1.00D+00 NAtFMM=   60 NAOKFM=F Big=F
 Integral buffers will be    131072 words long.
 Raffenetti 2 integral format.
 Two-electron integral symmetry is turned off.
 Force inversion solution in PCM.
 ------------------------------------------------------------------------------
 Polarizable Continuum Model (PCM)
 =================================
 Model                : PCM.
 Atomic radii         : SMD-Coulomb.
 Polarization charges : Total charges.
 Charge compensation  : None.
 Solution method      : Matrix inversion.
 Cavity type          : VdW (van der Waals Surface) (Alpha=1.000).
 Cavity algorithm     : GePol (No added spheres)
                        Default sphere list used, NSphG=   27.
                        Lebedev-Laikov grids with approx.  5.0 points / Ang**2.
                        Smoothing algorithm: York/Karplus (Gamma=1.0000).
                        Polarization charges: spherical gaussians, with
                                              point-specific exponents (IZeta= 3).
                        Self-potential: point-specific (ISelfS= 7).
                        Self-field    : sphere-specific E.n sum rule (ISelfD= 2).
 1st derivatives      : Analytical E(r).r(x)/FMM algorithm (CHGder, D1EAlg=3).
                        Cavity 1st derivative terms included.
 2nd derivatives      : Analytical E(r).r(xy)/FMM algorithm (CHGder, D2EAlg=3).
                        Cavity 2nd derivative terms included.
 Solvent              : TetraHydroFuran, Eps=   7.425700 Eps(inf)=   1.974025
 ------------------------------------------------------------------------------
 ------------------------------------------------------------------------------
 Atomic radii for non-electrostatic terms: SMD-CDS.
 ------------------------------------------------------------------------------
 Nuclear repulsion after PCM non-electrostatic terms =      940.9030402474 Hartrees.
 One-electron integrals computed using PRISM.
 NBasis=   418 RedAO= T EigKep=  1.12D-06  NBF=   418
 NBsUse=   414 1.00D-06 EigRej=  8.07D-07 NBFU=   414
 ExpMin= 4.38D-02 ExpMax= 4.56D+03 ExpMxC= 6.82D+02 IAcc=3 IRadAn=         5 AccDes= 0.00D+00
 Harris functional with IExCor= 1009 and IRadAn=       5 diagonalized for initial guess.
 HarFok:  IExCor= 1009 AccDes= 0.00D+00 IRadAn=         5 IDoV= 1 UseB2=F ITyADJ=14
 ICtDFT=  3500011 ScaDFX=  1.000000  1.000000  1.000000  1.000000
 FoFCou: FMM=F IPFlag=           0 FMFlag=      100000 FMFlg1=           0
         NFxFlg=           0 DoJE=T BraDBF=F KetDBF=T FulRan=T
         wScrn=  0.000000 ICntrl=       500 IOpCl=  0 I1Cent=   200000004 NGrid=           0
         NMat0=    1 NMatS0=      1 NMatT0=    0 NMatD0=    1 NMtDS0=    0 NMtDT0=    0
 Symmetry not used in FoFCou.
 Initial guess <Sx>= 0.0000 <Sy>= 0.0000 <Sz>= 0.5000 <S**2>= 0.7500 S= 0.5000
 Requested convergence on RMS density matrix=1.00D-08 within 128 cycles.
 Requested convergence on MAX density matrix=1.00D-06.
 Requested convergence on             energy=1.00D-06.
 Level shift goal  0.100 maximum shift  0.100.
 No special actions if energy rises.
 Dynamic level shift is on during FON iterations.
 Inv3:  Mode=1 IEnd=    14009763.
 Iteration    1 A*A^-1 deviation from unit magnitude is 6.22D-15 for   2158.
 Iteration    1 A*A^-1 deviation from orthogonality  is 2.41D-15 for   2145   2107.
 Iteration    1 A^-1*A deviation from unit magnitude is 6.00D-15 for   2158.
 Iteration    1 A^-1*A deviation from orthogonality  is 2.09D-15 for    912    748.
 Error on total polarization charges =  0.05389
 SCF Done:  E(UM062X) =  -616.157448949     A.U. after   19 cycles
            NFock= 19  Conv=0.83D-08     -V/T= 2.0043
 <Sx>= 0.0000 <Sy>= 0.0000 <Sz>= 0.5000 <S**2>= 0.7640 S= 0.5070
 <L.S>=  0.00000000000    
 SMD-CDS (non-electrostatic) energy       (kcal/mol) =      -4.44
 (included in total energy above)
 Annihilation of the first spin contaminant:
 S**2 before annihilation     0.7640,   after     0.7501
 DoSCS=F DFT=T ScalE2(SS,OS)=  1.000000  1.000000
 Range of M.O.s used for correlation:     1   414
 NBasis=   418 NAE=    54 NBE=    53 NFC=     0 NFV=     0
 NROrb=    414 NOA=    54 NOB=    53 NVA=   360 NVB=   361

 **** Warning!!: The largest alpha MO coefficient is  0.13444749D+03


 **** Warning!!: The largest beta MO coefficient is  0.13644706D+03

 Symmetrizing basis deriv contribution to polar:
 IMax=3 JMax=2 DiffMx= 0.00D+00
 G2DrvN: will do    28 centers at a time, making    1 passes.
 Calling FoFCou, ICntrl=  3107 FMM=F I1Cent=   0 AccDes= 0.00D+00.
 NEqPCM:  Using equilibrium solvation (IEInf=0, Eps=   7.4257, EpsInf=   1.9740)
 G2PCM: DoFxE=T DoFxN=T DoGrad=T DoDP/DQ/DG/TGxP=FFFF NFrqRd=   0 IEInf=0 SqF1=F DoCFld=F IF1Alg=4.
 End of G2Drv F.D. properties file   721 does not exist.
 End of G2Drv F.D. properties file   722 does not exist.
 End of G2Drv F.D. properties file   788 does not exist.
          IDoAtm=111111111111111111111111111
 NEqPCM:  Using equilibrium solvation (IEInf=0, Eps=   7.4257, EpsInf=   1.9740)
          Differentiating once with respect to nuclear coordinates.
 CalDSu exits because no D1Ps are significant.
          There are    84 degrees of freedom in the 1st order CPHF.  IDoFFX=6 NUNeed=     0.
     78 vectors produced by pass  0 Test12= 4.59D-14 1.19D-09 XBig12= 4.07D-01 1.11D-01.
 AX will form    78 AO Fock derivatives at one time.
     78 vectors produced by pass  1 Test12= 4.59D-14 1.19D-09 XBig12= 3.27D-02 3.83D-02.
     78 vectors produced by pass  2 Test12= 4.59D-14 1.19D-09 XBig12= 1.26D-03 6.14D-03.
     78 vectors produced by pass  3 Test12= 4.59D-14 1.19D-09 XBig12= 1.41D-05 6.12D-04.
     78 vectors produced by pass  4 Test12= 4.59D-14 1.19D-09 XBig12= 1.80D-07 7.10D-05.
     78 vectors produced by pass  5 Test12= 4.59D-14 1.19D-09 XBig12= 2.32D-09 5.28D-06.
     78 vectors produced by pass  6 Test12= 4.59D-14 1.19D-09 XBig12= 1.67D-11 3.23D-07.
     48 vectors produced by pass  7 Test12= 4.59D-14 1.19D-09 XBig12= 1.04D-13 2.50D-08.
      3 vectors produced by pass  8 Test12= 4.59D-14 1.19D-09 XBig12= 7.03D-16 1.64D-09.
 InvSVY:  IOpt=1 It=  1 EMax= 1.55D-15
 Solved reduced A of dimension   597 with    84 vectors.
 End of Minotr F.D. properties file   721 does not exist.
 End of Minotr F.D. properties file   722 does not exist.
 End of Minotr F.D. properties file   788 does not exist.

 **********************************************************************

            Population analysis using the SCF Density.

 **********************************************************************

 Alpha  occ. eigenvalues --  -10.58153 -10.56094 -10.56006 -10.55974 -10.55674
 Alpha  occ. eigenvalues --  -10.55443 -10.55428 -10.55222 -10.55175 -10.54599
 Alpha  occ. eigenvalues --  -10.54569 -10.54562 -10.54524 -10.54461 -10.54443
 Alpha  occ. eigenvalues --  -10.54385  -0.99344  -0.97135  -0.93019  -0.89206
 Alpha  occ. eigenvalues --   -0.85401  -0.84604  -0.84042  -0.80853  -0.71809
 Alpha  occ. eigenvalues --   -0.70655  -0.69728  -0.68896  -0.65861  -0.60252
 Alpha  occ. eigenvalues --   -0.58826  -0.57194  -0.55860  -0.53371  -0.52450
 Alpha  occ. eigenvalues --   -0.51364  -0.50217  -0.49350  -0.48488  -0.47418
 Alpha  occ. eigenvalues --   -0.46838  -0.46395  -0.44829  -0.43135  -0.41192
 Alpha  occ. eigenvalues --   -0.39995  -0.39502  -0.38929  -0.35340  -0.32843
 Alpha  occ. eigenvalues --   -0.31811  -0.31651  -0.30176  -0.26693
 Alpha virt. eigenvalues --   -0.02476   0.00391   0.00553   0.01306   0.01642
 Alpha virt. eigenvalues --    0.02525   0.02641   0.03574   0.04064   0.04270
 Alpha virt. eigenvalues --    0.04816   0.05009   0.05566   0.05861   0.06312
 Alpha virt. eigenvalues --    0.06831   0.07552   0.07733   0.08736   0.09355
 Alpha virt. eigenvalues --    0.09681   0.10170   0.10305   0.10693   0.11335
 Alpha virt. eigenvalues --    0.11841   0.13046   0.13115   0.13528   0.13792
 Alpha virt. eigenvalues --    0.14706   0.14918   0.15235   0.15824   0.16069
 Alpha virt. eigenvalues --    0.16284   0.16904   0.17216   0.18025   0.18318
 Alpha virt. eigenvalues --    0.18536   0.18990   0.19301   0.19823   0.20184
 Alpha virt. eigenvalues --    0.20579   0.20741   0.21158   0.21791   0.22280
 Alpha virt. eigenvalues --    0.22525   0.22652   0.22981   0.23395   0.23837
 Alpha virt. eigenvalues --    0.23926   0.24366   0.24513   0.25001   0.25683
 Alpha virt. eigenvalues --    0.25876   0.26142   0.26347   0.26802   0.26828
 Alpha virt. eigenvalues --    0.27235   0.27397   0.27978   0.28892   0.29200
 Alpha virt. eigenvalues --    0.29477   0.29737   0.30298   0.30501   0.31148
 Alpha virt. eigenvalues --    0.32100   0.32204   0.32560   0.33112   0.34234
 Alpha virt. eigenvalues --    0.34776   0.35832   0.36088   0.36698   0.37164
 Alpha virt. eigenvalues --    0.37497   0.38542   0.39921   0.41009   0.42657
 Alpha virt. eigenvalues --    0.45110   0.50106   0.51392   0.51893   0.52647
 Alpha virt. eigenvalues --    0.54016   0.55260   0.56825   0.57087   0.57426
 Alpha virt. eigenvalues --    0.58347   0.58546   0.58877   0.59945   0.60241
 Alpha virt. eigenvalues --    0.60730   0.61386   0.62519   0.62690   0.63116
 Alpha virt. eigenvalues --    0.63488   0.64304   0.64513   0.64552   0.65434
 Alpha virt. eigenvalues --    0.66154   0.66351   0.67328   0.68938   0.69452
 Alpha virt. eigenvalues --    0.70262   0.70841   0.71252   0.72264   0.73348
 Alpha virt. eigenvalues --    0.74614   0.75453   0.75722   0.76082   0.76495
 Alpha virt. eigenvalues --    0.76953   0.77167   0.77595   0.78291   0.78677
 Alpha virt. eigenvalues --    0.79234   0.79607   0.80613   0.80839   0.81757
 Alpha virt. eigenvalues --    0.83254   0.84261   0.85330   0.85859   0.86718
 Alpha virt. eigenvalues --    0.87457   0.88634   0.88928   0.90478   0.91224
 Alpha virt. eigenvalues --    0.91694   0.92711   0.93918   0.94463   0.95453
 Alpha virt. eigenvalues --    0.97043   0.98186   0.98676   0.99100   1.00069
 Alpha virt. eigenvalues --    1.00671   1.01962   1.04483   1.06632   1.06761
 Alpha virt. eigenvalues --    1.08378   1.08750   1.08932   1.10587   1.11569
 Alpha virt. eigenvalues --    1.12205   1.13829   1.15164   1.16761   1.17068
 Alpha virt. eigenvalues --    1.17194   1.18508   1.20190   1.21156   1.22442
 Alpha virt. eigenvalues --    1.24393   1.25852   1.30156   1.36157   1.37512
 Alpha virt. eigenvalues --    1.40452   1.41966   1.47333   1.51076   1.51620
 Alpha virt. eigenvalues --    1.52469   1.53709   1.54314   1.55538   1.56058
 Alpha virt. eigenvalues --    1.56483   1.56930   1.57818   1.59818   1.60551
 Alpha virt. eigenvalues --    1.61743   1.62378   1.63453   1.65784   1.65808
 Alpha virt. eigenvalues --    1.67358   1.68402   1.69459   1.70374   1.71451
 Alpha virt. eigenvalues --    1.71908   1.74093   1.75650   1.77456   1.78504
 Alpha virt. eigenvalues --    1.78958   1.79317   1.81429   1.82107   1.82385
 Alpha virt. eigenvalues --    1.83006   1.85492   1.87223   1.89538   1.91161
 Alpha virt. eigenvalues --    1.92291   1.93159   1.93887   1.94652   1.95071
 Alpha virt. eigenvalues --    1.95903   1.96366   1.96939   1.98291   1.98384
 Alpha virt. eigenvalues --    1.98644   1.99953   2.00560   2.01207   2.02138
 Alpha virt. eigenvalues --    2.03341   2.04648   2.05115   2.06493   2.09601
 Alpha virt. eigenvalues --    2.10552   2.12096   2.15063   2.16204   2.18349
 Alpha virt. eigenvalues --    2.21522   2.22452   2.23595   2.25346   2.29548
 Alpha virt. eigenvalues --    2.31532   2.34639   2.36632   2.38125   2.42195
 Alpha virt. eigenvalues --    2.44397   2.45503   2.45776   2.46996   2.48326
 Alpha virt. eigenvalues --    2.50437   2.51260   2.55825   2.56390   2.58221
 Alpha virt. eigenvalues --    2.65243   2.65299   2.67765   2.70895   2.72340
 Alpha virt. eigenvalues --    2.72450   2.72966   2.73627   2.74158   2.74495
 Alpha virt. eigenvalues --    2.74996   2.76224   2.77176   2.77489   2.78226
 Alpha virt. eigenvalues --    2.78945   2.79111   2.82159   2.82317   2.84279
 Alpha virt. eigenvalues --    2.85455   2.86308   2.87902   2.88318   2.89177
 Alpha virt. eigenvalues --    2.90165   2.90708   2.92775   2.94591   2.97126
 Alpha virt. eigenvalues --    2.97723   2.98567   2.98784   3.02441   3.04677
 Alpha virt. eigenvalues --    3.07324   3.09414   3.13648   3.16040   3.17937
 Alpha virt. eigenvalues --    3.24609   3.26788   3.28620   3.31501   3.40547
 Alpha virt. eigenvalues --    3.42835   3.43633   3.44935   3.46290   3.49004
 Alpha virt. eigenvalues --    3.52950   3.55740   3.58227   3.60178   3.60462
 Alpha virt. eigenvalues --    3.63947   3.66970   3.71643   3.75746   3.80805
 Alpha virt. eigenvalues --    3.93099   4.02457   4.08336   4.08791   4.10152
 Alpha virt. eigenvalues --    4.16394   4.17213   4.18277   4.25577   4.38342
 Alpha virt. eigenvalues --    4.51214   4.83126   4.85254   4.87074  23.60482
 Alpha virt. eigenvalues --   23.73933  23.89798  23.99155  24.00403  24.02411
 Alpha virt. eigenvalues --   24.03355  24.04782  24.09131  24.11109  24.17261
 Alpha virt. eigenvalues --   24.19684  24.21653  24.23972  24.27392  24.28027
  Beta  occ. eigenvalues --  -10.57094 -10.56090 -10.56017 -10.55997 -10.55674
  Beta  occ. eigenvalues --  -10.55435 -10.55421 -10.55150 -10.55101 -10.54603
  Beta  occ. eigenvalues --  -10.54570 -10.54564 -10.54524 -10.54461 -10.54443
  Beta  occ. eigenvalues --  -10.54385  -0.99281  -0.96619  -0.92926  -0.88840
  Beta  occ. eigenvalues --   -0.85050  -0.84042  -0.84017  -0.80295  -0.71477
  Beta  occ. eigenvalues --   -0.70507  -0.69110  -0.68508  -0.65445  -0.60033
  Beta  occ. eigenvalues --   -0.58808  -0.57078  -0.55092  -0.52621  -0.51755
  Beta  occ. eigenvalues --   -0.51260  -0.49976  -0.49016  -0.48463  -0.47052
  Beta  occ. eigenvalues --   -0.46678  -0.45989  -0.44223  -0.42950  -0.40719
  Beta  occ. eigenvalues --   -0.39940  -0.39413  -0.38649  -0.35198  -0.31779
  Beta  occ. eigenvalues --   -0.30651  -0.30197  -0.26498
  Beta virt. eigenvalues --   -0.06597  -0.02289   0.00372   0.01081   0.01484
  Beta virt. eigenvalues --    0.01694   0.02568   0.02664   0.03595   0.04116
  Beta virt. eigenvalues --    0.04336   0.05021   0.05081   0.05614   0.05876
  Beta virt. eigenvalues --    0.06789   0.06825   0.07697   0.07983   0.08885
  Beta virt. eigenvalues --    0.09319   0.09685   0.10225   0.10399   0.10732
  Beta virt. eigenvalues --    0.11349   0.11859   0.13047   0.13168   0.13564
  Beta virt. eigenvalues --    0.13856   0.14703   0.14777   0.15350   0.15835
  Beta virt. eigenvalues --    0.16070   0.16298   0.16927   0.17195   0.17894
  Beta virt. eigenvalues --    0.18348   0.18603   0.19018   0.19223   0.19853
  Beta virt. eigenvalues --    0.20240   0.20678   0.20886   0.21276   0.21865
  Beta virt. eigenvalues --    0.22250   0.22684   0.22818   0.23035   0.23461
  Beta virt. eigenvalues --    0.23768   0.23992   0.24491   0.24509   0.24994
  Beta virt. eigenvalues --    0.25668   0.26027   0.26112   0.26365   0.26839
  Beta virt. eigenvalues --    0.26892   0.27294   0.27432   0.28033   0.28805
  Beta virt. eigenvalues --    0.29230   0.29583   0.29871   0.30252   0.30415
  Beta virt. eigenvalues --    0.31240   0.32151   0.32199   0.32555   0.33159
  Beta virt. eigenvalues --    0.34096   0.34724   0.35953   0.36470   0.36917
  Beta virt. eigenvalues --    0.37490   0.37799   0.38828   0.40018   0.41215
  Beta virt. eigenvalues --    0.42663   0.45081   0.48385   0.50153   0.51836
  Beta virt. eigenvalues --    0.52736   0.53901   0.55238   0.56871   0.57187
  Beta virt. eigenvalues --    0.57417   0.58301   0.58690   0.58758   0.59840
  Beta virt. eigenvalues --    0.60207   0.60455   0.61531   0.62060   0.62538
  Beta virt. eigenvalues --    0.62973   0.63238   0.64211   0.64518   0.64594
  Beta virt. eigenvalues --    0.65415   0.66184   0.66289   0.67317   0.69114
  Beta virt. eigenvalues --    0.69779   0.70280   0.70881   0.71668   0.72351
  Beta virt. eigenvalues --    0.73314   0.74406   0.75480   0.75710   0.76102
  Beta virt. eigenvalues --    0.76540   0.76942   0.77359   0.77638   0.78285
  Beta virt. eigenvalues --    0.78654   0.79230   0.79596   0.80699   0.80736
  Beta virt. eigenvalues --    0.81744   0.83223   0.84247   0.85111   0.85870
  Beta virt. eigenvalues --    0.86429   0.87500   0.88490   0.88780   0.89819
  Beta virt. eigenvalues --    0.91310   0.92191   0.92678   0.94275   0.94588
  Beta virt. eigenvalues --    0.95500   0.97054   0.98093   0.98584   0.99376
  Beta virt. eigenvalues --    1.00012   1.00696   1.01899   1.04397   1.06624
  Beta virt. eigenvalues --    1.06785   1.08424   1.08899   1.09166   1.10680
  Beta virt. eigenvalues --    1.11640   1.12229   1.13943   1.15304   1.16969
  Beta virt. eigenvalues --    1.17142   1.17465   1.18883   1.20376   1.21260
  Beta virt. eigenvalues --    1.22555   1.25354   1.25951   1.30007   1.36095
  Beta virt. eigenvalues --    1.37501   1.40435   1.41984   1.47467   1.51223
  Beta virt. eigenvalues --    1.52116   1.53667   1.53813   1.54496   1.55613
  Beta virt. eigenvalues --    1.56226   1.56709   1.57004   1.58022   1.59966
  Beta virt. eigenvalues --    1.60785   1.61812   1.62553   1.63671   1.65875
  Beta virt. eigenvalues --    1.65997   1.67660   1.69029   1.69612   1.70543
  Beta virt. eigenvalues --    1.71496   1.71964   1.74229   1.75690   1.77707
  Beta virt. eigenvalues --    1.78523   1.79051   1.79373   1.81481   1.82135
  Beta virt. eigenvalues --    1.82383   1.83050   1.85572   1.87614   1.89591
  Beta virt. eigenvalues --    1.91535   1.92261   1.93069   1.94171   1.94860
  Beta virt. eigenvalues --    1.95133   1.96009   1.96464   1.97122   1.98503
  Beta virt. eigenvalues --    1.98808   1.98921   2.00066   2.00697   2.01412
  Beta virt. eigenvalues --    2.02255   2.03445   2.04694   2.05165   2.06639
  Beta virt. eigenvalues --    2.09606   2.10504   2.12121   2.15097   2.16311
  Beta virt. eigenvalues --    2.18345   2.21605   2.22492   2.23604   2.25397
  Beta virt. eigenvalues --    2.29632   2.31797   2.35183   2.36735   2.38365
  Beta virt. eigenvalues --    2.42300   2.44410   2.45567   2.45972   2.47157
  Beta virt. eigenvalues --    2.48344   2.50452   2.51429   2.55921   2.56250
  Beta virt. eigenvalues --    2.58238   2.65367   2.65446   2.67812   2.71333
  Beta virt. eigenvalues --    2.72380   2.72476   2.72991   2.73682   2.74226
  Beta virt. eigenvalues --    2.74589   2.75141   2.76353   2.77197   2.77593
  Beta virt. eigenvalues --    2.78262   2.78983   2.79138   2.82179   2.82409
  Beta virt. eigenvalues --    2.84403   2.85545   2.86314   2.87862   2.88299
  Beta virt. eigenvalues --    2.89155   2.90161   2.90876   2.92972   2.94638
  Beta virt. eigenvalues --    2.97175   2.97829   2.98627   2.98821   3.02544
  Beta virt. eigenvalues --    3.06388   3.07336   3.09424   3.13640   3.15960
  Beta virt. eigenvalues --    3.17943   3.25132   3.26911   3.28682   3.31644
  Beta virt. eigenvalues --    3.40565   3.43068   3.43704   3.44961   3.46315
  Beta virt. eigenvalues --    3.49218   3.52965   3.55850   3.58320   3.60433
  Beta virt. eigenvalues --    3.60914   3.63953   3.67003   3.71678   3.76017
  Beta virt. eigenvalues --    3.81069   3.93170   4.02554   4.08334   4.08791
  Beta virt. eigenvalues --    4.10150   4.16374   4.17443   4.18448   4.25575
  Beta virt. eigenvalues --    4.38311   4.51132   4.83375   4.85255   4.87095
  Beta virt. eigenvalues --   23.60578  23.74156  23.89808  23.99556  24.00398
  Beta virt. eigenvalues --   24.02439  24.03471  24.04792  24.09131  24.11281
  Beta virt. eigenvalues --   24.17245  24.19719  24.21657  24.24011  24.27391
  Beta virt. eigenvalues --   24.28027
          Condensed to atoms (all electrons):
               1          2          3          4          5          6
     1  C    5.958040   0.181326   0.017789   0.549765  -0.007451  -0.999537
     2  C    0.181326   7.033536   0.351018   0.031718  -0.015331  -0.813948
     3  H    0.017789   0.351018   0.461019  -0.028059  -0.005294   0.017436
     4  C    0.549765   0.031718  -0.028059  15.783743   0.294013  -0.477770
     5  H   -0.007451  -0.015331  -0.005294   0.294013   0.449749   0.051092
     6  C   -0.999537  -0.813948   0.017436  -0.477770   0.051092  14.910408
     7  C    0.653163  -1.339444   0.008376  -6.864278   0.020363  -1.890361
     8  H   -0.009617  -0.008822   0.000046   0.022621  -0.000134   0.024638
     9  C    0.015028   0.660126  -0.018089  -1.301472  -0.011280  -1.125493
    10  H    0.007057  -0.015282  -0.000061   0.003458   0.000050   0.021605
    11  C   -0.422253   0.037909  -0.004545  -1.469065   0.002352  -2.950069
    12  C   -0.181377  -0.077552   0.000146  -1.532656   0.001277  -4.473392
    13  C    0.131064   0.380604  -0.000021   1.400656   0.041238   3.408663
    14  C   -0.023602  -0.101856  -0.000441  -0.305064  -0.010655  -1.608917
    15  C   -0.031822   0.098692  -0.000564  -0.251418  -0.002342   0.161313
    16  C   -0.006460   0.045343   0.000163  -0.048313  -0.007671  -0.877367
    17  H    0.005278  -0.006623   0.000023   0.092586  -0.001303  -0.026024
    18  C    0.005966  -0.015641  -0.000052   0.224925   0.000327   0.045182
    19  H    0.003646  -0.001957  -0.000003  -0.008111   0.000008   0.006342
    20  C   -0.002941   0.027945  -0.000038   0.003497   0.000183   0.825869
    21  C    0.000252   0.033072   0.000013   0.344364   0.006463   1.170860
    22  H    0.000036  -0.000062   0.000000   0.000300   0.000029   0.014087
    23  C    0.000917  -0.011001   0.000011  -0.044735  -0.000418  -0.323910
    24  H    0.000175  -0.000289   0.000000   0.000437   0.000000   0.001747
    25  H   -0.000004   0.000029   0.000000   0.000137   0.000000   0.001265
    26  H   -0.000009   0.000031   0.000000  -0.000576  -0.000001   0.000750
    27  H    0.000001   0.000001   0.000000   0.000071   0.000000   0.001895
               7          8          9         10         11         12
     1  C    0.653163  -0.009617   0.015028   0.007057  -0.422253  -0.181377
     2  C   -1.339444  -0.008822   0.660126  -0.015282   0.037909  -0.077552
     3  H    0.008376   0.000046  -0.018089  -0.000061  -0.004545   0.000146
     4  C   -6.864278   0.022621  -1.301472   0.003458  -1.469065  -1.532656
     5  H    0.020363  -0.000134  -0.011280   0.000050   0.002352   0.001277
     6  C   -1.890361   0.024638  -1.125493   0.021605  -2.950069  -4.473392
     7  C   16.042194   0.313519  -0.987004  -0.012890   0.031027   0.922143
     8  H    0.313519   0.438040  -0.039367  -0.004902   0.035126   0.070551
     9  C   -0.987004  -0.039367   8.040719   0.347408   0.643840   0.344467
    10  H   -0.012890  -0.004902   0.347408   0.459967  -0.005197  -0.000231
    11  C    0.031027   0.035126   0.643840  -0.005197  15.635796   3.876905
    12  C    0.922143   0.070551   0.344467  -0.000231   3.876905  18.632930
    13  C   -0.487438  -0.024640  -0.459031   0.000707  -7.055883  -8.690245
    14  C    0.543354   0.009409   0.359287  -0.001561  -1.067174   3.863400
    15  C   -0.058646  -0.009935   0.105499  -0.000781  -2.076884   0.907975
    16  C    0.065531   0.000362   0.018417  -0.000139  -0.665110   2.770510
    17  H   -0.029191   0.000041  -0.008066   0.000002   0.006519   0.031709
    18  C   -0.130102  -0.010687  -0.021157   0.000264   0.187980  -2.649969
    19  H    0.055243  -0.003047  -0.013313  -0.000005   0.045412   0.024054
    20  C   -0.091394  -0.004630   0.007333  -0.000118   0.261791  -3.912023
    21  C   -0.339175  -0.002020  -0.038163   0.000065   1.007210  -5.470194
    22  H   -0.000849   0.000001  -0.000287   0.000000   0.012009  -0.060240
    23  C    0.091692   0.003400   0.014058   0.000011  -0.589659   1.310692
    24  H    0.001418   0.000045  -0.001179   0.000000  -0.005702   0.020082
    25  H   -0.000241   0.000000   0.000011   0.000000  -0.002309   0.000027
    26  H   -0.000129   0.000000   0.000025   0.000000  -0.025563   0.009234
    27  H   -0.000412   0.000000  -0.000077   0.000000   0.011554  -0.013336
              13         14         15         16         17         18
     1  C    0.131064  -0.023602  -0.031822  -0.006460   0.005278   0.005966
     2  C    0.380604  -0.101856   0.098692   0.045343  -0.006623  -0.015641
     3  H   -0.000021  -0.000441  -0.000564   0.000163   0.000023  -0.000052
     4  C    1.400656  -0.305064  -0.251418  -0.048313   0.092586   0.224925
     5  H    0.041238  -0.010655  -0.002342  -0.007671  -0.001303   0.000327
     6  C    3.408663  -1.608917   0.161313  -0.877367  -0.026024   0.045182
     7  C   -0.487438   0.543354  -0.058646   0.065531  -0.029191  -0.130102
     8  H   -0.024640   0.009409  -0.009935   0.000362   0.000041  -0.010687
     9  C   -0.459031   0.359287   0.105499   0.018417  -0.008066  -0.021157
    10  H    0.000707  -0.001561  -0.000781  -0.000139   0.000002   0.000264
    11  C   -7.055883  -1.067174  -2.076884  -0.665110   0.006519   0.187980
    12  C   -8.690245   3.863400   0.907975   2.770510   0.031709  -2.649969
    13  C   19.266049  -5.355469   1.519666  -1.661057   0.323272   0.205577
    14  C   -5.355469  13.145779  -0.594831   1.357904   0.013504  -1.682056
    15  C    1.519666  -0.594831  10.179583   0.402671  -0.009541   0.212088
    16  C   -1.661057   1.357904   0.402671   8.257514  -0.013521  -0.122404
    17  H    0.323272   0.013504  -0.009541  -0.013521   0.460926   0.000115
    18  C    0.205577  -1.682056   0.212088  -0.122404   0.000115   9.452166
    19  H    0.035284   0.314200   0.008216  -0.001840  -0.000039  -0.119298
    20  C    2.000396  -1.107627  -2.092163  -1.229745  -0.000610  -0.610840
    21  C    1.840381  -1.758470  -2.623684  -1.919071  -0.023983   0.759721
    22  H    0.023616  -0.006350  -0.002766   0.319206  -0.004753   0.000116
    23  C   -0.618428   0.627805  -0.105876  -0.054831  -0.000196   0.268444
    24  H   -0.003277  -0.077866   0.005318  -0.000636   0.000000   0.431194
    25  H    0.004842  -0.000614  -0.101709   0.023560  -0.000001  -0.010492
    26  H   -0.014648   0.010105  -0.071461   0.010911  -0.000207   0.001850
    27  H    0.001909  -0.025318   0.000250  -0.002298   0.000000   0.031761
              19         20         21         22         23         24
     1  C    0.003646  -0.002941   0.000252   0.000036   0.000917   0.000175
     2  C   -0.001957   0.027945   0.033072  -0.000062  -0.011001  -0.000289
     3  H   -0.000003  -0.000038   0.000013   0.000000   0.000011   0.000000
     4  C   -0.008111   0.003497   0.344364   0.000300  -0.044735   0.000437
     5  H    0.000008   0.000183   0.006463   0.000029  -0.000418   0.000000
     6  C    0.006342   0.825869   1.170860   0.014087  -0.323910   0.001747
     7  C    0.055243  -0.091394  -0.339175  -0.000849   0.091692   0.001418
     8  H   -0.003047  -0.004630  -0.002020   0.000001   0.003400   0.000045
     9  C   -0.013313   0.007333  -0.038163  -0.000287   0.014058  -0.001179
    10  H   -0.000005  -0.000118   0.000065   0.000000   0.000011   0.000000
    11  C    0.045412   0.261791   1.007210   0.012009  -0.589659  -0.005702
    12  C    0.024054  -3.912023  -5.470194  -0.060240   1.310692   0.020082
    13  C    0.035284   2.000396   1.840381   0.023616  -0.618428  -0.003277
    14  C    0.314200  -1.107627  -1.758470  -0.006350   0.627805  -0.077866
    15  C    0.008216  -2.092163  -2.623684  -0.002766  -0.105876   0.005318
    16  C   -0.001840  -1.229745  -1.919071   0.319206  -0.054831  -0.000636
    17  H   -0.000039  -0.000610  -0.023983  -0.004753  -0.000196   0.000000
    18  C   -0.119298  -0.610840   0.759721   0.000116   0.268444   0.431194
    19  H    0.458939   0.005433   0.005131   0.000000  -0.022644  -0.005385
    20  C    0.005433  10.846392   1.263034   0.015906  -0.544981  -0.018696
    21  C    0.005131   1.263034  12.247670   0.037478  -0.888582   0.003788
    22  H    0.000000   0.015906   0.037478   0.464943   0.000260   0.000000
    23  C   -0.022644  -0.544981  -0.888582   0.000260   7.060748   0.000798
    24  H   -0.005385  -0.018696   0.003788   0.000000   0.000798   0.464501
    25  H    0.000050   0.422867   0.050644  -0.000011  -0.041841  -0.000171
    26  H    0.000004   0.064121   0.347158  -0.005536   0.014207  -0.000002
    27  H   -0.000216  -0.044574   0.019005   0.000000   0.373978  -0.005279
              25         26         27
     1  C   -0.000004  -0.000009   0.000001
     2  C    0.000029   0.000031   0.000001
     3  H    0.000000   0.000000   0.000000
     4  C    0.000137  -0.000576   0.000071
     5  H    0.000000  -0.000001   0.000000
     6  C    0.001265   0.000750   0.001895
     7  C   -0.000241  -0.000129  -0.000412
     8  H    0.000000   0.000000   0.000000
     9  C    0.000011   0.000025  -0.000077
    10  H    0.000000   0.000000   0.000000
    11  C   -0.002309  -0.025563   0.011554
    12  C    0.000027   0.009234  -0.013336
    13  C    0.004842  -0.014648   0.001909
    14  C   -0.000614   0.010105  -0.025318
    15  C   -0.101709  -0.071461   0.000250
    16  C    0.023560   0.010911  -0.002298
    17  H   -0.000001  -0.000207   0.000000
    18  C   -0.010492   0.001850   0.031761
    19  H    0.000050   0.000004  -0.000216
    20  C    0.422867   0.064121  -0.044574
    21  C    0.050644   0.347158   0.019005
    22  H   -0.000011  -0.005536   0.000000
    23  C   -0.041841   0.014207   0.373978
    24  H   -0.000171  -0.000002  -0.005279
    25  H    0.465951   0.001544  -0.005331
    26  H    0.001544   0.467100  -0.000013
    27  H   -0.005331  -0.000013   0.465486
          Atomic-Atomic Spin Densities.
               1          2          3          4          5          6
     1  C    1.188185  -0.290084   0.013160   0.283201   0.004017  -0.111403
     2  C   -0.290084   0.388452  -0.015401  -0.452113  -0.011135   0.144264
     3  H    0.013160  -0.015401   0.022098   0.023570   0.001050  -0.016835
     4  C    0.283201  -0.452113   0.023570   0.622876   0.010547  -0.087243
     5  H    0.004017  -0.011135   0.001050   0.010547   0.003175   0.001293
     6  C   -0.111403   0.144264  -0.016835  -0.087243   0.001293   0.167517
     7  C    0.262487  -0.271983   0.008540   0.246046   0.004090  -0.097296
     8  H    0.003955  -0.003034   0.000011   0.005179   0.000029   0.002182
     9  C   -0.270436   0.314732  -0.013830  -0.276501  -0.002952   0.150134
    10  H    0.014437  -0.015156   0.000126   0.010595   0.000012  -0.018492
    11  C   -0.210049   0.230272  -0.007941  -0.249428  -0.004830  -0.023285
    12  C   -0.119067   0.136635  -0.002324  -0.180152  -0.002498  -0.126801
    13  C    0.033556  -0.032649   0.001096   0.008503  -0.000299   0.038586
    14  C    0.020358  -0.027359   0.000844   0.047049   0.001162  -0.028916
    15  C   -0.019599   0.022284  -0.000169  -0.045374  -0.001008  -0.031970
    16  C    0.007510  -0.012860   0.000193   0.001492  -0.000043  -0.026644
    17  H   -0.000189   0.000224   0.000001  -0.000680   0.000041  -0.000797
    18  C    0.023811  -0.027076   0.000166   0.042211   0.000286   0.040883
    19  H    0.000162  -0.000248   0.000000   0.000214  -0.000003   0.000207
    20  C   -0.003132   0.004181  -0.000012  -0.013111  -0.000172  -0.019232
    21  C    0.000586  -0.003420   0.000045   0.003790   0.000295   0.009658
    22  H    0.000004  -0.000005   0.000000   0.000053   0.000002   0.000188
    23  C    0.002406  -0.002855   0.000006   0.005728   0.000021   0.011784
    24  H   -0.000009   0.000011   0.000000   0.000004   0.000000   0.000010
    25  H    0.000000   0.000000   0.000000   0.000003   0.000000  -0.000001
    26  H    0.000002  -0.000006   0.000000   0.000012   0.000000   0.000137
    27  H    0.000000   0.000000   0.000000  -0.000001   0.000000   0.000001
               7          8          9         10         11         12
     1  C    0.262487   0.003955  -0.270436   0.014437  -0.210049  -0.119067
     2  C   -0.271983  -0.003034   0.314732  -0.015156   0.230272   0.136635
     3  H    0.008540   0.000011  -0.013830   0.000126  -0.007941  -0.002324
     4  C    0.246046   0.005179  -0.276501   0.010595  -0.249428  -0.180152
     5  H    0.004090   0.000029  -0.002952   0.000012  -0.004830  -0.002498
     6  C   -0.097296   0.002182   0.150134  -0.018492  -0.023285  -0.126801
     7  C    0.573754   0.008609  -0.394311   0.019700  -0.268920  -0.197098
     8  H    0.008609   0.003009  -0.011160   0.001021  -0.004355  -0.004520
     9  C   -0.394311  -0.011160   0.336955  -0.013606   0.194290   0.136782
    10  H    0.019700   0.001021  -0.013606   0.022063  -0.006290  -0.003491
    11  C   -0.268920  -0.004355   0.194290  -0.006290   0.238279   0.149441
    12  C   -0.197098  -0.004520   0.136782  -0.003491   0.149441   0.259308
    13  C    0.070971   0.001760  -0.032070   0.000504  -0.034762  -0.105449
    14  C   -0.002003  -0.000224  -0.015603   0.001546  -0.065205   0.006135
    15  C   -0.039621  -0.001425   0.025211  -0.000358   0.035110   0.069846
    16  C    0.021033   0.000017  -0.007926   0.000078   0.015820   0.044904
    17  H   -0.000376   0.000008   0.000214   0.000000   0.002263   0.001086
    18  C    0.054291   0.001983  -0.039750   0.001011   0.001307  -0.052045
    19  H   -0.000282  -0.000054  -0.000297   0.000006  -0.000223  -0.000096
    20  C   -0.004103  -0.000384   0.004999  -0.000047  -0.001836  -0.001079
    21  C    0.000478   0.000226  -0.000339   0.000000   0.017325  -0.029431
    22  H    0.000003   0.000000  -0.000002   0.000000  -0.000278  -0.000368
    23  C    0.006148   0.000095  -0.004010   0.000044   0.001267   0.010214
    24  H   -0.000070   0.000000   0.000026   0.000000   0.000056   0.000083
    25  H   -0.000006   0.000000   0.000000   0.000000   0.000084  -0.000042
    26  H    0.000020   0.000000  -0.000006   0.000000   0.000275   0.000216
    27  H    0.000004   0.000000   0.000000   0.000000  -0.000017  -0.000020
              13         14         15         16         17         18
     1  C    0.033556   0.020358  -0.019599   0.007510  -0.000189   0.023811
     2  C   -0.032649  -0.027359   0.022284  -0.012860   0.000224  -0.027076
     3  H    0.001096   0.000844  -0.000169   0.000193   0.000001   0.000166
     4  C    0.008503   0.047049  -0.045374   0.001492  -0.000680   0.042211
     5  H   -0.000299   0.001162  -0.001008  -0.000043   0.000041   0.000286
     6  C    0.038586  -0.028916  -0.031970  -0.026644  -0.000797   0.040883
     7  C    0.070971  -0.002003  -0.039621   0.021033  -0.000376   0.054291
     8  H    0.001760  -0.000224  -0.001425   0.000017   0.000008   0.001983
     9  C   -0.032070  -0.015603   0.025211  -0.007926   0.000214  -0.039750
    10  H    0.000504   0.001546  -0.000358   0.000078   0.000000   0.001011
    11  C   -0.034762  -0.065205   0.035110   0.015820   0.002263   0.001307
    12  C   -0.105449   0.006135   0.069846   0.044904   0.001086  -0.052045
    13  C    0.089629  -0.004419  -0.012191  -0.056736  -0.001217   0.011299
    14  C   -0.004419   0.137185   0.013168   0.022069   0.000195  -0.132727
    15  C   -0.012191   0.013168   0.064376  -0.010198  -0.000129  -0.048487
    16  C   -0.056736   0.022069  -0.010198   0.031704  -0.000360  -0.011710
    17  H   -0.001217   0.000195  -0.000129  -0.000360   0.000201  -0.000005
    18  C    0.011299  -0.132727  -0.048487  -0.011710  -0.000005   0.162516
    19  H   -0.000185   0.000141  -0.000225   0.000026   0.000000   0.000532
    20  C    0.013107   0.049838   0.008784   0.008686  -0.000063  -0.056920
    21  C    0.006272   0.013809  -0.017342  -0.021549  -0.000256  -0.004389
    22  H   -0.000100   0.000001  -0.000175  -0.000091   0.000011   0.000024
    23  C   -0.002503  -0.035155  -0.012255  -0.004225   0.000001   0.035719
    24  H    0.000033   0.000709  -0.000040   0.000001   0.000000  -0.000627
    25  H    0.000077  -0.000102  -0.000204  -0.000120   0.000000  -0.000066
    26  H   -0.000150  -0.000058   0.000646  -0.000502  -0.000001   0.000010
    27  H   -0.000009  -0.000033   0.000063   0.000006   0.000000   0.000117
              19         20         21         22         23         24
     1  C    0.000162  -0.003132   0.000586   0.000004   0.002406  -0.000009
     2  C   -0.000248   0.004181  -0.003420  -0.000005  -0.002855   0.000011
     3  H    0.000000  -0.000012   0.000045   0.000000   0.000006   0.000000
     4  C    0.000214  -0.013111   0.003790   0.000053   0.005728   0.000004
     5  H   -0.000003  -0.000172   0.000295   0.000002   0.000021   0.000000
     6  C    0.000207  -0.019232   0.009658   0.000188   0.011784   0.000010
     7  C   -0.000282  -0.004103   0.000478   0.000003   0.006148  -0.000070
     8  H   -0.000054  -0.000384   0.000226   0.000000   0.000095   0.000000
     9  C   -0.000297   0.004999  -0.000339  -0.000002  -0.004010   0.000026
    10  H    0.000006  -0.000047   0.000000   0.000000   0.000044   0.000000
    11  C   -0.000223  -0.001836   0.017325  -0.000278   0.001267   0.000056
    12  C   -0.000096  -0.001079  -0.029431  -0.000368   0.010214   0.000083
    13  C   -0.000185   0.013107   0.006272  -0.000100  -0.002503   0.000033
    14  C    0.000141   0.049838   0.013809   0.000001  -0.035155   0.000709
    15  C   -0.000225   0.008784  -0.017342  -0.000175  -0.012255  -0.000040
    16  C    0.000026   0.008686  -0.021549  -0.000091  -0.004225   0.000001
    17  H    0.000000  -0.000063  -0.000256   0.000011   0.000001   0.000000
    18  C    0.000532  -0.056920  -0.004389   0.000024   0.035719  -0.000627
    19  H   -0.000034  -0.000182  -0.000029   0.000000   0.000364   0.000000
    20  C   -0.000182   0.032849   0.004187   0.000071  -0.028249   0.000221
    21  C   -0.000029   0.004187   0.033021   0.000671  -0.016739   0.000006
    22  H    0.000000   0.000071   0.000671  -0.000102   0.000000   0.000000
    23  C    0.000364  -0.028249  -0.016739   0.000000   0.033644  -0.000415
    24  H    0.000000   0.000221   0.000006   0.000000  -0.000415   0.000034
    25  H    0.000000   0.000525   0.000008   0.000000  -0.000147   0.000000
    26  H    0.000000  -0.000419  -0.000241   0.000003   0.000056   0.000000
    27  H    0.000000  -0.000187   0.000015   0.000000   0.000062   0.000002
              25         26         27
     1  C    0.000000   0.000002   0.000000
     2  C    0.000000  -0.000006   0.000000
     3  H    0.000000   0.000000   0.000000
     4  C    0.000003   0.000012  -0.000001
     5  H    0.000000   0.000000   0.000000
     6  C   -0.000001   0.000137   0.000001
     7  C   -0.000006   0.000020   0.000004
     8  H    0.000000   0.000000   0.000000
     9  C    0.000000  -0.000006   0.000000
    10  H    0.000000   0.000000   0.000000
    11  C    0.000084   0.000275  -0.000017
    12  C   -0.000042   0.000216  -0.000020
    13  C    0.000077  -0.000150  -0.000009
    14  C   -0.000102  -0.000058  -0.000033
    15  C   -0.000204   0.000646   0.000063
    16  C   -0.000120  -0.000502   0.000006
    17  H    0.000000  -0.000001   0.000000
    18  C   -0.000066   0.000010   0.000117
    19  H    0.000000   0.000000   0.000000
    20  C    0.000525  -0.000419  -0.000187
    21  C    0.000008  -0.000241   0.000015
    22  H    0.000000   0.000003   0.000000
    23  C   -0.000147   0.000056   0.000062
    24  H    0.000000   0.000000   0.000002
    25  H    0.000016  -0.000001   0.000001
    26  H   -0.000001   0.000182   0.000000
    27  H    0.000001   0.000000  -0.000041
 Mulliken charges and spin densities:
               1          2
     1  C    0.155569   0.833869
     2  C   -0.473542   0.075670
     3  H    0.201127   0.014394
     4  C   -0.420773   0.006468
     5  H    0.194736   0.003079
     6  C    0.903640  -0.022071
     7  C   -0.516469   0.000106
     8  H    0.200004   0.002927
     9  C   -0.532239   0.080544
    10  H    0.200571   0.013701
    11  C    0.543982   0.008371
    12  C    0.275112  -0.009829
    13  C   -0.213788  -0.007347
    14  C   -0.516876   0.002405
    15  C    0.433153  -0.001282
    16  C   -0.661630   0.000575
    17  H    0.190083   0.000171
    18  C   -0.454976   0.002363
    19  H    0.213897  -0.000208
    20  C   -0.084387  -0.001681
    21  C   -0.072965  -0.003344
    22  H    0.192867  -0.000088
    23  C   -0.519919   0.001004
    24  H    0.188977   0.000037
    25  H    0.191798   0.000025
    26  H    0.191105   0.000176
    27  H    0.190942  -0.000037
 Sum of Mulliken charges =   0.00000   1.00000
 Mulliken charges and spin densities with hydrogens summed into heavy atoms:
               1          2
     1  C    0.155569   0.833869
     2  C   -0.272415   0.090065
     4  C   -0.226037   0.009547
     6  C    0.903640  -0.022071
     7  C   -0.316465   0.003034
     9  C   -0.331668   0.094245
    11  C    0.543982   0.008371
    12  C    0.275112  -0.009829
    13  C   -0.023705  -0.007176
    14  C   -0.302979   0.002196
    15  C    0.433153  -0.001282
    16  C   -0.468763   0.000487
    18  C   -0.265999   0.002400
    20  C    0.107411  -0.001656
    21  C    0.118140  -0.003168
    23  C   -0.328976   0.000968
 APT charges:
               1
     1  C    1.405040
     2  C   -0.932739
     3  H   -0.536512
     4  C    1.727155
     5  H   -1.175331
     6  C   -1.714059
     7  C   -0.848653
     8  H    1.694140
     9  C   -1.288923
    10  H    2.257021
    11  C   -0.420129
    12  C   -1.445219
    13  C   -0.139387
    14  C   -0.380796
    15  C   -0.035119
    16  C   -0.442854
    17  H   -0.132297
    18  C   -0.424131
    19  H    0.499444
    20  C   -1.303898
    21  C   -0.019447
    22  H   -0.114510
    23  C   -0.703971
    24  H    1.530986
    25  H    0.664410
    26  H    0.626134
    27  H    1.653645
 Sum of APT charges =   0.00000
 APT charges with hydrogens summed into heavy atoms:
               1
     1  C    1.405040
     2  C   -1.469251
     4  C    0.551824
     6  C   -1.714059
     7  C    0.845487
     9  C    0.968099
    11  C   -0.420129
    12  C   -1.445219
    13  C   -0.271683
    14  C    0.118649
    15  C   -0.035119
    16  C   -0.557364
    18  C    1.106854
    20  C   -0.639489
    21  C    0.606687
    23  C    0.949674
 Electronic spatial extent (au):  <R**2>=          40722.6023
 Charge=              0.0000 electrons
 Dipole moment (field-independent basis, Debye):
    X=             -1.0775    Y=              0.4217    Z=             -0.5108  Tot=              1.2648
 Quadrupole moment (field-independent basis, Debye-Ang):
   XX=            -92.2168   YY=            -77.3178   ZZ=            -98.1763
   XY=             -5.2626   XZ=             -4.2684   YZ=             -7.7510
 Traceless Quadrupole moment (field-independent basis, Debye-Ang):
   XX=             -2.9799   YY=             11.9192   ZZ=             -8.9393
   XY=             -5.2626   XZ=             -4.2684   YZ=             -7.7510
 Octapole moment (field-independent basis, Debye-Ang**2):
  XXX=           -834.3783  YYY=          -2158.2449  ZZZ=           -970.4288  XYY=           -255.6027
  XXY=           -776.4020  XXZ=           -311.3061  XZZ=           -298.2198  YZZ=           -864.2540
  YYZ=           -393.8728  XYZ=            -20.5593
 Hexadecapole moment (field-independent basis, Debye-Ang**3):
 XXXX=          -7317.7245 YYYY=         -40348.6117 ZZZZ=          -7789.9107 XXXY=          -6731.4370
 XXXZ=          -3235.2827 YYYX=          -5987.2411 YYYZ=          -8533.5343 ZZZX=          -3368.1361
 ZZZY=          -7880.8218 XXYY=          -7848.3031 XXZZ=          -2462.5153 YYZZ=          -9065.0807
 XXYZ=          -2406.1046 YYXZ=          -1041.3779 ZZXY=          -2340.2860
 N-N= 9.409030402474D+02 E-N=-3.310963314125D+03  KE= 6.135060019144D+02
  Exact polarizability:       0.000       0.000       0.000       0.000       0.000       0.000
 Approx polarizability:     273.615       5.665     250.017      17.517     -52.280     196.238
                          Isotropic Fermi Contact Couplings
        Atom                 a.u.       MegaHertz       Gauss      10(-4) cm-1
     1  C(13)              0.54569     613.46518     218.89963     204.62996
     2  C(13)              0.02197      24.70367       8.81488       8.24026
     3  H(1)               0.00935      41.80262      14.91622      13.94385
     4  C(13)              0.03962      44.54500      15.89476      14.85861
     5  H(1)               0.00187       8.37963       2.99006       2.79514
     6  C(13)             -0.01002     -11.26077      -4.01812      -3.75619
     7  C(13)              0.03909      43.93923      15.67861      14.65655
     8  H(1)               0.00188       8.39793       2.99659       2.80125
     9  C(13)              0.02259      25.39166       9.06038       8.46975
    10  H(1)               0.00927      41.41448      14.77772      13.81438
    11  C(13)              0.00448       5.03522       1.79669       1.67957
    12  C(13)             -0.00165      -1.85331      -0.66131      -0.61820
    13  C(13)             -0.00238      -2.67319      -0.95386      -0.89168
    14  C(13)              0.00019       0.21427       0.07646       0.07147
    15  C(13)              0.00025       0.27754       0.09903       0.09258
    16  C(13)              0.00021       0.23760       0.08478       0.07926
    17  H(1)               0.00008       0.34225       0.12212       0.11416
    18  C(13)             -0.00013      -0.14929      -0.05327      -0.04980
    19  H(1)               0.00001       0.03277       0.01169       0.01093
    20  C(13)             -0.00016      -0.17750      -0.06334      -0.05921
    21  C(13)             -0.00044      -0.49759      -0.17755      -0.16598
    22  H(1)              -0.00003      -0.14772      -0.05271      -0.04927
    23  C(13)              0.00011       0.12323       0.04397       0.04110
    24  H(1)               0.00001       0.04609       0.01644       0.01537
    25  H(1)               0.00001       0.03749       0.01338       0.01250
    26  H(1)               0.00006       0.24853       0.08868       0.08290
    27  H(1)              -0.00001      -0.05096      -0.01818      -0.01700
 --------------------------------------------------------
       Center         ----  Spin Dipole Couplings  ----
                      3XX-RR        3YY-RR        3ZZ-RR
 --------------------------------------------------------
     1   Atom        0.578675     -0.391051     -0.187624
     2   Atom        0.045717      0.004900     -0.050617
     3   Atom       -0.005630      0.012493     -0.006863
     4   Atom        0.035906     -0.033907     -0.001999
     5   Atom        0.002927     -0.001412     -0.001515
     6   Atom        0.015044      0.020662     -0.035706
     7   Atom        0.028944     -0.024714     -0.004230
     8   Atom       -0.001825      0.006730     -0.004905
     9   Atom        0.000558      0.079903     -0.080461
    10   Atom       -0.011765      0.022645     -0.010880
    11   Atom        0.001156     -0.000908     -0.000248
    12   Atom        0.001821     -0.002455      0.000634
    13   Atom        0.003207     -0.001400     -0.001808
    14   Atom       -0.000501     -0.000091      0.000592
    15   Atom       -0.000170     -0.000177      0.000347
    16   Atom       -0.000171     -0.000131      0.000302
    17   Atom        0.002435     -0.001462     -0.000973
    18   Atom        0.000200     -0.000063     -0.000137
    19   Atom       -0.000754     -0.000201      0.000955
    20   Atom        0.000460     -0.000343     -0.000117
    21   Atom        0.002224     -0.000511     -0.001713
    22   Atom        0.000638     -0.000317     -0.000321
    23   Atom       -0.000431      0.000128      0.000303
    24   Atom       -0.000337      0.000152      0.000185
    25   Atom        0.000113     -0.000066     -0.000046
    26   Atom        0.000148     -0.000057     -0.000091
    27   Atom       -0.000102      0.000053      0.000049
 --------------------------------------------------------
                        XY            XZ            YZ
 --------------------------------------------------------
     1   Atom       -0.373868      0.409558     -0.205372
     2   Atom        0.032951      0.087100      0.042398
     3   Atom        0.011535      0.006445      0.011831
     4   Atom       -0.016303      0.019717     -0.014475
     5   Atom        0.004826      0.005374      0.003428
     6   Atom       -0.010691      0.036001      0.012234
     7   Atom       -0.026066      0.014492     -0.018706
     8   Atom       -0.005684      0.000392     -0.000175
     9   Atom       -0.065241      0.039817      0.009303
    10   Atom       -0.000718      0.000688      0.008199
    11   Atom       -0.002636      0.001682      0.002201
    12   Atom       -0.000101      0.001085     -0.001294
    13   Atom       -0.002186     -0.001036     -0.003769
    14   Atom       -0.000768      0.001156     -0.000205
    15   Atom       -0.000347      0.000557      0.000532
    16   Atom       -0.000215      0.000064      0.001160
    17   Atom       -0.000291      0.000225      0.000332
    18   Atom       -0.000453      0.000486     -0.001178
    19   Atom       -0.001389      0.001455     -0.001671
    20   Atom       -0.000240      0.000360     -0.000665
    21   Atom        0.000047      0.000675     -0.002794
    22   Atom       -0.000063      0.000130      0.000040
    23   Atom       -0.000359      0.000257      0.000292
    24   Atom       -0.000337      0.000321     -0.000612
    25   Atom       -0.000192      0.000198     -0.000128
    26   Atom       -0.000044      0.000076     -0.000135
    27   Atom       -0.000212      0.000208     -0.000257
 --------------------------------------------------------


 ---------------------------------------------------------------------------------
              Anisotropic Spin Dipole Couplings in Principal Axis System
 ---------------------------------------------------------------------------------

       Atom             a.u.   MegaHertz   Gauss  10(-4) cm-1        Axes

              Baa    -0.5393   -72.367   -25.822   -24.139  0.1952  0.9288  0.3151
     1 C(13)  Bbb    -0.3573   -47.947   -17.109   -15.993 -0.4582 -0.1977  0.8666
              Bcc     0.8966   120.314    42.931    40.132  0.8672 -0.3135  0.3870
 
              Baa    -0.1060   -14.218    -5.073    -4.742 -0.4558 -0.1965  0.8681
     2 C(13)  Bbb    -0.0133    -1.781    -0.635    -0.594 -0.4491  0.8929 -0.0337
              Bcc     0.1192    15.998     5.709     5.337  0.7685  0.4052  0.4953
 
              Baa    -0.0129    -6.899    -2.462    -2.301 -0.4531 -0.1988  0.8690
     3 H(1)   Bbb    -0.0110    -5.893    -2.103    -1.966  0.7931 -0.5350  0.2911
              Bcc     0.0240    12.792     4.564     4.267  0.4070  0.8211  0.4001
 
              Baa    -0.0405    -5.440    -1.941    -1.814  0.1271  0.9482  0.2911
     4 C(13)  Bbb    -0.0089    -1.200    -0.428    -0.400 -0.4554 -0.2049  0.8664
              Bcc     0.0495     6.639     2.369     2.215  0.8812 -0.2427  0.4058
 
              Baa    -0.0051    -2.746    -0.980    -0.916 -0.4459 -0.2200  0.8676
     5 H(1)   Bbb    -0.0045    -2.418    -0.863    -0.807 -0.5173  0.8544 -0.0492
              Bcc     0.0097     5.164     1.843     1.723  0.7304  0.4708  0.4948
 
              Baa    -0.0576    -7.725    -2.756    -2.577 -0.4587 -0.1981  0.8662
     6 C(13)  Bbb     0.0226     3.028     1.080     1.010  0.1974  0.9277  0.3167
              Bcc     0.0350     4.697     1.676     1.567  0.8664 -0.3163  0.3864
 
              Baa    -0.0399    -5.359    -1.912    -1.787  0.2623  0.8944  0.3622
     7 C(13)  Bbb    -0.0079    -1.060    -0.378    -0.354 -0.4802 -0.2046  0.8530
              Bcc     0.0478     6.419     2.290     2.141  0.8370 -0.3976  0.3758
 
              Baa    -0.0051    -2.714    -0.968    -0.905 -0.4912 -0.2238  0.8418
     8 H(1)   Bbb    -0.0045    -2.394    -0.854    -0.799  0.7477  0.3873  0.5393
              Bcc     0.0096     5.108     1.823     1.704 -0.4468  0.8944 -0.0229
 
              Baa    -0.1038   -13.932    -4.971    -4.647 -0.4588 -0.2067  0.8642
     9 C(13)  Bbb    -0.0135    -1.805    -0.644    -0.602  0.7327  0.4622  0.4995
              Bcc     0.1173    15.738     5.616     5.250 -0.5027  0.8623 -0.0607
 
              Baa    -0.0132    -7.068    -2.522    -2.358 -0.4915 -0.2033  0.8468
    10 H(1)   Bbb    -0.0113    -6.031    -2.152    -2.012  0.8707 -0.0980  0.4819
              Bcc     0.0246    13.099     4.674     4.369 -0.0150  0.9742  0.2252
 
              Baa    -0.0045    -0.605    -0.216    -0.202  0.4815  0.6863 -0.5452
    11 C(13)  Bbb     0.0015     0.207     0.074     0.069  0.2342  0.4987  0.8346
[...]
 0040741,0.00027038,-0.01706016,-0.03344938,0.02702771,0.01331502,-0.18
 613393,0.10699817,-0.01426873,0.01714391,-0.01047968,0.00032541,-0.000
 23203,-0.00030878,-0.02807645,0.03948136,-0.03010777,-0.00054073,-0.00
 076294,0.00001662,0.02612073,0.43321234,0.00000147,0.00016337,0.000066
 08,-0.00014306,-0.00002992,-0.00010943,0.00000064,0.00000559,-0.000003
 74,0.00001077,-0.00003456,0.00007053,-0.00001726,-0.00004084,0.0000046
 9,0.00026240,0.00007397,0.00023817,-0.00009955,-0.00007962,-0.00013514
 ,-0.00007289,0.00008594,-0.00000976,0.00013120,-0.00008655,0.00001058,
 0.00001025,0.00000227,-0.00001933,0.00387402,0.01145532,-0.00382649,-0
 .03833523,-0.00006695,0.00283935,-0.01545703,-0.00118975,-0.00123559,0
 .01458307,0.02652479,-0.02516271,-0.01265217,0.10745943,-0.15915982,0.
 01105132,-0.00924207,0.01491618,-0.00017531,-0.00048591,-0.00053734,0.
 02255662,-0.02861773,0.03271916,0.00047596,-0.00034231,-0.00116730,0.0
 0425298,-0.25695163,0.36088822,-0.00018938,-0.00015277,-0.00017666,0.0
 0014734,0.00016584,0.00003180,-0.00004720,0.00003107,-0.00002792,-0.00
 048171,-0.00031381,-0.00015099,0.00005762,0.00006049,-0.00002964,-0.00
 006776,-0.00045076,0.00018506,0.00010656,0.00061012,-0.00015068,0.0001
 1171,0.00006107,-0.00001968,-0.00039827,0.00010943,0.00009994,-0.00006
 935,0.00000815,-0.00001905,-0.01155475,-0.01837040,0.01529893,-0.03681
 390,0.00603930,-0.00805076,0.02427818,0.02664436,-0.02136366,-0.007614
 26,-0.00442843,0.00297057,-0.24897444,-0.07587315,0.05276657,-0.133352
 02,0.04017845,-0.03874619,-0.00495266,0.00150533,-0.00185179,-0.008255
 60,0.00765822,-0.00689204,-0.00077825,-0.00064568,0.00070425,-0.000536
 37,-0.01751599,0.01466250,0.69190165,0.00001675,-0.00031006,-0.0001183
 7,0.00030248,0.00003545,0.00043337,0.00001145,-0.00002078,0.00002967,0
 .00029666,0.00035123,-0.00030330,0.00007728,0.00021378,-0.00007666,0.0
 0031465,-0.00129218,-0.00037124,-0.00007892,-0.00010358,-0.00020183,0.
 00008377,0.00010500,-0.00001637,-0.00021633,0.00017860,0.00006926,0.00
 000543,-0.00000457,0.00000819,-0.02339031,-0.03411109,0.02480892,-0.00
 781736,0.03648595,-0.02922298,0.06451022,-0.00455281,0.01530244,-0.003
 79683,-0.00799799,0.01198109,-0.05123657,-0.11685162,0.04201911,-0.010
 42157,-0.26528847,0.16711782,0.00099471,0.00333842,0.00240046,-0.01089
 895,0.00903987,-0.00923185,0.00080680,0.00035017,-0.00019328,-0.032771
 89,-0.03235767,0.02847240,-0.02744438,0.49391588,-0.00002521,0.0002327
 6,0.00005433,-0.00023164,-0.00007845,-0.00030355,-0.00000910,0.0000151
 0,-0.00001499,-0.00015218,-0.00025478,0.00032579,-0.00007988,-0.000212
 27,0.00005161,-0.00017914,0.00014711,-0.00069399,-0.00005450,0.0002225
 1,-0.00000451,-0.00008558,-0.00007392,0.00000673,0.00007418,-0.0001733
 6,-0.00002003,-0.00001631,0.00000531,-0.00000705,0.01928155,0.02553623
 ,-0.02291076,0.00413989,-0.02747218,0.02855780,-0.05430872,0.01184573,
 -0.00695198,0.00248350,0.01184759,-0.00409775,0.03051514,0.03943756,-0
 .09676776,0.00483316,0.17045164,-0.20350651,-0.00158846,0.00205621,0.0
 0328791,0.00867907,-0.00799050,0.00626176,-0.00075017,-0.00039291,0.00
 029128,0.02801777,0.02939768,-0.02000057,0.05903303,-0.30088032,0.3917
 5767,-0.00008646,0.00002307,-0.00003009,-0.00001823,0.00004683,-0.0000
 5366,-0.00002555,0.00001514,-0.00000481,-0.00009275,-0.00003932,-0.000
 08043,-0.00001011,-0.00000322,0.00003348,-0.00041324,-0.00092661,0.000
 59847,-0.00026567,0.00024842,-0.00005695,-0.00000800,-0.00001755,0.000
 02985,-0.00004267,-0.00003107,-0.00011268,-0.00003703,0.00000773,-0.00
 001782,-0.00304423,0.00234197,-0.00258467,0.00018809,0.00068786,-0.000
 53278,-0.01693698,-0.01423457,0.01074481,-0.00002593,-0.00017067,0.000
 21303,0.00128251,0.00099016,-0.00135603,-0.24902777,-0.11103628,0.0786
 2877,0.00109956,0.00025549,0.00013869,-0.00011359,0.00009432,-0.000093
 28,0.00000755,0.00001451,-0.00001896,0.00008479,-0.00005337,0.00003702
 ,0.00659867,0.00320902,-0.00249926,0.26014052,0.00000344,-0.00001691,-
 0.00001398,0.00001903,-0.00000629,0.00003696,0.00000444,-0.00000115,0.
 00000025,-0.00001401,0.00002352,-0.00003260,0.00002823,-0.00000536,-0.
 00002098,0.00033896,0.00026869,-0.00014768,0.00010518,-0.00004456,0.00
 006492,0.00001471,0.00000116,-0.00001316,-0.00001329,-0.00000271,0.000
 05401,0.00001006,0.00000225,-0.00000088,0.00203553,0.00229651,0.002857
 66,0.00032639,-0.00076538,-0.00010421,0.00905201,0.00782689,-0.0033090
 3,0.00001005,-0.00013345,-0.00059830,0.00157817,0.00100783,0.00708569,
 -0.11053520,-0.11391768,0.05558080,-0.00035525,-0.00093276,-0.00175414
 ,0.00019506,-0.00007779,0.00016503,-0.00003586,0.00000672,0.00002959,-
 0.00108867,0.00006825,-0.00001649,-0.02065658,-0.00616873,0.00757215,0
 .11871621,0.11262612,-0.00002667,-0.00002222,-0.00002794,0.00003470,0.
 00000468,0.00003097,-0.00000252,0.00000166,0.00000334,0.00002257,0.000
 05154,-0.00008455,0.00002799,0.00000733,0.00000593,-0.00018760,-0.0003
 7462,0.00026307,-0.00003699,0.00005232,-0.00001793,0.00000602,-0.00001
 683,0.00000165,-0.00002008,-0.00001807,-0.00002306,-0.00000716,0.00000
 553,-0.00000612,-0.00254865,0.00312224,0.00277993,-0.00018476,-0.00010
 387,-0.00082314,-0.00926621,-0.00476142,0.00662626,0.00001957,-0.00065
 883,-0.00030181,-0.00153239,0.00703786,0.00336831,0.07839911,0.0556986
 5,-0.07981211,0.00064314,-0.00175831,-0.00140595,-0.00016532,0.0001660
 8,-0.00003390,0.00003542,0.00004706,0.00000656,0.00084406,0.00003109,0
 .00016590,0.01724751,0.00899854,-0.00177968,-0.08352026,-0.06440131,0.
 07420371,-0.00002690,0.00027174,0.00008297,-0.00016743,-0.00006439,-0.
 00021640,-0.00000326,0.00000136,0.00001192,0.00005029,0.00001256,0.000
 14108,-0.00003090,-0.00009803,0.00003978,0.00062978,-0.00009934,0.0004
 8124,-0.00035240,-0.00025036,-0.00009454,-0.00009519,0.00011242,-0.000
 00171,0.00025389,-0.00014654,0.00000602,0.00001722,0.00000483,-0.00003
 316,0.00824541,0.01829468,-0.01536374,-0.05327299,-0.02259752,0.018745
 35,-0.02546473,-0.00184833,-0.00033345,0.02301138,0.06363912,-0.055584
 71,0.01417124,-0.05570459,0.04806585,0.01570740,-0.01649280,0.01541560
 ,-0.00035383,-0.00019081,-0.00009663,-0.26899661,0.02139211,-0.0213623
 7,0.00180860,-0.00074990,0.00010882,-0.31227526,-0.07746092,0.05704837
 ,0.01687619,0.02225915,-0.01795270,0.00020171,-0.00008087,0.00011993,0
 .67470881,0.00003061,-0.00010998,-0.00003014,0.00011169,0.00000501,0.0
 0003997,0.00000278,-0.00000594,0.00000821,-0.00004645,0.00009216,0.000
 04468,0.00000063,0.00001523,0.00000836,-0.00005194,-0.00022357,-0.0000
 9206,0.00006353,-0.00009132,0.00022579,0.00001458,-0.00006794,0.000002
 69,-0.00010003,0.00006410,-0.00000086,0.00000540,-0.00000222,0.0000153
 4,0.00002676,-0.00008915,-0.00095953,-0.00371054,-0.00233810,-0.002848
 67,-0.00133249,-0.00034367,0.00054465,0.02619219,-0.00513114,0.0104871
 8,-0.02199806,-0.01789731,0.01915523,0.00086682,-0.00171997,0.00130199
 ,0.00000788,0.00010071,0.00006397,0.07346754,-0.11607938,0.04770801,-0
 .00008561,0.00101008,0.00701286,-0.12746683,-0.15814860,0.07907143,0.0
 0392871,0.00227364,0.00400394,0.00000366,-0.00064480,-0.00007000,0.035
 89643,0.49385822,-0.00002806,-0.00004913,-0.00004185,0.00001925,-0.000
 00623,0.00004514,-0.00000598,0.00000045,0.00000811,0.00003806,0.000029
 42,-0.00005239,0.00000266,-0.00000588,-0.00001610,0.00026119,-0.000247
 62,-0.00025859,-0.00004482,0.00003919,0.00017965,0.00003348,-0.0000235
 7,-0.00000035,-0.00004949,0.00002611,-0.00002589,-0.00001104,0.0000019
 6,-0.00000020,0.00014539,-0.00025527,-0.00036606,0.00146591,-0.0030668
 3,-0.00266130,0.00059217,0.00074436,-0.00001356,-0.02253972,0.01200901
 ,-0.00426572,0.01970920,0.01795242,-0.00962786,-0.00029334,0.00085958,
 -0.00104912,-0.00003104,0.00001523,0.00006317,-0.06829062,0.04635246,-
 0.10588152,0.00001151,0.00708959,0.00268566,0.10167620,0.08118026,-0.1
 2895187,-0.00348452,0.00422011,0.00248160,0.00004567,-0.00000801,-0.00
 064458,-0.01545786,-0.30952169,0.40530638,0.00000498,-0.00001285,-0.00
 000043,0.00001497,-0.00000180,0.00000602,0.00000200,-0.00000148,0.0000
 0023,0.00000270,0.00001390,0.00000522,-0.00000060,0.00000256,-0.000000
 11,-0.00003441,-0.00002048,0.00001695,0.00001111,-0.00001734,0.0000125
 0,0.00000105,-0.00000880,-0.00000389,-0.00001093,0.00000736,-0.0000007
 5,0.00000293,0.00000021,-0.00000006,0.00009626,-0.00003274,0.00001527,
 0.00122052,0.00124565,-0.00120181,0.00022246,-0.00002138,0.00004309,0.
 00661470,0.00335547,-0.00299692,0.00018661,0.00067382,-0.00054560,-0.0
 0012088,0.00010551,-0.00009559,0.00001734,0.00001392,-0.00000401,-0.24
 837409,-0.10252357,0.08899741,0.00067512,-0.00021507,0.00025128,-0.003
 65481,0.00268664,-0.00246555,-0.00001820,-0.00023432,0.00020558,-0.000
 00856,-0.00001877,0.00001316,-0.01664623,-0.01364910,0.01188993,0.2595
 8479,0.00001810,0.00003753,0.00002204,-0.00001941,-0.00002119,-0.00003
 724,0.00000474,-0.00000402,0.00000275,0.00003480,-0.00002717,0.0000308
 8,-0.00000966,-0.00000605,0.00001010,-0.00013895,0.00017746,0.00008327
 ,-0.00001172,0.00000691,-0.00010139,-0.00002469,0.00000596,-0.00000212
 ,0.00006404,-0.00002129,0.00001525,0.00000618,-0.00000156,0.00000743,-
 0.00095420,0.00024573,-0.00006507,0.00136263,0.00123472,0.00722888,-0.
 00018118,-0.00068189,-0.00006672,-0.01974934,-0.00530938,0.00846357,0.
 00030434,-0.00090379,-0.00002944,0.00024797,-0.00013164,0.00025320,-0.
 00010283,-0.00007766,0.00001137,-0.10160734,-0.10522926,0.05780232,0.0
 0017960,-0.00174052,-0.00330687,0.00226989,0.00237669,0.00304287,0.000
 11733,-0.00007011,-0.00072820,-0.00001806,0.00004290,0.00005865,0.0090
 2687,0.00778564,-0.00401506,0.10927039,0.10298343,-0.00002589,0.000075
 12,0.00001499,-0.00006259,-0.00000647,-0.00004034,-0.00000340,0.000003
 22,-0.00000391,-0.00000769,-0.00005793,-0.00000982,-0.00000344,-0.0000
 0511,0.00000394,0.00005725,0.00012868,0.00015977,-0.00004245,0.0000589
 1,-0.00009955,0.00000555,0.00002091,0.00000225,0.00004772,-0.00003616,
 0.00001173,-0.00000614,0.00000301,-0.00001298,0.00101205,0.00018437,0.
 00007943,-0.00173221,0.00681916,0.00315960,-0.00006642,-0.00006808,-0.
 00064612,0.01763531,0.00929568,-0.00363698,-0.00033157,-0.00021884,-0.
 00069139,-0.00006712,0.00006355,0.00005149,0.00008515,0.00004015,-0.00
 004896,0.08879668,0.05732101,-0.08859203,-0.00006104,-0.00339401,-0.00
 247757,-0.00201463,0.00308710,0.00289150,0.00010718,-0.00055050,-0.000
 41287,0.00001073,0.00005061,0.00006150,-0.00886853,-0.00415079,0.00680
 416,-0.09461782,-0.06677926,0.08463957,-0.00000964,0.00000983,-0.00000
 303,-0.00001243,0.00000915,-0.00000449,-0.00000463,0.00000213,-0.00000
 045,-0.00001318,-0.00001633,-0.00002171,0.00000164,-0.00000071,0.00000
 060,0.00007193,0.00000571,-0.00000882,-0.00001328,0.00002392,-0.000006
 32,0.00000133,0.00000331,0.00000682,-0.00000369,-0.00000474,-0.0000029
 1,-0.00000431,-0.00000016,-0.00000078,-0.00018609,-0.00031288,0.000283
 36,0.00138534,-0.00016620,-0.00004990,0.00029845,0.00004018,0.00000617
 ,0.00025000,-0.00025961,0.00027828,0.00027902,-0.00079019,0.00055314,0
 .00004549,0.00027766,-0.00023363,0.00001637,0.00001335,-0.00001162,-0.
 00188025,-0.00330450,0.00242468,-0.00004904,0.00011148,-0.00003913,-0.
 29369267,0.07439137,-0.07640304,0.00081791,-0.00124079,0.00115946,-0.0
 0000135,0.00003481,-0.00003700,-0.01732579,0.00897238,-0.00883045,-0.0
 0094171,0.00049803,-0.00042636,0.30976904,0.00002417,-0.00002212,0.000
 01464,0.00003035,-0.00000847,-0.00001557,0.00001022,-0.00000408,0.0000
 0019,0.00005082,0.00001384,0.00004246,-0.00000959,-0.00000552,0.000009
 24,-0.00016338,-0.00011957,0.00028465,0.00004802,-0.00006612,-0.000028
 29,-0.00000971,0.00001241,-0.00000688,0.00001127,0.00001175,-0.0000070
 8,0.00000704,-0.00000073,0.00000557,0.00120629,-0.00005613,0.00017030,
 -0.00074926,-0.00054299,0.00513708,0.00015598,-0.00005727,-0.00005319,
 -0.00060267,-0.00109627,-0.00004601,0.02107611,-0.00268396,0.00608481,
 -0.00019394,0.00012002,-0.00016778,-0.00004365,0.00000426,0.00002338,-
 0.00267895,0.00283984,0.00515765,0.00009750,-0.00039619,-0.00059187,0.
 07409921,-0.07337443,0.03381363,0.00117573,-0.00076416,-0.00184252,-0.
 00001903,0.00005586,0.00009223,-0.01394069,0.00857855,-0.00393135,-0.0
 0073891,0.00027602,-0.00021380,-0.07879798,0.06909437,-0.00001635,-0.0
 0001783,-0.00001219,-0.00000416,0.00003432,0.00002396,-0.00000789,0.00
 000620,-0.00000789,-0.00011926,0.00000541,-0.00005369,0.00000182,0.000
 00122,-0.00000201,0.00017988,0.00033305,0.00000120,0.00002491,-0.00003
 571,0.00001242,0.00000560,0.00001572,-0.00002074,-0.00003540,0.0000195
 0,-0.00000713,-0.00000558,0.00000072,-0.00000249,-0.00111552,0.0000193
 3,-0.00016702,0.00104903,0.00518930,0.00090781,-0.00005163,-0.00006939
 ,-0.00006143,0.00033952,-0.00036911,-0.00076347,-0.01880113,0.00574624
 ,-0.00262743,0.00013241,-0.00010927,0.00002908,0.00003901,0.00003017,0
 .00001487,0.00175767,0.00522965,0.00430383,-0.00006868,-0.00062064,-0.
 00054735,-0.07663392,0.03335611,-0.07046209,-0.00081896,-0.00206143,-0
 .00121258,0.00000500,0.00009276,0.00008692,0.01181964,-0.00276050,0.00
 772000,0.00054599,-0.00017100,0.00014870,0.08153237,-0.04092444,0.0652
 8069,-0.00001427,0.00000469,-0.00000640,-0.00001070,0.00001064,0.00001
 172,-0.00000518,0.00000276,-0.00000033,-0.00002128,-0.00000463,-0.0000
 3000,0.00000293,0.00000377,-0.00000384,0.00006676,0.00008783,-0.000003
 35,0.00000704,-0.00000179,0.00000559,0.00000282,0.00000876,0.00000947,
 -0.00000133,0.00000793,-0.00000458,-0.00000313,-0.00000093,-0.00000058
 ,0.00009406,-0.00050959,0.00049565,-0.00162400,-0.00311464,0.00227058,
 0.00184782,-0.00027884,-0.00020529,-0.00090413,0.00084489,-0.00079199,
 -0.01810412,0.00902292,-0.00902879,0.00240238,-0.00140948,0.00098462,-
 0.00003143,-0.00010226,0.00009583,0.00007969,-0.00006929,0.00006010,-0
 .00029475,-0.00020953,0.00017850,0.00092359,0.00131251,-0.00091713,-0.
 28757964,0.07722016,-0.08102498,0.00053976,0.00043216,0.00003639,0.000
 07099,-0.00015986,0.00014695,0.00002043,-0.00004577,0.00004080,0.00021
 412,-0.00066744,0.00055148,0.30234900,0.00004076,0.00003310,0.00003184
 ,-0.00005601,-0.00001664,-0.00000101,0.00000758,-0.00000407,-0.0000002
 4,0.00012395,0.00000801,0.00001592,-0.00000531,0.00000006,0.00000373,0
 .00021837,-0.00034822,-0.00056114,-0.00013170,-0.00002855,-0.00000445,
 0.00000426,0.00001149,-0.00000704,0.00001242,-0.00005601,0.00001261,-0
 .00000008,0.00000344,-0.00000224,-0.00038079,-0.00082776,-0.00016932,-
 0.00236687,0.00092580,0.00346223,-0.00105417,0.00038099,0.00693137,-0.
 00069738,0.00026482,-0.00029042,-0.01315796,0.00710624,-0.00420268,0.0
 2228369,-0.00205182,0.00715829,0.00110265,-0.00020610,0.00031580,-0.00
 012231,0.00008929,-0.00017669,-0.00020868,0.00000755,0.00018834,-0.000
 96609,-0.00072027,-0.00187593,0.07712459,-0.07613687,0.03698439,-0.000
 11521,-0.00144978,-0.00322581,0.00027861,0.00005325,-0.00012534,0.0000
 1256,0.00000231,0.00003097,0.00038307,0.00002499,0.00009054,-0.0823460
 3,0.07286209,0.00001518,0.00002360,0.00001443,-0.00004851,-0.00002378,
 -0.00000084,0.00000445,-0.00000025,-0.00000154,0.00011031,-0.00000170,
 0.00002532,0.00000274,-0.00002294,-0.00001013,0.00011962,-0.00067618,-
 0.00051518,-0.00019191,0.00003788,0.00001987,-0.00000048,0.00000074,-0
 .00000816,-0.00001610,-0.00006186,-0.00002387,-0.00000814,0.00000664,-
 0.00001087,0.00022863,-0.00012108,-0.00083345,0.00132547,0.00363251,0.
 00221901,0.00028461,0.00689108,0.00308942,0.00059742,-0.00017880,0.000
 15065,0.00991417,-0.00273578,0.00617355,-0.01867117,0.00567198,-0.0012
 3998,-0.00086476,0.00021623,-0.00022917,0.00015279,-0.00021904,0.00006
 970,0.00010527,0.00020207,0.00003778,0.00102859,-0.00172222,-0.0013406
 3,-0.08099170,0.03697897,-0.07413256,0.00048441,-0.00320812,-0.0025980
 9,-0.00031132,-0.00015266,0.00001847,-0.00001185,0.00002746,0.00001498
 ,-0.00034754,0.00001160,0.00007717,0.08710862,-0.04466075,0.06893190,0
 .00000215,0.00003899,0.00001860,-0.00003726,-0.00000103,-0.00001941,0.
 00000029,0.00000011,0.00000040,0.00004427,-0.00004778,0.00000224,-0.00
 000129,0.00000116,0.00000349,-0.00000566,0.00000925,-0.00000117,-0.000
 00480,0.00001470,-0.00004399,-0.00000837,0.00001564,0.00001548,0.00004
 386,-0.00002273,-0.00000170,0.00000005,-0.00000068,-0.00000003,0.00033
 596,0.00027699,-0.00020070,-0.00095037,-0.00043101,0.00038858,-0.00036
 029,0.00001919,-0.00005010,-0.00509887,0.00122915,-0.00121082,-0.00422
 498,-0.00209743,0.00129898,-0.00018720,-0.00035064,0.00029893,0.000018
 89,-0.00000209,-0.00000021,0.00238359,0.02157347,-0.01899126,-0.000000
 08,0.00102256,-0.00091591,0.00663124,-0.02019264,0.01777962,0.00078794
 ,-0.00056030,0.00053550,0.00001496,-0.00010594,0.00008606,-0.06074140,
 0.01900928,-0.01697063,0.00113246,-0.00054175,0.00053887,0.00098744,0.
 00062248,-0.00030585,-0.00002742,0.00001609,-0.00001881,0.05926490,0.0
 0001077,-0.00003008,-0.00000421,0.00002871,-0.00000764,0.00001601,0.00
 000362,-0.00000294,0.00000130,0.00000219,0.00002414,0.00000486,0.00000
 047,0.00000034,-0.00000154,-0.00003127,0.00000061,-0.00002726,0.000034
 79,-0.00001868,0.00004673,0.00000602,-0.00001673,-0.00000602,-0.000015
 74,0.00001390,0.00000096,0.00000205,0.00000125,0.00000217,0.00005318,-
 0.00033171,-0.00046751,-0.00003293,-0.00014803,-0.00063827,-0.00009649
 ,0.00005968,0.00005137,0.00168938,0.00308776,0.00231562,-0.00256667,0.
 00437515,0.00433150,-0.00022283,-0.00044667,-0.00022715,-0.00000801,0.
 00003340,0.00006935,-0.00150186,-0.00254063,0.00490185,-0.00012788,-0.
 00024946,0.00022317,0.00310061,-0.00562719,0.00888925,0.00043374,-0.00
 025731,0.00034348,0.00001056,-0.00005936,0.00003584,0.01853518,-0.2109
 4350,0.15073582,0.00010864,-0.00094976,-0.00170153,0.00011772,-0.00183
 391,-0.00303090,-0.00003894,0.00007267,0.00008440,-0.01949503,0.215794
 66,-0.00001203,0.00000827,-0.00000084,-0.00000860,0.00000609,-0.000004
 14,-0.00000301,0.00000222,-0.00000163,-0.00002172,-0.00002483,-0.00001
 325,0.00000310,-0.00000102,0.00000145,0.00005100,0.00002650,-0.0000380
 5,0.00001568,0.00003254,0.00000914,0.00000515,-0.00000235,0.00001233,-
 0.00000056,-0.00000448,0.00000035,-0.00000555,0.00000081,-0.00000132,0
 .00001262,-0.00045558,-0.00049962,0.00014467,-0.00064010,-0.00029447,-
 0.00000937,0.00003897,0.00008027,-0.00165262,0.00230713,0.00371972,0.0
 0154692,0.00443455,0.00566341,0.00029687,-0.00023933,-0.00044154,-0.00
 000684,0.00007059,0.00005534,0.00123426,0.00555153,-0.00175980,0.00009
 372,0.00025188,-0.00023187,-0.00284177,0.00796635,-0.00268856,-0.00033
 310,0.00038778,-0.00025935,-0.00000826,0.00003848,-0.00004517,-0.01640
 945,0.15089259,-0.17145539,-0.00005825,-0.00175767,-0.00137107,0.00018
 233,-0.00301864,-0.00265913,0.00002095,0.00007702,0.00010222,0.0177638
 4,-0.16594929,0.17212098\\-0.00000048,0.00000079,0.00000150,0.00000180
 ,0.00000132,-0.00000029,0.00000285,0.00000153,-0.00000151,0.00000157,0
 .00000024,-0.00000149,0.00000308,0.00000036,-0.00000314,-0.00000016,-0
 .00000011,-0.00000024,-0.00000192,0.00000013,0.00000207,-0.00000327,-0
 .00000053,0.00000304,-0.00000200,0.00000072,0.00000315,-0.00000351,0.0
 0000076,0.00000470,0.00000012,-0.00000098,-0.00000116,0.00000004,0.000
 00014,0.00000010,0.00000030,-0.00000288,-0.00000342,-0.00000002,0.0000
 0217,0.00000238,0.00000009,-0.00000079,-0.00000095,0.00000038,-0.00000
 376,-0.00000448,0.00000034,-0.00000372,-0.00000438,-0.00000007,0.00000
 319,0.00000352,0.,0.00000293,0.00000320,0.00000002,0.00000030,0.000000
 30,0.00000026,-0.00000275,-0.00000326,0.00000051,-0.00000526,-0.000006
 23,-0.00000007,0.00000224,0.00000249,-0.00000011,0.00000475,0.00000523
 ,0.00000006,-0.00000043,-0.00000053,0.00000030,-0.00000343,-0.00000403
 ,-0.00000012,0.00000306,0.00000343\\\@
 The archive entry for this job was punched.


 LIFE IS A CONTINUAL STRUGGLE AGAINST THE TENDENCY TO PRODUCE ENTROPY.
 Job cpu time:       0 days  5 hours 57 minutes  4.9 seconds.
 Elapsed time:       0 days  0 hours 11 minutes 30.5 seconds.
 File lengths (MBytes):  RWF=    930 Int=      0 D2E=      0 Chk=     32 Scr=      1
 Normal termination of Gaussian 16 at Sun May 11 04:22:10 2025.
