/home/tahminaafroz
cn015.cluster.local
tahminaafroz
Sat Apr 26 20:01:47 CDT 2025
 Entering Gaussian System, Link 0=g16
 Initial command:
 /home/apps/g16/l1.exe "/tmp/4-beta-nap-phboh2-opt-freq/Gau-606577.inp" -scrdir="/tmp/4-beta-nap-phboh2-opt-freq/"
 Entering Link 1 = /home/apps/g16/l1.exe PID=    606578.
  
 Copyright (c) 1988-2019, Gaussian, Inc.  All Rights Reserved.
  
 This is part of the Gaussian(R) 16 program.  It is based on
 the Gaussian(R) 09 system (copyright 2009, Gaussian, Inc.),
 the Gaussian(R) 03 system (copyright 2003, Gaussian, Inc.),
 the Gaussian(R) 98 system (copyright 1998, Gaussian, Inc.),
 the Gaussian(R) 94 system (copyright 1995, Gaussian, Inc.),
 the Gaussian 92(TM) system (copyright 1992, Gaussian, Inc.),
 the Gaussian 90(TM) system (copyright 1990, Gaussian, Inc.),
 the Gaussian 88(TM) system (copyright 1988, Gaussian, Inc.),
 the Gaussian 86(TM) system (copyright 1986, Carnegie Mellon
 University), and the Gaussian 82(TM) system (copyright 1983,
 Carnegie Mellon University). Gaussian is a federally registered
 trademark of Gaussian, Inc.
  
 This software contains proprietary and confidential information,
 including trade secrets, belonging to Gaussian, Inc.
  
 This software is provided under written license and may be
 used, copied, transmitted, or stored only in accord with that
 written license.
  
 The following legend is applicable only to US Government
 contracts under FAR:
  
                    RESTRICTED RIGHTS LEGEND
  
 Use, reproduction and disclosure by the US Government is
 subject to restrictions as set forth in subparagraphs (a)
 and (c) of the Commercial Computer Software - Restricted
 Rights clause in FAR 52.227-19.
  
 Gaussian, Inc.
 340 Quinnipiac St., Bldg. 40, Wallingford CT 06492
  
  
 ---------------------------------------------------------------
 Warning -- This program may not be used in any manner that
 competes with the business of Gaussian, Inc. or will provide
 assistance to any competitor of Gaussian, Inc.  The licensee
 of this program is prohibited from giving any competitor of
 Gaussian, Inc. access to this program.  By using this program,
 the user acknowledges that Gaussian, Inc. is engaged in the
 business of creating and licensing software in the field of
 computational chemistry and represents and warrants to the
 licensee that it is not a competitor of Gaussian, Inc. and that
 it will not use this program in any manner prohibited above.
 ---------------------------------------------------------------
  

 Cite this work as:
 Gaussian 16, Revision C.01,
 M. J. Frisch, G. W. Trucks, H. B. Schlegel, G. E. Scuseria, 
 M. A. Robb, J. R. Cheeseman, G. Scalmani, V. Barone, 
 G. A. Petersson, H. Nakatsuji, X. Li, M. Caricato, A. V. Marenich, 
 J. Bloino, B. G. Janesko, R. Gomperts, B. Mennucci, H. P. Hratchian, 
 J. V. Ortiz, A. F. Izmaylov, J. L. Sonnenberg, D. Williams-Young, 
 F. Ding, F. Lipparini, F. Egidi, J. Goings, B. Peng, A. Petrone, 
 T. Henderson, D. Ranasinghe, V. G. Zakrzewski, J. Gao, N. Rega, 
 G. Zheng, W. Liang, M. Hada, M. Ehara, K. Toyota, R. Fukuda, 
 J. Hasegawa, M. Ishida, T. Nakajima, Y. Honda, O. Kitao, H. Nakai, 
 T. Vreven, K. Throssell, J. A. Montgomery, Jr., J. E. Peralta, 
 F. Ogliaro, M. J. Bearpark, J. J. Heyd, E. N. Brothers, K. N. Kudin, 
 V. N. Staroverov, T. A. Keith, R. Kobayashi, J. Normand, 
 K. Raghavachari, A. P. Rendell, J. C. Burant, S. S. Iyengar, 
 J. Tomasi, M. Cossi, J. M. Millam, M. Klene, C. Adamo, R. Cammi, 
 J. W. Ochterski, R. L. Martin, K. Morokuma, O. Farkas, 
 J. B. Foresman, and D. J. Fox, Gaussian, Inc., Wallingford CT, 2019.
 
 ******************************************
 Gaussian 16:  AS64L-G16RevC.01  3-Jul-2019
                26-Apr-2025 
 ******************************************
 %mem=20GB
 %nprocshared=32
 Will use up to   32 processors via shared memory.
 %chk=4-beta-nap-phboh2-opt-freq.chk
 ----------------------------------------------------------------------
 # opt=(calcfc,tight) freq 6-311+g(d,p) nosymm scf=(qc,fermi,xqc) geom=
 connectivity int=ultrafine m062x
 ----------------------------------------------------------------------
 1/7=10,10=4,18=20,19=15,26=4,38=1,57=2/1,3;
 2/9=110,12=2,15=1,17=6,18=5,40=1/2;
 3/5=4,6=6,7=111,11=2,25=1,30=1,71=2,74=-55,75=-5,140=1/1,2,3;
 4//1;
 5/5=2,22=13,38=5/2;
 8/6=4,10=90,11=11/1;
 11/6=1,8=1,9=11,15=111,16=1,31=1/1,2,10;
 10/6=1,13=1,31=1/2;
 6/7=2,8=2,9=2,10=2,28=1/1;
 7/10=1,25=1,30=1/1,2,3,16;
 1/7=10,10=4,18=20,19=15,26=4/3(2);
 2/9=110,15=1/2;
 99//99;
 2/9=110,15=1/2;
 3/5=4,6=6,7=111,11=2,25=1,30=1,71=1,74=-55,75=-5/1,2,3;
 4/5=5,16=3,69=1/1;
 5/5=2,22=13,38=5/2;
 7/30=1/1,2,3,16;
 1/7=10,18=20,19=15,26=4/3(-5);
 2/9=110,15=1/2;
 6/7=2,8=2,9=2,10=2,19=2,28=1/1;
 99/9=1/99;
 --------------------------
 4-beta-nap-phboh2-opt-freq
 --------------------------
 Symbolic Z-matrix:
 Charge =  0 Multiplicity = 1
 O                     8.68488   7.45597   5.54071 
 H                     9.49815   7.1495    5.952 
 C                     6.2426    6.99495   5.17236 
 B                     7.63981   6.61429   5.77259 
 O                     7.87677   5.49184   6.51726 
 H                     7.1074    4.94275   6.67491 
 C                     5.11751   6.17311   5.28716 
 H                     5.17717   5.2179    5.80176 
 C                     3.88827   6.53618   4.74914 
 H                     3.02409   5.89163   4.84399 
 C                     3.78655   7.74953   4.08108 
 C                     4.88098   8.59415   3.94235 
 H                     4.77865   9.53465   3.41657 
 C                     6.09859   8.20755   4.48809 
 H                     6.96014   8.8575    4.38492 
 C                     2.43058   8.1666    3.48191 
 C                     2.34048   9.41148   2.80049 
 C                     1.32889   7.35597   3.6007 
 C                     3.46499   10.27085   2.66239 
 C                     1.09702   9.80739   2.24349 
 C                     0.08751   7.75059   3.04486 
 H                     1.39509   6.39244   4.12711 
 C                     3.35033   11.46765   1.99973 
 H                     4.42535   9.95585   3.09737 
 C                     1.00675   11.05201   1.56228 
 C                    -0.02702   8.94733   2.38195 
 H                    -0.78089   7.08421   3.15316 
 C                     2.10915   11.86245   1.44411 
 H                     4.21869   12.13418   1.89164 
 H                     0.03801   11.34988   1.13415 
 H                    -0.98756   9.26198   1.94707 
 H                     2.04283   12.82601   0.91775 
 

 GradGradGradGradGradGradGradGradGradGradGradGradGradGradGradGradGradGrad
 Berny optimization.
 Initialization pass.
                           ----------------------------
                           !    Initial Parameters    !
                           ! (Angstroms and Degrees)  !
 --------------------------                            --------------------------
 ! Name  Definition              Value          Derivative Info.                !
 --------------------------------------------------------------------------------
 ! R1    R(1,2)                  0.9615         calculate D2E/DX2 analytically  !
 ! R2    R(1,4)                  1.3617         calculate D2E/DX2 analytically  !
 ! R3    R(3,4)                  1.5676         calculate D2E/DX2 analytically  !
 ! R4    R(3,7)                  1.398          calculate D2E/DX2 analytically  !
 ! R5    R(3,14)                 1.3998         calculate D2E/DX2 analytically  !
 ! R6    R(4,5)                  1.3677         calculate D2E/DX2 analytically  !
 ! R7    R(5,6)                  0.9583         calculate D2E/DX2 analytically  !
 ! R8    R(7,8)                  1.0866         calculate D2E/DX2 analytically  !
 ! R9    R(7,9)                  1.3901         calculate D2E/DX2 analytically  !
 ! R10   R(9,10)                 1.0822         calculate D2E/DX2 analytically  !
 ! R11   R(9,11)                 1.3888         calculate D2E/DX2 analytically  !
 ! R12   R(11,12)                1.3894         calculate D2E/DX2 analytically  !
 ! R13   R(11,16)                1.54           calculate D2E/DX2 analytically  !
 ! R14   R(12,13)                1.0823         calculate D2E/DX2 analytically  !
 ! R15   R(12,14)                1.3892         calculate D2E/DX2 analytically  !
 ! R16   R(14,15)                1.0841         calculate D2E/DX2 analytically  !
 ! R17   R(16,17)                1.422          calculate D2E/DX2 analytically  !
 ! R18   R(16,18)                1.3729         calculate D2E/DX2 analytically  !
 ! R19   R(17,19)                1.422          calculate D2E/DX2 analytically  !
 ! R20   R(17,20)                1.4189         calculate D2E/DX2 analytically  !
 ! R21   R(18,21)                1.4162         calculate D2E/DX2 analytically  !
 ! R22   R(18,22)                1.0999         calculate D2E/DX2 analytically  !
 ! R23   R(19,23)                1.3728         calculate D2E/DX2 analytically  !
 ! R24   R(19,24)                1.1003         calculate D2E/DX2 analytically  !
 ! R25   R(20,25)                1.4217         calculate D2E/DX2 analytically  !
 ! R26   R(20,26)                1.4221         calculate D2E/DX2 analytically  !
 ! R27   R(21,26)                1.3729         calculate D2E/DX2 analytically  !
 ! R28   R(21,27)                1.1            calculate D2E/DX2 analytically  !
 ! R29   R(23,28)                1.416          calculate D2E/DX2 analytically  !
 ! R30   R(23,29)                1.1            calculate D2E/DX2 analytically  !
 ! R31   R(25,28)                1.3733         calculate D2E/DX2 analytically  !
 ! R32   R(25,30)                1.1002         calculate D2E/DX2 analytically  !
 ! R33   R(26,31)                1.1003         calculate D2E/DX2 analytically  !
 ! R34   R(28,32)                1.1            calculate D2E/DX2 analytically  !
 ! A1    A(2,1,4)              112.2895         calculate D2E/DX2 analytically  !
 ! A2    A(4,3,7)              122.8954         calculate D2E/DX2 analytically  !
 ! A3    A(4,3,14)             119.2901         calculate D2E/DX2 analytically  !
 ! A4    A(7,3,14)             117.8144         calculate D2E/DX2 analytically  !
 ! A5    A(1,4,3)              117.9524         calculate D2E/DX2 analytically  !
 ! A6    A(1,4,5)              117.8401         calculate D2E/DX2 analytically  !
 ! A7    A(3,4,5)              124.2074         calculate D2E/DX2 analytically  !
 ! A8    A(4,5,6)              114.8807         calculate D2E/DX2 analytically  !
 ! A9    A(3,7,8)              120.7618         calculate D2E/DX2 analytically  !
 ! A10   A(3,7,9)              121.7585         calculate D2E/DX2 analytically  !
 ! A11   A(8,7,9)              117.4792         calculate D2E/DX2 analytically  !
 ! A12   A(7,9,10)             121.1077         calculate D2E/DX2 analytically  !
 ! A13   A(7,9,11)             118.6282         calculate D2E/DX2 analytically  !
 ! A14   A(10,9,11)            120.2641         calculate D2E/DX2 analytically  !
 ! A15   A(9,11,12)            121.4285         calculate D2E/DX2 analytically  !
 ! A16   A(9,11,16)            119.2254         calculate D2E/DX2 analytically  !
 ! A17   A(12,11,16)           119.3461         calculate D2E/DX2 analytically  !
 ! A18   A(11,12,13)           120.1511         calculate D2E/DX2 analytically  !
 ! A19   A(11,12,14)           118.817          calculate D2E/DX2 analytically  !
 ! A20   A(13,12,14)           121.0319         calculate D2E/DX2 analytically  !
 ! A21   A(3,14,12)            121.5528         calculate D2E/DX2 analytically  !
 ! A22   A(3,14,15)            118.9546         calculate D2E/DX2 analytically  !
 ! A23   A(12,14,15)           119.4926         calculate D2E/DX2 analytically  !
 ! A24   A(11,16,17)           118.6409         calculate D2E/DX2 analytically  !
 ! A25   A(11,16,18)           120.8623         calculate D2E/DX2 analytically  !
 ! A26   A(17,16,18)           120.4968         calculate D2E/DX2 analytically  !
 ! A27   A(16,17,19)           121.7004         calculate D2E/DX2 analytically  !
 ! A28   A(16,17,20)           119.2037         calculate D2E/DX2 analytically  !
 ! A29   A(19,17,20)           119.0959         calculate D2E/DX2 analytically  !
 ! A30   A(16,18,21)           120.3239         calculate D2E/DX2 analytically  !
 ! A31   A(16,18,22)           120.685          calculate D2E/DX2 analytically  !
 ! A32   A(21,18,22)           118.991          calculate D2E/DX2 analytically  !
 ! A33   A(17,19,23)           120.5099         calculate D2E/DX2 analytically  !
 ! A34   A(17,19,24)           118.6069         calculate D2E/DX2 analytically  !
 ! A35   A(23,19,24)           120.8832         calculate D2E/DX2 analytically  !
 ! A36   A(17,20,25)           119.2103         calculate D2E/DX2 analytically  !
 ! A37   A(17,20,26)           119.0596         calculate D2E/DX2 analytically  !
 ! A38   A(25,20,26)           121.73           calculate D2E/DX2 analytically  !
 ! A39   A(18,21,26)           120.3669         calculate D2E/DX2 analytically  !
 ! A40   A(18,21,27)           118.9839         calculate D2E/DX2 analytically  !
 ! A41   A(26,21,27)           120.6492         calculate D2E/DX2 analytically  !
 ! A42   A(19,23,28)           120.3763         calculate D2E/DX2 analytically  !
 ! A43   A(19,23,29)           120.6477         calculate D2E/DX2 analytically  !
 ! A44   A(28,23,29)           118.976          calculate D2E/DX2 analytically  !
 ! A45   A(20,25,28)           120.4559         calculate D2E/DX2 analytically  !
 ! A46   A(20,25,30)           118.6441         calculate D2E/DX2 analytically  !
 ! A47   A(28,25,30)           120.8999         calculate D2E/DX2 analytically  !
 ! A48   A(20,26,21)           120.5491         calculate D2E/DX2 analytically  !
 ! A49   A(20,26,31)           118.5913         calculate D2E/DX2 analytically  !
 ! A50   A(21,26,31)           120.8596         calculate D2E/DX2 analytically  !
 ! A51   A(23,28,25)           120.3516         calculate D2E/DX2 analytically  !
 ! A52   A(23,28,32)           119.0027         calculate D2E/DX2 analytically  !
 ! A53   A(25,28,32)           120.6457         calculate D2E/DX2 analytically  !
 ! D1    D(2,1,4,3)            179.4301         calculate D2E/DX2 analytically  !
 ! D2    D(2,1,4,5)             -0.4327         calculate D2E/DX2 analytically  !
 ! D3    D(7,3,4,1)            176.5809         calculate D2E/DX2 analytically  !
 ! D4    D(7,3,4,5)             -3.5658         calculate D2E/DX2 analytically  !
 ! D5    D(14,3,4,1)            -3.4021         calculate D2E/DX2 analytically  !
 ! D6    D(14,3,4,5)           176.4512         calculate D2E/DX2 analytically  !
 ! D7    D(4,3,7,8)             -0.4603         calculate D2E/DX2 analytically  !
 ! D8    D(4,3,7,9)            179.7933         calculate D2E/DX2 analytically  !
 ! D9    D(14,3,7,8)           179.5229         calculate D2E/DX2 analytically  !
 ! D10   D(14,3,7,9)            -0.2235         calculate D2E/DX2 analytically  !
 ! D11   D(4,3,14,12)         -179.7332         calculate D2E/DX2 analytically  !
 ! D12   D(4,3,14,15)            0.2076         calculate D2E/DX2 analytically  !
 ! D13   D(7,3,14,12)            0.283          calculate D2E/DX2 analytically  !
 ! D14   D(7,3,14,15)         -179.7763         calculate D2E/DX2 analytically  !
 ! D15   D(1,4,5,6)            178.364          calculate D2E/DX2 analytically  !
 ! D16   D(3,4,5,6)             -1.4894         calculate D2E/DX2 analytically  !
 ! D17   D(3,7,9,10)           179.9829         calculate D2E/DX2 analytically  !
 ! D18   D(3,7,9,11)             0.0384         calculate D2E/DX2 analytically  !
 ! D19   D(8,7,9,10)             0.2286         calculate D2E/DX2 analytically  !
 ! D20   D(8,7,9,11)          -179.7159         calculate D2E/DX2 analytically  !
 ! D21   D(7,9,11,12)            0.0976         calculate D2E/DX2 analytically  !
 ! D22   D(7,9,11,16)         -179.8882         calculate D2E/DX2 analytically  !
 ! D23   D(10,9,11,12)        -179.8474         calculate D2E/DX2 analytically  !
 ! D24   D(10,9,11,16)           0.1668         calculate D2E/DX2 analytically  !
 ! D25   D(9,11,12,13)         179.9275         calculate D2E/DX2 analytically  !
 ! D26   D(9,11,12,14)          -0.0401         calculate D2E/DX2 analytically  !
 ! D27   D(16,11,12,13)         -0.0866         calculate D2E/DX2 analytically  !
 ! D28   D(16,11,12,14)        179.9457         calculate D2E/DX2 analytically  !
 ! D29   D(9,11,16,17)         180.0            calculate D2E/DX2 analytically  !
 ! D30   D(9,11,16,18)          -0.014          calculate D2E/DX2 analytically  !
 ! D31   D(12,11,16,17)          0.0138         calculate D2E/DX2 analytically  !
 ! D32   D(12,11,16,18)        179.9998         calculate D2E/DX2 analytically  !
 ! D33   D(11,12,14,3)          -0.1558         calculate D2E/DX2 analytically  !
 ! D34   D(11,12,14,15)        179.9038         calculate D2E/DX2 analytically  !
 ! D35   D(13,12,14,3)         179.8769         calculate D2E/DX2 analytically  !
 ! D36   D(13,12,14,15)         -0.0636         calculate D2E/DX2 analytically  !
 ! D37   D(11,16,17,19)         -0.0135         calculate D2E/DX2 analytically  !
 ! D38   D(11,16,17,20)        179.9818         calculate D2E/DX2 analytically  !
 ! D39   D(18,16,17,19)       -179.9995         calculate D2E/DX2 analytically  !
 ! D40   D(18,16,17,20)         -0.0042         calculate D2E/DX2 analytically  !
 ! D41   D(11,16,18,21)       -179.9773         calculate D2E/DX2 analytically  !
 ! D42   D(11,16,18,22)          0.013          calculate D2E/DX2 analytically  !
 ! D43   D(17,16,18,21)          0.0084         calculate D2E/DX2 analytically  !
 ! D44   D(17,16,18,22)        179.9987         calculate D2E/DX2 analytically  !
 ! D45   D(16,17,19,23)       -179.9875         calculate D2E/DX2 analytically  !
 ! D46   D(16,17,19,24)         -0.0011         calculate D2E/DX2 analytically  !
 ! D47   D(20,17,19,23)          0.0171         calculate D2E/DX2 analytically  !
 ! D48   D(20,17,19,24)       -179.9964         calculate D2E/DX2 analytically  !
 ! D49   D(16,17,20,25)        179.995          calculate D2E/DX2 analytically  !
 ! D50   D(16,17,20,26)         -0.0008         calculate D2E/DX2 analytically  !
 ! D51   D(19,17,20,25)         -0.0096         calculate D2E/DX2 analytically  !
 ! D52   D(19,17,20,26)        179.9947         calculate D2E/DX2 analytically  !
 ! D53   D(16,18,21,26)         -0.0078         calculate D2E/DX2 analytically  !
 ! D54   D(16,18,21,27)       -179.9892         calculate D2E/DX2 analytically  !
 ! D55   D(22,18,21,26)       -179.9982         calculate D2E/DX2 analytically  !
 ! D56   D(22,18,21,27)          0.0203         calculate D2E/DX2 analytically  !
 ! D57   D(17,19,23,28)         -0.011          calculate D2E/DX2 analytically  !
 ! D58   D(17,19,23,29)        179.9952         calculate D2E/DX2 analytically  !
 ! D59   D(24,19,23,28)       -179.9971         calculate D2E/DX2 analytically  !
 ! D60   D(24,19,23,29)          0.009          calculate D2E/DX2 analytically  !
 ! D61   D(17,20,25,28)         -0.004          calculate D2E/DX2 analytically  !
 ! D62   D(17,20,25,30)       -179.9878         calculate D2E/DX2 analytically  !
 ! D63   D(26,20,25,28)        179.9916         calculate D2E/DX2 analytically  !
 ! D64   D(26,20,25,30)          0.0078         calculate D2E/DX2 analytically  !
 ! D65   D(17,20,26,21)          0.0014         calculate D2E/DX2 analytically  !
 ! D66   D(17,20,26,31)        179.9984         calculate D2E/DX2 analytically  !
 ! D67   D(25,20,26,21)       -179.9942         calculate D2E/DX2 analytically  !
 ! D68   D(25,20,26,31)          0.0027         calculate D2E/DX2 analytically  !
 ! D69   D(18,21,26,20)          0.0027         calculate D2E/DX2 analytically  !
 ! D70   D(18,21,26,31)       -179.9941         calculate D2E/DX2 analytically  !
 ! D71   D(27,21,26,20)        179.9839         calculate D2E/DX2 analytically  !
 ! D72   D(27,21,26,31)         -0.013          calculate D2E/DX2 analytically  !
 ! D73   D(19,23,28,25)         -0.0029         calculate D2E/DX2 analytically  !
 ! D74   D(19,23,28,32)       -179.9936         calculate D2E/DX2 analytically  !
 ! D75   D(29,23,28,25)        179.991          calculate D2E/DX2 analytically  !
 ! D76   D(29,23,28,32)          0.0003         calculate D2E/DX2 analytically  !
 ! D77   D(20,25,28,23)          0.0104         calculate D2E/DX2 analytically  !
 ! D78   D(20,25,28,32)       -179.999          calculate D2E/DX2 analytically  !
 ! D79   D(30,25,28,23)        179.9938         calculate D2E/DX2 analytically  !
 ! D80   D(30,25,28,32)         -0.0156         calculate D2E/DX2 analytically  !
 --------------------------------------------------------------------------------
 Trust Radius=3.00D-01 FncErr=1.00D-07 GrdErr=1.00D-06 EigMax=2.50D+02 EigMin=1.00D-04
 Number of steps in this run=    177 maximum allowed number of steps=    192.
 GradGradGradGradGradGradGradGradGradGradGradGradGradGradGradGradGradGrad

                          Input orientation:                          
 ---------------------------------------------------------------------
 Center     Atomic      Atomic             Coordinates (Angstroms)
 Number     Number       Type             X           Y           Z
 ---------------------------------------------------------------------
      1          8           0        8.684881    7.455970    5.540714
      2          1           0        9.498150    7.149504    5.951999
      3          6           0        6.242598    6.994953    5.172357
      4          5           0        7.639813    6.614287    5.772586
      5          8           0        7.876771    5.491844    6.517256
      6          1           0        7.107399    4.942752    6.674912
      7          6           0        5.117512    6.173113    5.287159
      8          1           0        5.177165    5.217898    5.801758
      9          6           0        3.888273    6.536175    4.749139
     10          1           0        3.024094    5.891631    4.843988
     11          6           0        3.786551    7.749526    4.081084
     12          6           0        4.880975    8.594145    3.942349
     13          1           0        4.778652    9.534651    3.416566
     14          6           0        6.098594    8.207551    4.488090
     15          1           0        6.960137    8.857503    4.384917
     16          6           0        2.430584    8.166599    3.481914
     17          6           0        2.340477    9.411477    2.800489
     18          6           0        1.328887    7.355970    3.600700
     19          6           0        3.464988   10.270848    2.662386
     20          6           0        1.097018    9.807387    2.243489
     21          6           0        0.087513    7.750591    3.044860
     22          1           0        1.395089    6.392437    4.127106
     23          6           0        3.350333   11.467646    1.999731
     24          1           0        4.425351    9.955850    3.097368
     25          6           0        1.006746   11.052012    1.562279
     26          6           0       -0.027016    8.947330    2.381953
     27          1           0       -0.780892    7.084211    3.153156
     28          6           0        2.109146   11.862451    1.444108
     29          1           0        4.218687   12.134180    1.891641
     30          1           0        0.038012   11.349876    1.134153
     31          1           0       -0.987555    9.261983    1.947067
     32          1           0        2.042829   12.826010    0.917750
 ---------------------------------------------------------------------
                    Distance matrix (angstroms):
                    1          2          3          4          5
     1  O    0.000000
     2  H    0.961501   0.000000
     3  C    2.512562   3.351171   0.000000
     4  B    1.361750   1.942180   1.567607   0.000000
     5  O    2.337620   2.386676   2.595884   1.367684   0.000000
     6  H    3.176652   3.332874   2.686463   1.972736   0.958275
     7  C    3.799491   4.537107   1.398005   2.606200   3.096898
     8  H    4.169074   4.735460   2.165460   2.831146   2.806217
     9  C    4.947733   5.770075   2.435659   3.889421   4.486088
    10  H    5.914143   6.687551   3.418174   4.763338   5.148605
    11  C    5.119603   6.040092   2.791491   4.358621   5.268962
    12  C    4.280177   5.238701   2.433999   3.857563   5.022869
    13  H    4.908314   5.864385   3.417017   4.718644   5.962961
    14  C    2.891673   3.849607   1.399769   2.561987   3.828119
    15  H    2.504976   3.437225   2.145697   2.723895   4.088367
    16  C    6.622679   7.555547   4.331489   5.898552   6.784435
    17  C    7.182221   8.141303   5.166420   6.688841   7.734884
    18  C    7.608173   8.503417   5.171556   6.715279   7.406487
    19  C    6.592086   7.547409   4.974591   6.361835   7.560604
    20  C    8.600961   9.560147   6.554773   8.090648   9.102420
    21  C    8.957166   9.867768   6.556089   8.109803   8.822245
    22  H    7.501364   8.340443   4.995390   6.461687   6.966785
    23  C    7.555760   8.488959   6.199656   7.495943   8.752536
    24  H    5.510257   6.462026   4.046588   5.353092   6.598127
    25  C    9.365534  10.324880   7.543642   9.023174  10.132350
    26  C    9.386111  10.329869   7.134857   8.701709   9.566136
    27  H    9.769314  10.653473   7.308526   8.831224   9.423796
    28  C    8.912886   9.855472   7.394444   8.767395   9.979327
    29  H    7.426189   8.319029   6.424249   7.565386   8.882484
    30  H   10.456989  11.417047   8.588907  10.086041  11.168727
    31  H   10.475305  11.421561   8.235110   9.801856  10.661935
    32  H    9.712156  10.637114   8.351106   9.668566  10.916929
                    6          7          8          9         10
     6  H    0.000000
     7  C    2.720165   0.000000
     8  H    2.136330   1.086649   0.000000
     9  C    4.075582   1.390075   2.122994   0.000000
    10  H    4.574498   2.158247   2.450909   1.082238   0.000000
    11  C    5.062999   2.389802   3.362093   1.388836   2.148287
    12  C    5.075090   2.779543   3.865770   2.423140   3.400668
    13  H    6.093063   3.861850   4.947960   3.399909   4.288077
    14  C    4.056943   2.395824   3.393049   2.783373   3.865579
    15  H    4.537735   3.378647   4.293385   3.867502   4.949705
    16  C    6.516212   3.801641   4.649755   2.527647   2.717164
    17  C    7.596328   4.937859   5.885620   3.802666   4.127049
    18  C    6.976073   4.312421   4.921915   2.922573   2.561987
    19  C    7.599745   5.139232   6.190275   4.299010   4.912364
    20  C    8.912175   6.215807   7.097344   4.976969   5.080292
    21  C    8.386897   5.728633   6.318194   4.338796   3.913579
    22  H    6.420544   3.905158   4.299779   2.573626   1.848887
    23  C    8.862680   6.477822   7.540031   5.671687   6.268028
    24  H    6.717392   4.425310   5.507008   3.835489   4.640267
    25  C   10.033944   7.387610   8.330814   6.233142   6.439630
    26  C    9.239373   6.527072   7.258597   5.171724   4.970733
    27  H    8.900210   6.338394   6.782083   4.964736   4.331175
    28  C   10.011297   7.495857   8.517743   6.515960   6.931595
    29  H    9.107194   6.918942   8.002666   6.293817   7.008054
    30  H   11.033017   8.357490   9.262752   7.145932   7.243756
    31  H   10.321655   7.613749   8.319678   6.249427   5.987049
    32  H   10.997297   8.532670   9.568749   7.592577   8.028938
                   11         12         13         14         15
    11  C    0.000000
    12  C    1.389386   0.000000
    13  H    2.147678   1.082344   0.000000
    14  C    2.391858   1.389203   2.156758   0.000000
    15  H    3.375141   2.141994   2.480949   1.084130   0.000000
    16  C    1.540000   2.529666   2.718319   3.803730   4.670076
    17  C    2.548163   2.902758   2.517820   4.291955   4.915135
    18  C    2.534910   3.777186   4.084291   4.925724   5.880525
    19  C    2.910871   2.540602   1.684187   3.811334   4.144964
    20  C    3.852939   4.321622   3.873619   5.710821   6.313807
    21  C    3.841438   4.949176   5.032675   6.198776   7.089003
    22  H    2.750073   4.127112   4.671924   5.054494   6.092026
    23  C    4.283309   3.791258   2.789980   4.936911   5.052984
    24  H    2.498725   1.666081   0.635702   2.791128   3.047833
    25  C    4.997810   5.168703   4.468561   6.525201   6.944496
    26  C    4.343394   5.162165   4.950739   6.519676   7.269129
    27  H    4.707996   5.912653   6.081330   7.097272   8.036500
    28  C    5.165606   4.960450   4.054073   6.208044   6.419516
    29  H    4.919918   4.144379   3.065373   5.068927   4.946573
    30  H    5.974819   6.239736   5.565799   7.606165   8.043332
    31  H    5.443679   6.234325   5.956754   7.601456   8.323012
    32  H    6.230404   5.925534   4.955992   7.108215   7.207649
                   16         17         18         19         20
    16  C    0.000000
    17  C    1.422034   0.000000
    18  C    1.372941   2.426677   0.000000
    19  C    2.483844   1.422011   3.733614   0.000000
    20  C    2.450364   1.418868   2.811625   2.448990   0.000000
    21  C    2.419517   2.809645   1.416225   4.231468   2.427284
    22  H    2.153178   3.430492   1.099946   4.633785   3.911361
    23  C    3.733593   2.426696   4.853373   1.372801   2.809503
    24  H    2.707100   2.175127   4.074409   1.100332   3.439325
    25  C    3.746722   2.450175   4.233162   2.804177   1.421719
    26  C    2.803436   2.448597   2.419968   3.744921   1.422083
    27  H    3.404883   3.909410   2.173779   5.331323   3.430704
    28  C    4.232647   2.810793   5.056488   2.419857   2.426253
    29  H    4.633355   3.430275   5.839788   2.152700   3.909294
    30  H    4.622730   3.440263   4.868418   3.904351   2.175176
    31  H    3.903755   3.438965   3.425389   4.621107   2.175035
    32  H    5.332486   3.910542   6.134271   3.405164   3.429902
                   21         22         23         24         25
    21  C    0.000000
    22  H    2.173843   0.000000
    23  C    5.055174   5.840073   0.000000
    24  H    4.866494   4.789652   2.155458   0.000000
    25  C    3.733954   5.332991   2.420024   3.904476   0.000000
    26  C    1.372861   3.405205   4.231379   4.620877   2.483991
    27  H    1.099963   2.482342   6.132855   5.945956   4.633571
    28  C    4.853535   6.134282   1.416027   3.425376   1.373340
    29  H    6.132892   6.777730   1.099995   2.498322   3.405310
    30  H    4.075304   5.947741   3.425575   5.004624   1.100209
    31  H    2.155279   4.320169   4.866723   5.577114   2.707305
    32  H    5.840183   7.218754   2.173799   4.320297   2.153127
                   26         27         28         29         30
    26  C    0.000000
    27  H    2.152742   0.000000
    28  C    3.733721   5.839927   0.000000
    29  H    5.331267   7.217299   2.173542   0.000000
    30  H    2.708036   4.789872   2.156015   4.320528   0.000000
    31  H    1.100349   2.498010   4.074919   5.946221   2.464125
    32  H    4.633822   6.777810   1.099953   2.482226   2.499019
                   31         32
    31  H    0.000000
    32  H    4.790096   0.000000
 Symmetry turned off by external request.
 Stoichiometry    C16H13BO2
 Framework group  C1[X(C16H13BO2)]
 Deg. of freedom    90
 Full point group                 C1      NOp   1
 Rotational constants (GHZ):           0.9176607           0.1908375           0.1580008
 Standard basis: 6-311+G(d,p) (5D, 7F)
   496 basis functions,   788 primitive gaussians,   515 cartesian basis functions
    65 alpha electrons       65 beta electrons
       nuclear repulsion energy      1247.1005000966 Hartrees.
 NAtoms=   32 NActive=   32 NUniq=   32 SFac= 1.00D+00 NAtFMM=   60 NAOKFM=F Big=F
 Integral buffers will be    131072 words long.
 Raffenetti 2 integral format.
 Two-electron integral symmetry is turned off.
 One-electron integrals computed using PRISM.
 NBasis=   496 RedAO= T EigKep=  1.34D-06  NBF=   496
 NBsUse=   488 1.00D-06 EigRej=  9.12D-07 NBFU=   488
 ExpMin= 3.15D-02 ExpMax= 8.59D+03 ExpMxC= 1.30D+03 IAcc=3 IRadAn=         5 AccDes= 0.00D+00
 Harris functional with IExCor= 1009 and IRadAn=       5 diagonalized for initial guess.
 HarFok:  IExCor= 1009 AccDes= 0.00D+00 IRadAn=         5 IDoV= 1 UseB2=F ITyADJ=14
 ICtDFT=  3500011 ScaDFX=  1.000000  1.000000  1.000000  1.000000
 FoFCou: FMM=F IPFlag=           0 FMFlag=      100000 FMFlg1=           0
         NFxFlg=           0 DoJE=T BraDBF=F KetDBF=T FulRan=T
         wScrn=  0.000000 ICntrl=       500 IOpCl=  0 I1Cent=   200000004 NGrid=           0
         NMat0=    1 NMatS0=      1 NMatT0=    0 NMatD0=    1 NMtDS0=    0 NMtDT0=    0
 Symmetry not used in FoFCou.
 Requested convergence on RMS density matrix=1.00D-08 within 128 cycles.
 Requested convergence on MAX density matrix=1.00D-06.
 Requested convergence on             energy=1.00D-06.
 Level shift goal  0.100 maximum shift  0.100.
 No special actions if energy rises.
 Dynamic level shift is on during FON iterations.
 SCF Done:  E(RM062X) =  -792.673274690     A.U. after   15 cycles
            NFock= 15  Conv=0.30D-08     -V/T= 2.0033
 DoSCS=F DFT=T ScalE2(SS,OS)=  1.000000  1.000000
 Range of M.O.s used for correlation:     1   488
 NBasis=   496 NAE=    65 NBE=    65 NFC=     0 NFV=     0
 NROrb=    488 NOA=    65 NOB=    65 NVA=   423 NVB=   423

 **** Warning!!: The largest alpha MO coefficient is  0.12660789D+03

 Symmetrizing basis deriv contribution to polar:
 IMax=3 JMax=2 DiffMx= 0.00D+00
 G2DrvN: will do    33 centers at a time, making    1 passes.
 Calling FoFCou, ICntrl=  3107 FMM=F I1Cent=   0 AccDes= 0.00D+00.
 End of G2Drv F.D. properties file   721 does not exist.
 End of G2Drv F.D. properties file   722 does not exist.
 End of G2Drv F.D. properties file   788 does not exist.
          IDoAtm=11111111111111111111111111111111
          Differentiating once with respect to nuclear coordinates.
 CalDSu exits because no D1Ps are significant.
          There are    99 degrees of freedom in the 1st order CPHF.  IDoFFX=6 NUNeed=     0.
     93 vectors produced by pass  0 Test12= 2.78D-14 1.01D-09 XBig12= 1.81D-01 8.71D-02.
 AX will form    93 AO Fock derivatives at one time.
     93 vectors produced by pass  1 Test12= 2.78D-14 1.01D-09 XBig12= 1.69D-02 2.15D-02.
     93 vectors produced by pass  2 Test12= 2.78D-14 1.01D-09 XBig12= 3.59D-04 3.30D-03.
     93 vectors produced by pass  3 Test12= 2.78D-14 1.01D-09 XBig12= 2.67D-06 2.72D-04.
     93 vectors produced by pass  4 Test12= 2.78D-14 1.01D-09 XBig12= 1.85D-08 1.16D-05.
     93 vectors produced by pass  5 Test12= 2.78D-14 1.01D-09 XBig12= 9.60D-11 8.07D-07.
     91 vectors produced by pass  6 Test12= 2.78D-14 1.01D-09 XBig12= 3.99D-13 4.95D-08.
     29 vectors produced by pass  7 Test12= 2.78D-14 1.01D-09 XBig12= 1.60D-15 2.85D-09.
 InvSVY:  IOpt=1 It=  1 EMax= 6.11D-16
 Solved reduced A of dimension   678 with    99 vectors.
 End of Minotr F.D. properties file   721 does not exist.
 End of Minotr F.D. properties file   722 does not exist.
 End of Minotr F.D. properties file   788 does not exist.

 **********************************************************************

            Population analysis using the SCF Density.

 **********************************************************************

 Alpha  occ. eigenvalues --  -19.63977 -19.63174 -10.56716 -10.56434 -10.56037
 Alpha  occ. eigenvalues --  -10.55967 -10.55620 -10.55418 -10.55377 -10.55373
 Alpha  occ. eigenvalues --  -10.55303 -10.55125 -10.55055 -10.55009 -10.54628
 Alpha  occ. eigenvalues --  -10.53478 -10.53236 -10.53081  -7.08455  -1.17015
 Alpha  occ. eigenvalues --   -1.13323  -1.00039  -0.96912  -0.93447  -0.90481
 Alpha  occ. eigenvalues --   -0.86815  -0.84427  -0.84039  -0.82163  -0.76048
 Alpha  occ. eigenvalues --   -0.72020  -0.70600  -0.69296  -0.67382  -0.65792
 Alpha  occ. eigenvalues --   -0.63456  -0.61292  -0.59790  -0.58489  -0.57310
 Alpha  occ. eigenvalues --   -0.54812  -0.53199  -0.52058  -0.51167  -0.49626
 Alpha  occ. eigenvalues --   -0.48685  -0.48434  -0.47781  -0.47283  -0.46244
 Alpha  occ. eigenvalues --   -0.45789  -0.45247  -0.44408  -0.43368  -0.41136
 Alpha  occ. eigenvalues --   -0.40662  -0.40218  -0.40179  -0.38967  -0.36331
 Alpha  occ. eigenvalues --   -0.31945  -0.31748  -0.30917  -0.30306  -0.26533
 Alpha virt. eigenvalues --   -0.04030  -0.00459  -0.00374   0.00609   0.01115
 Alpha virt. eigenvalues --    0.01178   0.01902   0.01984   0.02219   0.03237
 Alpha virt. eigenvalues --    0.03362   0.03873   0.04635   0.04700   0.05903
 Alpha virt. eigenvalues --    0.06113   0.06400   0.06982   0.07512   0.08177
 Alpha virt. eigenvalues --    0.08737   0.09198   0.09497   0.10217   0.10820
 Alpha virt. eigenvalues --    0.10958   0.11621   0.11655   0.12420   0.12723
 Alpha virt. eigenvalues --    0.13254   0.13386   0.13956   0.14213   0.14881
 Alpha virt. eigenvalues --    0.15228   0.15363   0.15599   0.16284   0.16605
 Alpha virt. eigenvalues --    0.16828   0.17207   0.17280   0.17503   0.17763
 Alpha virt. eigenvalues --    0.17929   0.19083   0.19333   0.19650   0.20074
 Alpha virt. eigenvalues --    0.20624   0.20875   0.21226   0.21531   0.21875
 Alpha virt. eigenvalues --    0.22150   0.22227   0.22871   0.23110   0.23654
 Alpha virt. eigenvalues --    0.24153   0.24430   0.24806   0.25109   0.25335
 Alpha virt. eigenvalues --    0.25566   0.25899   0.26558   0.26675   0.26960
 Alpha virt. eigenvalues --    0.27061   0.27517   0.27834   0.28020   0.28306
 Alpha virt. eigenvalues --    0.28695   0.29231   0.29402   0.30420   0.31128
 Alpha virt. eigenvalues --    0.31480   0.32288   0.32836   0.33339   0.33816
 Alpha virt. eigenvalues --    0.34216   0.34700   0.35259   0.35400   0.36501
 Alpha virt. eigenvalues --    0.36692   0.37231   0.37651   0.38009   0.40170
 Alpha virt. eigenvalues --    0.40254   0.42448   0.42963   0.44186   0.44823
 Alpha virt. eigenvalues --    0.45898   0.46268   0.47560   0.47944   0.49012
 Alpha virt. eigenvalues --    0.50714   0.51672   0.52097   0.52516   0.53471
 Alpha virt. eigenvalues --    0.54532   0.54979   0.55577   0.56675   0.56881
 Alpha virt. eigenvalues --    0.57462   0.57680   0.58291   0.58833   0.59860
 Alpha virt. eigenvalues --    0.60161   0.61090   0.61258   0.61729   0.62174
 Alpha virt. eigenvalues --    0.62186   0.62482   0.63170   0.64336   0.64929
 Alpha virt. eigenvalues --    0.65249   0.66715   0.66985   0.67482   0.67952
 Alpha virt. eigenvalues --    0.68730   0.69573   0.69956   0.70333   0.71067
 Alpha virt. eigenvalues --    0.71736   0.72121   0.72521   0.74021   0.74257
 Alpha virt. eigenvalues --    0.74789   0.76223   0.76848   0.78311   0.78760
 Alpha virt. eigenvalues --    0.79095   0.79322   0.79910   0.80617   0.83147
 Alpha virt. eigenvalues --    0.83697   0.84608   0.85260   0.86280   0.86683
 Alpha virt. eigenvalues --    0.88388   0.88821   0.91157   0.91341   0.93218
 Alpha virt. eigenvalues --    0.93976   0.94227   0.94623   0.95282   0.95804
 Alpha virt. eigenvalues --    0.96417   0.97213   0.97481   0.98882   0.99470
 Alpha virt. eigenvalues --    1.00417   1.00575   1.02153   1.02211   1.02365
 Alpha virt. eigenvalues --    1.03216   1.04445   1.06024   1.06192   1.07755
 Alpha virt. eigenvalues --    1.08325   1.08776   1.08957   1.09649   1.10135
 Alpha virt. eigenvalues --    1.10556   1.12147   1.12973   1.13309   1.14134
 Alpha virt. eigenvalues --    1.14791   1.15552   1.15617   1.15732   1.16901
 Alpha virt. eigenvalues --    1.18611   1.18916   1.20628   1.21059   1.22544
 Alpha virt. eigenvalues --    1.23763   1.24400   1.25716   1.28022   1.32071
 Alpha virt. eigenvalues --    1.34130   1.35119   1.38297   1.38981   1.40209
 Alpha virt. eigenvalues --    1.41853   1.43679   1.45595   1.47974   1.49722
 Alpha virt. eigenvalues --    1.50696   1.50964   1.52916   1.53508   1.53538
 Alpha virt. eigenvalues --    1.54488   1.54620   1.55743   1.57217   1.58446
 Alpha virt. eigenvalues --    1.58827   1.60357   1.61245   1.61601   1.62759
 Alpha virt. eigenvalues --    1.62845   1.63025   1.64742   1.65367   1.66823
 Alpha virt. eigenvalues --    1.68680   1.70534   1.70874   1.72479   1.72771
 Alpha virt. eigenvalues --    1.73134   1.75100   1.76534   1.76720   1.78152
 Alpha virt. eigenvalues --    1.78555   1.81073   1.82256   1.83158   1.85782
 Alpha virt. eigenvalues --    1.86496   1.87894   1.88826   1.89909   1.90459
 Alpha virt. eigenvalues --    1.92823   1.93314   1.93468   1.94168   1.95183
 Alpha virt. eigenvalues --    1.96211   1.96602   1.96743   1.97358   1.98806
 Alpha virt. eigenvalues --    1.98841   2.00816   2.01249   2.03467   2.03933
 Alpha virt. eigenvalues --    2.04644   2.05687   2.06806   2.06999   2.07853
 Alpha virt. eigenvalues --    2.08795   2.12621   2.13146   2.14546   2.15854
 Alpha virt. eigenvalues --    2.18696   2.19129   2.20296   2.21128   2.22179
 Alpha virt. eigenvalues --    2.24887   2.26197   2.27837   2.33488   2.33953
 Alpha virt. eigenvalues --    2.36900   2.37935   2.38002   2.39428   2.41365
 Alpha virt. eigenvalues --    2.42255   2.44815   2.45479   2.47812   2.49266
 Alpha virt. eigenvalues --    2.51147   2.52319   2.57316   2.58439   2.60499
 Alpha virt. eigenvalues --    2.63312   2.63753   2.64016   2.65593   2.68516
 Alpha virt. eigenvalues --    2.70046   2.70335   2.70872   2.72190   2.72842
 Alpha virt. eigenvalues --    2.72893   2.73951   2.74349   2.75407   2.75710
 Alpha virt. eigenvalues --    2.76894   2.77121   2.78868   2.79125   2.81044
 Alpha virt. eigenvalues --    2.82153   2.83009   2.84117   2.85487   2.87027
 Alpha virt. eigenvalues --    2.87130   2.89651   2.89944   2.91210   2.92862
 Alpha virt. eigenvalues --    2.94537   2.95076   2.96203   2.99413   3.02742
 Alpha virt. eigenvalues --    3.04992   3.05240   3.07162   3.11308   3.12685
 Alpha virt. eigenvalues --    3.15843   3.17017   3.19762   3.20835   3.24145
 Alpha virt. eigenvalues --    3.26677   3.27228   3.28612   3.31646   3.32553
 Alpha virt. eigenvalues --    3.34732   3.39756   3.42049   3.44006   3.45466
 Alpha virt. eigenvalues --    3.46985   3.47991   3.50244   3.52857   3.56357
 Alpha virt. eigenvalues --    3.56661   3.60609   3.60656   3.63235   3.64085
 Alpha virt. eigenvalues --    3.66942   3.67182   3.70524   3.76789   3.79656
 Alpha virt. eigenvalues --    3.90355   3.93834   3.95934   4.06107   4.07070
 Alpha virt. eigenvalues --    4.10114   4.12385   4.13289   4.17246   4.26419
 Alpha virt. eigenvalues --    4.35649   4.42145   4.45113   4.62439   4.85436
 Alpha virt. eigenvalues --    4.86729   4.89545   5.08465   5.09453   5.41111
 Alpha virt. eigenvalues --    5.48616   5.50421   5.69779   5.77170  14.80194
 Alpha virt. eigenvalues --   23.59713  23.79502  23.88594  23.98070  24.02509
 Alpha virt. eigenvalues --   24.04760  24.05549  24.09948  24.11289  24.15868
 Alpha virt. eigenvalues --   24.18885  24.19900  24.23532  24.24962  24.26727
 Alpha virt. eigenvalues --   24.37280  50.01226  50.05561
          Condensed to atoms (all electrons):
               1          2          3          4          5          6
     1  O    7.757981   0.261097  -0.040669   0.442958  -0.126339   0.018679
     2  H    0.261097   0.465839   0.093213  -0.005082  -0.038251   0.003586
     3  C   -0.040669   0.093213  11.533166   0.233358  -0.268506  -0.013097
     4  B    0.442958  -0.005082   0.233358   3.365772   0.358137   0.017388
     5  O   -0.126339  -0.038251  -0.268506   0.358137   7.989877   0.254070
     6  H    0.018679   0.003586  -0.013097   0.017388   0.254070   0.433215
     7  C    0.118878   0.020596   0.714872   0.148553  -0.117489   0.055361
     8  H    0.002310  -0.000031   0.001471   0.014712  -0.008312   0.011602
     9  C    0.022836   0.002971  -0.428015   0.085674   0.016001   0.023601
    10  H   -0.000076  -0.000001  -0.055887  -0.000190   0.000307  -0.000066
    11  C   -0.032193  -0.007473  -2.873526   0.000202   0.056221  -0.013326
    12  C   -0.037179  -0.008575  -1.871244  -0.022864  -0.006327   0.006912
    13  H    0.001630   0.000022   0.037820   0.001044  -0.000194   0.000019
    14  C   -0.037343  -0.088744   0.955481  -0.076549   0.232212  -0.048357
    15  H    0.002487  -0.000729  -0.016983  -0.005190   0.002535  -0.000129
    16  C   -0.008751  -0.000398  -1.038785  -0.008901   0.004193  -0.001624
    17  C   -0.000987  -0.000021  -0.219998  -0.008416  -0.000120  -0.000025
    18  C   -0.004930  -0.000160  -0.265643  -0.013090   0.002221  -0.001612
    19  C    0.003902   0.000660   0.011603   0.002948  -0.002254   0.000444
    20  C   -0.000037   0.000002   0.000593   0.000485   0.000030  -0.000017
    21  C   -0.000386  -0.000005  -0.168726  -0.002987   0.000190  -0.000104
    22  H    0.000002   0.000000   0.009742   0.000199  -0.000001   0.000001
    23  C    0.001315   0.000053   0.051627   0.004868  -0.000045   0.000011
    24  H   -0.000303  -0.000003  -0.020339  -0.000308   0.000028  -0.000002
    25  C   -0.000082  -0.000001  -0.035459  -0.000645   0.000012  -0.000003
    26  C   -0.000005   0.000000   0.009984  -0.000766   0.000005   0.000001
    27  H    0.000000   0.000000   0.000223   0.000000   0.000000   0.000000
    28  C    0.000084   0.000002   0.006356   0.000619  -0.000002   0.000001
    29  H    0.000000   0.000000  -0.000672  -0.000002   0.000000   0.000000
    30  H    0.000000   0.000000   0.000009   0.000000   0.000000   0.000000
    31  H    0.000000   0.000000   0.000029   0.000000   0.000000   0.000000
    32  H    0.000000   0.000000   0.000012  -0.000001   0.000000   0.000000
               7          8          9         10         11         12
     1  O    0.118878   0.002310   0.022836  -0.000076  -0.032193  -0.037179
     2  H    0.020596  -0.000031   0.002971  -0.000001  -0.007473  -0.008575
     3  C    0.714872   0.001471  -0.428015  -0.055887  -2.873526  -1.871244
     4  B    0.148553   0.014712   0.085674  -0.000190   0.000202  -0.022864
     5  O   -0.117489  -0.008312   0.016001   0.000307   0.056221  -0.006327
     6  H    0.055361   0.011602   0.023601  -0.000066  -0.013326   0.006912
     7  C   10.078978   0.354962   2.118765  -0.123102  -2.362046  -1.326049
     8  H    0.354962   0.556914  -0.049512  -0.007310   0.035862  -0.000966
     9  C    2.118765  -0.049512  12.680841   0.254972  -1.200049  -0.617001
    10  H   -0.123102  -0.007310   0.254972   0.535368   0.092805  -0.012337
    11  C   -2.362046   0.035862  -1.200049   0.092805  11.514669   1.666197
    12  C   -1.326049  -0.000966  -0.617001  -0.012337   1.666197  10.158778
    13  H    0.006452   0.000312   0.042815   0.000712  -0.187714  -0.112099
    14  C   -1.880557  -0.020191  -0.670969  -0.022100  -1.172035  -0.168105
    15  H   -0.006813  -0.000227  -0.009551   0.000077   0.060933  -0.046950
    16  C   -1.271097  -0.007355  -1.998601   0.069810   3.056896   0.732617
    17  C   -0.284086   0.001946  -0.756667   0.018436   0.703016  -0.246163
    18  C    0.575090  -0.004070   1.260254   0.044624  -0.174740  -1.279422
    19  C   -0.304393   0.001360  -1.918274   0.006284  -0.575706  -0.179945
    20  C    0.076323  -0.000779  -0.402651   0.006307  -0.545348  -0.366771
    21  C   -0.006762  -0.000905  -1.667583   0.038329  -1.030925  -0.163864
    22  H    0.010786   0.000099   0.093056  -0.000114   0.028733   0.013444
    23  C   -0.137254   0.000268  -0.751830  -0.000317  -1.603279  -0.046441
    24  H    0.015775  -0.000059   0.024907  -0.000497   0.168989   0.169861
    25  C    0.070787  -0.000078  -0.109893   0.001298   0.057560   0.003316
    26  C   -0.029784   0.000072   0.359159  -0.003815  -0.140298   0.178427
    27  H    0.001063   0.000000   0.013123   0.000004  -0.001230  -0.000053
    28  C   -0.011343   0.000004  -0.008965  -0.000204  -0.077675  -0.075364
    29  H   -0.000405   0.000000   0.000867   0.000000   0.012253   0.011306
    30  H    0.000005   0.000000   0.000227   0.000000   0.005126   0.000001
    31  H    0.000147   0.000000   0.000578   0.000000   0.002281   0.001248
    32  H    0.000009   0.000000   0.000313   0.000000   0.001836   0.002907
              13         14         15         16         17         18
     1  O    0.001630  -0.037343   0.002487  -0.008751  -0.000987  -0.004930
     2  H    0.000022  -0.088744  -0.000729  -0.000398  -0.000021  -0.000160
     3  C    0.037820   0.955481  -0.016983  -1.038785  -0.219998  -0.265643
     4  B    0.001044  -0.076549  -0.005190  -0.008901  -0.008416  -0.013090
     5  O   -0.000194   0.232212   0.002535   0.004193  -0.000120   0.002221
     6  H    0.000019  -0.048357  -0.000129  -0.001624  -0.000025  -0.001612
     7  C    0.006452  -1.880557  -0.006813  -1.271097  -0.284086   0.575090
     8  H    0.000312  -0.020191  -0.000227  -0.007355   0.001946  -0.004070
     9  C    0.042815  -0.670969  -0.009551  -1.998601  -0.756667   1.260254
    10  H    0.000712  -0.022100   0.000077   0.069810   0.018436   0.044624
    11  C   -0.187714  -1.172035   0.060933   3.056896   0.703016  -0.174740
    12  C   -0.112099  -0.168105  -0.046950   0.732617  -0.246163  -1.279422
    13  H    0.668409   0.086445  -0.004311  -0.045257   0.051053  -0.023859
    14  C    0.086445   9.657838   0.373051  -0.796715  -0.530357  -0.727065
    15  H   -0.004311   0.373051   0.480693   0.005639   0.003949   0.002101
    16  C   -0.045257  -0.796715   0.005639   9.627216   0.852297  -0.528415
    17  C    0.051053  -0.530357   0.003949   0.852297   7.681140   0.377357
    18  C   -0.023859  -0.727065   0.002101  -0.528415   0.377357  11.437058
    19  C    0.222504   0.663250   0.003116  -0.323079   0.164140  -1.490866
    20  C    0.039727   0.247894   0.000359  -1.331783   0.543377   0.901350
    21  C   -0.004697  -0.142152   0.000158  -1.880634   0.850371  -1.395589
    22  H   -0.000125   0.004721   0.000000   0.010488   0.005946   0.421867
    23  C    0.006133   0.419479  -0.007570  -0.491026  -1.610141  -0.374775
    24  H   -0.072712  -0.113055  -0.000446   0.045185   0.029667   0.066261
    25  C   -0.024426  -0.164557  -0.000059  -1.082363  -1.101864  -0.188792
    26  C    0.007097  -0.012356   0.000232   1.893110  -0.611741  -2.256099
    27  H   -0.000002  -0.000226   0.000000   0.051746  -0.026630  -0.031481
    28  C   -0.004910   0.036372  -0.000749   0.033005   0.176988  -0.023698
    29  H    0.000228  -0.009954   0.000015   0.007722   0.092662   0.000059
    30  H   -0.000008   0.000185   0.000000   0.005422   0.029412   0.007465
    31  H    0.000001   0.000204   0.000000  -0.011223   0.001892  -0.003059
    32  H    0.000077  -0.000470   0.000000   0.006657   0.009944   0.000476
              19         20         21         22         23         24
     1  O    0.003902  -0.000037  -0.000386   0.000002   0.001315  -0.000303
     2  H    0.000660   0.000002  -0.000005   0.000000   0.000053  -0.000003
     3  C    0.011603   0.000593  -0.168726   0.009742   0.051627  -0.020339
     4  B    0.002948   0.000485  -0.002987   0.000199   0.004868  -0.000308
     5  O   -0.002254   0.000030   0.000190  -0.000001  -0.000045   0.000028
     6  H    0.000444  -0.000017  -0.000104   0.000001   0.000011  -0.000002
     7  C   -0.304393   0.076323  -0.006762   0.010786  -0.137254   0.015775
     8  H    0.001360  -0.000779  -0.000905   0.000099   0.000268  -0.000059
     9  C   -1.918274  -0.402651  -1.667583   0.093056  -0.751830   0.024907
    10  H    0.006284   0.006307   0.038329  -0.000114  -0.000317  -0.000497
    11  C   -0.575706  -0.545348  -1.030925   0.028733  -1.603279   0.168989
    12  C   -0.179945  -0.366771  -0.163864   0.013444  -0.046441   0.169861
    13  H    0.222504   0.039727  -0.004697  -0.000125   0.006133  -0.072712
    14  C    0.663250   0.247894  -0.142152   0.004721   0.419479  -0.113055
    15  H    0.003116   0.000359   0.000158   0.000000  -0.007570  -0.000446
    16  C   -0.323079  -1.331783  -1.880634   0.010488  -0.491026   0.045185
    17  C    0.164140   0.543377   0.850371   0.005946  -1.610141   0.029667
    18  C   -1.490866   0.901350  -1.395589   0.421867  -0.374775   0.066261
    19  C   10.405212  -0.688567   0.922306  -0.007674  -0.878021   0.033120
    20  C   -0.688567   9.580957   0.169203  -0.032089   1.506094  -0.060585
    21  C    0.922306   0.169203  11.189719  -0.194088   0.467770  -0.001340
    22  H   -0.007674  -0.032089  -0.194088   0.527597  -0.001999   0.000041
    23  C   -0.878021   1.506094   0.467770  -0.001999  10.455150  -0.221280
    24  H    0.033120  -0.060585  -0.001340   0.000041  -0.221280   0.655395
    25  C    1.814155  -2.182034   0.467647  -0.003672  -1.698587   0.038471
    26  C   -0.849551  -1.453543  -0.578739  -0.038831  -0.242047  -0.020935
    27  H   -0.006807   0.011395   0.296002  -0.005567  -0.002420   0.000004
    28  C   -0.928489  -0.275384  -0.399173  -0.001982   1.108459   0.001010
    29  H    0.019646  -0.005656  -0.002922   0.000000   0.303322  -0.006799
    30  H   -0.016681  -0.098427   0.016805  -0.000001  -0.011370   0.000100
    31  H    0.002741  -0.095658   0.022601  -0.000296   0.005519   0.000005
    32  H    0.066864   0.006265  -0.000817   0.000000  -0.091676  -0.000507
              25         26         27         28         29         30
     1  O   -0.000082  -0.000005   0.000000   0.000084   0.000000   0.000000
     2  H   -0.000001   0.000000   0.000000   0.000002   0.000000   0.000000
     3  C   -0.035459   0.009984   0.000223   0.006356  -0.000672   0.000009
     4  B   -0.000645  -0.000766   0.000000   0.000619  -0.000002   0.000000
     5  O    0.000012   0.000005   0.000000  -0.000002   0.000000   0.000000
     6  H   -0.000003   0.000001   0.000000   0.000001   0.000000   0.000000
     7  C    0.070787  -0.029784   0.001063  -0.011343  -0.000405   0.000005
     8  H   -0.000078   0.000072   0.000000   0.000004   0.000000   0.000000
     9  C   -0.109893   0.359159   0.013123  -0.008965   0.000867   0.000227
    10  H    0.001298  -0.003815   0.000004  -0.000204   0.000000   0.000000
    11  C    0.057560  -0.140298  -0.001230  -0.077675   0.012253   0.005126
    12  C    0.003316   0.178427  -0.000053  -0.075364   0.011306   0.000001
    13  H   -0.024426   0.007097  -0.000002  -0.004910   0.000228  -0.000008
    14  C   -0.164557  -0.012356  -0.000226   0.036372  -0.009954   0.000185
    15  H   -0.000059   0.000232   0.000000  -0.000749   0.000015   0.000000
    16  C   -1.082363   1.893110   0.051746   0.033005   0.007722   0.005422
    17  C   -1.101864  -0.611741  -0.026630   0.176988   0.092662   0.029412
    18  C   -0.188792  -2.256099  -0.031481  -0.023698   0.000059   0.007465
    19  C    1.814155  -0.849551  -0.006807  -0.928489   0.019646  -0.016681
    20  C   -2.182034  -1.453543   0.011395  -0.275384  -0.005656  -0.098427
    21  C    0.467647  -0.578739   0.296002  -0.399173  -0.002922   0.016805
    22  H   -0.003672  -0.038831  -0.005567  -0.001982   0.000000  -0.000001
    23  C   -1.698587  -0.242047  -0.002420   1.108459   0.303322  -0.011370
    24  H    0.038471  -0.020935   0.000004   0.001010  -0.006799   0.000100
    25  C   11.882647  -1.769923   0.004250  -0.303462  -0.054840   0.329875
    26  C   -1.769923  11.187092   0.036498   0.080802   0.005323   0.056760
    27  H    0.004250   0.036498   0.507738   0.001641   0.000000  -0.000014
    28  C   -0.303462   0.080802   0.001641   6.613792  -0.021733   0.012099
    29  H   -0.054840   0.005323   0.000000  -0.021733   0.508156  -0.000263
    30  H    0.329875   0.056760  -0.000014   0.012099  -0.000263   0.507400
    31  H    0.059136   0.338277  -0.006414   0.011217  -0.000003   0.002392
    32  H   -0.012924   0.003396   0.000000   0.353212  -0.005497  -0.006559
              31         32
     1  O    0.000000   0.000000
     2  H    0.000000   0.000000
     3  C    0.000029   0.000012
     4  B    0.000000  -0.000001
     5  O    0.000000   0.000000
     6  H    0.000000   0.000000
     7  C    0.000147   0.000009
     8  H    0.000000   0.000000
     9  C    0.000578   0.000313
    10  H    0.000000   0.000000
    11  C    0.002281   0.001836
    12  C    0.001248   0.002907
    13  H    0.000001   0.000077
    14  C    0.000204  -0.000470
    15  H    0.000000   0.000000
    16  C   -0.011223   0.006657
    17  C    0.001892   0.009944
    18  C   -0.003059   0.000476
    19  C    0.002741   0.066864
    20  C   -0.095658   0.006265
    21  C    0.022601  -0.000817
    22  H   -0.000296   0.000000
    23  C    0.005519  -0.091676
    24  H    0.000005  -0.000507
    25  C    0.059136  -0.012924
    26  C    0.338277   0.003396
    27  H   -0.006414   0.000000
    28  C    0.011217   0.353212
    29  H   -0.000003  -0.005497
    30  H    0.002392  -0.006559
    31  H    0.508807  -0.000017
    32  H   -0.000017   0.508299
 Mulliken charges:
               1
     1  O   -0.344878
     2  H    0.301432
     3  C   -0.342009
     4  B    0.468074
     5  O   -0.348197
     6  H    0.253468
     7  C   -0.506225
     8  H    0.117900
     9  C   -0.411399
    10  H    0.156686
    11  C    0.533984
    12  C   -0.357297
    13  H    0.307813
    14  C    0.004727
    15  H    0.164362
    16  C    0.424003
    17  C   -0.196376
    18  C   -0.308819
    19  C   -0.173950
    20  C    0.448967
    21  C   -0.798700
    22  H    0.159716
    23  C   -0.159988
    24  H    0.270350
    25  C    0.004506
    26  C   -0.147800
    27  H    0.157158
    28  C   -0.302529
    29  H    0.147185
    30  H    0.160040
    31  H    0.159594
    32  H    0.158200
 Sum of Mulliken charges =   0.00000
 Mulliken charges with hydrogens summed into heavy atoms:
               1
     1  O   -0.043446
     3  C   -0.342009
     4  B    0.468074
     5  O   -0.094729
     7  C   -0.388325
     9  C   -0.254713
    11  C    0.533984
    12  C   -0.049484
    14  C    0.169089
    16  C    0.424003
    17  C   -0.196376
    18  C   -0.149103
    19  C    0.096400
    20  C    0.448967
    21  C   -0.641542
    23  C   -0.012803
    25  C    0.164546
    26  C    0.011795
    28  C   -0.144329
 APT charges:
               1
     1  O   -0.439960
     2  H    2.050199
     3  C   -0.129668
     4  B   -0.413238
     5  O    1.268661
     6  H   -1.172821
     7  C    0.330523
     8  H   -0.186058
     9  C    0.484321
    10  H   -0.723327
    11  C   -3.126314
    12  C    1.561779
    13  H    0.684121
    14  C   -1.153821
    15  H    1.892705
    16  C   -1.945074
    17  C   -1.094455
    18  C    0.019196
    19  C   -0.545159
    20  C   -0.038924
    21  C   -0.111694
    22  H   -0.448110
    23  C    0.151210
    24  H    0.939607
    25  C   -1.387781
    26  C    0.241486
    27  H   -0.438412
    28  C   -1.216292
    29  H    1.924324
    30  H    0.603461
    31  H    0.528496
    32  H    1.891020
 Sum of APT charges =   0.00000
 APT charges with hydrogens summed into heavy atoms:
               1
     1  O    1.610240
     3  C   -0.129668
     4  B   -0.413238
     5  O    0.095840
     7  C    0.144465
     9  C   -0.239007
    11  C   -3.126314
    12  C    2.245900
    14  C    0.738884
    16  C   -1.945074
    17  C   -1.094455
    18  C   -0.428914
    19  C    0.394449
    20  C   -0.038924
    21  C   -0.550106
    23  C    2.075534
    25  C   -0.784321
    26  C    0.769982
    28  C    0.674728
 Electronic spatial extent (au):  <R**2>=          52452.7144
 Charge=              0.0000 electrons
 Dipole moment (field-independent basis, Debye):
    X=             -1.0683    Y=             -0.7403    Z=              0.2413  Tot=              1.3219
 Quadrupole moment (field-independent basis, Debye-Ang):
   XX=           -110.2910   YY=           -110.8894   ZZ=           -110.1962
   XY=             -9.4610   XZ=              0.8621   YZ=            -11.3405
 Traceless Quadrupole moment (field-independent basis, Debye-Ang):
   XX=              0.1679   YY=             -0.4305   ZZ=              0.2626
   XY=             -9.4610   XZ=              0.8621   YZ=            -11.3405
 Octapole moment (field-independent basis, Debye-Ang**2):
  XXX=          -1208.2453  YYY=          -2651.7660  ZZZ=          -1229.4939  XYY=           -458.2168
  XXY=           -918.2959  XXZ=           -386.7479  XZZ=           -398.0379  YZZ=          -1017.5637
  YYZ=           -574.4011  XYZ=            -25.3852
 Hexadecapole moment (field-independent basis, Debye-Ang**3):
 XXXX=         -13114.0057 YYYY=         -46091.9392 ZZZZ=         -10752.1901 XXXY=          -9278.3512
 XXXZ=          -5268.8575 YYYX=          -9418.4997 YYYZ=         -11333.7140 ZZZX=          -5567.9047
 ZZZY=         -10035.2101 XXYY=         -10243.2151 XXZZ=          -3924.5252 YYZZ=         -11258.8937
 XXYZ=          -3065.2424 YYXZ=          -2207.4012 ZZXY=          -3352.2393
 N-N= 1.247100500097D+03 E-N=-4.339599300064D+03  KE= 7.900730970539D+02
  Exact polarizability:       0.000       0.000       0.000       0.000       0.000       0.000
 Approx polarizability:     321.242      17.859     296.518      40.431     -76.467     194.991
 Calling FoFJK, ICntrl=    100127 FMM=F ISym2X=0 I1Cent= 0 IOpClX= 0 NMat=1 NMatS=1 NMatT=0.
 -------------------------------------------------------------------
 Center     Atomic                   Forces (Hartrees/Bohr)
 Number     Number              X              Y              Z
 -------------------------------------------------------------------
      1        8           0.001464434    0.000369994    0.000138999
      2        1          -0.000167285   -0.000087238    0.000016643
      3        6           0.004122760    0.000732066    0.000745897
      4        5          -0.002611449    0.000280880   -0.000883684
      5        8           0.000976020   -0.000876303    0.000826928
      6        1          -0.000225969    0.000313718   -0.000297104
      7        6          -0.004929906   -0.002976183    0.000218042
      8        1           0.001005731   -0.000395633    0.000501623
      9        6           0.013576865   -0.000748316    0.004166190
     10        1           0.004414602   -0.001007182    0.001745023
     11        6          -0.044548461    0.014233233   -0.019835487
     12        6           0.048052395   -0.050128948    0.039834363
     13        1           0.162929146   -0.195145122    0.147726619
     14        6          -0.000401488   -0.003299241    0.001641092
     15        1           0.001278596   -0.000253741    0.000494556
     16        6           0.029907770   -0.011647888    0.014425074
     17        6           0.003134876    0.000980004    0.000342283
     18        6          -0.005604234   -0.004528147    0.000813733
     19        6          -0.029841732    0.046263980   -0.032673376
     20        6          -0.003976776    0.001095260   -0.001689473
     21        6          -0.006071312   -0.005076245    0.000993915
     22        1          -0.003364763    0.011590905   -0.007047220
     23        6          -0.000489209    0.003659201   -0.002064407
     24        1          -0.173061130    0.197928297   -0.152050837
     25        6          -0.004525955    0.002516232   -0.002571600
     26        6          -0.006868255    0.001534799   -0.002713586
     27        1           0.008022733    0.007278771   -0.001602938
     28        6          -0.001729257    0.009412668   -0.005457549
     29        1          -0.007536650   -0.006784167    0.001462015
     30        1           0.009156758   -0.002513596    0.003874970
     31        1           0.008859821   -0.003292281    0.004210371
     32        1          -0.000948679   -0.009429776    0.004708925
 -------------------------------------------------------------------
 Cartesian Forces:  Max     0.197928297 RMS     0.045005756
 FormGI is forming the generalized inverse of G from B-inverse, IUseBI=4.

 GradGradGradGradGradGradGradGradGradGradGradGradGradGradGradGradGradGrad
 Berny optimization.
 Internal  Forces:  Max     0.991636151 RMS     0.149856256
 Search for a local minimum.
 Step number   1 out of a maximum of  177
 All quantities printed in internal units (Hartrees-Bohrs-Radians)
 Mixed Optimization -- RFO/linear search
 Second derivative matrix not updated -- analytic derivatives used.
 ITU=  0
     Eigenvalues ---   -2.58963  -2.33932  -0.25283  -0.12290  -0.09999
     Eigenvalues ---   -0.07560  -0.03498  -0.00634  -0.00556   0.00115
     Eigenvalues ---    0.00663   0.00754   0.01058   0.01171   0.01464
     Eigenvalues ---    0.01537   0.01738   0.01923   0.02215   0.02275
     Eigenvalues ---    0.02503   0.02543   0.02603   0.03001   0.03083
     Eigenvalues ---    0.03705   0.03970   0.04188   0.04822   0.06856
     Eigenvalues ---    0.10158   0.10339   0.10645   0.11057   0.11214
     Eigenvalues ---    0.11690   0.11764   0.11885   0.12039   0.12123
     Eigenvalues ---    0.12326   0.12557   0.12955   0.13645   0.14351
     Eigenvalues ---    0.15902   0.16157   0.16419   0.17704   0.17752
     Eigenvalues ---    0.17997   0.18901   0.19029   0.20926   0.22117
     Eigenvalues ---    0.26536   0.27810   0.28616   0.29071   0.30067
     Eigenvalues ---    0.32966   0.33047   0.33092   0.33142   0.33213
     Eigenvalues ---    0.33513   0.34297   0.35304   0.35592   0.36402
     Eigenvalues ---    0.37010   0.38849   0.39467   0.39911   0.40641
     Eigenvalues ---    0.42793   0.44135   0.46433   0.47184   0.48187
     Eigenvalues ---    0.49111   0.49678   0.50812   0.51717   0.52413
     Eigenvalues ---    0.53645   0.55186   0.56280   0.61113  25.05211
 RFO step:  Lambda=-2.58969212D+00 EMin=-2.58962863D+00
 I=     1 Eig=   -2.59D+00 Dot1= -7.49D-03
 I=     1 Stepn= -6.00D-01 RXN=   6.00D-01 EDone=F
 I=     2 Eig=   -2.34D+00 Dot1= -1.82D-04
 I=     2 Stepn= -3.00D-01 RXN=   6.71D-01 EDone=F
 I=     3 Eig=   -2.53D-01 Dot1=  6.04D-06
 I=     3 Stepn=  1.50D-01 RXN=   6.87D-01 EDone=F
 Mixed    3 eigenvectors in step.  Raw Step.Grad=  7.68D-03.
 RFO eigenvector is Hessian eigenvector with negative curvature.
 Taking step of  6.00D-01 in eigenvector direction(s).  Step.Grad=  1.14D-02.
 Linear search not attempted -- first point.
 Maximum step size (   0.300) exceeded in Quadratic search.
    -- Step size not scaled.
 Iteration  1 RMS(Cart)=  0.17644111 RMS(Int)=  0.00961229
 Iteration  2 RMS(Cart)=  0.02086345 RMS(Int)=  0.00073402
 Iteration  3 RMS(Cart)=  0.00027466 RMS(Int)=  0.00070371
 Iteration  4 RMS(Cart)=  0.00000071 RMS(Int)=  0.00070371
 Variable       Old X    -DE/DX   Delta X   Delta X   Delta X     New X
                                 (Linear)    (Quad)   (Total)
    R1        1.81697  -0.00011   0.00000   0.00004   0.00004   1.81701
    R2        2.57333   0.00115   0.00000  -0.00029  -0.00029   2.57304
    R3        2.96235  -0.00058   0.00000   0.00027   0.00027   2.96262
    R4        2.64185  -0.07101   0.00000  -0.01877  -0.01895   2.62290
    R5        2.64518  -0.05791   0.00000  -0.00829  -0.00838   2.63680
    R6        2.58455   0.00088   0.00000  -0.00026  -0.00026   2.58429
    R7        1.81088  -0.00005   0.00000   0.00002   0.00002   1.81089
    R8        2.05347   0.00064   0.00000   0.00003   0.00003   2.05350
    R9        2.62686  -0.01587   0.00000  -0.00779  -0.00787   2.61899
   R10        2.04513  -0.00277   0.00000  -0.00110  -0.00110   2.04403
   R11        2.62452   0.06813   0.00000   0.00717   0.00727   2.63179
   R12        2.62556   0.07174   0.00000   0.16037   0.16053   2.78609
   R13        2.91018   0.29645   0.00000   0.06207   0.06207   2.97224
   R14        2.04533  -0.25674   0.00000   0.08239   0.08239   2.12772
   R15        2.62521   0.01781   0.00000   0.00631   0.00638   2.63160
   R16        2.04871   0.00082   0.00000  -0.00023  -0.00023   2.04848
   R17        2.68725   0.46031   0.00000  -0.08779  -0.08747   2.59979
   R18        2.59448   0.06050   0.00000   0.00466   0.00449   2.59897
   R19        2.68721   0.10027   0.00000  -0.16721  -0.16693   2.52029
   R20        2.68127   0.18858   0.00000  -0.03670  -0.03587   2.64540
   R21        2.67628  -0.08676   0.00000   0.02120   0.02073   2.69701
   R22        2.07860  -0.01373   0.00000  -0.00044  -0.00044   2.07815
   R23        2.59422  -0.00118   0.00000  -0.00311  -0.00317   2.59105
   R24        2.07933  -0.26782   0.00000  -0.07167  -0.07167   2.00766
   R25        2.68666  -0.00346   0.00000   0.00543   0.00549   2.69215
   R26        2.68735  -0.06421   0.00000  -0.00287  -0.00271   2.68464
   R27        2.59433  -0.14768   0.00000   0.01826   0.01794   2.61227
   R28        2.07863  -0.01090   0.00000  -0.00006  -0.00006   2.07857
   R29        2.67590  -0.10295   0.00000   0.01863   0.01828   2.69419
   R30        2.07869  -0.01021   0.00000   0.00026   0.00026   2.07895
   R31        2.59524  -0.10677   0.00000   0.02456   0.02427   2.61951
   R32        2.07909  -0.01025   0.00000  -0.00002  -0.00002   2.07907
   R33        2.07936  -0.01034   0.00000   0.00008   0.00008   2.07944
   R34        2.07861  -0.01046   0.00000   0.00004   0.00004   2.07865
    A1        1.95982  -0.00028   0.00000   0.00009   0.00009   1.95991
    A2        2.14493   0.02214   0.00000  -0.00144  -0.00132   2.14361
    A3        2.08201   0.02384   0.00000  -0.00198  -0.00187   2.08014
    A4        2.05625  -0.04598   0.00000   0.00342   0.00316   2.05941
    A5        2.05866   0.00112   0.00000  -0.00029  -0.00029   2.05837
    A6        2.05670  -0.00093   0.00000   0.00031   0.00031   2.05701
    A7        2.16783  -0.00019   0.00000  -0.00002  -0.00002   2.16781
    A8        2.00505  -0.00088   0.00000   0.00028   0.00028   2.00532
    A9        2.10769  -0.00264   0.00000  -0.00223  -0.00211   2.10558
   A10        2.12509   0.00321   0.00000   0.00479   0.00456   2.12964
   A11        2.05040  -0.00057   0.00000  -0.00256  -0.00244   2.04796
   A12        2.11373  -0.07385   0.00000  -0.01757  -0.01762   2.09611
   A13        2.07045   0.13955   0.00000   0.03534   0.03534   2.10579
   A14        2.09900  -0.06570   0.00000  -0.01777  -0.01781   2.08119
   A15        2.11933  -0.22150   0.00000  -0.04259  -0.04242   2.07690
   A16        2.08088  -0.51603   0.00000  -0.12995  -0.13017   1.95071
   A17        2.08298   0.73753   0.00000   0.17254   0.17225   2.25523
   A18        2.09703   0.10763   0.00000   0.16780   0.16713   2.26416
   A19        2.07375   0.07784   0.00000  -0.03460  -0.03462   2.03912
   A20        2.11240  -0.18547   0.00000  -0.13318  -0.13350   1.97890
   A21        2.12150   0.04688   0.00000   0.03371   0.03370   2.15519
   A22        2.07615  -0.02460   0.00000  -0.01614  -0.01615   2.06000
   A23        2.08554  -0.02228   0.00000  -0.01758  -0.01762   2.06792
   A24        2.07068   0.99164   0.00000  -0.00714  -0.00732   2.06335
   A25        2.10944  -0.80462   0.00000   0.04104   0.04085   2.15030
   A26        2.10307  -0.18702   0.00000  -0.03390  -0.03368   2.06939
   A27        2.12407   0.46056   0.00000  -0.14267  -0.14350   1.98057
   A28        2.08050  -0.15371   0.00000   0.08171   0.08211   2.16261
   A29        2.07862  -0.30686   0.00000   0.06096   0.06121   2.13982
   A30        2.10005   0.20308   0.00000  -0.00821  -0.00878   2.09126
   A31        2.10635  -0.09882   0.00000   0.00583   0.00607   2.11242
   A32        2.07679  -0.10426   0.00000   0.00238   0.00263   2.07941
   A33        2.10330   0.14267   0.00000   0.02112   0.02145   2.12475
   A34        2.07008   0.07759   0.00000  -0.16758  -0.16777   1.90231
   A35        2.10981  -0.22026   0.00000   0.14647   0.14627   2.25608
   A36        2.08061   0.12950   0.00000  -0.03235  -0.03215   2.04846
   A37        2.07798   0.12436   0.00000  -0.03136  -0.03090   2.04708
   A38        2.12459  -0.25386   0.00000   0.06371   0.06303   2.18762
   A39        2.10080  -0.00485   0.00000   0.01020   0.00951   2.11031
   A40        2.07666   0.00350   0.00000  -0.00533  -0.00498   2.07168
   A41        2.10573   0.00135   0.00000  -0.00487  -0.00453   2.10120
   A42        2.10096   0.04898   0.00000  -0.03462  -0.03490   2.06606
   A43        2.10570  -0.02544   0.00000   0.01813   0.01827   2.12397
   A44        2.07652  -0.02354   0.00000   0.01649   0.01662   2.09315
   A45        2.10235   0.04507   0.00000  -0.01501  -0.01512   2.08723
   A46        2.07073  -0.02221   0.00000   0.00775   0.00779   2.07852
   A47        2.11010  -0.02286   0.00000   0.00727   0.00731   2.11741
   A48        2.10398   0.01813   0.00000  -0.01844  -0.01854   2.08544
   A49        2.06981  -0.00865   0.00000   0.00976   0.00978   2.07959
   A50        2.10940  -0.00948   0.00000   0.00868   0.00870   2.11809
   A51        2.10053  -0.05937   0.00000  -0.00010  -0.00062   2.09992
   A52        2.07699   0.03138   0.00000   0.00031   0.00055   2.07754
   A53        2.10566   0.02799   0.00000  -0.00021   0.00004   2.10570
    D1        3.13165   0.00000   0.00000   0.00002   0.00002   3.13167
    D2       -0.00755  -0.00001   0.00000   0.00002   0.00002  -0.00753
    D3        3.08192  -0.00005   0.00000   0.00507   0.00485   3.08676
    D4       -0.06224  -0.00004   0.00000   0.00507   0.00485  -0.05738
    D5       -0.05938   0.00005   0.00000  -0.00512  -0.00490  -0.06427
    D6        3.07965   0.00006   0.00000  -0.00511  -0.00489   3.07476
    D7       -0.00803  -0.00001   0.00000  -0.00095  -0.00076  -0.00879
    D8        3.13799   0.00004   0.00000  -0.00243  -0.00169   3.13630
    D9        3.13327  -0.00009   0.00000   0.00910   0.00888  -3.14104
   D10       -0.00390  -0.00004   0.00000   0.00762   0.00795   0.00405
   D11       -3.13694   0.00006   0.00000  -0.00130  -0.00062  -3.13756
   D12        0.00362   0.00009   0.00000  -0.01317  -0.01241  -0.00878
   D13        0.00494   0.00014   0.00000  -0.01097  -0.00989  -0.00495
   D14       -3.13769   0.00018   0.00000  -0.02284  -0.02168   3.12382
   D15        3.11304   0.00004   0.00000  -0.00006  -0.00006   3.11298
   D16       -0.02600   0.00003   0.00000  -0.00006  -0.00006  -0.02606
   D17        3.14129  -0.00004   0.00000  -0.00154  -0.00206   3.13924
   D18        0.00067  -0.00020   0.00000   0.01222   0.01163   0.01230
   D19        0.00399   0.00001   0.00000  -0.00297  -0.00296   0.00103
   D20       -3.13664  -0.00014   0.00000   0.01079   0.01073  -3.12590
   D21        0.00170   0.00026   0.00000  -0.02967  -0.02852  -0.02681
   D22       -3.13964  -0.00002   0.00000  -0.00159  -0.00312   3.14043
   D23       -3.13893   0.00012   0.00000  -0.01603  -0.01494   3.12931
   D24        0.00291  -0.00016   0.00000   0.01205   0.01046   0.01337
   D25        3.14033  -0.00061   0.00000   0.07430   0.07815  -3.06471
   D26       -0.00070  -0.00020   0.00000   0.02643   0.02576   0.02506
   D27       -0.00151  -0.00050   0.00000   0.04614   0.04765   0.04614
   D28        3.14065  -0.00009   0.00000  -0.00173  -0.00474   3.13591
   D29        3.14159  -0.00059   0.00000   0.12094   0.12036  -3.02123
   D30       -0.00025  -0.00062   0.00000   0.10258   0.10197   0.10172
   D31        0.00024  -0.00074   0.00000   0.14846   0.14907   0.14932
   D32        3.14159  -0.00076   0.00000   0.13010   0.13068  -3.01092
   D33       -0.00272   0.00000   0.00000  -0.00555  -0.00671  -0.00942
   D34        3.13991  -0.00004   0.00000   0.00638   0.00513  -3.13814
   D35        3.13944   0.00032   0.00000  -0.05396  -0.05069   3.08875
   D36       -0.00111   0.00029   0.00000  -0.04203  -0.03886  -0.03997
   D37       -0.00024  -0.00059   0.00000   0.02440   0.02393   0.02369
   D38        3.14128  -0.00038   0.00000   0.00291   0.00354  -3.13837
   D39       -3.14158  -0.00047   0.00000   0.04268   0.04144  -3.10014
   D40       -0.00007  -0.00027   0.00000   0.02119   0.02106   0.02099
   D41       -3.14120   0.00014   0.00000  -0.00655  -0.00655   3.13544
   D42        0.00023  -0.00001   0.00000   0.00787   0.00798   0.00821
   D43        0.00015   0.00027   0.00000  -0.02524  -0.02501  -0.02486
   D44        3.14157   0.00013   0.00000  -0.01082  -0.01047   3.13110
   D45       -3.14138  -0.00002   0.00000  -0.00765  -0.00581   3.13600
   D46       -0.00002  -0.00025   0.00000   0.00422   0.00466   0.00464
   D47        0.00030  -0.00023   0.00000   0.01381   0.01427   0.01457
   D48       -3.14153  -0.00046   0.00000   0.02568   0.02474  -3.11679
   D49        3.14150   0.00002   0.00000   0.00381   0.00426  -3.13742
   D50       -0.00001   0.00009   0.00000  -0.00293  -0.00238  -0.00239
   D51       -0.00017   0.00025   0.00000  -0.01712  -0.01794  -0.01811
   D52        3.14150   0.00033   0.00000  -0.02386  -0.02458   3.11692
   D53       -0.00014  -0.00009   0.00000   0.01083   0.01133   0.01119
   D54       -3.14140  -0.00011   0.00000   0.01012   0.01026  -3.13114
   D55       -3.14156   0.00006   0.00000  -0.00335  -0.00293   3.13869
   D56        0.00035   0.00003   0.00000  -0.00405  -0.00400  -0.00364
   D57       -0.00019   0.00002   0.00000  -0.00182  -0.00124  -0.00144
   D58        3.14151  -0.00002   0.00000   0.00050   0.00078  -3.14090
   D59       -3.14154   0.00022   0.00000  -0.01392  -0.01398   3.12766
   D60        0.00016   0.00018   0.00000  -0.01160  -0.01196  -0.01180
   D61       -0.00007  -0.00010   0.00000   0.00875   0.00900   0.00893
   D62       -3.14138  -0.00005   0.00000   0.00263   0.00253  -3.13885
   D63        3.14145  -0.00015   0.00000   0.01567   0.01623  -3.12551
   D64        0.00014  -0.00010   0.00000   0.00954   0.00976   0.00990
   D65        0.00003   0.00011   0.00000  -0.01126  -0.01190  -0.01187
   D66        3.14156  -0.00001   0.00000  -0.00002  -0.00019   3.14137
   D67       -3.14149   0.00016   0.00000  -0.01817  -0.01912   3.12257
   D68        0.00005   0.00005   0.00000  -0.00693  -0.00742  -0.00737
   D69        0.00005  -0.00012   0.00000   0.00760   0.00757   0.00761
   D70       -3.14149   0.00000   0.00000  -0.00390  -0.00440   3.13729
   D71        3.14131  -0.00009   0.00000   0.00832   0.00865  -3.13322
   D72       -0.00023   0.00003   0.00000  -0.00318  -0.00332  -0.00355
   D73       -0.00005   0.00009   0.00000  -0.00689  -0.00725  -0.00730
   D74       -3.14148  -0.00001   0.00000   0.00027  -0.00002  -3.14150
   D75        3.14144   0.00012   0.00000  -0.00917  -0.00924   3.13220
   D76        0.00001   0.00003   0.00000  -0.00200  -0.00201  -0.00200
   D77        0.00018  -0.00006   0.00000   0.00330   0.00304   0.00323
   D78       -3.14158   0.00004   0.00000  -0.00398  -0.00430   3.13731
   D79        3.14149  -0.00011   0.00000   0.00957   0.00966  -3.13204
   D80       -0.00027  -0.00001   0.00000   0.00229   0.00232   0.00204
         Item               Value     Threshold  Converged?
 Maximum Force            0.991636     0.000015     NO 
 RMS     Force            0.149856     0.000010     NO 
 Maximum Displacement     0.717752     0.000060     NO 
 RMS     Displacement     0.182444     0.000040     NO 
 Predicted change in Energy=-4.437881D-01
 GradGradGradGradGradGradGradGradGradGradGradGradGradGradGradGradGradGrad

                          Input orientation:                          
 ---------------------------------------------------------------------
 Center     Atomic      Atomic             Coordinates (Angstroms)
 Number     Number       Type             X           Y           Z
 ---------------------------------------------------------------------
      1          8           0        8.714288    7.376208    5.702130
      2          1           0        9.498344    7.001889    6.114038
      3          6           0        6.282367    7.033865    5.172571
      4          5           0        7.638143    6.546777    5.791007
      5          8           0        7.809135    5.342968    6.416944
[...]
 138,-0.00008609,0.00012055,-0.00008257,0.00009802,-0.00002538,0.000016
 31,-0.00003434,0.00000387,0.00005508,0.00003102,-0.00003156,-0.0000317
 2,0.00002861,-0.00000306,-0.00012761,0.00001875,-0.00009916,-0.0000120
 0,-0.00000541,0.00004524,-0.00041671,-0.00096142,0.00061966,-0.0003122
 2,0.00023350,-0.00009247,-0.00000528,-0.00001708,0.00003162,0.00003199
 ,-0.00006862,-0.00009954,-0.00003378,0.00000875,-0.00001275,-0.0033521
 9,0.00247962,-0.00266029,0.00027369,0.00078263,-0.00060703,-0.01712364
 ,-0.01463064,0.01117875,-0.00008259,-0.00016934,0.00020570,0.00135431,
 0.00098587,-0.00129367,-0.24942126,-0.10993978,0.07870092,0.00081124,0
 .00037259,-0.00000592,-0.00010649,0.00013961,-0.00013428,0.00001715,0.
 00001787,-0.00002329,0.00007306,-0.00009707,0.00007681,0.00623974,0.00
 292198,-0.00228079,0.26140620,-0.00000770,-0.00000789,-0.00000960,0.00
 000111,0.00000151,0.00000236,-0.00000001,-0.00001861,-0.00001641,0.000
 01046,0.00001171,0.00000422,-0.00000234,-0.00000784,-0.00000259,0.0000
 0295,0.00000198,0.00000127,0.00001133,-0.00001250,0.00004401,0.0000059
 3,-0.00000290,0.00000184,0.00000402,0.00002419,-0.00003191,0.00003100,
 -0.00000885,-0.00002725,0.00032905,0.00029554,-0.00013363,0.00011862,-
 0.00005299,0.00008078,0.00001350,-0.00000109,-0.00000573,-0.00002173,0
 .00000704,0.00004806,0.00001052,0.00000092,-0.00000082,0.00212972,0.00
 229485,0.00275806,0.00037623,-0.00079663,0.00000931,0.00889156,0.00782
 533,-0.00350119,0.00004161,-0.00011092,-0.00062620,0.00161185,0.000729
 91,0.00720900,-0.10936006,-0.11273828,0.05552241,-0.00028548,-0.000937
 16,-0.00168489,0.00024803,-0.00008932,0.00018240,-0.00003089,0.0000080
 6,0.00003216,-0.00109948,0.00012364,-0.00004725,-0.02124723,-0.0062128
 1,0.00754473,0.11797038,0.11191515,-0.00001110,-0.00001013,-0.00001341
 ,-0.00000063,0.00000107,0.00000261,-0.00004399,-0.00001123,-0.00003253
 ,0.00002899,0.00000313,0.00001629,-0.00000393,-0.00000048,-0.00000397,
 -0.00000020,0.00000113,0.00000218,0.00005016,0.00000064,0.00003181,-0.
 00000254,0.00000074,0.00000618,0.00002045,0.00007198,-0.00009543,0.000
 02740,0.00000991,0.00001460,-0.00017214,-0.00035521,0.00030906,-0.0000
 4231,0.00004950,-0.00002543,0.00000703,-0.00001903,-0.00000347,-0.0000
 1046,-0.00002981,-0.00001927,-0.00000850,0.00000430,-0.00000405,-0.002
 64733,0.00301843,0.00275395,-0.00024608,0.00002202,-0.00082842,-0.0089
 5863,-0.00482704,0.00657707,-0.00001908,-0.00068464,-0.00028835,-0.001
 50272,0.00714533,0.00316884,0.07841612,0.05570140,-0.07988858,0.000534
 49,-0.00171121,-0.00139704,-0.00020812,0.00018732,-0.00004409,0.000033
 60,0.00004816,0.00000650,0.00084951,-0.00000940,0.00021574,0.01767384,
 0.00881283,-0.00186433,-0.08397786,-0.06452239,0.07465762,-0.00002106,
 -0.00001112,-0.00001868,0.00000146,0.00000158,0.00000029,-0.00007120,0
 .00020986,0.00007896,0.00003936,-0.00000472,0.00006219,-0.00002116,0.0
 0002227,-0.00001386,0.00000623,-0.00000824,0.00000053,-0.00013239,-0.0
 0006481,-0.00021129,0.00000439,0.00000410,0.00000005,0.00003782,0.0000
 4270,0.00014634,-0.00001999,-0.00011467,0.00003666,0.00065464,-0.00011
 106,0.00039092,-0.00035234,-0.00029918,-0.00009836,-0.00007953,0.00011
 905,0.00002685,0.00027944,-0.00008448,0.00000182,0.00002674,0.00000636
 ,-0.00004580,0.00807570,0.01841412,-0.01528875,-0.05349424,-0.02246492
 ,0.01871321,-0.02555040,-0.00168115,-0.00031614,0.02352270,0.06421485,
 -0.05611555,0.01409514,-0.05649555,0.04858445,0.01579439,-0.01669493,0
 .01544703,-0.00042305,-0.00019869,-0.00009781,-0.26863965,0.02136719,-
 0.02065711,0.00177913,-0.00065043,0.00007450,-0.31368945,-0.07697149,0
 .05714116,0.01695622,0.02231878,-0.01802538,0.00025438,-0.00012373,0.0
 0016334,0.67697504,0.00005690,0.00003791,0.00002665,-0.00000569,-0.000
 00811,0.00000138,0.00006416,-0.00008900,-0.00000868,-0.00011251,-0.000
 01398,-0.00004915,0.00003822,-0.00000856,0.00000664,-0.00001443,0.0000
 0600,0.00000482,0.00008367,0.00002023,0.00001432,0.00000160,-0.0000077
 8,0.00000819,-0.00002475,0.00005682,0.00001321,-0.00001450,0.00002407,
 0.00003161,-0.00005518,-0.00018882,-0.00010237,0.00010515,-0.00011999,
 0.00024131,0.00001018,-0.00007628,0.00002244,-0.00013272,0.00007442,-0
 .00001740,0.00000710,-0.00000329,0.00001830,0.00002427,-0.00007807,-0.
 00095819,-0.00370556,-0.00275318,-0.00281966,-0.00129911,-0.00035563,0
 .00052880,0.02604884,-0.00538377,0.01089444,-0.02201129,-0.01767602,0.
 01941596,0.00096587,-0.00157050,0.00119944,-0.00000681,0.00013556,0.00
 004775,0.07455097,-0.11599446,0.04778564,0.00001414,0.00083705,0.00703
 710,-0.12800962,-0.15777604,0.07933342,0.00392019,0.00212852,0.0039570
 4,0.00000781,-0.00063464,-0.00006941,0.03568169,0.49361181,-0.00003080
 ,-0.00001191,-0.00000059,0.00000375,0.00000245,-0.00000611,-0.00005604
 ,-0.00005340,-0.00002948,0.00006342,-0.00001120,-0.00000584,-0.0000210
 0,0.00001090,0.00000840,0.00000399,-0.00000315,-0.00000313,0.00005906,
 -0.00003558,0.00004488,-0.00000307,0.00000392,0.00000618,0.00003442,0.
 00006017,-0.00002478,0.00002658,-0.00002230,-0.00002858,0.00022378,-0.
 00026682,-0.00026775,-0.00004235,0.00007314,0.00021605,0.00004814,-0.0
 0002304,-0.00005540,-0.00005731,0.00000634,-0.00003185,-0.00001445,0.0
 0000306,-0.00000011,0.00011548,-0.00030314,-0.00030449,0.00161439,-0.0
 0301506,-0.00324061,0.00061762,0.00073087,0.00002892,-0.02244117,0.012
 38778,-0.00401362,0.01964077,0.01833654,-0.00946258,-0.00042807,0.0007
 8010,-0.00098141,-0.00001075,-0.00000789,0.00008700,-0.06859915,0.0465
 7677,-0.10543664,-0.00000651,0.00710457,0.00255272,0.10259181,0.081287
 19,-0.12887454,-0.00348130,0.00415245,0.00241615,0.00003748,-0.0000103
 2,-0.00063132,-0.01636903,-0.31001060,0.40422630,0.00002633,0.00000737
 ,0.00001954,-0.00000417,-0.00000119,-0.00000350,0.00002465,-0.00001606
 ,0.00001281,-0.00005608,0.00001717,-0.00002877,0.00002248,-0.00002156,
 0.00000594,-0.00000658,0.00000848,-0.00000047,0.00000478,0.00000277,-0
 .00000002,0.00000347,-0.00000507,0.00000089,0.00001306,0.00000476,0.00
 000656,-0.00000403,0.00000551,0.00000230,-0.00003923,-0.00001009,0.000
 01846,0.00002185,-0.00002718,0.00001887,-0.00000190,-0.00001415,-0.000
 00301,-0.00002007,0.00001067,-0.00000386,0.00000302,-0.00000120,-0.000
 00139,0.00008809,-0.00006982,0.00004279,0.00130398,0.00122536,-0.00115
 339,0.00027419,-0.00002365,0.00004086,0.00634796,0.00302582,-0.0026927
 3,0.00029114,0.00079723,-0.00064434,-0.00010232,0.00015445,-0.00013487
 ,0.00001881,0.00001283,-0.00000406,-0.24877017,-0.10172813,0.08867401,
 0.00070294,-0.00020061,0.00021426,-0.00384109,0.00278075,-0.00254164,-
 0.00010274,-0.00024480,0.00020522,-0.00000876,-0.00001540,0.00001079,-
 0.01689792,-0.01403344,0.01227408,0.26080499,0.00002122,0.00000277,-0.
 00000769,-0.00000276,-0.00000052,0.00000662,0.00004421,0.00003026,0.00
 002444,-0.00004727,0.00001368,0.00000992,0.00002143,-0.00001346,-0.000
 01208,-0.00000832,0.00000174,0.00000861,-0.00003365,-0.00001422,-0.000
 04945,0.00000661,-0.00000902,0.00000301,0.00005042,-0.00003998,0.00002
 403,-0.00001668,-0.00000262,0.00001567,-0.00014940,0.00018426,0.000080
 06,-0.00000493,0.00001650,-0.00011074,-0.00003895,0.00000929,0.0000047
 3,0.00006945,-0.00001762,0.00000992,0.00000690,-0.00000069,0.00000853,
 -0.00098029,0.00031974,-0.00010079,0.00134643,0.00093543,0.00735633,-0
 .00022495,-0.00067900,-0.00007777,-0.02026147,-0.00531046,0.00840704,0
 .00036191,-0.00093727,0.00010156,0.00029204,-0.00014561,0.00027573,-0.
 00010831,-0.00008025,0.00001291,-0.10083264,-0.10450518,0.05778430,0.0
 0020591,-0.00189474,-0.00309889,0.00237708,0.00234119,0.00291758,0.000
 15950,-0.00005325,-0.00074654,-0.00001261,0.00003982,0.00005578,0.0088
 9314,0.00777999,-0.00416737,0.10884780,0.10266433,-0.00004434,-0.00003
 870,-0.00002093,0.00000364,0.00000709,-0.00000137,-0.00006831,0.000076
 31,-0.00000111,0.00008274,0.00002863,0.00004349,-0.00001902,-0.0000058
 0,-0.00000848,0.00000514,-0.00000169,0.00000054,-0.00004116,-0.0000146
 6,-0.00003260,-0.00000445,0.00000321,-0.00000512,-0.00002210,-0.000041
 29,-0.00001208,-0.00000167,-0.00001231,0.00000122,0.00009746,0.0001203
 2,0.00018824,-0.00009650,0.00007509,-0.00012063,0.00002605,0.00002284,
 -0.00000462,0.00007338,-0.00004983,0.00003113,-0.00000909,0.00000554,-
 0.00002354,0.00099129,0.00016470,0.00010808,-0.00171660,0.00692153,0.0
 0298382,-0.00002290,-0.00006921,-0.00064469,0.01809903,0.00917329,-0.0
 0369521,-0.00037638,-0.00009763,-0.00067726,-0.00011118,0.00008462,0.0
 0003809,0.00008918,0.00004130,-0.00004843,0.08851985,0.05729277,-0.088
 28510,-0.00012724,-0.00317583,-0.00260496,-0.00206360,0.00296471,0.002
 84186,0.00006348,-0.00057529,-0.00039798,0.00000749,0.00004807,0.00005
 752,-0.00869555,-0.00422921,0.00672334,-0.09468466,-0.06692754,0.08472
 750,-0.00003849,-0.00000807,-0.00002778,0.00000568,0.00000092,0.000005
 11,-0.00003967,0.00001753,-0.00001902,0.00008450,-0.00002890,0.0000409
 4,-0.00003387,0.00003507,-0.00000962,0.00000925,-0.00001322,0.00000150
 ,0.00000314,0.00000404,0.00000550,-0.00000722,0.00000794,-0.00000023,-
 0.00002344,-0.00000374,-0.00002487,0.00000498,-0.00000365,-0.00000141,
 0.00007485,0.00000787,-0.00001685,-0.00001938,0.00002349,-0.00001397,0
 .00000248,0.00000416,0.00001489,0.00000923,-0.00000745,0.00000064,-0.0
 0000369,-0.00000047,0.00000164,-0.00025310,-0.00036833,0.00031852,0.00
 150988,-0.00004499,-0.00014073,0.00036824,0.00003741,0.00001597,0.0003
 7617,-0.00037263,0.00036852,-0.00020496,-0.00055705,0.00034033,-0.0000
 1884,0.00034311,-0.00028518,0.00002130,0.00001262,-0.00000995,-0.00215
 266,-0.00345400,0.00257398,-0.00005422,0.00008366,-0.00001306,-0.29206
 415,0.07477409,-0.07591505,0.00083869,-0.00119585,0.00115981,-0.000001
 76,0.00003623,-0.00003808,-0.01794765,0.00956987,-0.00929477,-0.000979
 83,0.00051607,-0.00043783,0.30947201,0.00002529,0.00000523,0.00001218,
 -0.00000317,0.00000010,-0.00000037,0.00004125,-0.00002869,0.00002275,-
 0.00006267,0.00002271,-0.00002273,0.00002288,-0.00002610,0.00000313,-0
 .00000510,0.00000871,0.00000097,0.00001236,0.00000234,-0.00003034,0.00
 000991,-0.00000718,-0.00000013,0.00005119,-0.00000215,0.00003742,-0.00
 001126,-0.00000609,0.00001068,-0.00016156,-0.00013090,0.00029577,0.000
 05351,-0.00004981,-0.00002866,-0.00001300,0.00001279,-0.00000150,-0.00
 000426,0.00002002,-0.00001725,0.00000401,-0.00000097,0.00000539,0.0012
 2796,-0.00002789,0.00018696,-0.00068654,-0.00067534,0.00513075,0.00013
 985,-0.00003447,-0.00005952,-0.00063979,-0.00112214,0.00009329,0.02142
 753,-0.00268530,0.00599958,-0.00033030,0.00009555,-0.00019087,-0.00006
 342,0.00001765,0.00001418,-0.00272925,0.00278338,0.00502690,0.00008865
 ,-0.00042216,-0.00057253,0.07467471,-0.07395106,0.03477719,0.00155287,
 -0.00066940,-0.00198888,-0.00001423,0.00005197,0.00009728,-0.01375430,
 0.00860525,-0.00405845,-0.00074181,0.00030290,-0.00017157,-0.07970963,
 0.06984498,-0.00001949,-0.00000990,-0.00001533,0.00000172,0.00000162,0
 .00000282,-0.00002196,-0.00001898,-0.00001596,0.00003768,-0.00000100,0
 .00001828,-0.00001207,0.00000579,-0.00000619,0.00000443,-0.00000380,0.
 00000220,0.00001166,0.00002777,0.00003779,-0.00000836,0.00000811,-0.00
 000779,-0.00011943,0.00001722,-0.00004558,0.00000284,0.00000163,-0.000
 00391,0.00016676,0.00034959,-0.00000843,0.00002284,-0.00004974,0.00000
 832,0.00000846,0.00001701,-0.00001852,-0.00002402,0.00001868,-0.000003
 90,-0.00000531,0.00000037,0.,-0.00112056,0.00000782,-0.00014400,0.0010
 4825,0.00520723,0.00079156,-0.00005634,-0.00007405,-0.00003854,0.00038
 009,-0.00024498,-0.00073725,-0.01912390,0.00572019,-0.00261715,0.00026
 282,-0.00013333,0.00001373,0.00005823,0.00002219,0.00002629,0.00181222
 ,0.00510169,0.00423509,-0.00006850,-0.00060674,-0.00056973,-0.07630225
 ,0.03433464,-0.07031130,-0.00109037,-0.00220206,-0.00125195,0.00000160
 ,0.00009750,0.00008437,0.01166184,-0.00293855,0.00764511,0.00054626,-0
 .00013069,0.00018404,0.08137717,-0.04189665,0.06534535,-0.00002884,-0.
 00000601,-0.00002060,0.00000405,0.00000075,0.00000389,-0.00003147,0.00
 000585,-0.00001635,0.00006358,-0.00002125,0.00002959,-0.00002554,0.000
 02639,-0.00000734,0.00000691,-0.00001035,0.00000118,0.00000517,0.00000
 265,0.00002477,-0.00000553,0.00000635,0.00000026,-0.00001792,0.0000074
 3,-0.00002357,0.00000495,0.00000271,-0.00000792,0.00004183,0.00007971,
 -0.00001125,0.00001304,-0.00001368,-0.00000412,0.00000368,0.00000984,0
 .00002051,0.00001335,0.00001215,-0.00000248,-0.00000173,-0.00000131,0.
 00000291,0.00013276,-0.00059202,0.00054815,-0.00178530,-0.00323665,0.0
 0240554,0.00191945,-0.00010550,-0.00030182,-0.00084524,0.00090510,-0.0
 0084611,-0.01867001,0.00944462,-0.00930836,0.00182243,-0.00128862,0.00
 086534,-0.00005350,-0.00010211,0.00009193,0.00012466,-0.00007694,0.000
 06418,-0.00031149,-0.00022443,0.00019712,0.00090564,0.00158188,-0.0011
 5924,-0.28725183,0.07715643,-0.07970529,0.00059613,0.00045663,-0.00000
 842,0.00010603,-0.00023847,0.00021699,0.00005075,-0.00004746,0.0000421
 7,0.00029249,-0.00086691,0.00076390,0.30295695,0.00004015,0.00000957,0
 .00002248,-0.00000537,-0.00000013,-0.00000209,0.00007936,0.00001519,0.
 00004273,-0.00009476,0.00003680,-0.00003810,0.00003523,-0.00003804,0.0
 0000397,-0.00000908,0.00001281,0.00000178,-0.00008324,-0.00000007,-0.0
 0001517,0.00000985,-0.00000941,-0.00000121,0.00013771,-0.00001205,0.00
 001355,-0.00001390,0.00000867,0.00001621,0.00019282,-0.00037078,-0.000
 54323,-0.00012002,-0.00002104,0.00000320,0.00000480,0.00001198,-0.0000
 0213,-0.00000358,-0.00004607,0.00000946,-0.00000075,0.00000390,-0.0000
 0313,-0.00050104,-0.00083502,-0.00009952,-0.00243972,0.00097292,0.0033
 3626,-0.00098414,0.00014117,0.00700332,-0.00067074,0.00023887,-0.00025
 033,-0.01285860,0.00721366,-0.00423381,0.02281295,-0.00212024,0.007002
 12,0.00111417,-0.00020294,0.00035182,-0.00013842,0.00012142,-0.0001944
 1,-0.00020979,-0.00000226,0.00019413,-0.00108987,-0.00056576,-0.002098
 85,0.07694186,-0.07621259,0.03711450,-0.00011115,-0.00163914,-0.003013
 76,0.00040359,-0.00001330,-0.00008563,0.00002821,0.00000373,0.00003376
 ,0.00034863,-0.00007890,0.00032363,-0.08282682,0.07330430,-0.00002102,
 -0.00000726,-0.00001763,0.00000236,0.00000176,0.00000404,0.00000780,0.
 00001923,0.00000496,0.00003326,-0.00000183,0.00002051,-0.00001383,0.00
 000755,-0.00000848,0.00000611,-0.00000501,0.00000315,-0.00004945,-0.00
 003422,0.00000777,0.00000524,0.00000177,-0.00000315,0.00010954,-0.0000
 0355,0.00004778,0.00001427,-0.00003185,-0.00002355,0.00010836,-0.00065
 218,-0.00053550,-0.00017890,0.00004010,0.00003015,-0.00000002,0.000001
 31,-0.00000712,-0.00001888,-0.00006040,-0.00002227,-0.00000716,0.00000
 580,-0.00001070,0.00036262,-0.00001369,-0.00082175,0.00134542,0.003523
 05,0.00222535,0.00026859,0.00694282,0.00288497,0.00056606,-0.00014015,
 0.00013304,0.00972891,-0.00286316,0.00620877,-0.01909400,0.00560079,-0
 .00126732,-0.00086992,0.00026331,-0.00019275,0.00017934,-0.00023876,0.
 00010180,0.00010971,0.00019728,0.00003814,0.00114367,-0.00191277,-0.00
 133561,-0.07955570,0.03706961,-0.07309025,0.00044793,-0.00300174,-0.00
 271754,-0.00042978,-0.00012537,-0.00004438,-0.00002346,0.00003188,0.00
 001708,-0.00028247,0.00026946,0.00006552,0.08612111,-0.04496785,0.0682
 0316,-0.00002217,-0.00000686,-0.00001356,0.00000341,0.00000188,0.00000
 146,-0.00000857,0.00003437,0.00000964,0.00004476,-0.00000889,0.0000238
 7,-0.00001875,0.00001614,-0.00000519,0.00000488,-0.00000663,0.00000056
 ,-0.00003329,0.00000062,-0.00001488,0.00000022,0.00000258,0.00000029,0
 .00004610,-0.00004767,-0.00000152,-0.00000372,0.00000410,0.00000505,-0
 .00003379,0.00001003,-0.00001463,0.00000704,0.00001610,-0.00006171,-0.
 00001412,0.00001676,0.00003047,0.00006087,-0.00001576,0.00000398,0.000
 00204,-0.00000087,0.00000168,0.00030463,0.00032988,-0.00025160,-0.0011
 0875,-0.00052249,0.00047980,-0.00043661,0.00001854,-0.00005509,-0.0052
 4170,0.00139635,-0.00133488,-0.00439158,-0.00223638,0.00144141,-0.0001
 3719,-0.00039379,0.00034127,0.00001161,-0.00000317,0.00000007,0.002878
 06,0.02176063,-0.01910143,0.00000250,0.00101879,-0.00090114,0.00695221
 ,-0.02028516,0.01784499,0.00086905,-0.00051383,0.00049572,0.00001567,-
 0.00010666,0.00008643,-0.06126876,0.01851343,-0.01671597,0.00083239,-0
 .00045043,0.00044169,0.00077005,0.00046524,-0.00019621,-0.00003545,0.0
 0001168,-0.00001571,0.05994897,0.00003933,0.00000615,0.00002259,-0.000
 00609,-0.00000066,-0.00000263,0.00004316,-0.00003480,0.00000976,-0.000
 08882,0.00003339,-0.00003729,0.00003769,-0.00003964,0.00000583,-0.0000
 1042,0.00001372,0.00000108,0.00001231,-0.00000415,0.00000609,0.0000052
 3,-0.00000932,0.00000198,0.00001179,0.00000893,0.00000836,-0.00000155,
 0.00000201,-0.00000062,-0.00002269,0.00001589,-0.00002530,0.00004031,-
 0.00001681,0.00005958,0.00000655,-0.00001735,-0.00001579,-0.00003430,0
 .00001512,-0.00000333,0.00000027,0.00000104,0.00000027,0.00007640,-0.0
 0032712,-0.00045284,-0.00006333,-0.00002905,-0.00065410,-0.00010549,0.
 00008864,0.00002663,0.00184824,0.00301530,0.00224752,-0.00273243,0.004
 22316,0.00429883,-0.00021441,-0.00043856,-0.00022410,-0.00000813,0.000
 03083,0.00006374,-0.00157924,-0.00297876,0.00518229,-0.00012966,-0.000
 23494,0.00024450,0.00326599,-0.00603260,0.00911582,0.00045087,-0.00024
 131,0.00035920,0.00001244,-0.00006005,0.00003279,0.01803419,-0.2105662
 2,0.15056961,0.00022498,-0.00094172,-0.00165319,-0.00005471,-0.0018550
 5,-0.00295222,-0.00003997,0.00007276,0.00008410,-0.01901851,0.21630119
 ,-0.00003902,-0.00001690,-0.00002890,0.00000522,0.00000319,0.00000473,
 -0.00003846,0.00001410,-0.00001704,0.00007838,-0.00001006,0.00004300,-
 0.00002751,0.00002032,-0.00001101,0.00000767,-0.00000931,0.00000259,0.
 00000544,0.00000181,0.00000281,-0.00000479,0.00000579,-0.00000095,-0.0
 0002489,-0.00001792,-0.00001691,0.00000347,-0.00000280,0.00000178,0.00
 004264,0.00002212,-0.00003421,0.00001112,0.00003609,-0.00000474,0.0000
 0693,-0.00000052,0.00002166,0.00001368,-0.00000772,0.00001012,-0.00000
 519,0.00000096,-0.00000085,-0.00000728,-0.00044285,-0.00049716,0.00015
 564,-0.00065760,-0.00017970,-0.00000806,0.00001456,0.00010323,-0.00176
 333,0.00223568,0.00364180,0.00171430,0.00440781,0.00552840,0.00029152,
 -0.00024168,-0.00043149,-0.00000771,0.00006797,0.00005373,0.00131637,0
 .00578108,-0.00206357,0.00009797,0.00027876,-0.00020437,-0.00295216,0.
 00822952,-0.00302138,-0.00034673,0.00040807,-0.00023654,-0.00000954,0.
 00003575,-0.00004711,-0.01614706,0.15074012,-0.17051185,-0.00017347,-0
 .00170909,-0.00136182,0.00030636,-0.00294440,-0.00266493,0.00002336,0.
 00007631,0.00010179,0.01747513,-0.16631917,0.17181889\\-0.00000026,0.0
 0000018,0.00000047,-0.00000020,0.00000029,0.00000048,0.00000020,0.0000
 0010,-0.00000017,0.00000020,0.00000029,-0.00000012,0.00000068,0.000000
 48,-0.00000064,0.00000095,0.00000057,-0.00000109,0.00000057,0.00000004
 ,-0.00000085,0.00000105,0.00000029,-0.00000125,0.00000065,0.00000009,-
 0.00000088,0.00000086,0.,-0.00000131,-0.00000022,-0.00000025,-0.000000
 35,-0.00000003,-0.00000027,0.00000043,-0.00000093,-0.00000031,0.000000
 79,-0.00000036,-0.00000010,0.00000042,-0.00000067,-0.00000014,0.000000
 87,0.00000036,-0.00000061,-0.00000061,-0.00000030,0.00000020,0.0000003
 5,0.00000019,-0.00000096,-0.00000075,-0.00000017,0.00000072,0.00000079
 ,-0.00000025,-0.00000027,0.00000007,0.00000007,-0.00000129,-0.00000089
 ,0.00000034,-0.00000140,-0.00000125,-0.00000041,0.00000114,0.00000125,
 -0.00000017,0.00000084,0.00000086,-0.00000037,0.00000027,0.00000059,0.
 00000006,-0.00000081,-0.00000042,0.00000022,-0.00000175,-0.00000138,-0
 .00000044,0.00000081,0.00000121,-0.00000048,0.00000161,0.00000165,-0.0
 0000041,0.00000005,0.00000062,-0.00000011,-0.00000101,-0.00000047,-0.0
 0000061,0.00000119,0.00000159\\\@
 The archive entry for this job was punched.


 THE WORLD IS NOT A HAMBURGER - YOU CAN'T HAVE IT YOUR WAY.
 Job cpu time:       0 days  5 hours  4 minutes 52.0 seconds.
 Elapsed time:       0 days  0 hours  9 minutes 41.4 seconds.
 File lengths (MBytes):  RWF=    712 Int=      0 D2E=      0 Chk=     28 Scr=      1
 Normal termination of Gaussian 16 at Sat Apr 26 21:04:41 2025.
