/home/tahminaafroz
cn008.cluster.local
tahminaafroz
Fri May  9 07:45:18 CDT 2025
 Entering Gaussian System, Link 0=g16
 Initial command:
 /home/apps/g16/l1.exe "/tmp/2-Me-ph-opt-freq-thf/Gau-300109.inp" -scrdir="/tmp/2-Me-ph-opt-freq-thf/"
 Entering Link 1 = /home/apps/g16/l1.exe PID=    300110.
  
 Copyright (c) 1988-2019, Gaussian, Inc.  All Rights Reserved.
  
 This is part of the Gaussian(R) 16 program.  It is based on
 the Gaussian(R) 09 system (copyright 2009, Gaussian, Inc.),
 the Gaussian(R) 03 system (copyright 2003, Gaussian, Inc.),
 the Gaussian(R) 98 system (copyright 1998, Gaussian, Inc.),
 the Gaussian(R) 94 system (copyright 1995, Gaussian, Inc.),
 the Gaussian 92(TM) system (copyright 1992, Gaussian, Inc.),
 the Gaussian 90(TM) system (copyright 1990, Gaussian, Inc.),
 the Gaussian 88(TM) system (copyright 1988, Gaussian, Inc.),
 the Gaussian 86(TM) system (copyright 1986, Carnegie Mellon
 University), and the Gaussian 82(TM) system (copyright 1983,
 Carnegie Mellon University). Gaussian is a federally registered
 trademark of Gaussian, Inc.
  
 This software contains proprietary and confidential information,
 including trade secrets, belonging to Gaussian, Inc.
  
 This software is provided under written license and may be
 used, copied, transmitted, or stored only in accord with that
 written license.
  
 The following legend is applicable only to US Government
 contracts under FAR:
  
                    RESTRICTED RIGHTS LEGEND
  
 Use, reproduction and disclosure by the US Government is
 subject to restrictions as set forth in subparagraphs (a)
 and (c) of the Commercial Computer Software - Restricted
 Rights clause in FAR 52.227-19.
  
 Gaussian, Inc.
 340 Quinnipiac St., Bldg. 40, Wallingford CT 06492
  
  
 ---------------------------------------------------------------
 Warning -- This program may not be used in any manner that
 competes with the business of Gaussian, Inc. or will provide
 assistance to any competitor of Gaussian, Inc.  The licensee
 of this program is prohibited from giving any competitor of
 Gaussian, Inc. access to this program.  By using this program,
 the user acknowledges that Gaussian, Inc. is engaged in the
 business of creating and licensing software in the field of
 computational chemistry and represents and warrants to the
 licensee that it is not a competitor of Gaussian, Inc. and that
 it will not use this program in any manner prohibited above.
 ---------------------------------------------------------------
  

 Cite this work as:
 Gaussian 16, Revision C.01,
 M. J. Frisch, G. W. Trucks, H. B. Schlegel, G. E. Scuseria, 
 M. A. Robb, J. R. Cheeseman, G. Scalmani, V. Barone, 
 G. A. Petersson, H. Nakatsuji, X. Li, M. Caricato, A. V. Marenich, 
 J. Bloino, B. G. Janesko, R. Gomperts, B. Mennucci, H. P. Hratchian, 
 J. V. Ortiz, A. F. Izmaylov, J. L. Sonnenberg, D. Williams-Young, 
 F. Ding, F. Lipparini, F. Egidi, J. Goings, B. Peng, A. Petrone, 
 T. Henderson, D. Ranasinghe, V. G. Zakrzewski, J. Gao, N. Rega, 
 G. Zheng, W. Liang, M. Hada, M. Ehara, K. Toyota, R. Fukuda, 
 J. Hasegawa, M. Ishida, T. Nakajima, Y. Honda, O. Kitao, H. Nakai, 
 T. Vreven, K. Throssell, J. A. Montgomery, Jr., J. E. Peralta, 
 F. Ogliaro, M. J. Bearpark, J. J. Heyd, E. N. Brothers, K. N. Kudin, 
 V. N. Staroverov, T. A. Keith, R. Kobayashi, J. Normand, 
 K. Raghavachari, A. P. Rendell, J. C. Burant, S. S. Iyengar, 
 J. Tomasi, M. Cossi, J. M. Millam, M. Klene, C. Adamo, R. Cammi, 
 J. W. Ochterski, R. L. Martin, K. Morokuma, O. Farkas, 
 J. B. Foresman, and D. J. Fox, Gaussian, Inc., Wallingford CT, 2019.
 
 ******************************************
 Gaussian 16:  AS64L-G16RevC.01  3-Jul-2019
                 9-May-2025 
 ******************************************
 %mem=20GB
 %nprocshared=32
 Will use up to   32 processors via shared memory.
 %chk=2-Me-ph-opt-freq-thf.chk
 ----------------------------------------------------------------------
 # opt=(calcfc,tight) freq 6-311+g(d,p) scrf=(smd,solvent=thf) nosymm s
 cf=(qc,fermi,xqc) geom=connectivity int=ultrafine m062x
 ----------------------------------------------------------------------
 1/7=10,10=4,18=20,19=15,26=6,38=1,57=2/1,3;
 2/9=110,12=2,15=1,17=6,18=5,40=1/2;
 3/5=4,6=6,7=111,11=2,25=1,30=1,70=32201,71=2,72=20,74=-55,75=-5,140=1/1,2,3;
 4//1;
 5/5=2,22=13,38=5,53=20/2;
 8/6=4,10=90,11=11/1;
 11/6=1,8=1,9=11,15=111,16=1,31=1/1,2,10;
 10/6=1,13=1,31=1/2;
 6/7=2,8=2,9=2,10=2,28=1/1;
 7/10=1,25=1,30=1/1,2,3,16;
 1/7=10,10=4,18=20,19=15,26=6/3(2);
 2/9=110,15=1/2;
 99//99;
 2/9=110,15=1/2;
 3/5=4,6=6,7=111,11=2,25=1,30=1,70=32205,71=1,72=20,74=-55,75=-5/1,2,3;
 4/5=5,16=3,69=1/1;
 5/5=2,22=13,38=5,53=20/2;
 7/30=1/1,2,3,16;
 1/7=10,18=20,19=15,26=6/3(-5);
 2/9=110,15=1/2;
 6/7=2,8=2,9=2,10=2,19=2,28=1/1;
 99/9=1/99;
 --------------------
 2-Me-ph-opt-freq-thf
 --------------------
 Symbolic Z-matrix:
 Charge =  0 Multiplicity = 2
 C                     6.29649   7.01456   5.13071 
 C                     5.20104   6.14366   5.21469 
 H                     5.31837   5.17324   5.69021 
 C                     3.95816   6.47077   4.68261 
 H                     3.13148   5.7734    4.75363 
 C                     3.79248   7.70248   4.06041 
 C                     4.86533   8.585     3.974 
 H                     4.72676   9.54831   3.49366 
 C                     6.12093   8.26038   4.49245 
 H                     2.83032   7.97991   3.64411 
 C                     7.24598   9.25676   4.3616 
 H                     7.75649   9.41033   5.31427 
 H                     7.998     8.90555   3.65167 
 H                     6.86441   10.21764   4.01296 
 

 GradGradGradGradGradGradGradGradGradGradGradGradGradGradGradGradGradGrad
 Berny optimization.
 Initialization pass.
                           ----------------------------
                           !    Initial Parameters    !
                           ! (Angstroms and Degrees)  !
 --------------------------                            --------------------------
 ! Name  Definition              Value          Derivative Info.                !
 --------------------------------------------------------------------------------
 ! R1    R(1,2)                  1.402          calculate D2E/DX2 analytically  !
 ! R2    R(1,9)                  1.4108         calculate D2E/DX2 analytically  !
 ! R3    R(2,3)                  1.087          calculate D2E/DX2 analytically  !
 ! R4    R(2,4)                  1.391          calculate D2E/DX2 analytically  !
 ! R5    R(4,5)                  1.0839         calculate D2E/DX2 analytically  !
 ! R6    R(4,6)                  1.3898         calculate D2E/DX2 analytically  !
 ! R7    R(6,7)                  1.3919         calculate D2E/DX2 analytically  !
 ! R8    R(6,10)                 1.0845         calculate D2E/DX2 analytically  !
 ! R9    R(7,8)                  1.0853         calculate D2E/DX2 analytically  !
 ! R10   R(7,9)                  1.3967         calculate D2E/DX2 analytically  !
 ! R11   R(9,11)                 1.5085         calculate D2E/DX2 analytically  !
 ! R12   R(11,12)                1.0917         calculate D2E/DX2 analytically  !
 ! R13   R(11,13)                1.0922         calculate D2E/DX2 analytically  !
 ! R14   R(11,14)                1.0911         calculate D2E/DX2 analytically  !
 ! A1    A(2,1,9)              118.5833         calculate D2E/DX2 analytically  !
 ! A2    A(1,2,3)              119.7645         calculate D2E/DX2 analytically  !
 ! A3    A(1,2,4)              121.949          calculate D2E/DX2 analytically  !
 ! A4    A(3,2,4)              118.2758         calculate D2E/DX2 analytically  !
 ! A5    A(2,4,5)              120.3395         calculate D2E/DX2 analytically  !
 ! A6    A(2,4,6)              119.0889         calculate D2E/DX2 analytically  !
 ! A7    A(5,4,6)              120.5716         calculate D2E/DX2 analytically  !
 ! A8    A(4,6,7)              119.8552         calculate D2E/DX2 analytically  !
 ! A9    A(4,6,10)             120.2872         calculate D2E/DX2 analytically  !
 ! A10   A(7,6,10)             119.8574         calculate D2E/DX2 analytically  !
 ! A11   A(6,7,8)              119.4613         calculate D2E/DX2 analytically  !
 ! A12   A(6,7,9)              121.5021         calculate D2E/DX2 analytically  !
 ! A13   A(8,7,9)              119.0365         calculate D2E/DX2 analytically  !
 ! A14   A(1,9,7)              119.0162         calculate D2E/DX2 analytically  !
 ! A15   A(1,9,11)             121.986          calculate D2E/DX2 analytically  !
 ! A16   A(7,9,11)             118.9963         calculate D2E/DX2 analytically  !
 ! A17   A(9,11,12)            111.4679         calculate D2E/DX2 analytically  !
 ! A18   A(9,11,13)            110.9466         calculate D2E/DX2 analytically  !
 ! A19   A(9,11,14)            110.4009         calculate D2E/DX2 analytically  !
 ! A20   A(12,11,13)           106.8872         calculate D2E/DX2 analytically  !
 ! A21   A(12,11,14)           108.5724         calculate D2E/DX2 analytically  !
 ! A22   A(13,11,14)           108.4382         calculate D2E/DX2 analytically  !
 ! D1    D(9,1,2,3)            179.1576         calculate D2E/DX2 analytically  !
 ! D2    D(9,1,2,4)              0.3679         calculate D2E/DX2 analytically  !
 ! D3    D(2,1,9,7)              0.3104         calculate D2E/DX2 analytically  !
 ! D4    D(2,1,9,11)           179.8682         calculate D2E/DX2 analytically  !
 ! D5    D(1,2,4,5)            179.3861         calculate D2E/DX2 analytically  !
 ! D6    D(1,2,4,6)             -0.6356         calculate D2E/DX2 analytically  !
 ! D7    D(3,2,4,5)              0.5792         calculate D2E/DX2 analytically  !
 ! D8    D(3,2,4,6)           -179.4425         calculate D2E/DX2 analytically  !
 ! D9    D(2,4,6,7)              0.2162         calculate D2E/DX2 analytically  !
 ! D10   D(2,4,6,10)          -179.6341         calculate D2E/DX2 analytically  !
 ! D11   D(5,4,6,7)           -179.8056         calculate D2E/DX2 analytically  !
 ! D12   D(5,4,6,10)             0.3442         calculate D2E/DX2 analytically  !
 ! D13   D(4,6,7,8)           -179.5232         calculate D2E/DX2 analytically  !
 ! D14   D(4,6,7,9)              0.4661         calculate D2E/DX2 analytically  !
 ! D15   D(10,6,7,8)             0.3276         calculate D2E/DX2 analytically  !
 ! D16   D(10,6,7,9)          -179.6831         calculate D2E/DX2 analytically  !
 ! D17   D(6,7,9,1)             -0.7289         calculate D2E/DX2 analytically  !
 ! D18   D(6,7,9,11)           179.6999         calculate D2E/DX2 analytically  !
 ! D19   D(8,7,9,1)            179.2604         calculate D2E/DX2 analytically  !
 ! D20   D(8,7,9,11)            -0.3108         calculate D2E/DX2 analytically  !
 ! D21   D(1,9,11,12)          -48.5378         calculate D2E/DX2 analytically  !
 ! D22   D(1,9,11,13)           70.4597         calculate D2E/DX2 analytically  !
 ! D23   D(1,9,11,14)         -169.2957         calculate D2E/DX2 analytically  !
 ! D24   D(7,9,11,12)          131.0201         calculate D2E/DX2 analytically  !
 ! D25   D(7,9,11,13)         -109.9824         calculate D2E/DX2 analytically  !
 ! D26   D(7,9,11,14)           10.2622         calculate D2E/DX2 analytically  !
 --------------------------------------------------------------------------------
 Trust Radius=3.00D-01 FncErr=5.00D-06 GrdErr=5.00D-06 EigMax=2.50D+02 EigMin=1.00D-04
 Number of steps in this run=     72 maximum allowed number of steps=    100.
 GradGradGradGradGradGradGradGradGradGradGradGradGradGradGradGradGradGrad

                          Input orientation:                          
 ---------------------------------------------------------------------
 Center     Atomic      Atomic             Coordinates (Angstroms)
 Number     Number       Type             X           Y           Z
 ---------------------------------------------------------------------
      1          6           0        6.296488    7.014560    5.130707
      2          6           0        5.201042    6.143664    5.214694
      3          1           0        5.318370    5.173238    5.690209
      4          6           0        3.958163    6.470774    4.682606
      5          1           0        3.131479    5.773395    4.753630
      6          6           0        3.792481    7.702479    4.060408
      7          6           0        4.865333    8.584996    3.974002
      8          1           0        4.726760    9.548309    3.493659
      9          6           0        6.120932    8.260380    4.492452
     10          1           0        2.830316    7.979909    3.644110
     11          6           0        7.245982    9.256761    4.361604
     12          1           0        7.756488    9.410330    5.314266
     13          1           0        7.997997    8.905553    3.651667
     14          1           0        6.864414   10.217641    4.012963
 ---------------------------------------------------------------------
                    Distance matrix (angstroms):
                    1          2          3          4          5
     1  C    0.000000
     2  C    1.401968   0.000000
     3  H    2.158755   1.087017   0.000000
     4  C    2.442184   1.390995   2.132845   0.000000
     5  H    3.420520   2.152387   2.453540   1.083877   0.000000
     6  C    2.808705   2.397149   3.373670   1.389848   2.153798
     7  C    2.419182   2.759007   3.845868   2.407283   3.393990
     8  H    3.400567   3.844283   4.931134   3.387559   4.287473
     9  C    1.410765   2.418330   3.407224   2.813613   3.897453
    10  H    3.893099   3.385096   4.272509   2.151279   2.488059
    11  C    2.553532   3.821114   4.707020   4.321403   5.405244
    12  H    2.811585   4.148653   4.902928   4.844301   5.910357
    13  H    2.942541   4.230135   5.026552   4.828172   5.891327
    14  H    3.439712   4.561606   5.536191   4.788917   5.851044
                    6          7          8          9         10
     6  C    0.000000
     7  C    1.391874   0.000000
     8  H    2.145034   1.085313   0.000000
     9  C    2.433023   1.396673   2.144776   0.000000
    10  H    1.084451   2.148547   2.465566   3.409766   0.000000
    11  C    3.799103   2.503796   2.680449   1.508520   4.652231
    12  H    4.494693   3.291848   3.537358   2.161668   5.394691
    13  H    4.393270   3.165476   3.337528   2.155584   5.249933
    14  H    3.970524   2.581351   2.299401   2.147917   4.627898
                   11         12         13         14
    11  C    0.000000
    12  H    1.091680   0.000000
    13  H    1.092192   1.754241   0.000000
    14  H    1.091071   1.772269   1.771192   0.000000
 Symmetry turned off by external request.
 Stoichiometry    C7H7(2)
 Framework group  C1[X(C7H7)]
 Deg. of freedom    36
 Full point group                 C1      NOp   1
 Rotational constants (GHZ):           5.8484621           2.5277240           1.7842734
 Standard basis: 6-311+G(d,p) (5D, 7F)
   196 basis functions,   308 primitive gaussians,   203 cartesian basis functions
    25 alpha electrons       24 beta electrons
       nuclear repulsion energy       258.2602662263 Hartrees.
 NAtoms=   14 NActive=   14 NUniq=   14 SFac= 1.00D+00 NAtFMM=   60 NAOKFM=F Big=F
 Integral buffers will be    131072 words long.
 Raffenetti 2 integral format.
 Two-electron integral symmetry is turned off.
 Force inversion solution in PCM.
 ------------------------------------------------------------------------------
 Polarizable Continuum Model (PCM)
 =================================
 Model                : PCM.
 Atomic radii         : SMD-Coulomb.
 Polarization charges : Total charges.
 Charge compensation  : None.
 Solution method      : Matrix inversion.
 Cavity type          : VdW (van der Waals Surface) (Alpha=1.000).
 Cavity algorithm     : GePol (No added spheres)
                        Default sphere list used, NSphG=   14.
                        Lebedev-Laikov grids with approx.  5.0 points / Ang**2.
                        Smoothing algorithm: York/Karplus (Gamma=1.0000).
                        Polarization charges: spherical gaussians, with
                                              point-specific exponents (IZeta= 3).
                        Self-potential: point-specific (ISelfS= 7).
                        Self-field    : sphere-specific E.n sum rule (ISelfD= 2).
 1st derivatives      : Analytical E(r).r(x)/FMM algorithm (CHGder, D1EAlg=3).
                        Cavity 1st derivative terms included.
 2nd derivatives      : Analytical E(r).r(xy)/FMM algorithm (CHGder, D2EAlg=3).
                        Cavity 2nd derivative terms included.
 Solvent              : TetraHydroFuran, Eps=   7.425700 Eps(inf)=   1.974025
 ------------------------------------------------------------------------------
 Spheres list:
 ISph  on   Nord     Re0    Alpha      Xe            Ye            Ze
    1   C      1    1.8500  1.000      6.296488      7.014560      5.130707
    2   C      2    1.8500  1.000      5.201042      6.143664      5.214694
    3   H      3    1.2000  1.000      5.318370      5.173238      5.690209
    4   C      4    1.8500  1.000      3.958163      6.470774      4.682606
    5   H      5    1.2000  1.000      3.131479      5.773395      4.753630
    6   C      6    1.8500  1.000      3.792481      7.702479      4.060408
    7   C      7    1.8500  1.000      4.865333      8.584996      3.974002
    8   H      8    1.2000  1.000      4.726760      9.548309      3.493659
    9   C      9    1.8500  1.000      6.120932      8.260380      4.492452
   10   H     10    1.2000  1.000      2.830316      7.979909      3.644110
   11   C     11    1.8500  1.000      7.245982      9.256761      4.361604
   12   H     12    1.2000  1.000      7.756488      9.410330      5.314266
   13   H     13    1.2000  1.000      7.997997      8.905553      3.651667
   14   H     14    1.2000  1.000      6.864414     10.217641      4.012963
 ------------------------------------------------------------------------------
 ------------------------------------------------------------------------------
 Atomic radii for non-electrostatic terms: SMD-CDS.
 ------------------------------------------------------------------------------
 Nuclear repulsion after PCM non-electrostatic terms =      258.2573500162 Hartrees.
 One-electron integrals computed using PRISM.
 NBasis=   196 RedAO= T EigKep=  3.77D-06  NBF=   196
 NBsUse=   196 1.00D-06 EigRej= -1.00D+00 NBFU=   196
 ExpMin= 4.38D-02 ExpMax= 4.56D+03 ExpMxC= 6.82D+02 IAcc=3 IRadAn=         5 AccDes= 0.00D+00
 Harris functional with IExCor= 1009 and IRadAn=       5 diagonalized for initial guess.
 HarFok:  IExCor= 1009 AccDes= 0.00D+00 IRadAn=         5 IDoV= 1 UseB2=F ITyADJ=14
 ICtDFT=  3500011 ScaDFX=  1.000000  1.000000  1.000000  1.000000
 FoFCou: FMM=F IPFlag=           0 FMFlag=      100000 FMFlg1=           0
         NFxFlg=           0 DoJE=T BraDBF=F KetDBF=T FulRan=T
         wScrn=  0.000000 ICntrl=       500 IOpCl=  0 I1Cent=   200000004 NGrid=           0
         NMat0=    1 NMatS0=      1 NMatT0=    0 NMatD0=    1 NMtDS0=    0 NMtDT0=    0
 Symmetry not used in FoFCou.
 Initial guess <Sx>= 0.0000 <Sy>= 0.0000 <Sz>= 0.5000 <S**2>= 0.7500 S= 0.5000
 Requested convergence on RMS density matrix=1.00D-08 within 128 cycles.
 Requested convergence on MAX density matrix=1.00D-06.
 Requested convergence on             energy=1.00D-06.
 Level shift goal  0.100 maximum shift  0.100.
 No special actions if energy rises.
 Dynamic level shift is on during FON iterations.
 Inv3:  Mode=1 IEnd=     4071675.
 Iteration    1 A*A^-1 deviation from unit magnitude is 4.00D-15 for   1141.
 Iteration    1 A*A^-1 deviation from orthogonality  is 2.87D-15 for   1154   1024.
 Iteration    1 A^-1*A deviation from unit magnitude is 3.77D-15 for   1141.
 Iteration    1 A^-1*A deviation from orthogonality  is 2.36D-14 for   1077   1029.
 Error on total polarization charges =  0.04075
 SCF Done:  E(UM062X) =  -270.822822368     A.U. after   17 cycles
            NFock= 17  Conv=0.40D-08     -V/T= 2.0046
 <Sx>= 0.0000 <Sy>= 0.0000 <Sz>= 0.5000 <S**2>= 0.7635 S= 0.5067
 <L.S>=  0.00000000000    
 SMD-CDS (non-electrostatic) energy       (kcal/mol) =      -1.83
 (included in total energy above)
 Annihilation of the first spin contaminant:
 S**2 before annihilation     0.7635,   after     0.7501
 DoSCS=F DFT=T ScalE2(SS,OS)=  1.000000  1.000000
 Range of M.O.s used for correlation:     1   196
 NBasis=   196 NAE=    25 NBE=    24 NFC=     0 NFV=     0
 NROrb=    196 NOA=    25 NOB=    24 NVA=   171 NVB=   172

 **** Warning!!: The largest alpha MO coefficient is  0.13522876D+03


 **** Warning!!: The largest beta MO coefficient is  0.14011513D+03

 Symmetrizing basis deriv contribution to polar:
 IMax=3 JMax=2 DiffMx= 0.00D+00
 G2DrvN: will do    15 centers at a time, making    1 passes.
 Calling FoFCou, ICntrl=  3107 FMM=F I1Cent=   0 AccDes= 0.00D+00.
 NEqPCM:  Using equilibrium solvation (IEInf=0, Eps=   7.4257, EpsInf=   1.9740)
 G2PCM: DoFxE=T DoFxN=T DoGrad=T DoDP/DQ/DG/TGxP=FFFF NFrqRd=   0 IEInf=0 SqF1=F DoCFld=F IF1Alg=4.
 End of G2Drv F.D. properties file   721 does not exist.
 End of G2Drv F.D. properties file   722 does not exist.
 End of G2Drv F.D. properties file   788 does not exist.
          IDoAtm=11111111111111
 NEqPCM:  Using equilibrium solvation (IEInf=0, Eps=   7.4257, EpsInf=   1.9740)
          Differentiating once with respect to nuclear coordinates.
 Keep R1 and R2 ints in memory in canonical form, NReq=405643480.
          There are    45 degrees of freedom in the 1st order CPHF.  IDoFFX=6 NUNeed=     0.
     39 vectors produced by pass  0 Test12= 1.87D-14 2.22D-09 XBig12= 2.27D-01 1.26D-01.
 AX will form    39 AO Fock derivatives at one time.
     39 vectors produced by pass  1 Test12= 1.87D-14 2.22D-09 XBig12= 3.17D-02 4.79D-02.
     39 vectors produced by pass  2 Test12= 1.87D-14 2.22D-09 XBig12= 6.59D-04 6.81D-03.
     39 vectors produced by pass  3 Test12= 1.87D-14 2.22D-09 XBig12= 1.58D-05 1.38D-03.
     39 vectors produced by pass  4 Test12= 1.87D-14 2.22D-09 XBig12= 2.19D-07 1.18D-04.
     39 vectors produced by pass  5 Test12= 1.87D-14 2.22D-09 XBig12= 2.37D-09 5.16D-06.
     37 vectors produced by pass  6 Test12= 1.87D-14 2.22D-09 XBig12= 1.67D-11 6.16D-07.
     19 vectors produced by pass  7 Test12= 1.87D-14 2.22D-09 XBig12= 1.15D-13 3.40D-08.
 InvSVY:  IOpt=1 It=  1 EMax= 1.11D-15
 Solved reduced A of dimension   290 with    39 vectors.
 End of Minotr F.D. properties file   721 does not exist.
 End of Minotr F.D. properties file   722 does not exist.
 End of Minotr F.D. properties file   788 does not exist.

 **********************************************************************

            Population analysis using the SCF Density.

 **********************************************************************

 Alpha  occ. eigenvalues --  -10.57688 -10.56168 -10.55109 -10.54582 -10.54473
 Alpha  occ. eigenvalues --  -10.54298 -10.52718  -0.96925  -0.87369  -0.84314
 Alpha  occ. eigenvalues --   -0.77612  -0.68670  -0.66380  -0.57823  -0.53464
 Alpha  occ. eigenvalues --   -0.51331  -0.48675  -0.47844  -0.45792  -0.43420
 Alpha  occ. eigenvalues --   -0.43000  -0.40210  -0.32278  -0.31700  -0.30338
 Alpha virt. eigenvalues --    0.00986   0.01814   0.02044   0.03276   0.03979
 Alpha virt. eigenvalues --    0.05430   0.05694   0.06113   0.07353   0.08288
 Alpha virt. eigenvalues --    0.08496   0.08870   0.09734   0.11086   0.12738
 Alpha virt. eigenvalues --    0.14166   0.14265   0.14623   0.15277   0.16074
 Alpha virt. eigenvalues --    0.16343   0.18331   0.18877   0.19334   0.20696
 Alpha virt. eigenvalues --    0.21170   0.21765   0.22543   0.23192   0.23588
 Alpha virt. eigenvalues --    0.24519   0.25143   0.25168   0.26106   0.26839
 Alpha virt. eigenvalues --    0.27633   0.28696   0.29578   0.32875   0.35674
 Alpha virt. eigenvalues --    0.36620   0.37397   0.38897   0.45645   0.48588
 Alpha virt. eigenvalues --    0.49191   0.52653   0.54731   0.56287   0.57558
 Alpha virt. eigenvalues --    0.59171   0.59679   0.60244   0.60341   0.62482
 Alpha virt. eigenvalues --    0.62855   0.65259   0.67009   0.67456   0.68434
 Alpha virt. eigenvalues --    0.69436   0.71579   0.72759   0.73789   0.75019
 Alpha virt. eigenvalues --    0.77954   0.79108   0.80616   0.84193   0.86360
 Alpha virt. eigenvalues --    0.86595   0.88218   0.89881   0.91450   0.93483
 Alpha virt. eigenvalues --    0.95737   0.99672   1.00983   1.02912   1.05866
 Alpha virt. eigenvalues --    1.07841   1.09521   1.15379   1.18807   1.23391
 Alpha virt. eigenvalues --    1.23722   1.38764   1.41560   1.42594   1.51004
 Alpha virt. eigenvalues --    1.52591   1.53949   1.56020   1.56959   1.60599
 Alpha virt. eigenvalues --    1.61610   1.62044   1.64647   1.67510   1.69633
 Alpha virt. eigenvalues --    1.70176   1.73925   1.75715   1.78046   1.79497
 Alpha virt. eigenvalues --    1.83580   1.86044   1.87281   1.92449   1.93088
 Alpha virt. eigenvalues --    1.95894   1.96578   1.98709   2.01848   2.02795
 Alpha virt. eigenvalues --    2.04089   2.06907   2.09601   2.19705   2.23935
 Alpha virt. eigenvalues --    2.25029   2.33932   2.35963   2.39580   2.41904
 Alpha virt. eigenvalues --    2.43524   2.49173   2.54319   2.55859   2.56925
 Alpha virt. eigenvalues --    2.59396   2.62387   2.65522   2.69470   2.71118
 Alpha virt. eigenvalues --    2.72485   2.73933   2.75619   2.77827   2.79330
 Alpha virt. eigenvalues --    2.85328   2.86823   2.87566   2.92823   2.94416
 Alpha virt. eigenvalues --    2.95494   2.98440   3.09788   3.13745   3.20867
 Alpha virt. eigenvalues --    3.25169   3.39963   3.43494   3.56728   3.57156
 Alpha virt. eigenvalues --    3.67342   3.82297   3.84110   3.91804   4.07104
 Alpha virt. eigenvalues --    4.10876   4.17204   4.35622   4.83323  23.60947
 Alpha virt. eigenvalues --   23.98077  23.98940  24.05411  24.12560  24.16466
 Alpha virt. eigenvalues --   24.24873
  Beta  occ. eigenvalues --  -10.56658 -10.56159 -10.55106 -10.54513 -10.54414
  Beta  occ. eigenvalues --  -10.54317 -10.52693  -0.96188  -0.87061  -0.83141
  Beta  occ. eigenvalues --   -0.77064  -0.67666  -0.65450  -0.57022  -0.52734
  Beta  occ. eigenvalues --   -0.50598  -0.48506  -0.47448  -0.45067  -0.42646
  Beta  occ. eigenvalues --   -0.42258  -0.39666  -0.30872  -0.29669
  Beta virt. eigenvalues --   -0.06755   0.01741   0.02060   0.02080   0.03285
  Beta virt. eigenvalues --    0.04268   0.05459   0.05613   0.06495   0.07445
  Beta virt. eigenvalues --    0.08103   0.08579   0.09153   0.09472   0.11186
  Beta virt. eigenvalues --    0.12726   0.13864   0.14021   0.14528   0.15460
  Beta virt. eigenvalues --    0.16163   0.16325   0.18047   0.18611   0.19211
  Beta virt. eigenvalues --    0.20624   0.21417   0.21998   0.22648   0.23395
  Beta virt. eigenvalues --    0.23452   0.24681   0.25187   0.25348   0.25653
  Beta virt. eigenvalues --    0.27046   0.27474   0.28869   0.29531   0.32771
  Beta virt. eigenvalues --    0.35822   0.37555   0.37780   0.39196   0.45527
  Beta virt. eigenvalues --    0.46748   0.49667   0.51047   0.54653   0.56396
  Beta virt. eigenvalues --    0.57582   0.58557   0.59661   0.59941   0.60533
  Beta virt. eigenvalues --    0.62388   0.63024   0.65290   0.67024   0.67723
  Beta virt. eigenvalues --    0.68305   0.70139   0.72321   0.72549   0.73890
  Beta virt. eigenvalues --    0.74813   0.77528   0.79621   0.80525   0.84328
  Beta virt. eigenvalues --    0.86325   0.86628   0.87478   0.90208   0.91542
  Beta virt. eigenvalues --    0.92954   0.94649   0.99833   1.01321   1.02865
  Beta virt. eigenvalues --    1.06352   1.07898   1.09593   1.15571   1.19255
  Beta virt. eigenvalues --    1.22812   1.25546   1.38850   1.41717   1.43175
  Beta virt. eigenvalues --    1.51429   1.52602   1.55160   1.56283   1.57829
  Beta virt. eigenvalues --    1.60723   1.61795   1.62251   1.64685   1.67677
  Beta virt. eigenvalues --    1.69746   1.70939   1.74102   1.76137   1.78073
  Beta virt. eigenvalues --    1.80137   1.83820   1.86401   1.87400   1.92558
  Beta virt. eigenvalues --    1.93485   1.96115   1.96900   1.98976   2.02211
  Beta virt. eigenvalues --    2.03329   2.04295   2.06983   2.09960   2.19934
  Beta virt. eigenvalues --    2.24236   2.25131   2.34189   2.36491   2.39715
  Beta virt. eigenvalues --    2.42171   2.43622   2.49216   2.54551   2.55872
  Beta virt. eigenvalues --    2.57105   2.59575   2.62520   2.65504   2.69826
  Beta virt. eigenvalues --    2.71253   2.72578   2.74028   2.75741   2.77867
  Beta virt. eigenvalues --    2.79671   2.85396   2.87044   2.87919   2.93030
  Beta virt. eigenvalues --    2.94437   2.95665   2.98136   3.11935   3.13750
  Beta virt. eigenvalues --    3.21370   3.25153   3.40313   3.43734   3.56776
  Beta virt. eigenvalues --    3.57508   3.68182   3.82610   3.84137   3.91934
  Beta virt. eigenvalues --    4.07105   4.10855   4.17429   4.35634   4.83577
  Beta virt. eigenvalues --   23.61191  23.98618  23.99000  24.05448  24.12765
  Beta virt. eigenvalues --   24.16458  24.24883
          Condensed to atoms (all electrons):
               1          2          3          4          5          6
     1  C    6.949886  -0.202620  -0.009155   0.348153  -0.025934  -0.513122
     2  C   -0.202620   5.830241   0.357787   0.062141   0.002411   0.448865
     3  H   -0.009155   0.357787   0.464505   0.004893  -0.005786  -0.017525
     4  C    0.348153   0.062141   0.004893   5.402461   0.380230   0.142793
     5  H   -0.025934   0.002411  -0.005786   0.380230   0.455784   0.006342
     6  C   -0.513122   0.448865  -0.017525   0.142793   0.006342   5.694179
     7  C   -0.237852  -0.667504  -0.002267   0.372065  -0.024119  -0.300641
     8  H   -0.012855   0.002642   0.000046  -0.012912  -0.000169   0.015940
     9  C   -0.343958   0.716681   0.001968  -0.716446   0.019806   0.609405
    10  H    0.002966  -0.020973  -0.000149   0.017403  -0.004810   0.349282
    11  C   -0.073882  -0.240237   0.006970   0.140237   0.000812  -0.228583
    12  H    0.088820   0.017895  -0.000009  -0.000334   0.000000   0.002114
    13  H   -0.037248   0.004608   0.000002  -0.006953   0.000001   0.007679
    14  H   -0.094466  -0.004716   0.000006   0.001838  -0.000001   0.029251
               7          8          9         10         11         12
     1  C   -0.237852  -0.012855  -0.343958   0.002966  -0.073882   0.088820
     2  C   -0.667504   0.002642   0.716681  -0.020973  -0.240237   0.017895
     3  H   -0.002267   0.000046   0.001968  -0.000149   0.006970  -0.000009
     4  C    0.372065  -0.012912  -0.716446   0.017403   0.140237  -0.000334
     5  H   -0.024119  -0.000169   0.019806  -0.004810   0.000812   0.000000
     6  C   -0.300641   0.015940   0.609405   0.349282  -0.228583   0.002114
     7  C    7.744164   0.300427  -1.132065   0.008296   0.457714  -0.090497
     8  H    0.300427   0.458919   0.033091  -0.004681   0.025393   0.000443
     9  C   -1.132065   0.033091   7.406306  -0.005332  -0.969678  -0.048593
    10  H    0.008296  -0.004681  -0.005332   0.458908   0.005905   0.000004
    11  C    0.457714   0.025393  -0.969678   0.005905   6.490627   0.391859
    12  H   -0.090497   0.000443  -0.048593   0.000004   0.391859   0.500612
    13  H   -0.047577   0.000397   0.087868   0.000003   0.353312  -0.029346
    14  H    0.181439  -0.000242  -0.198262  -0.000007   0.452814  -0.025289
              13         14
     1  C   -0.037248  -0.094466
     2  C    0.004608  -0.004716
     3  H    0.000002   0.000006
     4  C   -0.006953   0.001838
     5  H    0.000001  -0.000001
     6  C    0.007679   0.029251
     7  C   -0.047577   0.181439
     8  H    0.000397  -0.000242
     9  C    0.087868  -0.198262
    10  H    0.000003  -0.000007
    11  C    0.353312   0.452814
    12  H   -0.029346  -0.025289
    13  H    0.480326  -0.020936
    14  H   -0.020936   0.496515
          Atomic-Atomic Spin Densities.
               1          2          3          4          5          6
     1  C    1.430526  -0.359153   0.014960   0.165292   0.006091  -0.183258
     2  C   -0.359153   0.227821  -0.002920  -0.162765  -0.007157   0.144523
     3  H    0.014960  -0.002920   0.022139   0.001969   0.001138  -0.005613
     4  C    0.165292  -0.162765   0.001969   0.192046   0.006024  -0.110204
     5  H    0.006091  -0.007157   0.001138   0.006024   0.003408  -0.004625
     6  C   -0.183258   0.144523  -0.005613  -0.110204  -0.004625   0.038713
     7  C    0.144557  -0.146736   0.005300   0.136064   0.003330  -0.135975
     8  H    0.006197  -0.002597   0.000015   0.001327   0.000036  -0.003708
     9  C   -0.339258   0.296304  -0.019429  -0.174675  -0.004431   0.174044
    10  H   -0.001105  -0.000275  -0.000028  -0.002803  -0.000487   0.006615
    11  C   -0.095469   0.071411  -0.002652  -0.036939  -0.000276   0.040980
    12  H   -0.004999  -0.001485  -0.000003  -0.001271   0.000000   0.001556
    13  H    0.005807   0.000757   0.000000  -0.000244   0.000000   0.000270
    14  H   -0.004578   0.001282  -0.000002   0.000357  -0.000001  -0.001010
               7          8          9         10         11         12
     1  C    0.144557   0.006197  -0.339258  -0.001105  -0.095469  -0.004999
     2  C   -0.146736  -0.002597   0.296304  -0.000275   0.071411  -0.001485
     3  H    0.005300   0.000015  -0.019429  -0.000028  -0.002652  -0.000003
     4  C    0.136064   0.001327  -0.174675  -0.002803  -0.036939  -0.001271
     5  H    0.003330   0.000036  -0.004431  -0.000487  -0.000276   0.000000
     6  C   -0.135975  -0.003708   0.174044   0.006615   0.040980   0.001556
     7  C    0.420600  -0.000718  -0.312429  -0.002802  -0.083547  -0.007439
     8  H   -0.000718   0.006638   0.001351  -0.000644  -0.002182   0.000034
     9  C   -0.312429   0.001351   0.372726   0.000138   0.081423   0.009280
    10  H   -0.002802  -0.000644   0.000138   0.005130   0.000341  -0.000001
    11  C   -0.083547  -0.002182   0.081423   0.000341   0.075433   0.005226
    12  H   -0.007439   0.000034   0.009280  -0.000001   0.005226  -0.004540
    13  H   -0.008877  -0.000014   0.002105   0.000000   0.000133   0.001302
    14  H    0.015450  -0.000599  -0.010297   0.000009  -0.000786   0.000005
              13         14
     1  C    0.005807  -0.004578
     2  C    0.000757   0.001282
     3  H    0.000000  -0.000002
     4  C   -0.000244   0.000357
     5  H    0.000000  -0.000001
     6  C    0.000270  -0.001010
     7  C   -0.008877   0.015450
     8  H   -0.000014  -0.000599
     9  C    0.002105  -0.010297
    10  H    0.000000   0.000009
    11  C    0.000133  -0.000786
    12  H    0.001302   0.000005
    13  H   -0.003574   0.000122
    14  H    0.000122  -0.000384
 Mulliken charges and spin densities:
               1          2
     1  C    0.161267   0.785609
     2  C   -0.307221   0.059009
     3  H    0.198715   0.014874
     4  C   -0.135570   0.014176
     5  H    0.195433   0.003051
     6  C   -0.245979  -0.037691
     7  C   -0.561584   0.026777
     8  H    0.193562   0.005137
     9  C    0.539210   0.076852
    10  H    0.193185   0.004089
    11  C   -0.813263   0.053095
    12  H    0.192320  -0.002336
    13  H    0.207865  -0.002211
    14  H    0.182058  -0.000431
 Sum of Mulliken charges =   0.00000   1.00000
 Mulliken charges and spin densities with hydrogens summed into heavy atoms:
               1          2
     1  C    0.161267   0.785609
     2  C   -0.108506   0.073883
     4  C    0.059864   0.017227
     6  C   -0.052794  -0.033603
     7  C   -0.368021   0.031914
     9  C    0.539210   0.076852
    11  C   -0.231019   0.048117
 APT charges:
               1
     1  C    0.876402
     2  C   -0.740790
     3  H   -0.122740
     4  C   -0.045862
     5  H   -0.846178
     6  C   -0.377383
     7  C   -1.926656
     8  H    1.182458
     9  C    3.121046
    10  H   -0.172227
    11  C   -3.663037
    12  H    1.542753
    13  H    0.205371
    14  H    0.966844
 Sum of APT charges =   0.00000
 APT charges with hydrogens summed into heavy atoms:
               1
     1  C    0.876402
     2  C   -0.863531
     4  C   -0.892040
     6  C   -0.549610
     7  C   -0.744199
     9  C    3.121046
    11  C   -0.948069
 Electronic spatial extent (au):  <R**2>=          19744.4243
 Charge=              0.0000 electrons
 Dipole moment (field-independent basis, Debye):
    X=             -0.5995    Y=              0.6374    Z=             -0.5118  Tot=              1.0137
 Quadrupole moment (field-independent basis, Debye-Ang):
   XX=            -44.8957   YY=            -28.0797   ZZ=            -49.1507
   XY=              1.4504   XZ=             -4.4087   YZ=             -4.1005
 Traceless Quadrupole moment (field-independent basis, Debye-Ang):
   XX=             -4.1870   YY=             12.6290   ZZ=             -8.4420
   XY=              1.4504   XZ=             -4.4087   YZ=             -4.1005
 Octapole moment (field-independent basis, Debye-Ang**2):
  XXX=           -680.4103  YYY=           -762.8948  ZZZ=           -638.5305  XYY=           -149.3176
  XXY=           -298.1763  XXZ=           -211.6345  XZZ=           -265.9548  YZZ=           -391.0195
  YYZ=           -202.8450  XYZ=            -20.5460
 Hexadecapole moment (field-independent basis, Debye-Ang**3):
 XXXX=          -7659.1764 YYYY=         -12716.8193 ZZZZ=          -5834.6089 XXXY=          -4981.0984
 XXXZ=          -3158.7292 YYYX=          -4072.4727 YYYZ=          -4161.7728 ZZZX=          -3426.9385
 ZZZY=          -4964.7977 XXYY=          -3200.4342 XXZZ=          -2369.1273 YYZZ=          -3953.2418
 XXYZ=          -1461.6574 YYXZ=           -990.0962 ZZXY=          -2073.7012
 N-N= 2.582573500162D+02 E-N=-1.144325289150D+03  KE= 2.695906695939D+02
  Exact polarizability:       0.000       0.000       0.000       0.000       0.000       0.000
 Approx polarizability:     112.879       7.324     105.124      10.954     -17.432      75.117
                          Isotropic Fermi Contact Couplings
        Atom                 a.u.       MegaHertz       Gauss      10(-4) cm-1
     1  C(13)              0.52696     592.39816     211.38239     197.60276
     2  C(13)              0.02033      22.85268       8.15441       7.62283
     3  H(1)               0.00981      43.86664      15.65271      14.63234
     4  C(13)              0.03752      42.18487      15.05261      14.07136
     5  H(1)               0.00172       7.67415       2.73833       2.55982
     6  C(13)             -0.00887      -9.97361      -3.55883      -3.32684
     7  C(13)              0.03470      39.00462      13.91782      13.01054
     8  H(1)               0.00302      13.49545       4.81551       4.50160
     9  C(13)              0.01959      22.01762       7.85643       7.34429
    10  H(1)               0.00151       6.72764       2.40059       2.24410
    11  C(13)              0.01720      19.33529       6.89931       6.44956
    12  H(1)              -0.00108      -4.80708      -1.71529      -1.60347
    13  H(1)              -0.00144      -6.42469      -2.29249      -2.14305
    14  H(1)              -0.00005      -0.20743      -0.07402      -0.06919
 --------------------------------------------------------
       Center         ----  Spin Dipole Couplings  ----
                      3XX-RR        3YY-RR        3ZZ-RR
 --------------------------------------------------------
     1   Atom        0.592551     -0.408657     -0.183894
     2   Atom        0.087248     -0.005046     -0.082202
     3   Atom        0.000518      0.010747     -0.011265
     4   Atom        0.037768     -0.031762     -0.006006
     5   Atom        0.006297     -0.001290     -0.005007
     6   Atom        0.025574      0.009669     -0.035243
     7   Atom        0.024975     -0.023875     -0.001101
     8   Atom       -0.003044      0.004889     -0.001845
     9   Atom       -0.003974      0.058167     -0.054193
    10   Atom        0.000852      0.000791     -0.001643
    11   Atom       -0.005876      0.017135     -0.011258
    12   Atom       -0.003222      0.009456     -0.006234
    13   Atom       -0.001247      0.001602     -0.000355
    14   Atom       -0.002942      0.005759     -0.002817
 --------------------------------------------------------
                        XY            XZ            YZ
 --------------------------------------------------------
     1   Atom       -0.348323      0.449553     -0.079155
     2   Atom        0.058476      0.030764     -0.028569
     3   Atom        0.016277     -0.003472     -0.006035
     4   Atom       -0.018964      0.022191      0.004548
     5   Atom        0.005993      0.000671      0.000054
     6   Atom        0.005421      0.021634     -0.028426
     7   Atom       -0.027679      0.024064     -0.002199
     8   Atom       -0.003475      0.002232     -0.005577
     9   Atom       -0.031405      0.044282     -0.085015
    10   Atom        0.000696      0.000658     -0.001282
    11   Atom        0.015708     -0.004882     -0.012723
    12   Atom        0.007637      0.001294      0.000503
    13   Atom        0.004941     -0.005128     -0.006343
    14   Atom        0.000603      0.000008     -0.003567
 --------------------------------------------------------


 ---------------------------------------------------------------------------------
              Anisotropic Spin Dipole Couplings in Principal Axis System
 ---------------------------------------------------------------------------------

       Atom             a.u.   MegaHertz   Gauss  10(-4) cm-1        Axes

              Baa    -0.5365   -71.997   -25.690   -24.016  0.3880  0.8718 -0.2989
     1 C(13)  Bbb    -0.3560   -47.778   -17.048   -15.937 -0.2608  0.4149  0.8717
              Bcc     0.8926   119.775    42.739    39.953  0.8840 -0.2603  0.3883
 
              Baa    -0.1047   -14.052    -5.014    -4.687 -0.2638  0.4056  0.8751
     2 C(13)  Bbb    -0.0121    -1.624    -0.580    -0.542 -0.3313  0.8140 -0.4771
              Bcc     0.1168    15.676     5.594     5.229  0.9059  0.4158  0.0803
 
              Baa    -0.0130    -6.930    -2.473    -2.312 -0.2511  0.3967  0.8829
     3 H(1)   Bbb    -0.0111    -5.902    -2.106    -1.969  0.7770 -0.4614  0.4283
              Bcc     0.0241    12.832     4.579     4.280  0.5773  0.7936 -0.1924
 
              Baa    -0.0400    -5.365    -1.914    -1.789  0.3102  0.8944 -0.3223
     4 C(13)  Bbb    -0.0102    -1.365    -0.487    -0.455 -0.2481  0.4035  0.8807
              Bcc     0.0502     6.730     2.401     2.245  0.9177 -0.1932  0.3470
 
              Baa    -0.0052    -2.756    -0.983    -0.919 -0.2412  0.3603  0.9011
     5 H(1)   Bbb    -0.0045    -2.378    -0.849    -0.793 -0.4184  0.7992 -0.4316
              Bcc     0.0096     5.134     1.832     1.712  0.8756  0.4811  0.0419
 
              Baa    -0.0550    -7.374    -2.631    -2.460 -0.2625  0.4069  0.8750
     6 C(13)  Bbb     0.0215     2.888     1.031     0.963  0.3853  0.8755 -0.2916
              Bcc     0.0334     4.486     1.601     1.496  0.8847 -0.2606  0.3866
 
              Baa    -0.0384    -5.154    -1.839    -1.719  0.4657  0.8488 -0.2503
     7 C(13)  Bbb    -0.0098    -1.314    -0.469    -0.438 -0.2769  0.4084  0.8698
              Bcc     0.0482     6.469     2.308     2.158  0.8405 -0.3357  0.4252
 
              Baa    -0.0051    -2.705    -0.965    -0.902 -0.3071  0.3812  0.8720
     8 H(1)   Bbb    -0.0043    -2.312    -0.825    -0.771  0.8982  0.4190  0.1332
              Bcc     0.0094     5.017     1.790     1.674 -0.3146  0.8241 -0.4710
 
              Baa    -0.1063   -14.265    -5.090    -4.758 -0.2556  0.4050  0.8779
     9 C(13)  Bbb    -0.0166    -2.230    -0.796    -0.744  0.8956  0.4412  0.0572
              Bcc     0.1229    16.494     5.886     5.502 -0.3641  0.8008 -0.4755
 
              Baa    -0.0024    -1.298    -0.463    -0.433 -0.2613  0.4050  0.8762
    10 H(1)   Bbb     0.0008     0.442     0.158     0.147  0.7834 -0.4414  0.4376
              Bcc     0.0016     0.856     0.305     0.286  0.5639  0.8007 -0.2019
 
              Baa    -0.0164    -2.206    -0.787    -0.736 -0.2821  0.4526  0.8459
    11 C(13)  Bbb    -0.0132    -1.767    -0.630    -0.589  0.8625 -0.2665  0.4302
              Bcc     0.0296     3.972     1.417     1.325  0.4201  0.8510 -0.3152
 
              Baa    -0.0075    -4.022    -1.435    -1.342  0.7320 -0.3110 -0.6062
    12 H(1)   Bbb    -0.0056    -2.965    -1.058    -0.989  0.5311 -0.2968  0.7936
              Bcc     0.0131     6.987     2.493     2.330  0.4267  0.9029  0.0521
 
              Baa    -0.0062    -3.304    -1.179    -1.102  0.4893  0.3426  0.8020
    13 H(1)   Bbb    -0.0049    -2.626    -0.937    -0.876  0.7158 -0.6831 -0.1450
              Bcc     0.0111     5.931     2.116     1.978  0.4982  0.6450 -0.5794
 
              Baa    -0.0041    -2.212    -0.789    -0.738 -0.1780  0.3430  0.9223
    14 H(1)   Bbb    -0.0029    -1.566    -0.559    -0.522  0.9824  0.0083  0.1865
              Bcc     0.0071     3.778     1.348     1.260  0.0563  0.9393 -0.3384
 

 ---------------------------------------------------------------------------------

 D2PCM: PCM CHGder 2nd derivatives, FixD1E=F FixD2E=F DoIter=F DoCFld=F I1PDM=0
 Calling FoFJK, ICntrl=    100127 FMM=F ISym2X=0 I1Cent= 0 IOpClX= 1 NMat=1 NMatS=1 NMatT=0.
 -------------------------------------------------------------------
 Center     Atomic                   Forces (Hartrees/Bohr)
 Number     Number              X              Y              Z
 -------------------------------------------------------------------
      1        6          -0.048347636    0.014671279   -0.021272092
      2        6           0.027052796   -0.010161735    0.010721419
      3        1           0.000549938    0.000490052    0.000763814
      4        6          -0.000200174    0.007247112   -0.003140670
      5        1           0.001124038   -0.000753977    0.000862692
      6        6          -0.000576505    0.000328337   -0.000246416
      7        6          -0.004808697   -0.005640297    0.000617984
      8        1           0.001574143    0.000136011    0.000251311
      9        6           0.020944406   -0.005164047    0.010675485
     10        1           0.000207693   -0.000013242    0.000094953
     11        6           0.002042172   -0.000648295    0.001058801
     12        1          -0.000543226   -0.000079553    0.000765501
     13        1           0.000077090   -0.000257244   -0.001128537
     14        1           0.000903962   -0.000154400   -0.000024244
 -------------------------------------------------------------------
 Cartesian Forces:  Max     0.048347636 RMS     0.010542377
 FormGI is forming the generalized inverse of G from B-inverse, IUseBI=4.

 GradGradGradGradGradGradGradGradGradGradGradGradGradGradGradGradGradGrad
 Berny optimization.
 Internal  Forces:  Max     0.030621270 RMS     0.006541235
 Search for a local minimum.
 Step number   1 out of a maximum of   72
 All quantities printed in internal units (Hartrees-Bohrs-Radians)
 Mixed Optimization -- RFO/linear search
 Second derivative matrix not updated -- analytic derivatives used.
 ITU=  0
     Eigenvalues ---    0.00002   0.01744   0.01789   0.01907   0.02060
     Eigenvalues ---    0.02445   0.02689   0.02935   0.03174   0.05599
     Eigenvalues ---    0.05765   0.10545   0.11224   0.11931   0.12022
     Eigenvalues ---    0.12304   0.14492   0.14875   0.16577   0.18399
     Eigenvalues ---    0.19002   0.20476   0.25740   0.32115   0.34136
     Eigenvalues ---    0.34532   0.35105   0.35434   0.36139   0.36314
     Eigenvalues ---    0.36494   0.38629   0.41566   0.46043   0.47597
     Eigenvalues ---    0.50953
 RFO step:  Lambda=-1.04535830D-02 EMin= 2.09025105D-05
 Linear search not attempted -- first point.
 Iteration  1 RMS(Cart)=  0.03863987 RMS(Int)=  0.00142007
 Iteration  2 RMS(Cart)=  0.00261000 RMS(Int)=  0.00042789
 Iteration  3 RMS(Cart)=  0.00000123 RMS(Int)=  0.00042789
 Iteration  4 RMS(Cart)=  0.00000000 RMS(Int)=  0.00042789
 Variable       Old X    -DE/DX   Delta X   Delta X   Delta X     New X
                                 (Linear)    (Quad)   (Total)
    R1        2.64934  -0.02220   0.00000  -0.05972  -0.05902   2.59032
    R2        2.66596  -0.02136   0.00000  -0.06218  -0.06152   2.60444
    R3        2.05417  -0.00004   0.00000  -0.00453  -0.00453   2.04964
    R4        2.62860   0.00233   0.00000   0.01495   0.01500   2.64360
    R5        2.04823  -0.00032   0.00000   0.00055   0.00055   2.04878
    R6        2.62643   0.00329   0.00000   0.00335   0.00271   2.62914
    R7        2.63026   0.00255   0.00000   0.00428   0.00359   2.63385
    R8        2.04931  -0.00022   0.00000  -0.00080  -0.00080   2.04851
    R9        2.05094  -0.00019   0.00000   0.00114   0.00114   2.05209
   R10        2.63933   0.00104   0.00000   0.00735   0.00728   2.64661
   R11        2.85069   0.00104   0.00000  -0.00569  -0.00569   2.84500
   R12        2.06298   0.00040   0.00000   0.00025   0.00025   2.06322
   R13        2.06394   0.00087   0.00000   0.00163   0.00163   2.06557
   R14        2.06182  -0.00045   0.00000  -0.00046  -0.00046   2.06136
    A1        2.06967   0.03062   0.00000   0.13171   0.13349   2.20316
    A2        2.09028   0.00722   0.00000   0.03844   0.03807   2.12836
    A3        2.12841  -0.01603   0.00000  -0.08428  -0.08366   2.04475
    A4        2.06430   0.00882   0.00000   0.04614   0.04577   2.11007
    A5        2.10032  -0.00163   0.00000  -0.00797  -0.00762   2.09270
    A6        2.07849   0.00006   0.00000   0.00895   0.00826   2.08675
    A7        2.10437   0.00157   0.00000  -0.00098  -0.00064   2.10373
    A8        2.09187   0.00071   0.00000   0.01444   0.01301   2.10488
    A9        2.09941  -0.00031   0.00000  -0.00828  -0.00757   2.09184
   A10        2.09191  -0.00040   0.00000  -0.00616  -0.00545   2.08646
   A11        2.08499   0.00236   0.00000   0.00899   0.00940   2.09439
   A12        2.12061  -0.00147   0.00000  -0.00492  -0.00575   2.11486
   A13        2.07758  -0.00089   0.00000  -0.00407  -0.00365   2.07393
   A14        2.07722  -0.01388   0.00000  -0.06578  -0.06528   2.01195
   A15        2.12906   0.00227   0.00000   0.01393   0.01365   2.14271
   A16        2.07688   0.01161   0.00000   0.05192   0.05165   2.12852
   A17        1.94548  -0.00107   0.00000  -0.00819  -0.00819   1.93729
   A18        1.93638  -0.00051   0.00000  -0.00463  -0.00463   1.93175
   A19        1.92686   0.00128   0.00000   0.00331   0.00331   1.93017
   A20        1.86553   0.00092   0.00000   0.01075   0.01074   1.87628
   A21        1.89495  -0.00011   0.00000   0.00171   0.00172   1.89666
   A22        1.89260  -0.00051   0.00000  -0.00256  -0.00256   1.89005
    D1        3.12689   0.00049   0.00000   0.01177   0.01160   3.13849
    D2        0.00642  -0.00025   0.00000  -0.00597  -0.00600   0.00043
    D3        0.00542  -0.00009   0.00000  -0.00211  -0.00190   0.00352
    D4        3.13929   0.00038   0.00000   0.00857   0.00835  -3.13554
    D5        3.13088   0.00039   0.00000   0.00917   0.00899   3.13987
    D6       -0.01109   0.00038   0.00000   0.00863   0.00846  -0.00263
    D7        0.01011  -0.00033   0.00000  -0.00825  -0.00835   0.00176
    D8       -3.13186  -0.00033   0.00000  -0.00880  -0.00888  -3.14074
    D9        0.00377  -0.00010   0.00000  -0.00282  -0.00301   0.00076
   D10       -3.13521  -0.00009   0.00000  -0.00274  -0.00287  -3.13808
   D11       -3.13820  -0.00010   0.00000  -0.00337  -0.00354   3.14144
   D12        0.00601  -0.00010   0.00000  -0.00329  -0.00340   0.00260
   D13       -3.13327  -0.00008   0.00000  -0.00260  -0.00263  -3.13590
   D14        0.00813  -0.00015   0.00000  -0.00458  -0.00469   0.00345
   D15        0.00572  -0.00008   0.00000  -0.00269  -0.00277   0.00295
   D16       -3.13606  -0.00016   0.00000  -0.00467  -0.00483  -3.14089
   D17       -0.01272   0.00032   0.00000   0.00746   0.00737  -0.00536
   D18        3.13635  -0.00010   0.00000  -0.00275  -0.00263   3.13373
   D19        3.12868   0.00024   0.00000   0.00549   0.00533   3.13401
   D20       -0.00542  -0.00018   0.00000  -0.00472  -0.00467  -0.01009
   D21       -0.84715  -0.00020   0.00000  -0.00784  -0.00796  -0.85511
   D22        1.22975  -0.00008   0.00000  -0.00274  -0.00286   1.22690
   D23       -2.95477  -0.00021   0.00000  -0.00679  -0.00691  -2.96168
   D24        2.28673   0.00016   0.00000   0.00234   0.00245   2.28919
   D25       -1.91956   0.00028   0.00000   0.00744   0.00756  -1.91200
   D26        0.17911   0.00015   0.00000   0.00338   0.00351   0.18261
         Item               Value     Threshold  Converged?
 Maximum Force            0.030621     0.000015     NO 
 RMS     Force            0.006541     0.000010     NO 
 Maximum Displacement     0.156434     0.000060     NO 
 RMS     Displacement     0.039169     0.000040     NO 
 Predicted change in Energy=-5.460872D-03
 GradGradGradGradGradGradGradGradGradGradGradGradGradGradGradGradGradGrad

                          Input orientation:                          
 ---------------------------------------------------------------------
 Center     Atomic      Atomic             Coordinates (Angstroms)
 Number     Number       Type             X           Y           Z
 ---------------------------------------------------------------------
      1          6           0        6.213707    7.060397    5.084669
      2          6           0        5.212447    6.133461    5.215788
      3          1           0        5.374172    5.179408    5.705718
      4          6           0        3.961541    6.465356    4.684662
      5          1           0        3.138195    5.764271    4.762107
      6          6           0        3.785331    7.696510    4.061063
      7          6           0        4.842801    8.598911    3.960894
      8          1           0        4.692980    9.559351    3.476819
      9          6           0        6.107926    8.293495    4.478248
     10          1           0        2.817150    7.959901    3.650741
     11          6           0        7.264949    9.250759    4.371035
     12          1           0        7.759878    9.375965    5.336135
     13          1           0        8.011024    8.877035    3.665014
     14          1           0        6.924144   10.227170    4.024084
 ---------------------------------------------------------------------
                    Distance matrix (angstroms):
                    1          2          3          4          5
     1  C    0.000000
     2  C    1.370738   0.000000
     3  H    2.151427   1.084621   0.000000
     4  C    2.363542   1.398934   2.166043   0.000000
     5  H    3.353022   2.155145   2.496409   1.084166   0.000000
     6  C    2.710981   2.411052   3.400750   1.391282   2.154947
     7  C    2.347186   2.791029   3.875534   2.419198   3.403353
     8  H    3.338048   3.876929   4.961442   3.400984   4.297901
     9  C    1.378212   2.451855   3.426750   2.826953   3.911118
    10  H    3.794978   3.394511   4.300283   2.147624   2.481733
    11  C    2.532207   3.826738   4.683195   4.332359   5.416515
    12  H    2.795664   4.125254   4.841412   4.829433   5.893538
    13  H    2.923345   4.214752   4.978947   4.822260   5.885353
    14  H    3.414383   4.594401   5.541679   4.833697   5.898775
                    6          7          8          9         10
     6  C    0.000000
     7  C    1.393773   0.000000
     8  H    2.152985   1.085919   0.000000
     9  C    2.434107   1.400526   2.146467   0.000000
    10  H    1.084027   2.146577   2.471280   3.409583   0.000000
    11  C    3.823547   2.541637   2.740415   1.505507   4.687009
    12  H    4.499266   3.317293   3.591176   2.153290   5.410762
    13  H    4.405335   3.194141   3.392697   2.150268   5.274246
    14  H    4.032090   2.643332   2.392399   2.147458   4.706091
                   11         12         13         14
    11  C    0.000000
    12  H    1.091810   0.000000
    13  H    1.093053   1.762002   0.000000
    14  H    1.090825   1.773268   1.770057   0.000000
 Symmetry turned off by external request.
 Stoichiometry    C7H7(2)
 Framework group  C1[X(C7H7)]
 Deg. of freedom    36
 Full point group                 C1      NOp   1
 Rotational constants (GHZ):           5.9495567           2.5156353           1.7876271
 Standard basis: 6-311+G(d,p) (5D, 7F)
   196 basis functions,   308 primitive gaussians,   203 cartesian basis functions
    25 alpha electrons       24 beta electrons
       nuclear repulsion energy       259.0216109504 Hartrees.
 NAtoms=   14 NActive=   14 NUniq=   14 SFac= 1.00D+00 NAtFMM=   60 NAOKFM=F Big=F
 Integral buffers will be    131072 words long.
 Raffenetti 2 integral format.
 Two-electron integral symmetry is turned off.
 ------------------------------------------------------------------------------
 Polarizable Continuum Model (PCM)
 =================================
 Model                : PCM.
 Atomic radii         : SMD-Coulomb.
 Polarization charges : Total charges.
 Charge compensation  : None.
 Solution method      : Matrix inversion.
 Cavity type          : VdW (van der Waals Surface) (Alpha=1.000).
 Cavity algorithm     : GePol (No added spheres)
                        Default sphere list used, NSphG=   14.
                        Lebedev-Laikov grids with approx.  5.0 points / Ang**2.
                        Smoothing algorithm: York/Karplus (Gamma=1.0000).
                        Polarization charges: spherical gaussians, with
                                              point-specific exponents (IZeta= 3).
                        Self-potential: point-specific (ISelfS= 7).
                        Self-field    : sphere-specific E.n sum rule (ISelfD= 2).
 1st derivatives      : Analytical E(r).r(x)/FMM algorithm (CHGder, D1EAlg=3).
                        Cavity 1st derivative terms included.
 Solvent              : TetraHydroFuran, Eps=   7.425700 Eps(inf)=   1.974025
 ------------------------------------------------------------------------------
 Spheres list:
 ISph  on   Nord     Re0    Alpha      Xe            Ye            Ze
    1   C      1    1.8500  1.000      6.213707      7.060397      5.084669
    2   C      2    1.8500  1.000      5.212447      6.133461      5.215788
    3   H      3    1.2000  1.000      5.374172      5.179408      5.705718
    4   C      4    1.8500  1.000      3.961541      6.465356      4.684662
    5   H      5    1.2000  1.000      3.138195      5.764271      4.762107
    6   C      6    1.8500  1.000      3.785331      7.696510      4.061063
    7   C      7    1.8500  1.000      4.842801      8.598911      3.960894
    8   H      8    1.2000  1.000      4.692980      9.559351      3.476819
    9   C      9    1.8500  1.000      6.107926      8.293495      4.478248
   10   H     10    1.2000  1.000      2.817150      7.959901      3.650741
   11   C     11    1.8500  1.000      7.264949      9.250759      4.371035
   12   H     12    1.2000  1.000      7.759878      9.375965      5.336135
   13   H     13    1.2000  1.000      8.011024      8.877035      3.665014
   14   H     14    1.2000  1.000      6.924144     10.227170      4.024084
 ------------------------------------------------------------------------------
 ------------------------------------------------------------------------------
 Atomic radii for non-electrostatic terms: SMD-CDS.
 ------------------------------------------------------------------------------
 Nuclear repulsion after PCM non-electrostatic terms =      259.0186182581 Hartrees.
 One-electron integrals computed using PRISM.
 NBasis=   196 RedAO= T EigKep=  3.29D-06  NBF=   196
 NBsUse=   196 1.00D-06 EigRej= -1.00D+00 NBFU=   196
 Initial guess from the checkpoint file:  "2-Me-ph-opt-freq-thf.chk"
 B after Tr=    -0.006866    0.009225   -0.018703
         Rot=    1.000000   -0.000356   -0.000160   -0.000466 Ang=  -0.07 deg.
 Initial guess <Sx>= 0.0000 <Sy>= 0.0000 <Sz>= 0.5000 <S**2>= 0.7631 S= 0.5065
 ExpMin= 4.38D-02 ExpMax= 4.56D+03 ExpMxC= 6.82D+02 IAcc=3 IRadAn=         5 AccDes= 0.00D+00
 Harris functional with IExCor= 1009 and IRadAn=       5 diagonalized for initial guess.
 HarFok:  IExCor= 1009 AccDes= 0.00D+00 IRadAn=         5 IDoV= 1 UseB2=F ITyADJ=14
 ICtDFT=  3500011 ScaDFX=  1.000000  1.000000  1.000000  1.000000
 FoFCou: FMM=F IPFlag=           0 FMFlag=      100000 FMFlg1=           0
         NFxFlg=           0 DoJE=T BraDBF=F KetDBF=T FulRan=T
         wScrn=  0.000000 ICntrl=       500 IOpCl=  0 I1Cent=   200000004 NGrid=           0
         NMat0=    1 NMatS0=      1 NMatT0=    0 NMatD0=    1 NMtDS0=    0 NMtDT0=    0
 Symmetry not used in FoFCou.
 Requested convergence on RMS density matrix=1.00D-08 within 128 cycles.
 Requested convergence on MAX density matrix=1.00D-06.
 Requested convergence on             energy=1.00D-06.
 Level shift goal  0.100 maximum shift  0.100.
 No special actions if energy rises.
 Dynamic level shift is on during FON iterations.
 Inv3:  Mode=1 IEnd=     4029843.
 Iteration    1 A*A^-1 deviation from unit magnitude is 3.33D-15 for   1130.
 Iteration    1 A*A^-1 deviation from orthogonality  is 2.81D-15 for   1155    989.
 Iteration    1 A^-1*A deviation from unit magnitude is 3.33D-15 for   1142.
 Iteration    1 A^-1*A deviation from orthogonality  is 2.12D-14 for    833    788.
 Error on total polarization charges =  0.04078
 SCF Done:  E(UM062X) =  -270.828259593     A.U. after   15 cycles
            NFock= 15  Conv=0.57D-08     -V/T= 2.0042
 <Sx>= 0.0000 <Sy>= 0.0000 <Sz>= 0.5000 <S**2>= 0.7616 S= 0.5058
 <L.S>=  0.00000000000    
 SMD-CDS (non-electrostatic) energy       (kcal/mol) =      -1.88
 (included in total energy above)
 Annihilation of the first spin contaminant:
 S**2 before annihilation     0.7616,   after     0.7501
 D1PCM: PCM CHGder 1st derivatives, ID1Alg=3 FixD1E=F DoIter=F DoCFld=F I1PDM=0.
 Calling FoFJK, ICntrl=      2127 FMM=F ISym2X=0 I1Cent= 0 IOpClX= 1 NMat=1 NMatS=1 NMatT=0.
 -------------------------------------------------------------------
 Center     Atomic                   Forces (Hartrees/Bohr)
 Number     Number              X              Y              Z
 -------------------------------------------------------------------
      1        6          -0.000965894    0.000079708   -0.000443828
      2        6           0.000686819   -0.002576144    0.000980167
      3        1          -0.000077701   -0.000075651    0.000201946
      4        6          -0.000739492    0.000132827   -0.000249912
      5        1          -0.000048949   -0.000042447    0.000047637
      6        6          -0.000383679    0.000075654   -0.000116378
      7        6          -0.000622202    0.000125682   -0.000381406
      8        1          -0.000089180   -0.000065904   -0.000064290
      9        6           0.001746336    0.002297553    0.000083586
     10        1           0.000013350   -0.000021583    0.000017774
     11        6           0.000412096    0.000065386   -0.000030405
     12        1          -0.000094041   -0.000007192    0.000067393
     13        1          -0.000042962   -0.000024537   -0.000091624
     14        1           0.000205500    0.000036647   -0.000020661
 -------------------------------------------------------------------
 Cartesian Forces:  Max     0.002576144 RMS     0.000676162

 GradGradGradGradGradGradGradGradGradGradGradGradGradGradGradGradGradGrad
 Berny optimization.
 Using GEDIIS/GDIIS optimizer.
 FormGI is forming the generalized inverse of G from B-inverse, IUseBI=4.
 Internal  Forces:  Max     0.001710972 RMS     0.000522518
 Search for a local minimum.
 Step number   2 out of a maximum of   72
 All quantities printed in internal units (Hartrees-Bohrs-Radians)
 Mixed Optimization -- En-DIIS/RFO-DIIS
 Update second derivatives using D2CorX and points    1    2
 DE= -5.44D-03 DEPred=-5.46D-03 R= 9.96D-01
 TightC=F SS=  1.41D+00  RLast= 2.12D-01 DXNew= 5.0454D-01 6.3496D-01
 Trust test= 9.96D-01 RLast= 2.12D-01 DXMaxT set to 5.05D-01
 ITU=  1  0
 Use linear search instead of GDIIS.
     Eigenvalues ---    0.00002   0.01742   0.01789   0.01906   0.02056
     Eigenvalues ---    0.02445   0.02689   0.02935   0.03171   0.05599
     Eigenvalues ---    0.05765   0.10546   0.11222   0.11931   0.12018
     Eigenvalues ---    0.12305   0.14488   0.14860   0.16575   0.18433
     Eigenvalues ---    0.18816   0.20057   0.25730   0.32095   0.34136
     Eigenvalues ---    0.34530   0.35112   0.35481   0.36141   0.36321
     Eigenvalues ---    0.36495   0.39673   0.41541   0.46062   0.47595
     Eigenvalues ---    0.51336
 RFO step:  Lambda=-5.35998965D-05 EMin= 2.09024482D-05
 Quartic linear search produced a step of  0.04085.
 Iteration  1 RMS(Cart)=  0.04506597 RMS(Int)=  0.00197591
 Iteration  2 RMS(Cart)=  0.00204859 RMS(Int)=  0.00001944
 Iteration  3 RMS(Cart)=  0.00000326 RMS(Int)=  0.00001926
 Iteration  4 RMS(Cart)=  0.00000000 RMS(Int)=  0.00001926
 Variable       Old X    -DE/DX   Delta X   Delta X   Delta X     New X
                                 (Linear)    (Quad)   (Total)
    R1        2.59032   0.00125  -0.00241   0.00388   0.00150   2.59182
    R2        2.60444   0.00152  -0.00251   0.00693   0.00445   2.60889
    R3        2.04964   0.00015  -0.00019   0.00012  -0.00007   2.04957
    R4        2.64360   0.00095   0.00061   0.00256   0.00318   2.64678
    R5        2.04878   0.00007   0.00002   0.00024   0.00026   2.04904
    R6        2.62914   0.00083   0.00011   0.00015   0.00023   2.62938
    R7        2.63385   0.00092   0.00015   0.00205   0.00216   2.63601
    R8        2.04851  -0.00002  -0.00003  -0.00003  -0.00006   2.04846
    R9        2.05209  -0.00002   0.00005   0.00002   0.00007   2.05216
   R10        2.64661   0.00108   0.00030   0.00116   0.00146   2.64807
   R11        2.84500   0.00042  -0.00023   0.00005  -0.00018   2.84481
   R12        2.06322   0.00002   0.00001   0.00076   0.00077   2.06399
   R13        2.06557   0.00004   0.00007  -0.00062  -0.00055   2.06502
   R14        2.06136  -0.00003  -0.00002  -0.00016  -0.00018   2.06118
    A1        2.20316   0.00171   0.00545   0.00326   0.00880   2.21196
    A2        2.12836   0.00067   0.00156   0.00154   0.00308   2.13144
    A3        2.04475  -0.00121  -0.00342  -0.00284  -0.00624   2.03852
    A4        2.11007   0.00054   0.00187   0.00131   0.00316   2.11323
    A5        2.09270  -0.00007  -0.00031   0.00035   0.00006   2.09275
    A6        2.08675   0.00010   0.00034   0.00024   0.00054   2.08730
    A7        2.10373  -0.00003  -0.00003  -0.00059  -0.00060   2.10313
    A8        2.10488   0.00061   0.00053   0.00226   0.00273   2.10761
    A9        2.09184  -0.00032  -0.00031  -0.00093  -0.00121   2.09063
   A10        2.08646  -0.00029  -0.00022  -0.00133  -0.00152   2.08494
   A11        2.09439  -0.00016   0.00038  -0.00234  -0.00194   2.09245
   A12        2.11486   0.00009  -0.00023   0.00075   0.00048   2.11534
   A13        2.07393   0.00007  -0.00015   0.00159   0.00146   2.07539
   A14        2.01195  -0.00131  -0.00267  -0.00366  -0.00631   2.00564
   A15        2.14271   0.00010   0.00056  -0.00228  -0.00174   2.14097
   A16        2.12852   0.00121   0.00211   0.00595   0.00805   2.13657
   A17        1.93729  -0.00017  -0.00033  -0.00306  -0.00339   1.93390
   A18        1.93175  -0.00012  -0.00019   0.00109   0.00090   1.93265
   A19        1.93017   0.00033   0.00014   0.00217   0.00231   1.93248
   A20        1.87628   0.00012   0.00044   0.00009   0.00053   1.87681
   A21        1.89666  -0.00006   0.00007  -0.00175  -0.00167   1.89499
   A22        1.89005  -0.00011  -0.00010   0.00144   0.00133   1.89138
    D1        3.13849   0.00011   0.00047   0.00310   0.00357  -3.14113
    D2        0.00043  -0.00004  -0.00024  -0.00058  -0.00082  -0.00040
    D3        0.00352  -0.00003  -0.00008  -0.00197  -0.00204   0.00148
    D4       -3.13554   0.00009   0.00034  -0.00235  -0.00202  -3.13756
    D5        3.13987   0.00007   0.00037   0.00134   0.00169   3.14156
    D6       -0.00263   0.00007   0.00035   0.00201   0.00235  -0.00029
    D7        0.00176  -0.00008  -0.00034  -0.00230  -0.00265  -0.00089
    D8       -3.14074  -0.00008  -0.00036  -0.00163  -0.00199   3.14045
    D9        0.00076  -0.00003  -0.00012  -0.00084  -0.00098  -0.00022
   D10       -3.13808  -0.00003  -0.00012  -0.00226  -0.00239  -3.14046
   D11        3.14144  -0.00003  -0.00014  -0.00016  -0.00032   3.14112
   D12        0.00260  -0.00004  -0.00014  -0.00158  -0.00173   0.00088
   D13       -3.13590  -0.00004  -0.00011  -0.00284  -0.00295  -3.13885
   D14        0.00345  -0.00004  -0.00019  -0.00185  -0.00205   0.00139
   D15        0.00295  -0.00004  -0.00011  -0.00142  -0.00154   0.00140
   D16       -3.14089  -0.00004  -0.00020  -0.00044  -0.00065  -3.14154
   D17       -0.00536   0.00008   0.00030   0.00314   0.00343  -0.00192
   D18        3.13373  -0.00005  -0.00011   0.00350   0.00340   3.13713
   D19        3.13401   0.00007   0.00022   0.00411   0.00432   3.13833
   D20       -0.01009  -0.00005  -0.00019   0.00447   0.00428  -0.00581
   D21       -0.85511  -0.00005  -0.00033  -0.11476  -0.11509  -0.97019
   D22        1.22690  -0.00009  -0.00012  -0.11591  -0.11603   1.11086
   D23       -2.96168  -0.00008  -0.00028  -0.11198  -0.11226  -3.07394
   D24        2.28919   0.00008   0.00010  -0.11515  -0.11504   2.17414
   D25       -1.91200   0.00005   0.00031  -0.11630  -0.11599  -2.02799
   D26        0.18261   0.00005   0.00014  -0.11237  -0.11222   0.07040
         Item               Value     Threshold  Converged?
 Maximum Force            0.001711     0.000015     NO 
 RMS     Force            0.000523     0.000010     NO 
 Maximum Displacement     0.175438     0.000060     NO 
 RMS     Displacement     0.045071     0.000040     NO 
 Predicted change in Energy=-3.743146D-05
 GradGradGradGradGradGradGradGradGradGradGradGradGradGradGradGradGradGrad

                          Input orientation:                          
 ---------------------------------------------------------------------
 Center     Atomic      Atomic             Coordinates (Angstroms)
 Number     Number       Type             X           Y           Z
 ---------------------------------------------------------------------
      1          6           0        6.215552    7.053974    5.060960
      2          6           0        5.218836    6.121559    5.196076
      3          1           0        5.386840    5.163077    5.675048
      4          6           0        3.960591    6.463608    4.684664
      5          1           0        3.136190    5.763798    4.764327
      6          6           0        3.779268    7.702302    4.077398
      7          6           0        4.835933    8.606875    3.972517
      8          1           0        4.677992    9.570852    3.498066
      9          6           0        6.108348    8.297798    4.471580
     10          1           0        2.806499    7.970650    3.681471
     11          6           0        7.269135    9.250761    4.368162
     12          1           0        7.698294    9.447711    5.353033
     13          1           0        8.060230    8.830340    3.742429
     14          1           0        6.952537   10.198685    3.931246
 ---------------------------------------------------------------------
                    Distance matrix (angstroms):
                    1          2          3          4          5
     1  C    0.000000
     2  C    1.371531   0.000000
     3  H    2.153917   1.084585   0.000000
     4  C    2.361140   1.400615   2.169430   0.000000
     5  H    3.351867   2.156807   2.501140   1.084305   0.000000
     6  C    2.706142   2.412996   3.403591   1.391407   2.154813
     7  C    2.345113   2.796517   3.880960   2.422183   3.405756
     8  H    3.337873   3.882444   4.966909   3.402594   4.298166
     9  C    1.380565   2.460110   3.434440   2.832405   3.916705
    10  H    3.790108   3.395959   4.302903   2.146974   2.480216
    11  C    2.532958   3.831588   4.686164   4.337610   5.421908
    12  H    2.830867   4.151582   4.878995   4.829287   5.893266
    13  H    2.880424   4.186180   4.932631   4.826621   5.890172
    14  H    3.421784   4.607436   5.554241   4.844603   5.909886
                    6          7          8          9         10
     6  C    0.000000
     7  C    1.394917   0.000000
     8  H    2.152861   1.085956   0.000000
     9  C    2.436106   1.401297   2.148095   0.000000
    10  H    1.083996   2.146646   2.469164   3.410792   0.000000
    11  C    3.829026   2.547861   2.752007   1.505410   4.693116
    12  H    4.475764   3.287238   3.546588   2.151089   5.376382
    13  H    4.439743   3.240212   3.470966   2.150606   5.323953
    14  H    4.040164   2.648693   2.399035   2.148950   4.713401
                   11         12         13         14
    11  C    0.000000
    12  H    1.092216   0.000000
    13  H    1.092762   1.762438   0.000000
    14  H    1.090729   1.772454   1.770595   0.000000
 Symmetry turned off by external request.
 Stoichiometry    C7H7(2)
 Framework group  C1[X(C7H7)]
 Deg. of freedom    36
 Full point group                 C1      NOp   1
 Rotational constants (GHZ):           5.9469185           2.5091026           1.7840939
 Standard basis: 6-311+G(d,p) (5D, 7F)
   196 basis functions,   308 primitive gaussians,   203 cartesian basis functions
    25 alpha electrons       24 beta electrons
       nuclear repulsion energy       258.8307129822 Hartrees.
 NAtoms=   14 NActive=   14 NUniq=   14 SFac= 1.00D+00 NAtFMM=   60 NAOKFM=F Big=F
 Integral buffers will be    131072 words long.
 Raffenetti 2 integral format.
 Two-electron integral symmetry is turned off.
 ------------------------------------------------------------------------------
 Polarizable Continuum Model (PCM)
 =================================
 Model                : PCM.
 Atomic radii         : SMD-Coulomb.
 Polarization charges : Total charges.
 Charge compensation  : None.
 Solution method      : Matrix inversion.
 Cavity type          : VdW (van der Waals Surface) (Alpha=1.000).
 Cavity algorithm     : GePol (No added spheres)
                        Default sphere list used, NSphG=   14.
                        Lebedev-Laikov grids with approx.  5.0 points / Ang**2.
                        Smoothing algorithm: York/Karplus (Gamma=1.0000).
                        Polarization charges: spherical gaussians, with
                                              point-specific exponents (IZeta= 3).
                        Self-potential: point-specific (ISelfS= 7).
                        Self-field    : sphere-specific E.n sum rule (ISelfD= 2).
 1st derivatives      : Analytical E(r).r(x)/FMM algorithm (CHGder, D1EAlg=3).
                        Cavity 1st derivative terms included.
 Solvent              : TetraHydroFuran, Eps=   7.425700 Eps(inf)=   1.974025
 ------------------------------------------------------------------------------
 Spheres list:
 ISph  on   Nord     Re0    Alpha      Xe            Ye            Ze
    1   C      1    1.8500  1.000      6.215552      7.053974      5.060960
    2   C      2    1.8500  1.000      5.218836      6.121559      5.196076
    3   H      3    1.2000  1.000      5.386840      5.163077      5.675048
    4   C      4    1.8500  1.000      3.960591      6.463608      4.684664
    5   H      5    1.2000  1.000      3.136190      5.763798      4.764327
    6   C      6    1.8500  1.000      3.779268      7.702302      4.077398
    7   C      7    1.8500  1.000      4.835933      8.606875      3.972517
    8   H      8    1.2000  1.000      4.677992      9.570852      3.498066
    9   C      9    1.8500  1.000      6.108348      8.297798      4.471580
   10   H     10    1.2000  1.000      2.806499      7.970650      3.681471
   11   C     11    1.8500  1.000      7.269135      9.250761      4.368162
   12   H     12    1.2000  1.000      7.698294      9.447711      5.353033
   13   H     13    1.2000  1.000      8.060230      8.830340      3.742429
   14   H     14    1.2000  1.000      6.952537     10.198685      3.931246
 ------------------------------------------------------------------------------
 ------------------------------------------------------------------------------
 Atomic radii for non-electrostatic terms: SMD-CDS.
 ------------------------------------------------------------------------------
 Nuclear repulsion after PCM non-electrostatic terms =      258.8277251932 Hartrees.
 One-electron integrals computed using PRISM.
 NBasis=   196 RedAO= T EigKep=  3.29D-06  NBF=   196
 NBsUse=   196 1.00D-06 EigRej= -1.00D+00 NBFU=   196
 Initial guess from the checkpoint file:  "2-Me-ph-opt-freq-thf.chk"
 B after Tr=    -0.066033    0.066260   -0.039733
         Rot=    0.999988   -0.003500   -0.003285    0.000327 Ang=  -0.55 deg.
 Initial guess <Sx>= 0.0000 <Sy>= 0.0000 <Sz>= 0.5000 <S**2>= 0.7616 S= 0.5058
 ExpMin= 4.38D-02 ExpMax= 4.56D+03 ExpMxC= 6.82D+02 IAcc=3 IRadAn=         5 AccDes= 0.00D+00
 Harris functional with IExCor= 1009 and IRadAn=       5 diagonalized for initial guess.
 HarFok:  IExCor= 1009 AccDes= 0.00D+00 IRadAn=         5 IDoV= 1 UseB2=F ITyADJ=14
 ICtDFT=  3500011 ScaDFX=  1.000000  1.000000  1.000000  1.000000
 FoFCou: FMM=F IPFlag=           0 FMFlag=      100000 FMFlg1=           0
         NFxFlg=           0 DoJE=T BraDBF=F KetDBF=T FulRan=T
         wScrn=  0.000000 ICntrl=       500 IOpCl=  0 I1Cent=   200000004 NGrid=           0
         NMat0=    1 NMatS0=      1 NMatT0=    0 NMatD0=    1 NMtDS0=    0 NMtDT0=    0
 Symmetry not used in FoFCou.
 Requested convergence on RMS density matrix=1.00D-08 within 128 cycles.
 Requested convergence on MAX density matrix=1.00D-06.
 Requested convergence on             energy=1.00D-06.
 Level shift goal  0.100 maximum shift  0.100.
 No special actions if energy rises.
 Dynamic level shift is on during FON iterations.
 Inv3:  Mode=1 IEnd=     4050732.
 Iteration    1 A*A^-1 deviation from unit magnitude is 4.00D-15 for   1145.
 Iteration    1 A*A^-1 deviation from orthogonality  is 1.97D-15 for   1158   1025.
 Iteration    1 A^-1*A deviation from unit magnitude is 4.00D-15 for   1145.
 Iteration    1 A^-1*A deviation from orthogonality  is 2.12D-15 for    910    794.
 Error on total polarization charges =  0.04081
 SCF Done:  E(UM062X) =  -270.828293758     A.U. after   13 cycles
            NFock= 13  Conv=0.85D-08     -V/T= 2.0043
 <Sx>= 0.0000 <Sy>= 0.0000 <Sz>= 0.5000 <S**2>= 0.7617 S= 0.5058
 <L.S>=  0.00000000000    
 SMD-CDS (non-electrostatic) energy       (kcal/mol) =      -1.87
 (included in total energy above)
 Annihilation of the first spin contaminant:
 S**2 before annihilation     0.7617,   after     0.7501
 D1PCM: PCM CHGder 1st derivatives, ID1Alg=3 FixD1E=F DoIter=F DoCFld=F I1PDM=0.
 Calling FoFJK, ICntrl=      2127 FMM=F ISym2X=0 I1Cent= 0 IOpClX= 1 NMat=1 NMatS=1 NMatT=0.
 -------------------------------------------------------------------
 Center     Atomic                   Forces (Hartrees/Bohr)
 Number     Number              X              Y              Z
 -------------------------------------------------------------------
      1        6          -0.000080493    0.000296558   -0.000214058
      2        6           0.000141278    0.000083234    0.000029782
      3        1           0.000001804   -0.000023650    0.000010336
      4        6          -0.000055790   -0.000106351    0.000019748
      5        1          -0.000006164   -0.000000254    0.000001521
      6        6          -0.000012666    0.000083796   -0.000024927
      7        6          -0.000126728    0.000062111   -0.000048464
      8        1           0.000042816    0.000018820   -0.000047689
[...]
 ! D3    D(2,1,9,7)             -0.0498         -DE/DX =    0.0                 !
 ! D4    D(2,1,9,11)           179.6914         -DE/DX =    0.0                 !
 ! D5    D(1,2,4,5)            179.9727         -DE/DX =    0.0                 !
 ! D6    D(1,2,4,6)              0.0404         -DE/DX =    0.0                 !
 ! D7    D(3,2,4,5)             -0.007          -DE/DX =    0.0                 !
 ! D8    D(3,2,4,6)           -179.9393         -DE/DX =    0.0                 !
 ! D9    D(2,4,6,7)             -0.0278         -DE/DX =    0.0                 !
 ! D10   D(2,4,6,10)           179.9391         -DE/DX =    0.0                 !
 ! D11   D(5,4,6,7)           -179.9597         -DE/DX =    0.0                 !
 ! D12   D(5,4,6,10)             0.0072         -DE/DX =    0.0                 !
 ! D13   D(4,6,7,8)            179.9221         -DE/DX =    0.0                 !
 ! D14   D(4,6,7,9)             -0.026          -DE/DX =    0.0                 !
 ! D15   D(10,6,7,8)            -0.0448         -DE/DX =    0.0                 !
 ! D16   D(10,6,7,9)          -179.9929         -DE/DX =    0.0                 !
 ! D17   D(6,7,9,1)              0.0615         -DE/DX =    0.0                 !
 ! D18   D(6,7,9,11)          -179.6805         -DE/DX =    0.0                 !
 ! D19   D(8,7,9,1)           -179.8871         -DE/DX =    0.0                 !
 ! D20   D(8,7,9,11)             0.3709         -DE/DX =    0.0                 !
 ! D21   D(1,9,11,12)          -64.2363         -DE/DX =    0.0                 !
 ! D22   D(1,9,11,13)           55.009          -DE/DX =    0.0                 !
 ! D23   D(1,9,11,14)          175.5569         -DE/DX =    0.0                 !
 ! D24   D(7,9,11,12)          115.4858         -DE/DX =    0.0                 !
 ! D25   D(7,9,11,13)         -125.2689         -DE/DX =    0.0                 !
 ! D26   D(7,9,11,14)           -4.721          -DE/DX =    0.0                 !
 --------------------------------------------------------------------------------
 GradGradGradGradGradGradGradGradGradGradGradGradGradGradGradGradGradGrad


 ----------------------------------------------------------------------

 Electric dipole moment (input orientation):
 (Debye = 10**-18 statcoulomb cm , SI units = C m)
                  (au)            (Debye)         (10**-30 SI)
   Tot        0.359166D+00      0.912910D+00      0.304514D+01
   x         -0.204214D+00     -0.519059D+00     -0.173139D+01
   y          0.250986D+00      0.637942D+00      0.212794D+01
   z         -0.155896D+00     -0.396248D+00     -0.132174D+01

 Dipole polarizability, Alpha (input orientation).
 (esu units = cm**3 , SI units = C**2 m**2 J**-1)
 Alpha(0;0):
               (au)            (10**-24 esu)      (10**-40 SI)
   iso        0.103265D+03      0.153023D+02      0.170261D+02
   aniso      0.585523D+02      0.867655D+01      0.965397D+01
   xx         0.119777D+03      0.177492D+02      0.197486D+02
   yx         0.117652D+02      0.174343D+01      0.193983D+01
   yy         0.114615D+03      0.169842D+02      0.188974D+02
   zx         0.947174D+01      0.140357D+01      0.156168D+01
   zy        -0.180496D+02     -0.267468D+01     -0.297598D+01
   zz         0.754035D+02      0.111737D+02      0.124324D+02

 ----------------------------------------------------------------------

 Dipole orientation:
     6          7.39108340        -18.67652979         -1.51532737
     6          5.29470458        -17.17702120         -1.78703183
     1          4.54769633        -16.67080243         -3.62734138
     6          4.14682589        -16.31666588          0.43731903
     1          2.48374529        -15.12419526          0.33365776
     6          5.15600532        -17.00011102          2.76761897
     6          7.29593109        -18.53231934          2.91278375
     1          8.06341428        -19.04806846          4.74490394
     6          8.49143044        -19.42881452          0.72603950
     1          4.27337375        -16.33598526          4.49275058
     6         10.79503551        -21.09577823          0.82224848
     1         10.38006007        -22.95961159          0.03600332
     1         12.33614561        -20.28275146         -0.28392589
     1         11.43880535        -21.33882014          2.76516000

 Electric dipole moment (dipole orientation):
 (Debye = 10**-18 statcoulomb cm , SI units = C m)
                  (au)            (Debye)         (10**-30 SI)
   Tot        0.359166D+00      0.912910D+00      0.304514D+01
   x          0.000000D+00      0.000000D+00      0.000000D+00
   y          0.000000D+00      0.000000D+00      0.000000D+00
   z          0.359166D+00      0.912910D+00      0.304514D+01

 Dipole polarizability, Alpha (dipole orientation).
 (esu units = cm**3 , SI units = C**2 m**2 J**-1)
 Alpha(0;0):
               (au)            (10**-24 esu)      (10**-40 SI)
   iso        0.103265D+03      0.153023D+02      0.170261D+02
   aniso      0.585523D+02      0.867655D+01      0.965397D+01
   xx         0.107430D+03      0.159194D+02      0.177127D+02
   yx        -0.305084D+02     -0.452087D+01     -0.503015D+01
   yy         0.871943D+02      0.129209D+02      0.143764D+02
   zx         0.178404D+01      0.264368D+00      0.294149D+00
   zy        -0.396661D+00     -0.587791D-01     -0.654005D-01
   zz         0.115172D+03      0.170667D+02      0.189892D+02

 ----------------------------------------------------------------------
 Unable to Open any file for archive entry.
 1\1\GINC-CN008\Freq\UM062X\6-311+G(d,p)\C7H7(2)\TAHMINAAFROZ\09-May-20
 25\0\\#N Geom=AllCheck Guess=TCheck SCRF=Check GenChk UM062X/6-311+G(d
 ,p) Freq\\2-Me-ph-opt-freq-thf\\0,2\C,6.2236811302,7.0410641993,5.0306
 229038\C,5.2263074313,6.1099283481,5.1692817805\H,5.3996092003,5.14321
 75602,5.6295443245\C,3.9604112657,6.4639245754,4.6855939102\H,3.135095
 6896,5.7656081174,4.7688247089\C,3.7731262468,7.7121156549,4.099440952
 7\C,4.831216402,8.6142547465,3.9888365497\H,4.670168281,9.5842650488,3
 .5278187749\C,6.1106151914,8.2937591128,4.4629227364\H,2.7949248822,7.
 9888757753,3.7231748672\C,7.2702818189,9.2488199442,4.3641465924\H,7.6
 100199538,9.5476772284,5.3588209042\H,8.1155796443,8.7819871265,3.8538
 883396\H,6.9852078627,10.1464915621,3.814059655\\Version=AS64L-G16RevC
 .01\HF=-270.8282978\S2=0.76167\S2-1=0.\S2A=0.750062\RMSD=5.428e-09\RMS
 F=1.872e-06\ZeroPoint=0.1154748\Thermal=0.1216387\ETot=-270.706659\HTo
 t=-270.7057149\GTot=-270.7438572\Dipole=-0.2042135,0.2509856,-0.155895
 9\DipoleDeriv=-0.1572749,0.0180519,-0.0112434,-0.097611,-0.0757596,-0.
 0582637,0.0394451,-0.0317855,-0.1213865,-0.1104343,-0.0113246,0.010383
 8,0.0373511,-0.0476498,-0.0231685,-0.0124495,-0.0364813,-0.118554,0.13
 20698,0.0090144,-0.0224153,0.012597,0.0128145,0.0847561,-0.0232174,0.0
 829373,0.1615747,0.0151811,-0.0061385,0.0615462,-0.0219522,-0.0301061,
 -0.0849741,0.0700077,-0.0812837,-0.1602417,-0.0068745,-0.1002592,-0.00
 69813,-0.0814152,0.039685,0.0410474,-0.0146358,0.0367834,0.1646292,-0.
 0038744,-0.0124462,0.0523961,-0.0277147,-0.0943264,-0.0461597,0.057193
 4,-0.0410354,-0.14824,-0.0490215,-0.1060186,0.0851145,0.0218498,-0.033
 6293,-0.0686086,0.0286094,-0.1057698,-0.1549804,0.0921468,0.0189872,-0
 .0306323,0.0046865,-0.0344326,0.0929651,-0.0238056,0.0965396,0.1310924
 ,0.1996761,0.2857521,-0.0548675,0.2513416,0.10949,0.0119678,-0.0281897
 ,0.0374119,-0.0534562,-0.0442976,0.0279302,-0.0742777,0.0331012,0.1046
 448,0.0468081,-0.0769694,0.0460954,0.1534931,-0.0673713,-0.0937732,-0.
 0005377,-0.0414409,0.0759702,-0.0103078,-0.0546672,-0.0474205,0.089791
 8,0.0330727,-0.0755583,-0.0227536,-0.0973382,0.0384635,-0.0154691,-0.0
 574817,-0.050608,-0.0652904,-0.0625887,-0.0109864,0.0685782,0.0299306,
 0.0009949,-0.0508405,0.1061329,-0.0139954,0.0713162,0.0295909,0.056769
 1,-0.05431,-0.0233857,-0.066159,0.0802475,-0.0099724,0.1086118,0.05025
 16\Polar=119.7772019,11.7652365,114.6148599,9.4717448,-18.0496354,75.4
 035473\Quadrupole=-3.1361545,9.2435053,-6.1073508,1.5655337,-2.6971543
 ,-2.3875045\PG=C01 [X(C7H7)]\NImag=0\\0.38388049,0.14077988,0.56214290
 ,0.02095165,-0.17242305,0.15265743,-0.23050550,-0.11607287,0.00284134,
 0.58445628,-0.14940548,-0.22015023,0.03313660,0.05166377,0.65837595,0.
 01733040,0.04195894,-0.06509820,0.09759775,-0.21473396,0.24475527,0.00
 663238,-0.01894093,0.01010615,-0.05990942,0.03703138,-0.02209829,0.059
 46525,0.00104314,-0.01531157,0.00641381,0.04208130,-0.27904230,0.11535
 238,-0.04005810,0.29429206,0.00157901,0.00118148,-0.00106826,-0.024278
 98,0.11400848,-0.09115846,0.02657094,-0.12671671,0.08470507,-0.0612461
 7,-0.06142096,0.00693001,-0.27663702,0.07911895,-0.09026614,0.00074500
 ,-0.00155592,-0.00068597,0.66676796,-0.00106814,0.05334996,-0.01753554
 ,0.00286174,-0.12508077,0.02789918,0.02588157,-0.00186668,0.01008058,0
 .09551551,0.62040780,-0.01916889,-0.03327122,0.02280251,-0.05755075,0.
 04799369,-0.09769701,-0.01243583,0.00289547,0.00133451,0.09919758,-0.1
 8499977,0.23717874,-0.00449745,0.00052242,-0.00321865,-0.01605079,-0.0
 1807307,0.00248116,0.00107359,0.00046385,0.00113974,-0.22260028,-0.143
 09716,0.01313435,0.23201522,0.00141920,0.00216402,0.00241705,0.0089040
 1,0.00804128,0.00063908,-0.00033686,-0.00014250,-0.00176165,-0.1423250
 3,-0.17380094,0.02105280,0.15302764,0.17896240,-0.00361292,0.00217164,
 0.00505883,-0.00908828,-0.00643568,0.00447397,0.00148184,-0.00155062,-
 0.00297910,0.01278241,0.02081480,-0.04311042,-0.01182315,-0.02553686,0
 .03353393,-0.01412670,-0.02404820,0.00816910,0.01646823,0.03166652,-0.
 01101852,-0.00419210,0.00083321,-0.00324020,-0.12909159,0.05043350,-0.
 03896713,0.00744711,-0.02199725,0.01050635,0.70405113,-0.02553569,-0.0
 6757506,0.02006535,0.08340765,0.00628186,0.02209367,0.00029414,0.00257
 111,0.00190423,-0.01376482,-0.29172477,0.09444071,0.00527703,-0.011744
 38,0.00795520,0.02586075,0.59719146,0.00876682,0.02034647,-0.01215347,
 -0.03328789,0.00845116,-0.00572226,-0.00301705,0.00205276,0.00516827,-
 0.01136167,0.11141434,-0.11445054,-0.00122641,0.00074674,0.00281729,0.
 13731657,-0.19101913,0.25661116,0.02046870,0.08935883,-0.03666161,-0.0
 7248951,-0.01698383,-0.01103206,-0.00139006,-0.00066091,-0.00001287,0.
 05043661,-0.06139312,0.03838794,0.00148160,0.00135846,-0.00206762,-0.2
 4372752,-0.07456045,-0.01479321,0.62250388,0.03207243,-0.00244374,0.01
 496353,-0.02125400,-0.00310083,-0.00537668,-0.00011661,0.00026912,-0.0
 0021081,-0.01119692,-0.04406238,0.01814836,0.00056755,-0.00260113,0.00
 431071,-0.13920400,-0.20693057,0.02497385,0.04757170,0.64541537,-0.012
 03888,0.02983090,-0.00300670,-0.00898160,-0.00419100,-0.00323637,-0.00
 025990,-0.00037151,-0.00009928,0.01663814,0.00513498,0.00715769,-0.001
 71425,0.00452193,0.00467844,0.01295831,0.04179634,-0.07883142,0.107817
 29,-0.20816553,0.25225370,-0.00412419,0.00229276,-0.00376259,-0.000637
 83,-0.00091460,0.00052321,0.00008144,0.00012502,0.00016466,-0.00263681
 ,-0.00339138,-0.00105146,0.00031172,-0.00114809,0.00051197,0.00748925,
 -0.02166398,0.01034383,-0.06184719,0.03600982,-0.02176192,0.06206312,0
 .00119398,0.00140955,0.00246513,-0.00006059,0.00030463,-0.00064769,0.0
 0011896,-0.00018624,-0.00021346,-0.00411120,0.00033305,0.00176500,0.00
 030508,-0.00063298,0.00047189,0.00533689,-0.01220269,0.00817753,0.0356
 2842,-0.27910908,0.11353777,-0.03696497,0.29308959,-0.00326937,0.00269
 382,0.00436507,0.00017769,-0.00085954,-0.00073288,0.00016747,-0.000208
 10,-0.00061403,-0.00074672,0.00194781,0.00586101,-0.00011948,0.0000845
 1,0.00019075,-0.00128817,0.00108346,0.00279042,-0.02165763,0.11370170,
 -0.09253667,0.02553972,-0.12515237,0.08622541,-0.09850783,-0.00460070,
 -0.00885252,0.05131057,-0.01722146,0.01982687,-0.00271637,-0.00236769,
 -0.00137253,-0.02394631,0.03637985,-0.02106626,0.00050458,0.00046872,0
 .00021849,-0.05161900,-0.04540762,0.00465423,-0.27349071,0.07503725,-0
 .08722725,-0.00288000,-0.00174484,-0.00121234,0.59206747,0.02796474,-0
 .28787268,0.10641995,-0.05539816,-0.04047407,0.00444398,-0.00440936,0.
 00020009,0.00155281,0.03580861,-0.03630012,0.02347809,0.00105676,-0.00
 060673,0.00013162,0.00652588,0.05788523,-0.02116401,-0.00640698,-0.122
 52840,0.02334960,0.02363378,-0.00375764,0.01016440,0.05955137,0.584916
 14,-0.02308360,0.09787768,-0.10390523,0.03639433,0.01435029,0.00694270
 ,-0.00050763,0.00202332,0.00535027,-0.02066173,0.02374099,-0.01902672,
 -0.00006689,-0.00003761,-0.00097785,-0.01770019,-0.03449999,0.01516487
 ,-0.05205070,0.04443906,-0.09812424,-0.01230999,0.00342806,0.00045922,
 0.08770004,-0.16453803,0.25724272,0.00032782,-0.00066502,0.00071296,0.
 00219658,0.00003138,-0.00124931,-0.00010397,-0.00009271,0.00005654,0.0
 0050428,-0.00136031,-0.00033386,0.00026636,0.00068127,0.00088421,-0.29
 089387,0.06433944,-0.09430836,-0.01572157,0.00817600,-0.00866989,0.000
 66136,0.00037874,0.00108788,-0.00120027,-0.00390164,-0.00045684,0.3049
 2660,-0.00058412,-0.00143985,-0.00009345,0.00010545,-0.00344004,0.0044
 7340,0.00123590,-0.00025212,0.00035620,0.02575717,-0.00213324,0.009404
 48,-0.00003252,0.00036905,-0.00197460,0.06437065,-0.07342613,0.0325095
 4,-0.01912866,0.00893218,-0.00723807,0.00105254,0.00008181,-0.00152271
 ,-0.00405224,-0.00091763,0.00227345,-0.06787930,0.07208922,0.00070366,
 -0.00007702,-0.00108136,-0.00130348,0.00443658,0.00462634,-0.00051827,
 0.00001331,-0.00030443,-0.01196530,0.00223778,-0.00014240,0.00118597,-
 0.00178242,-0.00311412,-0.09431816,0.03252452,-0.07650414,0.00303168,-
 0.00002918,0.00463744,0.00079828,-0.00170372,-0.00314195,-0.00032506,0
 .00232134,0.00579334,0.10257749,-0.03781650,0.06940033,0.00389223,-0.0
 0835626,0.00455784,0.00262334,0.00466482,-0.00241540,0.00061376,0.0004
 3523,-0.00000208,-0.00235281,-0.00037348,-0.00029940,0.00007292,0.0000
 1782,0.00022081,-0.00074103,0.00140861,-0.00308118,-0.02419042,-0.0213
 0194,0.00082660,0.00139895,-0.00048568,0.00177160,-0.16490754,-0.06229
 935,0.00120866,-0.00057518,-0.00061371,0.00013941,0.52434400,-0.022721
 93,-0.02269965,0.00366017,0.00181382,-0.00204098,0.00328259,-0.0005428
 7,-0.00029807,-0.00012657,-0.00001307,0.00021865,-0.00023930,0.0000263
 1,-0.00004179,-0.00036467,0.00143555,0.00095359,0.00378429,0.00306665,
 0.00755887,0.00069839,0.00172745,0.00003437,-0.00162567,-0.07726346,-0
 .13739742,0.00852700,0.00057360,0.00033216,-0.00010303,-0.04298063,0.5
 4919138,0.01079822,0.00729855,-0.00010386,-0.00114083,0.00451613,0.002
 62822,0.00048823,0.00014078,-0.00019684,-0.00083422,-0.00051095,-0.000
 34391,0.00023090,-0.00031912,-0.00060191,-0.00265075,0.00347733,0.0058
 0324,-0.00959103,-0.00560371,0.00686287,0.00071043,-0.00200134,-0.0032
 1497,0.00879061,0.01339663,-0.07259964,-0.00032185,-0.00035774,-0.0001
 2251,0.00923712,-0.01256423,0.55776340,0.00075128,0.00165941,-0.000696
 58,-0.00078143,0.00004730,0.00046256,0.00000114,-0.00007452,-0.0000593
 3,0.00002918,-0.00026710,0.00012517,0.00003127,-0.00008929,-0.00009945
 ,-0.00084629,0.00073628,0.00108017,-0.00161603,-0.00237935,0.00102395,
 0.00018331,-0.00032483,-0.00059007,-0.01041020,-0.00797636,-0.02299739
 ,-0.00018709,-0.00015069,-0.00005170,-0.06748706,-0.02159073,-0.075954
 34,0.07494708,-0.00091717,0.00004900,0.00034291,0.00056533,0.00059578,
 0.00045607,0.00001345,-0.00006286,-0.00004143,-0.00079907,0.00020720,-
 0.00035387,0.00001211,-0.00000730,0.00000643,-0.00061729,-0.00038196,0
 .00061224,0.00030530,-0.00121383,0.00058286,0.00001292,0.00007560,-0.0
 0014384,-0.00657741,-0.00621622,-0.01862106,-0.00013216,-0.00006897,0.
 00003492,-0.02197302,-0.06544204,-0.06590815,0.02725127,0.06756420,0.0
 0039768,0.00122297,0.00009021,-0.00091596,-0.00057568,-0.00003059,-0.0
 0003870,-0.00001702,-0.00001418,0.00061018,-0.00018454,0.00029481,-0.0
 0000415,-0.00003201,-0.00002573,0.00015562,0.00023616,-0.00028310,0.00
 003134,-0.00020516,0.00009962,0.00007212,-0.00011588,-0.00000029,0.000
 76266,0.00071984,0.00616494,0.00001054,-0.00000956,-0.00001775,-0.0753
 0808,-0.06535073,-0.27348717,0.08182125,0.07189604,0.29342334,0.000835
 93,0.00167048,-0.00079224,-0.00052864,-0.00044717,-0.00056113,-0.00004
 731,-0.00001158,0.00009933,0.00010621,-0.00022511,0.00009600,-0.000026
 14,-0.00000786,0.00012275,-0.00032637,-0.00019128,-0.00128157,-0.00159
 922,-0.00300693,0.00078167,-0.00002879,0.00012839,0.00057078,-0.020154
 14,0.00879305,0.01031430,-0.00023394,-0.00014101,0.00004837,-0.2045843
 7,0.09246946,0.09937332,0.00862600,-0.00466138,-0.00429181,0.22364003,
 -0.00066358,-0.00031743,-0.00007648,0.00096386,0.00047337,-0.00032448,
 0.00003016,-0.00000278,0.00003667,-0.00088060,0.00025266,-0.00022582,0
 .00002212,-0.00000422,0.00000802,-0.00041690,-0.00070283,-0.00071870,-
 0.00062760,-0.00162796,0.00054793,-0.00010854,0.00017511,0.00006219,-0
 .01821479,0.01054667,0.01127216,-0.00014462,-0.00012626,-0.00003438,0.
 09258288,-0.09925618,-0.05499918,0.00590360,-0.00417075,-0.00305406,-0
 .09688948,0.10481936,0.00035149,0.00056035,0.00067366,-0.00015031,-0.0
 0008024,0.00001143,0.00001370,0.00000889,-0.00000975,0.00020481,0.0000
 4073,0.00000947,-0.00001871,0.00001322,0.00004027,-0.00009155,-0.00008
 995,-0.00031997,-0.00059018,-0.00013775,-0.00022002,-0.00003523,-0.000
 01907,0.00024773,-0.00106957,0.00000316,-0.00065302,-0.00001849,0.0000
 0615,0.00002522,0.09987707,-0.05466193,-0.10490009,0.02323770,-0.01317
 973,-0.01330063,-0.10778180,0.06115610,0.10949376,-0.00378099,-0.00217
 886,-0.00028486,0.00048513,-0.00117852,0.00041888,-0.00025335,-0.00016
 033,0.00004174,-0.00007825,0.00010363,-0.00006745,-0.00002972,0.000027
 27,-0.00003741,0.00010876,-0.00020006,0.00019573,0.00118145,-0.0009749
 9,0.00060772,-0.00003435,0.00060164,-0.00043137,0.00594975,-0.02294233
 ,0.01421764,0.00003288,0.00006053,-0.00000290,-0.06810680,0.06399984,-
 0.03913580,-0.00324115,0.00751712,-0.00330270,-0.00567924,0.01844350,-
 0.01392894,0.07344587,-0.00357725,-0.00130523,0.00024404,0.00041869,-0
 .00074365,0.00048351,-0.00020082,-0.00016728,-0.00004982,-0.00013265,0
 .00019959,-0.00008862,-0.00007812,0.00004522,-0.00000788,-0.00017930,-
 0.00019486,-0.00016709,0.00247217,0.00144237,-0.00003458,-0.00066272,0
 .00038492,-0.00022568,0.00601302,-0.01747720,0.00976467,-0.00000468,-0
 .00000018,-0.00002220,0.05927471,-0.23111289,0.11343501,-0.00274499,0.
 00907216,-0.00453036,0.00252041,-0.01005877,0.00638008,-0.06311846,0.2
 4991580,0.00029472,0.00062849,0.00076937,-0.00031303,-0.00001683,0.000
 23784,0.00004733,-0.00003675,-0.00011378,0.00015863,-0.00008040,0.0001
 3225,0.00001957,-0.00000566,0.00001565,0.00016873,0.00003211,-0.000090
 35,-0.00081134,-0.00080839,0.00036494,0.00025696,0.00000815,0.00010116
 ,-0.00082735,-0.00027938,-0.00183138,0.00002898,-0.00001059,-0.0000540
 1,-0.03673299,0.11508370,-0.11748683,-0.00730195,0.02431661,-0.0129134
 8,0.00330202,-0.01364996,0.00890195,0.04170973,-0.12518109,0.12196667\
 \0.00000073,-0.00000110,-0.00000225,0.00000276,-0.00000029,-0.00000229
 ,0.00000354,-0.00000164,-0.00000376,0.00000132,-0.00000131,0.00000052,
 0.00000176,-0.00000178,0.00000079,-0.00000043,-0.00000039,0.00000238,-
 0.00000132,0.00000031,0.00000200,-0.00000259,0.00000088,0.00000366,0.,
 0.00000037,-0.00000055,-0.00000126,-0.00000055,0.00000440,-0.00000119,
 0.00000130,-0.00000109,0.00000044,-0.00000005,-0.00000121,-0.00000145,
 0.00000243,-0.00000315,-0.00000231,0.00000184,0.00000055\\\@
 The archive entry for this job was punched.


 AND HERE I AM, FOR ALL MY LORE,
 THE WRETCHED FOOL I WAS BEFORE.
 CALLED MASTER OF ARTS, AND DOCTOR TO BOOT,
 FOR TEN YEARS ALMOST I CONFUTE
 AND UP AND DOWN, WHEREVER IT GOES
 I DRAG MY STUDENTS BY THE NOSE --
 AND SEE THAT FOR ALL OUR SCIENCE AND ART
 WE CAN KNOW NOTHING.  IT BURNS MY HEART.

                                       -- FAUST
 Job cpu time:       0 days  0 hours 38 minutes  6.3 seconds.
 Elapsed time:       0 days  0 hours  1 minutes 15.0 seconds.
 File lengths (MBytes):  RWF=    126 Int=      0 D2E=      0 Chk=     12 Scr=      1
 Normal termination of Gaussian 16 at Fri May  9 07:50:14 2025.
