/home/tahminaafroz
cn013.cluster.local
tahminaafroz
Tue Apr 22 20:47:28 CDT 2025
 Entering Gaussian System, Link 0=g16
 Initial command:
 /home/apps/g16/l1.exe "/tmp/2-Me-phboh2-opt-freq/Gau-3805393.inp" -scrdir="/tmp/2-Me-phboh2-opt-freq/"
 Entering Link 1 = /home/apps/g16/l1.exe PID=   3805394.
  
 Copyright (c) 1988-2019, Gaussian, Inc.  All Rights Reserved.
  
 This is part of the Gaussian(R) 16 program.  It is based on
 the Gaussian(R) 09 system (copyright 2009, Gaussian, Inc.),
 the Gaussian(R) 03 system (copyright 2003, Gaussian, Inc.),
 the Gaussian(R) 98 system (copyright 1998, Gaussian, Inc.),
 the Gaussian(R) 94 system (copyright 1995, Gaussian, Inc.),
 the Gaussian 92(TM) system (copyright 1992, Gaussian, Inc.),
 the Gaussian 90(TM) system (copyright 1990, Gaussian, Inc.),
 the Gaussian 88(TM) system (copyright 1988, Gaussian, Inc.),
 the Gaussian 86(TM) system (copyright 1986, Carnegie Mellon
 University), and the Gaussian 82(TM) system (copyright 1983,
 Carnegie Mellon University). Gaussian is a federally registered
 trademark of Gaussian, Inc.
  
 This software contains proprietary and confidential information,
 including trade secrets, belonging to Gaussian, Inc.
  
 This software is provided under written license and may be
 used, copied, transmitted, or stored only in accord with that
 written license.
  
 The following legend is applicable only to US Government
 contracts under FAR:
  
                    RESTRICTED RIGHTS LEGEND
  
 Use, reproduction and disclosure by the US Government is
 subject to restrictions as set forth in subparagraphs (a)
 and (c) of the Commercial Computer Software - Restricted
 Rights clause in FAR 52.227-19.
  
 Gaussian, Inc.
 340 Quinnipiac St., Bldg. 40, Wallingford CT 06492
  
  
 ---------------------------------------------------------------
 Warning -- This program may not be used in any manner that
 competes with the business of Gaussian, Inc. or will provide
 assistance to any competitor of Gaussian, Inc.  The licensee
 of this program is prohibited from giving any competitor of
 Gaussian, Inc. access to this program.  By using this program,
 the user acknowledges that Gaussian, Inc. is engaged in the
 business of creating and licensing software in the field of
 computational chemistry and represents and warrants to the
 licensee that it is not a competitor of Gaussian, Inc. and that
 it will not use this program in any manner prohibited above.
 ---------------------------------------------------------------
  

 Cite this work as:
 Gaussian 16, Revision C.01,
 M. J. Frisch, G. W. Trucks, H. B. Schlegel, G. E. Scuseria, 
 M. A. Robb, J. R. Cheeseman, G. Scalmani, V. Barone, 
 G. A. Petersson, H. Nakatsuji, X. Li, M. Caricato, A. V. Marenich, 
 J. Bloino, B. G. Janesko, R. Gomperts, B. Mennucci, H. P. Hratchian, 
 J. V. Ortiz, A. F. Izmaylov, J. L. Sonnenberg, D. Williams-Young, 
 F. Ding, F. Lipparini, F. Egidi, J. Goings, B. Peng, A. Petrone, 
 T. Henderson, D. Ranasinghe, V. G. Zakrzewski, J. Gao, N. Rega, 
 G. Zheng, W. Liang, M. Hada, M. Ehara, K. Toyota, R. Fukuda, 
 J. Hasegawa, M. Ishida, T. Nakajima, Y. Honda, O. Kitao, H. Nakai, 
 T. Vreven, K. Throssell, J. A. Montgomery, Jr., J. E. Peralta, 
 F. Ogliaro, M. J. Bearpark, J. J. Heyd, E. N. Brothers, K. N. Kudin, 
 V. N. Staroverov, T. A. Keith, R. Kobayashi, J. Normand, 
 K. Raghavachari, A. P. Rendell, J. C. Burant, S. S. Iyengar, 
 J. Tomasi, M. Cossi, J. M. Millam, M. Klene, C. Adamo, R. Cammi, 
 J. W. Ochterski, R. L. Martin, K. Morokuma, O. Farkas, 
 J. B. Foresman, and D. J. Fox, Gaussian, Inc., Wallingford CT, 2019.
 
 ******************************************
 Gaussian 16:  AS64L-G16RevC.01  3-Jul-2019
                22-Apr-2025 
 ******************************************
 %mem=20GB
 %nprocshared=32
 Will use up to   32 processors via shared memory.
 %chk=2-Me-phboh2-opt-freq.chk
 ----------------------------------------------------------------------
 # opt=(calcfc,tight) freq 6-311+g(d,p) nosymm scf=(qc,fermi,xqc) geom=
 connectivity int=ultrafine m062x
 ----------------------------------------------------------------------
 1/7=10,10=4,18=20,19=15,26=4,38=1,57=2/1,3;
 2/9=110,12=2,15=1,17=6,18=5,40=1/2;
 3/5=4,6=6,7=111,11=2,25=1,30=1,71=2,74=-55,75=-5,140=1/1,2,3;
 4//1;
 5/5=2,22=13,38=5/2;
 8/6=4,10=90,11=11/1;
 11/6=1,8=1,9=11,15=111,16=1,31=1/1,2,10;
 10/6=1,13=1,31=1/2;
 6/7=2,8=2,9=2,10=2,28=1/1;
 7/10=1,25=1,30=1/1,2,3,16;
 1/7=10,10=4,18=20,19=15,26=4/3(2);
 2/9=110,15=1/2;
 99//99;
 2/9=110,15=1/2;
 3/5=4,6=6,7=111,11=2,25=1,30=1,71=1,74=-55,75=-5/1,2,3;
 4/5=5,16=3,69=1/1;
 5/5=2,22=13,38=5/2;
 7/30=1/1,2,3,16;
 1/7=10,18=20,19=15,26=4/3(-5);
 2/9=110,15=1/2;
 6/7=2,8=2,9=2,10=2,19=2,28=1/1;
 99/9=1/99;
 --------------------
 2-Me-phboh2-opt-freq
 --------------------
 Symbolic Z-matrix:
 Charge =  0 Multiplicity = 1
 O                     8.69919   7.4512    5.54335 
 H                     9.50873   7.13099   5.95119 
 C                     6.25061   6.9964    5.17743 
 B                     7.64701   6.61396   5.76968 
 O                     7.88538   5.48481   6.50782 
 H                     7.11269   4.93653   6.65196 
 C                     5.11878   6.18793   5.3174 
 H                     5.17541   5.24329   5.85286 
 C                     3.89081   6.55966   4.78262 
 H                     3.02788   5.91417   4.90925 
 C                     3.7533    7.75869   4.08318 
 C                     4.8782    8.57416   3.94017 
 H                     4.78783   9.51346   3.40385 
 C                     6.10288   8.19902   4.47485 
 H                     2.81582   8.04      3.65087 
 C                     7.32929   9.1147    4.30446 
 H                     7.70036   9.39678   5.2676 
 H                     8.09281   8.59195   3.76716 
 H                     7.04683   9.99158   3.76023 
 

 GradGradGradGradGradGradGradGradGradGradGradGradGradGradGradGradGradGrad
 Berny optimization.
 Initialization pass.
                           ----------------------------
                           !    Initial Parameters    !
                           ! (Angstroms and Degrees)  !
 --------------------------                            --------------------------
 ! Name  Definition              Value          Derivative Info.                !
 --------------------------------------------------------------------------------
 ! R1    R(1,2)                  0.9614         calculate D2E/DX2 analytically  !
 ! R2    R(1,4)                  1.3636         calculate D2E/DX2 analytically  !
 ! R3    R(3,4)                  1.5643         calculate D2E/DX2 analytically  !
 ! R4    R(3,7)                  1.3979         calculate D2E/DX2 analytically  !
 ! R5    R(3,14)                 1.4006         calculate D2E/DX2 analytically  !
 ! R6    R(4,5)                  1.3699         calculate D2E/DX2 analytically  !
 ! R7    R(5,6)                  0.9584         calculate D2E/DX2 analytically  !
 ! R8    R(7,8)                  1.0873         calculate D2E/DX2 analytically  !
 ! R9    R(7,9)                  1.39           calculate D2E/DX2 analytically  !
 ! R10   R(9,10)                 1.0851         calculate D2E/DX2 analytically  !
 ! R11   R(9,11)                 1.3949         calculate D2E/DX2 analytically  !
 ! R12   R(11,12)                1.3967         calculate D2E/DX2 analytically  !
 ! R13   R(11,15)                1.07           calculate D2E/DX2 analytically  !
 ! R14   R(12,13)                1.0854         calculate D2E/DX2 analytically  !
 ! R15   R(12,14)                1.388          calculate D2E/DX2 analytically  !
 ! R16   R(14,16)                1.54           calculate D2E/DX2 analytically  !
 ! R17   R(16,17)                1.07           calculate D2E/DX2 analytically  !
 ! R18   R(16,18)                1.07           calculate D2E/DX2 analytically  !
 ! R19   R(16,19)                1.07           calculate D2E/DX2 analytically  !
 ! A1    A(2,1,4)              112.0147         calculate D2E/DX2 analytically  !
 ! A2    A(4,3,7)              122.9187         calculate D2E/DX2 analytically  !
 ! A3    A(4,3,14)             119.6037         calculate D2E/DX2 analytically  !
 ! A4    A(7,3,14)             117.4774         calculate D2E/DX2 analytically  !
 ! A5    A(1,4,3)              118.4163         calculate D2E/DX2 analytically  !
 ! A6    A(1,4,5)              117.4688         calculate D2E/DX2 analytically  !
 ! A7    A(3,4,5)              124.1148         calculate D2E/DX2 analytically  !
 ! A8    A(4,5,6)              114.3498         calculate D2E/DX2 analytically  !
 ! A9    A(3,7,8)              120.636          calculate D2E/DX2 analytically  !
 ! A10   A(3,7,9)              121.4718         calculate D2E/DX2 analytically  !
 ! A11   A(8,7,9)              117.8922         calculate D2E/DX2 analytically  !
 ! A12   A(7,9,10)             119.9072         calculate D2E/DX2 analytically  !
 ! A13   A(7,9,11)             120.6554         calculate D2E/DX2 analytically  !
 ! A14   A(10,9,11)            119.4374         calculate D2E/DX2 analytically  !
 ! A15   A(9,11,12)            118.2816         calculate D2E/DX2 analytically  !
 ! A16   A(9,11,15)            120.9933         calculate D2E/DX2 analytically  !
 ! A17   A(12,11,15)           120.7156         calculate D2E/DX2 analytically  !
 ! A18   A(11,12,13)           119.2614         calculate D2E/DX2 analytically  !
 ! A19   A(11,12,14)           120.8894         calculate D2E/DX2 analytically  !
 ! A20   A(13,12,14)           119.8491         calculate D2E/DX2 analytically  !
 ! A21   A(3,14,12)            121.2238         calculate D2E/DX2 analytically  !
 ! A22   A(3,14,16)            118.8189         calculate D2E/DX2 analytically  !
 ! A23   A(12,14,16)           119.9569         calculate D2E/DX2 analytically  !
 ! A24   A(14,16,17)           109.4712         calculate D2E/DX2 analytically  !
 ! A25   A(14,16,18)           109.4712         calculate D2E/DX2 analytically  !
 ! A26   A(14,16,19)           109.4712         calculate D2E/DX2 analytically  !
 ! A27   A(17,16,18)           109.4713         calculate D2E/DX2 analytically  !
 ! A28   A(17,16,19)           109.4712         calculate D2E/DX2 analytically  !
 ! A29   A(18,16,19)           109.4712         calculate D2E/DX2 analytically  !
 ! D1    D(2,1,4,3)            179.6965         calculate D2E/DX2 analytically  !
 ! D2    D(2,1,4,5)             -0.2543         calculate D2E/DX2 analytically  !
 ! D3    D(7,3,4,1)            178.0187         calculate D2E/DX2 analytically  !
 ! D4    D(7,3,4,5)             -2.0341         calculate D2E/DX2 analytically  !
 ! D5    D(14,3,4,1)            -2.1529         calculate D2E/DX2 analytically  !
 ! D6    D(14,3,4,5)           177.7943         calculate D2E/DX2 analytically  !
 ! D7    D(4,3,7,8)             -0.1869         calculate D2E/DX2 analytically  !
 ! D8    D(4,3,7,9)            179.767          calculate D2E/DX2 analytically  !
 ! D9    D(14,3,7,8)           179.9813         calculate D2E/DX2 analytically  !
 ! D10   D(14,3,7,9)            -0.0648         calculate D2E/DX2 analytically  !
 ! D11   D(4,3,14,12)         -179.7283         calculate D2E/DX2 analytically  !
 ! D12   D(4,3,14,16)            0.0498         calculate D2E/DX2 analytically  !
 ! D13   D(7,3,14,12)            0.1093         calculate D2E/DX2 analytically  !
 ! D14   D(7,3,14,16)          179.8874         calculate D2E/DX2 analytically  !
 ! D15   D(1,4,5,6)            179.0236         calculate D2E/DX2 analytically  !
 ! D16   D(3,4,5,6)             -0.9242         calculate D2E/DX2 analytically  !
 ! D17   D(3,7,9,10)          -179.796          calculate D2E/DX2 analytically  !
 ! D18   D(3,7,9,11)             0.1315         calculate D2E/DX2 analytically  !
 ! D19   D(8,7,9,10)             0.1592         calculate D2E/DX2 analytically  !
 ! D20   D(8,7,9,11)          -179.9134         calculate D2E/DX2 analytically  !
 ! D21   D(7,9,11,12)           -0.2337         calculate D2E/DX2 analytically  !
 ! D22   D(7,9,11,15)          178.6471         calculate D2E/DX2 analytically  !
 ! D23   D(10,9,11,12)         179.6941         calculate D2E/DX2 analytically  !
 ! D24   D(10,9,11,15)          -1.4252         calculate D2E/DX2 analytically  !
 ! D25   D(9,11,12,13)        -179.6459         calculate D2E/DX2 analytically  !
 ! D26   D(9,11,12,14)           0.2787         calculate D2E/DX2 analytically  !
 ! D27   D(15,11,12,13)          1.4702         calculate D2E/DX2 analytically  !
 ! D28   D(15,11,12,14)       -178.6053         calculate D2E/DX2 analytically  !
 ! D29   D(11,12,14,3)          -0.2217         calculate D2E/DX2 analytically  !
 ! D30   D(11,12,14,16)       -179.9973         calculate D2E/DX2 analytically  !
 ! D31   D(13,12,14,3)         179.7024         calculate D2E/DX2 analytically  !
 ! D32   D(13,12,14,16)         -0.0731         calculate D2E/DX2 analytically  !
 ! D33   D(3,14,16,17)         -59.2434         calculate D2E/DX2 analytically  !
 ! D34   D(3,14,16,18)          60.7566         calculate D2E/DX2 analytically  !
 ! D35   D(3,14,16,19)        -179.2434         calculate D2E/DX2 analytically  !
 ! D36   D(12,14,16,17)        120.5375         calculate D2E/DX2 analytically  !
 ! D37   D(12,14,16,18)       -119.4625         calculate D2E/DX2 analytically  !
 ! D38   D(12,14,16,19)          0.5375         calculate D2E/DX2 analytically  !
 --------------------------------------------------------------------------------
 Trust Radius=3.00D-01 FncErr=1.00D-07 GrdErr=1.00D-06 EigMax=2.50D+02 EigMin=1.00D-04
 Number of steps in this run=     96 maximum allowed number of steps=    114.
 GradGradGradGradGradGradGradGradGradGradGradGradGradGradGradGradGradGrad

                          Input orientation:                          
 ---------------------------------------------------------------------
 Center     Atomic      Atomic             Coordinates (Angstroms)
 Number     Number       Type             X           Y           Z
 ---------------------------------------------------------------------
      1          8           0        8.699194    7.451204    5.543347
      2          1           0        9.508728    7.130989    5.951190
      3          6           0        6.250609    6.996402    5.177434
      4          5           0        7.647008    6.613959    5.769676
      5          8           0        7.885381    5.484812    6.507818
      6          1           0        7.112687    4.936526    6.651956
      7          6           0        5.118783    6.187926    5.317396
      8          1           0        5.175405    5.243293    5.852864
      9          6           0        3.890807    6.559656    4.782621
     10          1           0        3.027877    5.914169    4.909250
     11          6           0        3.753302    7.758692    4.083176
     12          6           0        4.878201    8.574164    3.940166
     13          1           0        4.787832    9.513461    3.403847
     14          6           0        6.102877    8.199016    4.474850
     15          1           0        2.815818    8.039997    3.650867
     16          6           0        7.329293    9.114696    4.304459
     17          1           0        7.700359    9.396776    5.267600
     18          1           0        8.092805    8.591951    3.767164
     19          1           0        7.046835    9.991581    3.760225
 ---------------------------------------------------------------------
                    Distance matrix (angstroms):
                    1          2          3          4          5
     1  O    0.000000
     2  H    0.961363   0.000000
     3  C    2.517202   3.351440   0.000000
     4  B    1.363561   1.940688   1.564271   0.000000
     5  O    2.336492   2.378022   2.593705   1.369908   0.000000
     6  H    3.173267   3.323816   2.675908   1.969187   0.958358
     7  C    3.803455   4.534609   1.397946   2.603456   3.092820
     8  H    4.169863   4.727658   2.164639   2.827449   2.798440
     9  C    4.949156   5.766542   2.432137   3.884105   4.481988
    10  H    5.910025   6.675906   3.410154   4.750412   5.131775
    11  C    5.166091   6.083454   2.831083   4.394956   5.303159
    12  C    4.293159   5.250595   2.429747   3.854323   5.017974
    13  H    4.912140   5.869582   3.408946   4.709474   5.954785
    14  C    2.905473   3.862652   1.400618   2.563849   3.831081
    15  H    6.208242   7.135322   3.900934   5.464735   6.355439
    16  C    2.485695   3.375908   2.532354   2.915731   4.282532
    17  H    2.204304   2.978470   2.805655   2.828250   4.108021
    18  H    2.196324   2.984831   2.815728   2.849779   4.148316
    19  H    3.516153   4.363970   3.407866   3.975730   5.344473
                    6          7          8          9         10
     6  H    0.000000
     7  C    2.706050   0.000000
     8  H    2.117951   1.087319   0.000000
     9  C    4.063185   1.389997   2.128009   0.000000
    10  H    4.547360   2.147886   2.439746   1.085051   0.000000
    11  C    5.084164   2.419740   3.388422   1.394926   2.147302
    12  C    5.057583   2.765642   3.852460   2.396439   3.382070
    13  H    6.074825   3.851023   4.937837   3.380922   4.280021
    14  C    4.050105   2.392239   3.390490   2.770465   3.855497
    15  H    6.091072   3.392806   4.270597   2.151251   2.479444
    16  C    4.797371   3.805047   4.693033   4.310459   5.395491
    17  H    4.706977   4.118705   4.895850   4.774636   5.838584
    18  H    4.758654   4.126423   4.906616   4.776836   5.841950
    19  H    5.824090   4.539819   5.516124   4.773250   5.839312
                   11         12         13         14         15
    11  C    0.000000
    12  C    1.396726   0.000000
    13  H    2.147313   1.085396   0.000000
    14  C    2.422353   1.387968   2.145730   0.000000
    15  H    1.070000   2.149989   2.474056   3.392491   0.000000
    16  C    3.830852   2.536284   2.725645   1.540000   4.685469
    17  H    4.434574   3.225423   3.459770   2.148263   5.321036
    18  H    4.430065   3.219305   3.450221   2.148263   5.307049
    19  H    3.992173   2.597003   2.336386   2.148263   4.660702
                   16         17         18         19
    16  C    0.000000
    17  H    1.070000   0.000000
    18  H    1.070000   1.747303   0.000000
    19  H    1.070000   1.747303   1.747303   0.000000
 Symmetry turned off by external request.
 Stoichiometry    C7H9BO2
 Framework group  C1[X(C7H9BO2)]
 Deg. of freedom    51
 Full point group                 C1      NOp   1
 Rotational constants (GHZ):           2.2713801           1.1150318           0.7514295
 Standard basis: 6-311+G(d,p) (5D, 7F)
   274 basis functions,   432 primitive gaussians,   284 cartesian basis functions
    36 alpha electrons       36 beta electrons
       nuclear repulsion energy       488.8610826922 Hartrees.
 NAtoms=   19 NActive=   19 NUniq=   19 SFac= 1.00D+00 NAtFMM=   60 NAOKFM=F Big=F
 Integral buffers will be    131072 words long.
 Raffenetti 2 integral format.
 Two-electron integral symmetry is turned off.
 One-electron integrals computed using PRISM.
 NBasis=   274 RedAO= T EigKep=  1.42D-06  NBF=   274
 NBsUse=   274 1.00D-06 EigRej= -1.00D+00 NBFU=   274
 ExpMin= 3.15D-02 ExpMax= 8.59D+03 ExpMxC= 1.30D+03 IAcc=3 IRadAn=         5 AccDes= 0.00D+00
 Harris functional with IExCor= 1009 and IRadAn=       5 diagonalized for initial guess.
 HarFok:  IExCor= 1009 AccDes= 0.00D+00 IRadAn=         5 IDoV= 1 UseB2=F ITyADJ=14
 ICtDFT=  3500011 ScaDFX=  1.000000  1.000000  1.000000  1.000000
 FoFCou: FMM=F IPFlag=           0 FMFlag=      100000 FMFlg1=           0
         NFxFlg=           0 DoJE=T BraDBF=F KetDBF=T FulRan=T
         wScrn=  0.000000 ICntrl=       500 IOpCl=  0 I1Cent=   200000004 NGrid=           0
         NMat0=    1 NMatS0=      1 NMatT0=    0 NMatD0=    1 NMtDS0=    0 NMtDT0=    0
 Symmetry not used in FoFCou.
 Requested convergence on RMS density matrix=1.00D-08 within 128 cycles.
 Requested convergence on MAX density matrix=1.00D-06.
 Requested convergence on             energy=1.00D-06.
 Level shift goal  0.100 maximum shift  0.100.
 No special actions if energy rises.
 Dynamic level shift is on during FON iterations.
 SCF Done:  E(RM062X) =  -447.519981637     A.U. after   14 cycles
            NFock= 14  Conv=0.76D-08     -V/T= 2.0034
 DoSCS=F DFT=T ScalE2(SS,OS)=  1.000000  1.000000
 Range of M.O.s used for correlation:     1   274
 NBasis=   274 NAE=    36 NBE=    36 NFC=     0 NFV=     0
 NROrb=    274 NOA=    36 NOB=    36 NVA=   238 NVB=   238

 **** Warning!!: The largest alpha MO coefficient is  0.19893232D+03

 Symmetrizing basis deriv contribution to polar:
 IMax=3 JMax=2 DiffMx= 0.00D+00
 G2DrvN: will do    20 centers at a time, making    1 passes.
 Calling FoFCou, ICntrl=  3107 FMM=F I1Cent=   0 AccDes= 0.00D+00.
 End of G2Drv F.D. properties file   721 does not exist.
 End of G2Drv F.D. properties file   722 does not exist.
 End of G2Drv F.D. properties file   788 does not exist.
          IDoAtm=1111111111111111111
          Differentiating once with respect to nuclear coordinates.
 Keep R1 ints in memory in canonical form, NReq=745413662.
          There are    60 degrees of freedom in the 1st order CPHF.  IDoFFX=6 NUNeed=     0.
     54 vectors produced by pass  0 Test12= 1.43D-14 1.67D-09 XBig12= 1.76D-01 8.46D-02.
 AX will form    54 AO Fock derivatives at one time.
     54 vectors produced by pass  1 Test12= 1.43D-14 1.67D-09 XBig12= 1.31D-02 2.89D-02.
     54 vectors produced by pass  2 Test12= 1.43D-14 1.67D-09 XBig12= 3.73D-04 3.98D-03.
     54 vectors produced by pass  3 Test12= 1.43D-14 1.67D-09 XBig12= 2.40D-06 2.26D-04.
     54 vectors produced by pass  4 Test12= 1.43D-14 1.67D-09 XBig12= 1.51D-08 1.47D-05.
     54 vectors produced by pass  5 Test12= 1.43D-14 1.67D-09 XBig12= 6.86D-11 8.59D-07.
     45 vectors produced by pass  6 Test12= 1.43D-14 1.67D-09 XBig12= 2.75D-13 6.62D-08.
      7 vectors produced by pass  7 Test12= 1.43D-14 1.67D-09 XBig12= 1.06D-15 2.81D-09.
 InvSVY:  IOpt=1 It=  1 EMax= 3.89D-16
 Solved reduced A of dimension   376 with    60 vectors.
 End of Minotr F.D. properties file   721 does not exist.
 End of Minotr F.D. properties file   722 does not exist.
 End of Minotr F.D. properties file   788 does not exist.

 **********************************************************************

            Population analysis using the SCF Density.

 **********************************************************************

 Alpha  occ. eigenvalues --  -19.63888 -19.63155 -10.55203 -10.55135 -10.54783
 Alpha  occ. eigenvalues --  -10.54339 -10.53988 -10.52678 -10.50947  -7.08487
 Alpha  occ. eigenvalues --   -1.17125  -1.13472  -0.96387  -0.86697  -0.84586
 Alpha  occ. eigenvalues --   -0.77100  -0.70173  -0.66781  -0.65412  -0.62708
 Alpha  occ. eigenvalues --   -0.58237  -0.53468  -0.52280  -0.50649  -0.49789
 Alpha  occ. eigenvalues --   -0.47839  -0.46677  -0.46442  -0.45062  -0.42812
 Alpha  occ. eigenvalues --   -0.41874  -0.40416  -0.39101  -0.37590  -0.31170
 Alpha  occ. eigenvalues --   -0.29877
 Alpha virt. eigenvalues --   -0.00566  -0.00315   0.01316   0.01794   0.02019
 Alpha virt. eigenvalues --    0.03484   0.03556   0.03898   0.05014   0.06742
 Alpha virt. eigenvalues --    0.06839   0.06914   0.08570   0.09854   0.10590
 Alpha virt. eigenvalues --    0.10776   0.11045   0.11918   0.12242   0.13379
 Alpha virt. eigenvalues --    0.13914   0.14857   0.15709   0.16469   0.16609
 Alpha virt. eigenvalues --    0.17588   0.17626   0.18659   0.19469   0.19939
 Alpha virt. eigenvalues --    0.20000   0.21074   0.21688   0.22541   0.23108
 Alpha virt. eigenvalues --    0.23286   0.23664   0.24132   0.24462   0.25340
 Alpha virt. eigenvalues --    0.25421   0.26340   0.26808   0.27159   0.27845
 Alpha virt. eigenvalues --    0.28927   0.29822   0.30058   0.31639   0.32532
 Alpha virt. eigenvalues --    0.33698   0.34667   0.35612   0.36776   0.38109
 Alpha virt. eigenvalues --    0.39863   0.41028   0.43024   0.45257   0.46132
 Alpha virt. eigenvalues --    0.47150   0.48833   0.50272   0.50824   0.52316
 Alpha virt. eigenvalues --    0.55122   0.57527   0.57652   0.57992   0.58816
 Alpha virt. eigenvalues --    0.61912   0.62248   0.62594   0.64076   0.64625
 Alpha virt. eigenvalues --    0.65616   0.66648   0.68834   0.69419   0.70011
 Alpha virt. eigenvalues --    0.71508   0.72126   0.72680   0.74159   0.75344
 Alpha virt. eigenvalues --    0.75727   0.78176   0.79664   0.80975   0.82891
 Alpha virt. eigenvalues --    0.85882   0.86868   0.87108   0.88449   0.91130
 Alpha virt. eigenvalues --    0.91441   0.92258   0.94885   0.95784   0.97185
 Alpha virt. eigenvalues --    1.01032   1.02724   1.04288   1.04988   1.07287
 Alpha virt. eigenvalues --    1.07642   1.08470   1.11104   1.11873   1.12730
 Alpha virt. eigenvalues --    1.13445   1.13919   1.16582   1.20759   1.20989
 Alpha virt. eigenvalues --    1.31212   1.33228   1.36001   1.38928   1.42477
 Alpha virt. eigenvalues --    1.44230   1.45045   1.48882   1.49459   1.50083
 Alpha virt. eigenvalues --    1.53789   1.55474   1.56979   1.59567   1.60100
 Alpha virt. eigenvalues --    1.61743   1.62276   1.62842   1.62942   1.67845
 Alpha virt. eigenvalues --    1.69003   1.71883   1.73546   1.74528   1.76187
 Alpha virt. eigenvalues --    1.76802   1.78211   1.79416   1.83112   1.85387
 Alpha virt. eigenvalues --    1.88076   1.91823   1.92674   1.93952   1.94145
 Alpha virt. eigenvalues --    1.95455   1.96768   1.98196   2.00207   2.01770
 Alpha virt. eigenvalues --    2.06510   2.10033   2.10289   2.10979   2.14319
 Alpha virt. eigenvalues --    2.17985   2.21524   2.26314   2.26609   2.31898
 Alpha virt. eigenvalues --    2.35364   2.42567   2.43128   2.43773   2.45064
 Alpha virt. eigenvalues --    2.55246   2.55831   2.56161   2.57545   2.61609
 Alpha virt. eigenvalues --    2.64760   2.65166   2.68150   2.68794   2.71080
 Alpha virt. eigenvalues --    2.72103   2.73751   2.74961   2.76157   2.77368
 Alpha virt. eigenvalues --    2.78854   2.80455   2.86960   2.87411   2.89094
 Alpha virt. eigenvalues --    2.89335   2.97266   2.98141   2.98675   3.07342
 Alpha virt. eigenvalues --    3.08111   3.11605   3.16030   3.23856   3.24206
 Alpha virt. eigenvalues --    3.26519   3.28329   3.34615   3.42797   3.45129
 Alpha virt. eigenvalues --    3.48646   3.53633   3.58520   3.60038   3.64940
 Alpha virt. eigenvalues --    3.67822   3.75420   3.91933   3.92761   3.95900
 Alpha virt. eigenvalues --    4.01062   4.07149   4.08462   4.19178   4.21737
 Alpha virt. eigenvalues --    4.35358   4.87277   5.08396   5.10613   5.41637
 Alpha virt. eigenvalues --    5.51665   5.70187   5.77104  14.80979  23.68487
 Alpha virt. eigenvalues --   24.00647  24.05765  24.10792  24.16428  24.19830
 Alpha virt. eigenvalues --   24.26932  50.01899  50.06979
          Condensed to atoms (all electrons):
               1          2          3          4          5          6
     1  O    7.975220   0.258696   0.172503   0.422082  -0.107996   0.017375
     2  H    0.258696   0.425190   0.023737  -0.008000  -0.025271   0.002464
     3  C    0.172503   0.023737  11.754267   0.409856  -0.056578  -0.008046
     4  B    0.422082  -0.008000   0.409856   3.364202   0.394387   0.006882
     5  O   -0.107996  -0.025271  -0.056578   0.394387   7.924077   0.264168
     6  H    0.017375   0.002464  -0.008046   0.006882   0.264168   0.431537
     7  C    0.146826  -0.006100  -2.514915  -0.002234   0.053774  -0.066714
     8  H    0.002236  -0.000002   0.004881   0.010715  -0.007226   0.012113
     9  C    0.037970   0.000444   0.506643   0.111860   0.020851   0.041412
    10  H   -0.000021   0.000000  -0.058095  -0.000886   0.000330  -0.000084
    11  C   -0.001615  -0.000147  -1.096198  -0.011876   0.008228  -0.003768
    12  C   -0.029634  -0.007531   0.959224   0.064767  -0.023633   0.004115
    13  H    0.000330   0.000002  -0.039691  -0.000392  -0.000029   0.000002
    14  C   -0.407849  -0.003890  -2.616654  -0.134660  -0.089871   0.047322
    15  H    0.000004   0.000000  -0.002934  -0.000281  -0.000001  -0.000002
    16  C   -0.047367   0.013681  -0.578581  -0.068711   0.008844   0.000067
    17  H   -0.030799  -0.000691   0.007956   0.002783   0.000307   0.000036
    18  H   -0.026445   0.000199   0.016737  -0.000389   0.000329   0.000001
    19  H    0.010773   0.000108  -0.053293   0.001098  -0.000026   0.000000
               7          8          9         10         11         12
     1  O    0.146826   0.002236   0.037970  -0.000021  -0.001615  -0.029634
     2  H   -0.006100  -0.000002   0.000444   0.000000  -0.000147  -0.007531
     3  C   -2.514915   0.004881   0.506643  -0.058095  -1.096198   0.959224
     4  B   -0.002234   0.010715   0.111860  -0.000886  -0.011876   0.064767
     5  O    0.053774  -0.007226   0.020851   0.000330   0.008228  -0.023633
     6  H   -0.066714   0.012113   0.041412  -0.000084  -0.003768   0.004115
     7  C   11.973152   0.334138  -1.582267   0.069657   1.030314  -3.027654
     8  H    0.334138   0.555254   0.025179  -0.007552  -0.012223  -0.017259
     9  C   -1.582267   0.025179   7.093293   0.287458  -0.098696   1.246803
    10  H    0.069657  -0.007552   0.287458   0.510771   0.079214  -0.071640
    11  C    1.030314  -0.012223  -0.098696   0.079214   6.104759  -1.135335
    12  C   -3.027654  -0.017259   1.246803  -0.071640  -1.135335  11.774589
    13  H    0.026340   0.000072  -0.033690  -0.000221   0.057142   0.175268
    14  C   -0.596477  -0.024558  -1.498355   0.042254   0.864491  -2.708060
    15  H   -0.032758  -0.000284   0.042909  -0.006810   0.324009   0.020540
    16  C    0.062766   0.004119  -0.054198   0.003346  -0.064731  -0.461385
    17  H    0.012998  -0.000010  -0.003000  -0.000001   0.001397  -0.031820
    18  H    0.014940  -0.000006  -0.000403  -0.000001  -0.000969  -0.033392
    19  H   -0.000949   0.000014   0.000450  -0.000003   0.032137   0.060215
              13         14         15         16         17         18
     1  O    0.000330  -0.407849   0.000004  -0.047367  -0.030799  -0.026445
     2  H    0.000002  -0.003890   0.000000   0.013681  -0.000691   0.000199
     3  C   -0.039691  -2.616654  -0.002934  -0.578581   0.007956   0.016737
     4  B   -0.000392  -0.134660  -0.000281  -0.068711   0.002783  -0.000389
     5  O   -0.000029  -0.089871  -0.000001   0.008844   0.000307   0.000329
     6  H    0.000002   0.047322  -0.000002   0.000067   0.000036   0.000001
     7  C    0.026340  -0.596477  -0.032758   0.062766   0.012998   0.014940
     8  H    0.000072  -0.024558  -0.000284   0.004119  -0.000010  -0.000006
     9  C   -0.033690  -1.498355   0.042909  -0.054198  -0.003000  -0.000403
    10  H   -0.000221   0.042254  -0.006810   0.003346  -0.000001  -0.000001
    11  C    0.057142   0.864491   0.324009  -0.064731   0.001397  -0.000969
    12  C    0.175268  -2.708060   0.020540  -0.461385  -0.031820  -0.033392
    13  H    0.508862   0.122501  -0.006040   0.034240   0.000132   0.000133
    14  C    0.122501  12.569714  -0.006242  -0.505882   0.039881   0.027053
    15  H   -0.006040  -0.006242   0.501613   0.007226   0.000006   0.000006
    16  C    0.034240  -0.505882   0.007226   7.160100   0.350721   0.356173
    17  H    0.000132   0.039881   0.000006   0.350721   0.518360  -0.023137
    18  H    0.000133   0.027053   0.000006   0.356173  -0.023137   0.511498
    19  H    0.002328  -0.111376  -0.000014   0.441378  -0.029130  -0.030257
              19
     1  O    0.010773
     2  H    0.000108
     3  C   -0.053293
     4  B    0.001098
     5  O   -0.000026
     6  H    0.000000
     7  C   -0.000949
     8  H    0.000014
     9  C    0.000450
    10  H   -0.000003
    11  C    0.032137
    12  C    0.060215
    13  H    0.002328
    14  C   -0.111376
    15  H   -0.000014
    16  C    0.441378
    17  H   -0.029130
    18  H   -0.030257
    19  H    0.517228
 Mulliken charges:
               1
     1  O   -0.392287
     2  H    0.327109
     3  C   -0.830819
     4  B    0.438797
     5  O   -0.364664
     6  H    0.251119
     7  C    0.105163
     8  H    0.120397
     9  C   -0.144664
    10  H    0.152284
    11  C   -0.076132
    12  C   -0.758177
    13  H    0.152711
    14  C    0.990659
    15  H    0.159053
    16  C   -0.661806
    17  H    0.184009
    18  H    0.187929
    19  H    0.159318
 Sum of Mulliken charges =   0.00000
 Mulliken charges with hydrogens summed into heavy atoms:
               1
     1  O   -0.065178
     3  C   -0.830819
     4  B    0.438797
     5  O   -0.113545
     7  C    0.225560
     9  C    0.007621
    11  C    0.082921
    12  C   -0.605466
    14  C    0.990659
    16  C   -0.130551
 APT charges:
               1
     1  O   -0.447837
     2  H    1.953604
     3  C   -1.916245
     4  B   -0.392463
     5  O    1.210980
     6  H   -1.181584
     7  C   -0.527812
     8  H   -0.159307
     9  C   -0.293293
    10  H   -0.753618
    11  C   -0.238029
    12  C   -1.215382
    13  H    1.077075
    14  C    4.081880
    15  H   -0.181092
    16  C   -3.292826
    17  H    1.472439
    18  H    0.011813
    19  H    0.791697
 Sum of APT charges =   0.00000
 APT charges with hydrogens summed into heavy atoms:
               1
     1  O    1.505767
     3  C   -1.916245
     4  B   -0.392463
     5  O    0.029396
     7  C   -0.687118
     9  C   -1.046911
    11  C   -0.419121
    12  C   -0.138307
    14  C    4.081880
    16  C   -1.016877
 Electronic spatial extent (au):  <R**2>=          31702.7354
 Charge=              0.0000 electrons
 Dipole moment (field-independent basis, Debye):
    X=             -0.5309    Y=             -0.7228    Z=              0.3319  Tot=              0.9563
 Quadrupole moment (field-independent basis, Debye-Ang):
   XX=            -60.2113   YY=            -66.5560   ZZ=            -57.0175
   XY=             -6.7537   XZ=              1.0851   YZ=             -4.6840
 Traceless Quadrupole moment (field-independent basis, Debye-Ang):
   XX=              1.0503   YY=             -5.2944   ZZ=              4.2441
   XY=             -6.7537   XZ=              1.0851   YZ=             -4.6840
 Octapole moment (field-independent basis, Debye-Ang**2):
  XXX=          -1043.9734  YYY=          -1354.6749  ZZZ=           -872.9261  XYY=           -424.6754
  XXY=           -447.9910  XXZ=           -268.3893  XZZ=           -347.5820  YZZ=           -468.9465
  YYZ=           -362.0953  XYZ=            -18.7556
 Hexadecapole moment (field-independent basis, Debye-Ang**3):
 XXXX=         -13431.0407 YYYY=         -19933.3204 ZZZZ=          -9062.3606 XXXY=          -7600.1467
 XXXZ=          -5055.4404 YYYX=          -8482.6656 YYYZ=          -7002.3504 ZZZX=          -5469.0113
 ZZZY=          -6581.2555 XXYY=          -5865.2565 XXZZ=          -3700.5033 YYZZ=          -5302.2818
 XXYZ=          -1969.6805 YYXZ=          -2133.7414 ZZXY=          -2723.4427
 N-N= 4.888610826922D+02 E-N=-2.022534026348D+03  KE= 4.460007814354D+02
  Exact polarizability:       0.000       0.000       0.000       0.000       0.000       0.000
 Approx polarizability:     141.336       5.997     123.717      13.562     -23.733      95.180
 Calling FoFJK, ICntrl=    100127 FMM=F ISym2X=0 I1Cent= 0 IOpClX= 0 NMat=1 NMatS=1 NMatT=0.
 -------------------------------------------------------------------
 Center     Atomic                   Forces (Hartrees/Bohr)
 Number     Number              X              Y              Z
 -------------------------------------------------------------------
      1        8           0.010663531   -0.012817533    0.009694727
      2        1           0.000442158   -0.002105002    0.001196838
      3        6          -0.003570747   -0.002475601    0.000306118
      4        5          -0.002022494   -0.003879729    0.001385706
      5        8          -0.000001984    0.000248909   -0.000081238
      6        1          -0.000100957   -0.000073935   -0.000001368
      7        6          -0.000762969   -0.000044592    0.000455489
      8        1          -0.000111218   -0.000085801   -0.000089803
      9        6          -0.006925946   -0.000967111   -0.001316843
     10        1           0.001008565   -0.000262846    0.000025912
     11        6           0.019816627   -0.005124048    0.006927604
     12        6          -0.010309972   -0.001360964   -0.002016965
     13        1           0.001366050   -0.000327822    0.000164151
     14        6           0.021836163    0.015972739   -0.002161655
     15        1          -0.008644888    0.002627011   -0.002703765
     16        6          -0.033460418   -0.005507264   -0.005991635
     17        1           0.006093082    0.005554781    0.007874273
     18        1           0.009555969   -0.001778157   -0.005772526
     19        1          -0.004870552    0.012406964   -0.007895022
 -------------------------------------------------------------------
 Cartesian Forces:  Max     0.033460418 RMS     0.007904074
 FormGI is forming the generalized inverse of G from B-inverse, IUseBI=4.

 GradGradGradGradGradGradGradGradGradGradGradGradGradGradGradGradGradGrad
 Berny optimization.
 Internal  Forces:  Max     0.058675675 RMS     0.013287909
 Search for a local minimum.
 Step number   1 out of a maximum of   96
 All quantities printed in internal units (Hartrees-Bohrs-Radians)
 Mixed Optimization -- RFO/linear search
 Second derivative matrix not updated -- analytic derivatives used.
 ITU=  0
     Eigenvalues ---   -0.01143   0.00101   0.01036   0.01561   0.01750
     Eigenvalues ---    0.01792   0.01829   0.02300   0.02336   0.02552
     Eigenvalues ---    0.02665   0.02786   0.03164   0.04306   0.05880
     Eigenvalues ---    0.05940   0.10306   0.10827   0.11027   0.11884
     Eigenvalues ---    0.12105   0.12479   0.12665   0.14632   0.14828
     Eigenvalues ---    0.16819   0.18113   0.18815   0.18853   0.19347
     Eigenvalues ---    0.20336   0.26117   0.28217   0.29291   0.35394
     Eigenvalues ---    0.35982   0.36068   0.37912   0.38378   0.38999
     Eigenvalues ---    0.39127   0.39403   0.39896   0.42605   0.46739
     Eigenvalues ---    0.47896   0.48527   0.51697   0.55107   0.56269
     Eigenvalues ---    1.38678
 RFO step:  Lambda=-1.42086123D-02 EMin=-1.14273880D-02
 Linear search not attempted -- first point.
 Iteration  1 RMS(Cart)=  0.14164042 RMS(Int)=  0.03498841
 Iteration  2 RMS(Cart)=  0.08400426 RMS(Int)=  0.00352316
 Iteration  3 RMS(Cart)=  0.00551355 RMS(Int)=  0.00032007
 Iteration  4 RMS(Cart)=  0.00001953 RMS(Int)=  0.00031984
 Iteration  5 RMS(Cart)=  0.00000000 RMS(Int)=  0.00031984
 Variable       Old X    -DE/DX   Delta X   Delta X   Delta X     New X
                                 (Linear)    (Quad)   (Total)
    R1        1.81671   0.00158   0.00000   0.00140   0.00140   1.81811
    R2        2.57676  -0.00240   0.00000   0.00515   0.00515   2.58191
    R3        2.95604   0.01719   0.00000   0.00648   0.00648   2.96252
    R4        2.64173   0.00577   0.00000   0.00322   0.00320   2.64494
    R5        2.64678   0.03521   0.00000   0.01838   0.01842   2.66521
    R6        2.58875  -0.00021   0.00000   0.00048   0.00048   2.58923
    R7        1.81103   0.00012   0.00000  -0.00033  -0.00033   1.81070
    R8        2.05474   0.00003   0.00000  -0.00017  -0.00017   2.05457
    R9        2.62671  -0.00488   0.00000  -0.00175  -0.00181   2.62491
   R10        2.05045  -0.00064   0.00000  -0.00321  -0.00321   2.04724
   R11        2.63603  -0.01022   0.00000  -0.01054  -0.01058   2.62544
   R12        2.63943  -0.00676   0.00000  -0.01178  -0.01176   2.62767
   R13        2.02201   0.00936   0.00000   0.02434   0.02434   2.04635
   R14        2.05110  -0.00048   0.00000  -0.00107  -0.00107   2.05003
   R15        2.62288   0.00628   0.00000   0.01264   0.01270   2.63558
   R16        2.91018  -0.01041   0.00000  -0.05605  -0.05605   2.85413
   R17        2.02201   0.01066   0.00000   0.03893   0.03893   2.06094
   R18        2.02201   0.01059   0.00000   0.03209   0.03209   2.05410
   R19        2.02201   0.01547   0.00000   0.03547   0.03547   2.05748
    A1        1.95503  -0.00341   0.00000  -0.01231  -0.01231   1.94272
    A2        2.14534  -0.04952   0.00000  -0.05104  -0.05116   2.09417
    A3        2.08748   0.05868   0.00000   0.03486   0.03470   2.12218
    A4        2.05037  -0.00916   0.00000   0.01611   0.01604   2.06641
    A5        2.06675   0.03909   0.00000   0.02469   0.02383   2.09058
    A6        2.05022  -0.01947   0.00000  -0.01425  -0.01507   2.03514
    A7        2.16621  -0.01962   0.00000  -0.01038  -0.01121   2.15500
    A8        1.99578  -0.00001   0.00000   0.00454   0.00454   2.00032
    A9        2.10550  -0.00582   0.00000  -0.00768  -0.00776   2.09774
   A10        2.12008   0.01192   0.00000   0.01068   0.01052   2.13060
   A11        2.05761  -0.00610   0.00000  -0.00298  -0.00307   2.05453
   A12        2.09278   0.00118   0.00000   0.00899   0.00902   2.10179
   A13        2.10583  -0.00391   0.00000  -0.02734  -0.02740   2.07844
   A14        2.08458   0.00273   0.00000   0.01835   0.01838   2.10295
   A15        2.06440   0.00562   0.00000   0.02680   0.02677   2.09117
   A16        2.11173  -0.00324   0.00000  -0.01318  -0.01326   2.09847
   A17        2.10688  -0.00238   0.00000  -0.01325  -0.01334   2.09355
   A18        2.08150  -0.00344   0.00000   0.00327   0.00320   2.08470
   A19        2.10992   0.00951   0.00000   0.00947   0.00960   2.11952
   A20        2.09176  -0.00608   0.00000  -0.01275  -0.01282   2.07894
   A21        2.11576  -0.01399   0.00000  -0.03572  -0.03578   2.07997
   A22        2.07378   0.04963   0.00000   0.04735   0.04699   2.12077
   A23        2.09364  -0.03564   0.00000  -0.01176  -0.01209   2.08156
   A24        1.91063   0.00541   0.00000   0.02595   0.02577   1.93640
   A25        1.91063   0.00528   0.00000   0.02933   0.02910   1.93974
   A26        1.91063  -0.00361   0.00000   0.01103   0.01071   1.92134
   A27        1.91063  -0.00324   0.00000  -0.05229  -0.05239   1.85825
   A28        1.91063  -0.00194   0.00000  -0.00804  -0.00830   1.90233
   A29        1.91063  -0.00190   0.00000  -0.00598  -0.00632   1.90432
    D1        3.13630   0.00035   0.00000   0.06297   0.06314  -3.08375
    D2       -0.00444  -0.00009   0.00000  -0.01017  -0.01034  -0.01478
    D3        3.10701  -0.00065   0.00000  -0.37386  -0.37414   2.73288
    D4       -0.03550  -0.00017   0.00000  -0.29548  -0.29536  -0.33086
    D5       -0.03758  -0.00072   0.00000  -0.40273  -0.40285  -0.44043
    D6        3.10310  -0.00024   0.00000  -0.32435  -0.32408   2.77902
    D7       -0.00326   0.00001   0.00000  -0.03223  -0.03167  -0.03494
    D8        3.13753   0.00017   0.00000  -0.00404  -0.00341   3.13411
    D9        3.14127  -0.00004   0.00000  -0.00398  -0.00390   3.13736
   D10       -0.00113   0.00012   0.00000   0.02422   0.02436   0.02323
   D11       -3.13685  -0.00002   0.00000   0.00958   0.01039  -3.12646
   D12        0.00087  -0.00011   0.00000  -0.03179  -0.03128  -0.03041
   D13        0.00191  -0.00017   0.00000  -0.01785  -0.01800  -0.01609
   D14        3.13963  -0.00026   0.00000  -0.05922  -0.05967   3.07996
   D15        3.12455   0.00026   0.00000  -0.01781  -0.01843   3.10612
   D16       -0.01613  -0.00024   0.00000  -0.09553  -0.09491  -0.11104
   D17       -3.13803  -0.00009   0.00000  -0.01437  -0.01432   3.13083
   D18        0.00229  -0.00009   0.00000  -0.01357  -0.01326  -0.01096
   D19        0.00278   0.00007   0.00000   0.01308   0.01327   0.01604
   D20       -3.14008   0.00007   0.00000   0.01388   0.01433  -3.12575
   D21       -0.00408   0.00006   0.00000  -0.00432  -0.00438  -0.00846
   D22        3.11798   0.00051   0.00000   0.01757   0.01733   3.13531
   D23        3.13625   0.00006   0.00000  -0.00352  -0.00332   3.13293
   D24       -0.02487   0.00051   0.00000   0.01836   0.01840  -0.00648
   D25       -3.13541  -0.00002   0.00000   0.01696   0.01676  -3.11865
   D26        0.00486  -0.00004   0.00000   0.01075   0.01042   0.01529
   D27        0.02566  -0.00046   0.00000  -0.00486  -0.00490   0.02076
   D28       -3.11725  -0.00048   0.00000  -0.01107  -0.01123  -3.12848
   D29       -0.00387   0.00013   0.00000   0.00066   0.00116  -0.00271
   D30       -3.14155   0.00003   0.00000   0.04237   0.04175  -3.09979
   D31        3.13640   0.00011   0.00000  -0.00558  -0.00514   3.13126
   D32       -0.00128   0.00001   0.00000   0.03613   0.03545   0.03418
   D33       -1.03399  -0.00125   0.00000   0.11885   0.11935  -0.91464
   D34        1.06040   0.00133   0.00000   0.08866   0.08900   1.14940
   D35       -3.12839   0.00003   0.00000   0.10605   0.10652  -3.02187
   D36        2.10378  -0.00129   0.00000   0.07796   0.07759   2.18137
   D37       -2.08501   0.00129   0.00000   0.04777   0.04723  -2.03778
   D38        0.00938  -0.00001   0.00000   0.06516   0.06475   0.07413
         Item               Value     Threshold  Converged?
 Maximum Force            0.058676     0.000015     NO 
 RMS     Force            0.013288     0.000010     NO 
 Maximum Displacement     0.813391     0.000060     NO 
 RMS     Displacement     0.215402     0.000040     NO 
 Predicted change in Energy=-1.052302D-02
 GradGradGradGradGradGradGradGradGradGradGradGradGradGradGradGradGradGrad

                          Input orientation:                          
 ---------------------------------------------------------------------
 Center     Atomic      Atomic             Coordinates (Angstroms)
 Number     Number       Type             X           Y           Z
 ---------------------------------------------------------------------
      1          8           0        8.819341    7.095366    5.259366
      2          1           0        9.587113    6.714301    5.696357
      3          6           0        6.284388    7.000607    5.128160
      4          5           0        7.657089    6.574917    5.754381
      5          8           0        7.778479    5.625260    6.734564
      6          1           0        6.946169    5.302162    7.082384
      7          6           0        5.168833    6.164731    5.254013
      8          1           0        5.258665    5.205054    5.757028
      9          6           0        3.930224    6.502864    4.723970
     10          1           0        3.086833    5.830986    4.828516
     11          6           0        3.788274    7.714162    4.058513
     12          6           0        4.877532    8.570502    3.941503
     13          1           0        4.754556    9.524252    3.439411
     14          6           0        6.126261    8.234771    4.464104
     15          1           0        2.832553    7.993812    3.633040
     16          6           0        7.261827    9.224802    4.357110
     17          1           0        7.689641    9.434926    5.338046
     18          1           0        8.069893    8.829980    3.746643
     19          1           0        6.906131   10.155817    3.918798
 ---------------------------------------------------------------------
                    Distance matrix (angstroms):
                    1          2          3          4          5
     1  O    0.000000
     2  H    0.962104   0.000000
     3  C    2.540115   3.363452   0.000000
     4  B    1.366286   1.935920   1.567698   0.000000
     5  O    2.328265   2.352667   2.589291   1.370162   0.000000
     6  H    3.169819   3.299968   2.672390   1.972030   0.958181
     7  C    3.767269   4.474247   1.399639   2.571000   3.048494
     8  H    4.061940   4.584426   2.161387   2.762059   2.735254
     9  C    4.953905   5.743747   2.439919   3.867359   4.429644
    10  H    5.886080   6.617177   3.417917   4.722065   5.068223
    11  C    5.209280   6.108092   2.807827   4.375110   5.238941
    12  C    4.410289   5.357718   2.419083   3.872315   4.989102
    13  H    5.072889   6.028535   3.400153   4.741558   5.933320
    14  C    3.030407   3.975899   1.410367   2.600648   3.833323
    15  H    6.268475   7.177639   3.890630   5.457976   6.300133
    16  C    2.788264   3.674663   2.548911   3.021671   4.344643
    17  H    2.599222   3.336253   2.818634   2.890337   4.058536
    18  H    2.420514   3.252604   2.905722   3.047414   4.391222
    19  H    3.850176   4.710775   3.435763   4.093428   5.405135
                    6          7          8          9         10
     6  H    0.000000
     7  C    2.691819   0.000000
     8  H    2.147945   1.087232   0.000000
     9  C    4.012447   1.389040   2.125153   0.000000
    10  H    4.500450   2.151083   2.443518   1.083355   0.000000
    11  C    4.993380   2.394974   3.367881   1.389325   2.152040
    12  C    4.982614   2.755952   3.842867   2.405155   3.390920
    13  H    5.991700   3.840675   4.927570   3.385026   4.283821
    14  C    4.015948   2.413647   3.406400   2.808845   3.892185
    15  H    6.005397   3.381020   4.263158   2.148938   2.484278
    16  C    4.786843   3.814328   4.704339   4.317768   5.400999
    17  H    4.547000   4.129856   4.896632   4.807005   5.868036
    18  H    4.983515   4.218040   5.008466   4.848453   5.915683
    19  H    5.793777   4.552996   5.532024   4.779999   5.841129
                   11         12         13         14         15
    11  C    0.000000
    12  C    1.390501   0.000000
    13  H    2.143225   1.084831   0.000000
    14  C    2.429346   1.394686   2.143439   0.000000
    15  H    1.082882   2.147012   2.464515   3.405472   0.000000
    16  C    3.799575   2.507130   2.686681   1.510338   4.653825
    17  H    4.451843   3.256612   3.496787   2.155993   5.345574
    18  H    4.435604   3.208812   3.401157   2.155628   5.304886
    19  H    3.962605   2.574676   2.293025   2.143822   4.620602
                   16         17         18         19
    16  C    0.000000
    17  H    1.090602   0.000000
    18  H    1.086980   1.744453   0.000000
    19  H    1.088772   1.774215   1.772519   0.000000
 Symmetry turned off by external request.
 Stoichiometry    C7H9BO2
 Framework group  C1[X(C7H9BO2)]
 Deg. of freedom    51
 Full point group                 C1      NOp   1
 Rotational constants (GHZ):           2.2116082           1.1022651           0.7524598
 Standard basis: 6-311+G(d,p) (5D, 7F)
   274 basis functions,   432 primitive gaussians,   284 cartesian basis functions
    36 alpha electrons       36 beta electrons
       nuclear repulsion energy       486.3934023063 Hartrees.
 NAtoms=   19 NActive=   19 NUniq=   19 SFac= 1.00D+00 NAtFMM=   60 NAOKFM=F Big=F
 Integral buffers will be    131072 words long.
 Raffenetti 2 integral format.
 Two-electron integral symmetry is turned off.
 One-electron integrals computed using PRISM.
 NBasis=   274 RedAO= T EigKep=  1.43D-06  NBF=   274
 NBsUse=   274 1.00D-06 EigRej= -1.00D+00 NBFU=   274
 Initial guess from the checkpoint file:  "2-Me-phboh2-opt-freq.chk"
 B after Tr=    -0.216973   -0.035416    0.260953
         Rot=    0.999934    0.008809   -0.002098    0.007112 Ang=   1.32 deg.
 ExpMin= 3.15D-02 ExpMax= 8.59D+03 ExpMxC= 1.30D+03 IAcc=3 IRadAn=         5 AccDes= 0.00D+00
 Harris functional with IExCor= 1009 and IRadAn=       5 diagonalized for initial guess.
 HarFok:  IExCor= 1009 AccDes= 0.00D+00 IRadAn=         5 IDoV= 1 UseB2=F ITyADJ=14
 ICtDFT=  3500011 ScaDFX=  1.000000  1.000000  1.000000  1.000000
 FoFCou: FMM=F IPFlag=           0 FMFlag=      100000 FMFlg1=           0
         NFxFlg=           0 DoJE=T BraDBF=F KetDBF=T FulRan=T
         wScrn=  0.000000 ICntrl=       500 IOpCl=  0 I1Cent=   200000004 NGrid=           0
         NMat0=    1 NMatS0=      1 NMatT0=    0 NMatD0=    1 NMtDS0=    0 NMtDT0=    0
 Symmetry not used in FoFCou.
 Requested convergence on RMS density matrix=1.00D-08 within 128 cycles.
 Requested convergence on MAX density matrix=1.00D-06.
 Requested convergence on             energy=1.00D-06.
 Level shift goal  0.100 maximum shift  0.100.
 No special actions if energy rises.
 Dynamic level shift is on during FON iterations.
 SCF Done:  E(RM062X) =  -447.528603972     A.U. after   15 cycles
            NFock= 15  Conv=0.32D-08     -V/T= 2.0037
 Calling FoFJK, ICntrl=      2127 FMM=F ISym2X=0 I1Cent= 0 IOpClX= 0 NMat=1 NMatS=1 NMatT=0.
 -------------------------------------------------------------------
 Center     Atomic                   Forces (Hartrees/Bohr)
 Number     Number              X              Y              Z
 -------------------------------------------------------------------
      1        8           0.000055588   -0.001278566    0.003362957
      2        1           0.000088738    0.000083857    0.000322554
      3        6          -0.001103595    0.003887906    0.003487979
      4        5           0.002303380   -0.005471913   -0.005910345
      5        8          -0.000121715    0.000743763    0.001166663
      6        1          -0.000797209    0.000499390    0.000210294
      7        6           0.000505002   -0.001719661   -0.000509312
      8        1           0.000869447    0.000051444    0.000075654
      9        6          -0.000583979    0.000440790   -0.000714622
     10        1           0.000128784   -0.000116624   -0.000073348
     11        6           0.000826168   -0.000712916    0.000139337
     12        6          -0.000249914   -0.000222733   -0.000519912
     13        1           0.000109118   -0.000023981   -0.000122938
     14        6           0.000550433    0.001393565    0.002259158
     15        1          -0.000737857    0.000421119    0.000076010
     16        6          -0.002996011    0.000033962   -0.001423202
     17        1          -0.000043497    0.000832852    0.000028789
     18        1           0.001250940   -0.000192090   -0.001703345
     19        1          -0.000053822    0.001349839   -0.000152370
 -------------------------------------------------------------------
 Cartesian Forces:  Max     0.005910345 RMS     0.001609556

 GradGradGradGradGradGradGradGradGradGradGradGradGradGradGradGradGradGrad
 Berny optimization.
 Using GEDIIS/GDIIS optimizer.
 FormGI is forming the generalized inverse of G from B-inverse, IUseBI=4.
 Internal  Forces:  Max     0.010307909 RMS     0.002154827
 Search for a local minimum.
 Step number   2 out of a maximum of   96
 All quantities printed in internal units (Hartrees-Bohrs-Radians)
 Mixed Optimization -- RFO/linear search
 Update second derivatives using D2CorX and points    1    2
 DE= -8.62D-03 DEPred=-1.05D-02 R= 8.19D-01
 TightC=F SS=  1.41D+00  RLast= 7.68D-01 DXNew= 5.0454D-01 2.3041D+00
 Trust test= 8.19D-01 RLast= 7.68D-01 DXMaxT set to 5.05D-01
 ITU=  1  0
 Use linear search instead of GDIIS.
     Eigenvalues ---   -0.12598   0.00101   0.01035   0.01561   0.01751
     Eigenvalues ---    0.01790   0.01809   0.02295   0.02322   0.02538
     Eigenvalues ---    0.02664   0.02786   0.03119   0.04144   0.05883
     Eigenvalues ---    0.05913   0.09171   0.10336   0.10830   0.11034
     Eigenvalues ---    0.11886   0.12125   0.12573   0.14486   0.14797
     Eigenvalues ---    0.14946   0.17136   0.18362   0.18863   0.19160
     Eigenvalues ---    0.19775   0.24025   0.26887   0.29104   0.30087
     Eigenvalues ---    0.35396   0.35986   0.36073   0.37967   0.38441
     Eigenvalues ---    0.39026   0.39140   0.39905   0.42596   0.46468
     Eigenvalues ---    0.47894   0.48502   0.51657   0.55103   0.56239
     Eigenvalues ---    0.59179
 RFO step:  Lambda=-1.26087039D-01 EMin=-1.25977677D-01
 I=     1 Eig=   -1.26D-01 Dot1=  2.23D-03
 I=     1 Stepn=  6.00D-01 RXN=   6.00D-01 EDone=F
 Mixed    1 eigenvectors in step.  Raw Step.Grad=  2.23D-03.
 RFO eigenvector is Hessian eigenvector with negative curvature.
 Taking step of  6.00D-01 in eigenvector direction(s).  Step.Grad= -1.17D-03.
 Quartic linear search produced a step of  0.12429.
 Iteration  1 RMS(Cart)=  0.22397978 RMS(Int)=  0.01354114
 Iteration  2 RMS(Cart)=  0.03542708 RMS(Int)=  0.00088436
 Iteration  3 RMS(Cart)=  0.00072433 RMS(Int)=  0.00080454
 Iteration  4 RMS(Cart)=  0.00000053 RMS(Int)=  0.00080454
 Variable       Old X    -DE/DX   Delta X   Delta X   Delta X     New X
                                 (Linear)    (Quad)   (Total)
    R1        1.81811   0.00018   0.00017   0.00356   0.00374   1.82185
    R2        2.58191  -0.00166   0.00064  -0.00047   0.00017   2.58208
    R3        2.96252   0.00248   0.00080   0.03083   0.03163   2.99415
    R4        2.64494   0.00034   0.00040   0.01269   0.01291   2.65785
    R5        2.66521   0.00447   0.00229   0.06013   0.06257   2.72777
    R6        2.58923   0.00004   0.00006   0.00451   0.00457   2.59380
    R7        1.81070   0.00060  -0.00004   0.00094   0.00090   1.81160
    R8        2.05457   0.00006  -0.00002  -0.00025  -0.00027   2.05430
    R9        2.62491   0.00006  -0.00022  -0.00686  -0.00741   2.61749
   R10        2.04724  -0.00003  -0.00040  -0.00576  -0.00616   2.04109
   R11        2.62544  -0.00114  -0.00132  -0.03104  -0.03250   2.59294
   R12        2.62767  -0.00026  -0.00146  -0.02367  -0.02496   2.60270
   R13        2.04635   0.00073   0.00303   0.05950   0.06252   2.10887
   R14        2.05003   0.00002  -0.00013  -0.00260  -0.00273   2.04730
   R15        2.63558   0.00080   0.00158   0.02964   0.03155   2.66712
   R16        2.85413   0.00017  -0.00697  -0.09917  -0.10613   2.74799
   R17        2.06094   0.00017   0.00484   0.07871   0.08355   2.14449
   R18        2.05410   0.00196   0.00399   0.09429   0.09828   2.15238
   R19        2.05748   0.00124   0.00441   0.09006   0.09447   2.15195
    A1        1.94272  -0.00014  -0.00153  -0.01804  -0.01957   1.92315
    A2        2.09417  -0.00915  -0.00636  -0.16051  -0.16702   1.92715
    A3        2.12218   0.01031   0.00431   0.14294   0.14710   2.26927
    A4        2.06641  -0.00114   0.00199   0.01848   0.02035   2.08676
    A5        2.09058   0.00649   0.00296   0.09982   0.10193   2.19251
    A6        2.03514  -0.00169  -0.00187  -0.03501  -0.03774   1.99740
    A7        2.15500  -0.00467  -0.00139  -0.05948  -0.06173   2.09327
    A8        2.00032  -0.00103   0.00056  -0.00383  -0.00327   1.99705
    A9        2.09774  -0.00159  -0.00096  -0.02025  -0.02102   2.07672
   A10        2.13060   0.00141   0.00131   0.02990   0.03072   2.16132
   A11        2.05453   0.00018  -0.00038  -0.00934  -0.00951   2.04503
   A12        2.10179  -0.00003   0.00112   0.01541   0.01677   2.11856
   A13        2.07844  -0.00019  -0.00341  -0.04975  -0.05363   2.02481
   A14        2.10295   0.00021   0.00228   0.03434   0.03686   2.13982
   A15        2.09117   0.00011   0.00333   0.04887   0.05222   2.14339
   A16        2.09847  -0.00001  -0.00165  -0.02569  -0.02737   2.07110
   A17        2.09355  -0.00010  -0.00166  -0.02317  -0.02485   2.06869
   A18        2.08470  -0.00065   0.00040   0.00005   0.00018   2.08488
   A19        2.11952   0.00146   0.00119   0.02741   0.02911   2.14863
   A20        2.07894  -0.00081  -0.00159  -0.02741  -0.02927   2.04967
   A21        2.07997  -0.00164  -0.00445  -0.07440  -0.07853   2.00145
   A22        2.12077   0.00690   0.00584   0.13452   0.13988   2.26065
   A23        2.08156  -0.00523  -0.00150  -0.05851  -0.06051   2.02105
   A24        1.93640   0.00063   0.00320   0.04798   0.05059   1.98699
   A25        1.93974   0.00030   0.00362   0.03830   0.04137   1.98110
   A26        1.92134   0.00023   0.00133   0.00706   0.00796   1.92931
   A27        1.85825   0.00013  -0.00651  -0.05423  -0.06140   1.79685
   A28        1.90233  -0.00082  -0.00103  -0.02390  -0.02534   1.87699
   A29        1.90432  -0.00051  -0.00079  -0.01889  -0.02002   1.88430
    D1       -3.08375  -0.00113   0.00785  -0.05713  -0.05046  -3.13422
    D2       -0.01478   0.00066  -0.00129   0.01893   0.01883   0.00405
    D3        2.73288   0.00025  -0.04650   0.22717   0.18128   2.91415
    D4       -0.33086  -0.00185  -0.03671   0.14391   0.10692  -0.22395
    D5       -0.44043   0.00095  -0.05007   0.26143   0.21164  -0.22878
    D6        2.77902  -0.00115  -0.04028   0.17816   0.13729   2.91630
    D7       -0.03494   0.00046  -0.00394   0.02726   0.02125  -0.01369
    D8        3.13411   0.00048  -0.00042   0.01355   0.01080  -3.13827
    D9        3.13736  -0.00043  -0.00049  -0.00830  -0.00828   3.12909
   D10        0.02323  -0.00041   0.00303  -0.02201  -0.01873   0.00450
   D11       -3.12646  -0.00015   0.00129  -0.01248  -0.01377  -3.14023
   D12       -0.03041   0.00038  -0.00389   0.02718   0.02199  -0.00843
   D13       -0.01609   0.00039  -0.00224   0.01804   0.01600  -0.00009
   D14        3.07996   0.00092  -0.00742   0.05769   0.05176   3.13172
   D15        3.10612  -0.00160  -0.00229  -0.01756  -0.01760   3.08853
   D16       -0.11104   0.00078  -0.01180   0.06890   0.05485  -0.05619
   D17        3.13083   0.00006  -0.00178   0.00854   0.00662   3.13745
   D18       -0.01096   0.00009  -0.00165   0.00873   0.00624  -0.00472
   D19        0.01604   0.00010   0.00165  -0.00467  -0.00347   0.01258
   D20       -3.12575   0.00014   0.00178  -0.00447  -0.00384  -3.12959
   D21       -0.00846   0.00023  -0.00054   0.00936   0.00905   0.00059
   D22        3.13531   0.00012   0.00215   0.00307   0.00582   3.14114
   D23        3.13293   0.00027  -0.00041   0.00956   0.00867  -3.14158
   D24       -0.00648   0.00016   0.00229   0.00326   0.00544  -0.00104
   D25       -3.11865  -0.00045   0.00208  -0.02089  -0.01835  -3.13701
   D26        0.01529  -0.00026   0.00130  -0.01354  -0.01147   0.00381
   D27        0.02076  -0.00035  -0.00061  -0.01461  -0.01513   0.00563
   D28       -3.12848  -0.00015  -0.00140  -0.00727  -0.00825  -3.13673
   D29       -0.00271  -0.00004   0.00014  -0.00004  -0.00118  -0.00389
   D30       -3.09979  -0.00088   0.00519  -0.04392  -0.03731  -3.13710
   D31        3.13126   0.00015  -0.00064   0.00740   0.00568   3.13694
   D32        0.03418  -0.00069   0.00441  -0.03648  -0.03044   0.00373
   D33       -0.91464  -0.00057   0.01483  -0.06405  -0.05011  -0.96475
   D34        1.14940   0.00019   0.01106  -0.07628  -0.06591   1.08349
   D35       -3.02187  -0.00011   0.01324  -0.07008  -0.05768  -3.07955
   D36        2.18137   0.00005   0.00964  -0.02476  -0.01440   2.16696
   D37       -2.03778   0.00081   0.00587  -0.03700  -0.03020  -2.06798
   D38        0.07413   0.00051   0.00805  -0.03080  -0.02197   0.05216
         Item               Value     Threshold  Converged?
 Maximum Force            0.010308     0.000015     NO 
 RMS     Force            0.002155     0.000010     NO 
 Maximum Displacement     0.785635     0.000060     NO 
 RMS     Displacement     0.248243     0.000040     NO 
 Predicted change in Energy=-2.480933D-02
 GradGradGradGradGradGradGradGradGradGradGradGradGradGradGradGradGradGrad

                          Input orientation:                          
 ---------------------------------------------------------------------
 Center     Atomic      Atomic             Coordinates (Angstroms)
 Number     Number       Type             X           Y           Z
 ---------------------------------------------------------------------
      1          8           0        8.957515    6.915490    5.611669
      2          1           0        9.575060    6.369903    6.112097
      3          6           0        6.381362    7.089324    5.129493
      4          5           0        7.679554    6.466237    5.790476
      5          8           0        7.570905    5.378077    6.619980
      6          1           0        6.670557    5.091339    6.781776
      7          6           0        5.287012    6.219165    5.282399
      8          1           0        5.435971    5.269532    5.790106
      9          6           0        4.015171    6.488090    4.804222
     10          1           0        3.203382    5.788833    4.940781
     11          6           0        3.857357    7.686435    4.154766
     12          6           0        4.889476    8.581147    3.978258
     13          1           0        4.702909    9.514301    3.460436
     14          6           0        6.201115    8.346602    4.443646
     15          1           0        2.850390    7.947972    3.751032
     16          6           0        7.165766    9.401226    4.175620
     17          1           0        7.685878    9.794167    5.104536
     18          1           0        8.034219    9.066468    3.519097
     19          1           0        6.660207   10.284961    3.665517
 ---------------------------------------------------------------------
                    Distance matrix (angstroms):
                    1          2          3          4          5
     1  O    0.000000
     2  H    0.964082   0.000000
     3  C    2.626648   3.418009   0.000000
     4  B    1.366377   1.925011   1.584436   0.000000
     5  O    2.302828   2.293099   2.562212   1.372580   0.000000
     6  H    3.150691   3.243353   2.608758   1.972586   0.958657
     7  C    3.750451   4.370181   1.406471   2.458342   2.777179
     8  H    3.891310   4.294946   2.154488   2.542788   2.293124
     9  C    5.026073   5.712870   2.462955   3.794849   4.143954
    10  H    5.901653   6.504454   3.438961   4.606189   4.697200
    11  C    5.359901   6.185187   2.770783   4.332854   5.019586
    12  C    4.689498   5.603354   2.403456   3.942273   4.942511
    13  H    5.429853   6.376238   3.388727   4.855945   5.942767
    14  C    3.318148   4.251421   1.443476   2.745087   3.927454
    15  H    6.467223   7.299735   3.886541   5.447540   6.092495
    16  C    3.384005   4.329384   2.621079   3.389085   4.724909
    17  H    3.187637   4.038537   3.003092   3.397892   4.670294
    18  H    3.139752   4.045900   3.038817   3.470756   4.840905
    19  H    4.518681   5.459836   3.526056   4.487446   5.799633
                    6          7          8          9         10
     6  H    0.000000
     7  C    2.331163   0.000000
     8  H    1.593539   1.087087   0.000000
     9  C    3.593426   1.385119   2.115543   0.000000
    10  H    3.987112   2.154856   2.444480   1.080097   0.000000
    11  C    4.642176   2.338451   3.317797   1.372126   2.155550
    12  C    4.817751   2.727229   3.814216   2.414025   3.400938
    13  H    5.870735   3.810335   4.897225   3.381819   4.280084
    14  C    4.035339   2.462738   3.444816   2.891787   3.971867
    15  H    5.651499   3.357229   4.244655   2.144104   2.490379
    16  C    5.060870   3.857485   4.761266   4.336791   5.416211
    17  H    5.095155   4.308925   5.099452   4.949185   6.013509
    18  H    5.320366   4.331687   5.130799   4.944929   6.008416
    19  H    6.056805   4.585921   5.582756   4.765406   5.813012
                   11         12         13         14         15
    11  C    0.000000
    12  C    1.377292   0.000000
    13  H    2.130293   1.083385   0.000000
    14  C    2.452034   1.411380   2.138889   0.000000
    15  H    1.115968   2.147187   2.443289   3.444703   0.000000
    16  C    3.726461   2.427546   2.567088   1.454174   4.573259
    17  H    4.472378   3.249582   3.417527   2.176406   5.349986
    18  H    4.444630   3.214930   3.361788   2.175607   5.308193
    19  H    3.853267   2.477151   2.113525   2.138571   4.470295
                   16         17         18         19
    16  C    0.000000
    17  H    1.134814   0.000000
    18  H    1.138989   1.778905   0.000000
    19  H    1.138764   1.834027   1.842301   0.000000
 Symmetry turned off by external request.
 Stoichiometry    C7H9BO2
 Framework group  C1[X(C7H9BO2)]
 Deg. of freedom    51
 Full point group                 C1      NOp   1
 Rotational constants (GHZ):           2.0727034           1.1063278           0.7287965
 Standard basis: 6-311+G(d,p) (5D, 7F)
   274 basis functions,   432 primitive gaussians,   284 cartesian basis functions
    36 alpha electrons       36 beta electrons
       nuclear repulsion energy       482.4706488426 Hartrees.
 NAtoms=   19 NActive=   19 NUniq=   19 SFac= 1.00D+00 NAtFMM=   60 NAOKFM=F Big=F
 Integral buffers will be    131072 words long.
 Raffenetti 2 integral format.
 Two-electron integral symmetry is turned off.
 One-electron integrals computed using PRISM.
 NBasis=   274 RedAO= T EigKep=  1.37D-06  NBF=   274
 NBsUse=   274 1.00D-06 EigRej= -1.00D+00 NBFU=   274
 Initial guess from the checkpoint file:  "2-Me-phboh2-opt-freq.chk"
 B after Tr=    -0.017775    0.262151   -0.303553
         Rot=    0.999929   -0.007343    0.006600    0.006673 Ang=  -1.37 deg.
 ExpMin= 3.15D-02 ExpMax= 8.59D+03 ExpMxC= 1.30D+03 IAcc=3 IRadAn=         5 AccDes= 0.00D+00
 Harris functional with IExCor= 1009 and IRadAn=       5 diagonalized for initial guess.
 HarFok:  IExCor= 1009 AccDes= 0.00D+00 IRadAn=         5 IDoV= 1 UseB2=F ITyADJ=14
 ICtDFT=  3500011 ScaDFX=  1.000000  1.000000  1.000000  1.000000
 FoFCou: FMM=F IPFlag=           0 FMFlag=      100000 FMFlg1=           0
         NFxFlg=           0 DoJE=T BraDBF=F KetDBF=T FulRan=T
         wScrn=  0.000000 ICntrl=       500 IOpCl=  0 I1Cent=   200000004 NGrid=           0
         NMat0=    1 NMatS0=      1 NMatT0=    0 NMatD0=    1 NMtDS0=    0 NMtDT0=    0
 Symmetry not used in FoFCou.
 Requested convergence on RMS density matrix=1.00D-08 within 128 cycles.
 Requested convergence on MAX density matrix=1.00D-06.
 Requested convergence on             energy=1.00D-06.
 Level shift goal  0.100 maximum shift  0.100.
 No special actions if energy rises.
 Dynamic level shift is on during FON iterations.
 SCF Done:  E(RM062X) =  -447.509119330     A.U. after   15 cycles
            NFock= 15  Conv=0.23D-08     -V/T= 2.0041
 Calling FoFJK, ICntrl=      2127 FMM=F ISym2X=0 I1Cent= 0 IOpClX= 0 NMat=1 NMatS=1 NMatT=0.
 -------------------------------------------------------------------
 Center     Atomic                   Forces (Hartrees/Bohr)
 Number     Number              X              Y              Z
 -------------------------------------------------------------------
      1        8          -0.004588692    0.004562500   -0.004287702
      2        1          -0.001088225    0.001806410   -0.001210142
      3        6           0.007492802    0.007297507   -0.001891147
      4        5           0.005409223    0.005005276    0.001364071
      5        8           0.002365027   -0.001987231    0.002402838
      6        1           0.006154502    0.000766334    0.003510368
      7        6          -0.000174703    0.001989869   -0.001785478
      8        1          -0.005530428    0.001602029   -0.005621651
      9        6           0.010171856   -0.002972723    0.004532118
     10        1          -0.001600643   -0.000196387   -0.000435070
     11        6          -0.039528196    0.010791819   -0.016404467
     12        6           0.017680683    0.003513485    0.002916036
     13        1          -0.002265704    0.000056987   -0.000578974
     14        6          -0.042108553   -0.040863361    0.009436428
     15        1           0.017163513   -0.003233207    0.006402180
     16        6           0.051147536    0.037715450   -0.006755143
     17        1          -0.013539635   -0.009162889   -0.016956924
     18        1          -0.021457863    0.005135264    0.012809504
     19        1           0.014297499   -0.021827132    0.012553155
 -------------------------------------------------------------------
 Cartesian Forces:  Max     0.051147536 RMS     0.014986702

 GradGradGradGradGradGradGradGradGradGradGradGradGradGradGradGradGradGrad
 Berny optimization.
 Using GEDIIS/GDIIS optimizer.
 FormGI is forming the generalized inverse of G from B-inverse, IUseBI=4.
 Internal  Forces:  Max     0.049501399 RMS     0.012242877
 Search for a local minimum.
 Step number   3 out of a maximum of   96
 All quantities printed in internal units (Hartrees-Bohrs-Radians)
 Mixed Optimization -- RFO/linear search
 Update second derivatives using D2CorX and points    3    2
 ITU=  0  1  0
 Use linear search instead of GDIIS.
     Eigenvalues ---    0.00101   0.01034   0.01560   0.01750   0.01786
     Eigenvalues ---    0.01804   0.02278   0.02319   0.02524   0.02662
     Eigenvalues ---    0.02784   0.03112   0.04035   0.05403   0.05879
     Eigenvalues ---    0.06124   0.10314   0.10815   0.11028   0.11842
     Eigenvalues ---    0.12112   0.12573   0.12858   0.14742   0.14831
     Eigenvalues ---    0.16758   0.18349   0.18742   0.18963   0.19720
     Eigenvalues ---    0.21443   0.26071   0.28906   0.30122   0.34821
     Eigenvalues ---    0.35977   0.36071   0.37239   0.38351   0.39023
     Eigenvalues ---    0.39133   0.39763   0.40081   0.43189   0.46528
     Eigenvalues ---    0.47895   0.48507   0.51826   0.55105   0.56428
     Eigenvalues ---    0.62899
 RFO step:  Lambda=-1.17042073D-03 EMin= 1.00698976D-03
 Quartic linear search produced a step of -0.87587.
 Iteration  1 RMS(Cart)=  0.21974074 RMS(Int)=  0.01577245
 Iteration  2 RMS(Cart)=  0.02791666 RMS(Int)=  0.00113412
 Iteration  3 RMS(Cart)=  0.00053886 RMS(Int)=  0.00110044
 Iteration  4 RMS(Cart)=  0.00000029 RMS(Int)=  0.00110044
 Variable       Old X    -DE/DX   Delta X   Delta X   Delta X     New X
                                 (Linear)    (Quad)   (Total)
    R1        1.82185  -0.00235  -0.00327  -0.00016  -0.00344   1.81841
    R2        2.58208  -0.00250  -0.00015  -0.00419  -0.00434   2.57774
    R3        2.99415   0.00351  -0.02770   0.00717  -0.02053   2.97362
    R4        2.65785   0.00267  -0.01131   0.00210  -0.00922   2.64862
    R5        2.72777  -0.02703  -0.05480  -0.00071  -0.05549   2.67228
    R6        2.59380   0.00387  -0.00400   0.00183  -0.00217   2.59163
    R7        1.81160  -0.00542  -0.00079  -0.00008  -0.00087   1.81073
    R8        2.05430  -0.00478   0.00024  -0.00150  -0.00126   2.05304
    R9        2.61749   0.00739   0.00649   0.00149   0.00798   2.62548
   R10        2.04109   0.00127   0.00539   0.00024   0.00563   2.04672
   R11        2.59294   0.01202   0.02847   0.00066   0.02916   2.62210
   R12        2.60270   0.00584   0.02186   0.00107   0.02293   2.62563
   R13        2.10887  -0.01856  -0.05476  -0.00136  -0.05612   2.05275
   R14        2.04730   0.00072   0.00239   0.00015   0.00254   2.04984
   R15        2.66712  -0.00627  -0.02763   0.00008  -0.02758   2.63954
   R16        2.74799   0.02850   0.09296   0.00899   0.10195   2.84994
   R17        2.14449  -0.02326  -0.07318  -0.00211  -0.07529   2.06920
   R18        2.15238  -0.02525  -0.08608   0.00107  -0.08502   2.06736
   R19        2.15195  -0.02891  -0.08274  -0.00165  -0.08440   2.06756
    A1        1.92315   0.00105   0.01714   0.00088   0.01802   1.94117
    A2        1.92715   0.04950   0.14629  -0.00651   0.13919   2.06634
    A3        2.26927  -0.04237  -0.12884   0.01120  -0.11794   2.15134
    A4        2.08676  -0.00713  -0.01782  -0.00473  -0.02300   2.06376
    A5        2.19251  -0.02781  -0.08928   0.00636  -0.08226   2.11025
    A6        1.99740  -0.00136   0.03306  -0.00286   0.03086   2.02826
    A7        2.09327   0.02918   0.05407  -0.00332   0.05141   2.14468
    A8        1.99705   0.00650   0.00286  -0.00120   0.00166   1.99871
    A9        2.07672   0.00746   0.01841  -0.00148   0.01698   2.09369
   A10        2.16132  -0.00312  -0.02691   0.00249  -0.02451   2.13681
   A11        2.04503  -0.00436   0.00833  -0.00101   0.00738   2.05240
   A12        2.11856  -0.00268  -0.01469  -0.00210  -0.01676   2.10180
   A13        2.02481   0.00755   0.04697   0.00165   0.04857   2.07338
   A14        2.13982  -0.00487  -0.03229   0.00044  -0.03182   2.10800
   A15        2.14339  -0.01396  -0.04574  -0.00446  -0.05034   2.09305
   A16        2.07110   0.00827   0.02397   0.00364   0.02763   2.09874
   A17        2.06869   0.00569   0.02177   0.00081   0.02263   2.09132
   A18        2.08488  -0.00019  -0.00016  -0.00133  -0.00145   2.08343
   A19        2.14863  -0.00418  -0.02550   0.00236  -0.02333   2.12530
   A20        2.04967   0.00437   0.02564  -0.00102   0.02469   2.07436
   A21        2.00145   0.02083   0.06878   0.00274   0.07125   2.07269
   A22        2.26065  -0.03651  -0.12252   0.00440  -0.11796   2.14270
   A23        2.02105   0.01568   0.05300  -0.00657   0.04634   2.06739
   A24        1.98699  -0.00442  -0.04431   0.00963  -0.03452   1.95248
   A25        1.98110  -0.00404  -0.03623  -0.00946  -0.04563   1.93547
   A26        1.92931   0.00365  -0.00697   0.00373  -0.00317   1.92613
   A27        1.79685   0.00468   0.05378   0.00384   0.05776   1.85461
   A28        1.87699   0.00050   0.02220  -0.00644   0.01594   1.89293
   A29        1.88430  -0.00009   0.01753  -0.00182   0.01566   1.89996
    D1       -3.13422  -0.00116   0.04420  -0.06982  -0.02449   3.12447
    D2        0.00405   0.00072  -0.01649  -0.00416  -0.02178  -0.01774
    D3        2.91415  -0.00230  -0.15877  -0.02347  -0.18237   2.73178
    D4       -0.22395  -0.00421  -0.09365  -0.09245  -0.18520  -0.40915
    D5       -0.22878  -0.00100  -0.18537  -0.05954  -0.24581  -0.47459
    D6        2.91630  -0.00292  -0.12024  -0.12852  -0.24865   2.66766
    D7       -0.01369  -0.00101  -0.01861  -0.08512  -0.10532  -0.11901
    D8       -3.13827   0.00017  -0.00946  -0.08502  -0.09656   3.04835
    D9        3.12909  -0.00212   0.00725  -0.05338  -0.04502   3.08407
   D10        0.00450  -0.00093   0.01640  -0.05328  -0.03625  -0.03175
   D11       -3.14023  -0.00042   0.01206   0.10654   0.11749  -3.02275
   D12       -0.00843  -0.00028  -0.01926   0.18085   0.15843   0.15000
   D13       -0.00009   0.00101  -0.01402   0.06768   0.05424   0.05415
   D14        3.13172   0.00115  -0.04534   0.14199   0.09518  -3.05628
   D15        3.08853  -0.00324   0.01541  -0.10198  -0.08874   2.99979
   D16       -0.05619  -0.00159  -0.04804  -0.04037  -0.08625  -0.14243
   D17        3.13745  -0.00010  -0.00580   0.00188  -0.00383   3.13361
   D18       -0.00472   0.00021  -0.00547  -0.00233  -0.00743  -0.01215
   D19        0.01258   0.00096   0.00304   0.00198   0.00464   0.01721
   D20       -3.12959   0.00127   0.00337  -0.00223   0.00104  -3.12855
   D21        0.00059   0.00036  -0.00793   0.04035   0.03235   0.03294
   D22        3.14114   0.00000  -0.00510   0.02595   0.01999  -3.12206
   D23       -3.14158   0.00068  -0.00759   0.03609   0.02875  -3.11284
   D24       -0.00104   0.00032  -0.00477   0.02169   0.01639   0.01535
   D25       -3.13701  -0.00039   0.01607  -0.04376  -0.02930   3.11688
   D26        0.00381  -0.00023   0.01005  -0.02208  -0.01332  -0.00950
   D27        0.00563  -0.00003   0.01325  -0.02938  -0.01700  -0.01137
   D28       -3.13673   0.00013   0.00723  -0.00770  -0.00101  -3.13774
   D29       -0.00389  -0.00052   0.00104  -0.03319  -0.03098  -0.03488
   D30       -3.13710  -0.00032   0.03268  -0.09691  -0.06917   3.07692
   D31        3.13694  -0.00035  -0.00498  -0.01192  -0.01509   3.12186
   D32        0.00373  -0.00016   0.02666  -0.07563  -0.05327  -0.04954
   D33       -0.96475   0.00000   0.04389  -0.13005  -0.08477  -1.04952
   D34        1.08349   0.00003   0.05773  -0.12495  -0.06589   1.01760
   D35       -3.07955  -0.00025   0.05052  -0.13123  -0.07921   3.12442
   D36        2.16696   0.00016   0.01261  -0.05501  -0.04382   2.12314
   D37       -2.06798   0.00019   0.02645  -0.04991  -0.02494  -2.09293
   D38        0.05216  -0.00009   0.01924  -0.05619  -0.03827   0.01390
         Item               Value     Threshold  Converged?
 Maximum Force            0.049501     0.000015     NO 
 RMS     Force            0.012243     0.000010     NO 
 Maximum Displacement     0.650575     0.000060     NO 
 RMS     Displacement     0.223060     0.000040     NO 
 Predicted change in Energy=-7.385914D-04
 GradGradGradGradGradGradGradGradGradGradGradGradGradGradGradGradGradGrad

[...]
 .01328162,0.00798563,-0.00472076,0.03361651,-0.08466590,0.02026601,0.0
 3872918,0.34581706,0.09083818,0.04425100,-0.09492567,-0.01701983,-0.00
 545741,0.00940840,-0.04503496,0.01758094,-0.08398431,-0.01973034,-0.20
 887176,0.37936912,-0.00559729,-0.03235512,0.03489549,0.00536109,0.0005
 8850,-0.00014981,0.00352447,0.01688622,-0.01871571,-0.08541061,0.00265
 349,-0.00253195,0.52943339,-0.02204741,-0.01188878,0.02884400,0.002397
 44,-0.00305111,-0.00042962,0.00427601,-0.00064900,0.01956064,0.0271900
 4,-0.16814979,0.13728757,0.10564045,0.23173344,0.02433944,0.02835543,-
 0.01880897,-0.00259912,-0.00079380,-0.00309147,-0.00441228,0.02021107,
 -0.00606375,-0.03119444,0.14059557,-0.20317429,-0.16920969,-0.24466488
 ,0.33000223,0.00282509,0.00134097,-0.00143366,0.00032560,0.00018702,-0
 .00014921,-0.00107181,0.00119773,-0.00149760,0.00006190,-0.00117443,0.
 00137594,-0.44138789,-0.12009836,0.18689388,0.44098315,-0.00019061,0.0
 0095364,0.00558078,0.00041724,-0.00067464,-0.00010513,-0.00005212,-0.0
 0081300,-0.00225577,-0.02231293,-0.00800564,0.00920373,-0.09568533,-0.
 04768022,0.05493779,0.11842065,0.05536675,-0.00009601,0.00530166,0.000
 27705,-0.00031212,-0.00004038,-0.00080233,-0.00067893,-0.00208681,0.00
 048980,0.02600391,0.00476513,-0.00935881,0.15893425,0.05948479,-0.0972
 4752,-0.18316245,-0.06653470,0.10699768,-0.00119852,0.00188680,-0.0011
 8558,-0.00068880,0.00033405,0.00055725,-0.24074841,-0.07616199,-0.0187
 1885,-0.02263749,-0.00982276,-0.00343816,-0.00052285,-0.00269087,0.002
 53304,0.00008067,0.00055175,0.00030651,0.63755078,0.00453204,-0.001203
 19,0.00159089,0.00084485,0.00002784,-0.00023577,-0.12690101,-0.1853662
 6,0.02338941,-0.00024144,0.01262275,-0.00635897,-0.00081769,-0.0055864
 8,0.00298475,0.00297616,0.00174375,0.00183067,0.03787336,0.62329962,-0
 .00301600,0.00105794,0.00023400,-0.00027228,0.00010786,0.00036696,0.00
 546728,0.03583207,-0.07918448,-0.00568790,-0.00766185,0.00288665,-0.00
 024618,0.00138136,-0.00024062,-0.00087230,-0.00088230,-0.00111378,0.12
 891013,-0.20893341,0.27500604,0.00022729,0.00026050,-0.00028343,-0.000
 08051,-0.00012960,-0.00003176,0.00668203,-0.02017251,0.01073926,-0.000
 57979,-0.00162521,0.00161571,-0.00018629,0.00089259,-0.00003739,-0.000
 92780,-0.00073061,-0.00187450,-0.06059520,0.02500177,-0.01788504,0.062
 41282,0.00014178,0.00060379,-0.00050236,-0.00018455,-0.00000829,0.0000
 8457,0.00355570,-0.01318825,0.00773133,0.00112431,-0.00295653,0.001358
 23,0.00153676,0.00213968,-0.00082339,-0.00158213,0.00015126,-0.0014033
 9,0.02593411,-0.27536615,0.11295114,-0.02650973,0.29060726,0.00062804,
 -0.00009386,0.00022861,0.00007328,0.00015524,0.00010381,0.00111356,0.0
 0154162,0.00124581,0.00026826,-0.00027481,-0.00299055,-0.00098423,-0.0
 0056374,-0.00044830,-0.00133843,-0.00020262,-0.00034206,-0.01949001,0.
 10990614,-0.09267157,0.02402066,-0.12504436,0.08910157,-0.00147146,0.0
 0048205,-0.00038408,-0.00017628,-0.00001478,0.00012040,-0.05200458,-0.
 04468465,0.00307407,0.00054043,-0.00709652,0.00179821,0.00101189,0.001
 31894,-0.00060005,-0.00046441,0.00032591,-0.00045536,-0.29861252,0.071
 15487,-0.10247814,0.00125155,-0.00162680,-0.00009697,0.68520092,0.0001
 0343,0.00118108,-0.00078174,-0.00043989,0.00004669,0.00010351,0.004347
 47,0.05079815,-0.01866681,-0.00542074,-0.00025491,0.00214550,0.0009503
 5,0.00044352,0.00014062,-0.00048446,-0.00064610,-0.00078313,0.00351003
 ,-0.12945877,0.03127005,0.02644567,-0.00395253,0.01227046,0.09827818,0
 .62425587,-0.00116755,-0.00058250,-0.00050669,0.00002388,-0.00041864,-
 0.00026561,-0.01987073,-0.03043581,0.02089890,0.00027870,0.00131218,0.
 00575073,0.00016737,-0.00074617,-0.00005832,0.00036695,0.00033851,0.00
 044129,-0.07045511,0.05032269,-0.11028446,-0.01285697,0.00320331,-0.00
 111067,0.11727368,-0.19691119,0.25943030,-0.00070169,0.00014092,-0.000
 08347,-0.00004918,-0.00000234,0.00004400,-0.00337621,0.00181660,-0.004
 18881,0.00035144,-0.00126346,0.00059004,-0.00012093,0.00039476,-0.0003
 0758,-0.00005308,-0.00012420,0.00007890,-0.01561644,-0.01969330,0.0036
 1473,0.00045929,0.00073444,0.00100933,-0.22419086,-0.14224316,0.010162
 34,0.23413924,0.00005968,-0.00003562,-0.00003437,0.00003111,-0.0000101
 2,-0.00001426,0.00139114,0.00197191,0.00284969,0.00023539,0.00031790,0
 .00010475,-0.00008737,-0.00001699,-0.00007371,0.00000916,0.00002228,0.
 00006410,0.00774768,0.00841845,-0.00027825,0.00008875,-0.00005171,-0.0
 0185393,-0.14233442,-0.17331233,0.02055174,0.15370049,0.17870660,-0.00
 020066,0.00005749,-0.00015292,-0.00006371,0.00000730,0.00000326,-0.003
 56341,0.00308054,0.00456705,-0.00017206,-0.00040400,0.00048569,-0.0000
 2518,0.00014609,-0.00016942,-0.00006108,-0.00002092,0.00005301,-0.0093
 7751,-0.00868238,0.00413703,0.00128640,-0.00151122,-0.00301347,0.01025
 637,0.02031313,-0.04318130,-0.00911216,-0.02484684,0.03457227,-0.00108
 395,-0.00030284,-0.00003849,0.00007068,-0.00013340,-0.00005965,-0.0129
 6361,-0.02209255,0.00893437,0.00245667,-0.00158904,0.00156052,-0.00040
 335,0.00030158,-0.00042623,0.00005725,0.00011836,0.00033588,0.02422919
 ,0.03258619,-0.01056880,-0.00444337,0.00117445,-0.00435230,-0.13052918
 ,0.04960555,-0.04248505,0.00695491,-0.02285287,0.01180669,0.70132485,-
 0.00058676,-0.00015090,-0.00016611,-0.00004360,-0.00007884,-0.00004102
 ,-0.02650130,-0.05876216,0.01805805,-0.00005093,-0.00329703,0.00098672
 ,0.00058994,-0.00002396,0.00011582,0.00005284,0.00046179,-0.00020995,0
 .08587313,0.00322073,0.02689449,0.00040778,0.00254333,0.00242540,-0.01
 778898,-0.29302662,0.09980658,0.00451262,-0.01206213,0.00865895,0.0355
 2572,0.59677438,-0.00001716,-0.00001660,0.00014425,0.00007145,0.000041
 74,0.00002657,0.01041640,0.01757563,-0.01263375,0.00099860,0.00055668,
 -0.00086082,-0.00035114,0.00027800,-0.00009584,-0.00014429,-0.00021537
 ,0.00009858,-0.03514041,0.01219535,-0.00759269,-0.00369384,0.00237407,
 0.00504816,-0.01098487,0.12018492,-0.12324460,-0.00098556,0.00029045,0
 .00273232,0.14529076,-0.20191108,0.27625497,0.00068536,0.00054810,0.00
 034974,0.00012903,0.00008246,0.00006215,0.02227560,0.07401156,-0.03280
 700,0.00146225,0.00132979,-0.00180447,-0.00039838,0.00088157,-0.000098
 02,-0.00022628,-0.00056561,0.00009420,-0.07615938,-0.01394862,-0.01316
 365,-0.00129877,-0.00040497,-0.00011179,0.05259591,-0.06273570,0.04274
 524,0.00187247,0.00130823,-0.00243727,-0.25572876,-0.07604331,-0.01948
 861,0.64272410,0.00023118,0.00049109,-0.00047976,-0.00000717,-0.000179
 71,-0.00003887,0.03120519,0.00485731,0.01100109,-0.00163710,-0.0030029
 4,0.00446855,0.00169682,-0.00026661,0.00079714,-0.00012811,0.00002444,
 -0.00038246,-0.01646251,-0.00705763,-0.00495744,-0.00035332,0.00032534
 ,-0.00082303,-0.01215401,-0.03994066,0.01913592,0.00061858,-0.00266550
 ,0.00497116,-0.14464594,-0.20531926,0.02406122,0.05949704,0.64555995,-
 0.00041619,-0.00048653,-0.00024422,-0.00008632,-0.00012953,-0.00011684
 ,-0.01137467,0.02629393,-0.00422844,-0.00006656,0.00494228,0.00429001,
 -0.00016031,-0.00093770,-0.00103643,0.00008090,0.00012674,0.00020764,-
 0.01202304,-0.00445505,-0.00887891,-0.00000039,-0.00067934,-0.00057758
 ,0.01850215,0.00439009,0.01155697,-0.00201166,0.00512146,0.00458241,0.
 01248683,0.04406069,-0.08132923,0.11622707,-0.21875129,0.27116461,-0.0
 0029222,-0.00020894,0.00005515,0.00000779,-0.00000578,-0.00000027,-0.0
 0460691,0.00110473,-0.00354255,0.00102049,0.00090792,-0.00024057,-0.00
 048897,0.00027819,-0.00044328,-0.00006624,-0.00006523,0.00009385,-0.00
 137130,-0.00045747,0.00005041,0.00003333,0.00014399,0.00025586,-0.0030
 3552,-0.00382311,-0.00122420,0.00020782,-0.00115392,0.00052554,0.00704
 102,-0.02255742,0.01152299,-0.06122014,0.02927423,-0.02044691,0.062529
 02,0.00036122,0.00009994,-0.00005218,-0.00000397,0.00000430,0.00001601
 ,0.00112793,0.00215440,0.00234426,-0.00085462,-0.00002532,-0.00004962,
 0.00028204,-0.00021111,0.00021145,0.00002587,0.00004669,-0.00008373,-0
 .00016980,0.00050357,-0.00065523,0.00013906,-0.00025951,-0.00034159,-0
 .00443030,0.00057236,0.00190882,0.00026619,-0.00070198,0.00048323,0.00
 490854,-0.01290173,0.00905925,0.03044564,-0.27544154,0.11841960,-0.029
 70075,0.29038949,-0.00020279,-0.00012273,0.00004900,0.00000921,0.00000
 259,0.00000855,-0.00372180,0.00227618,0.00455309,0.00059137,0.00042007
 ,0.00006780,-0.00017974,0.00001693,-0.00025944,0.00005882,-0.00000188,
 0.00005803,-0.00019173,-0.00067382,-0.00051927,0.00027203,-0.00032652,
 -0.00088872,-0.00085525,0.00206670,0.00628050,-0.00012948,0.00009700,0
 .00011954,-0.00123507,0.00124066,0.00252226,-0.02083813,0.11808929,-0.
 09884407,0.02442434,-0.13075703,0.09359455,-0.00103318,-0.00314930,0.0
 0111770,0.00001052,-0.00043376,-0.00012471,-0.12823273,-0.00600502,-0.
 01191442,0.00827849,0.01965687,-0.00866861,-0.00521655,0.00157302,-0.0
 0435289,-0.00017114,-0.00016508,0.00074218,0.05336960,-0.01451604,0.02
 041177,-0.00318352,-0.00428540,-0.00102349,-0.03000279,0.03474314,-0.0
 2312250,-0.00013500,0.00097921,-0.00015130,-0.05302402,-0.04915911,0.0
 0622804,-0.27993118,0.07326187,-0.09320426,0.00004860,-0.00167865,-0.0
 0085574,0.62521280,-0.00397012,-0.00195918,0.00031468,-0.00006033,0.00
 007602,-0.00001934,0.04207001,-0.24611011,0.09687818,0.01021340,-0.002
 00055,0.00405076,-0.00240208,0.00266995,-0.00183559,-0.00048044,-0.000
 96935,0.00039914,-0.06185839,-0.04063756,0.00390087,-0.00388005,0.0005
 8148,0.00214205,0.03420637,-0.03562384,0.02353187,0.00104355,-0.000658
 59,0.00011450,0.00362311,0.05751812,-0.02268272,0.00212685,-0.13078299
 ,0.02792185,0.02395831,-0.00512914,0.01099461,0.04187234,0.55867001,0.
 00168027,0.00035310,0.00004710,-0.00004511,-0.00025570,-0.00055153,-0.
 03501266,0.08253924,-0.11564078,-0.00506276,0.00718850,-0.00374952,-0.
 00091555,0.00003569,0.00057292,-0.00019321,0.00007084,0.00007123,0.042
 94860,0.01752938,0.00892860,-0.00126869,0.00200095,0.00669631,-0.02298
 276,0.02300801,-0.02501016,-0.00029618,0.00026043,-0.00084944,-0.01848
 734,-0.03907704,0.01842481,-0.05951303,0.04958754,-0.10881981,-0.01234
 789,0.00383656,-0.00105314,0.10531481,-0.16666745,0.28934692,-0.000085
 22,0.00002960,-0.00002404,0.00001447,-0.00001021,-0.00000951,0.0002771
 3,-0.00043263,0.00074360,-0.00002410,0.00004419,0.00027674,-0.00003186
 ,0.00001668,-0.00010196,0.00002160,-0.00001287,0.00005120,0.00234866,-
 0.00015568,-0.00145439,-0.00011357,-0.00010847,0.00001899,0.00086792,-
 0.00141420,-0.00038759,0.00021832,0.00081727,0.00088668,-0.28265051,0.
 06324164,-0.09978401,-0.01593379,0.00906585,-0.01009513,0.00044923,0.0
 0024308,0.00122175,-0.00129512,-0.00450682,-0.00050633,0.29696359,0.00
 015523,0.00008065,-0.00001947,-0.00000142,0.00000448,0.00001049,-0.000
 51422,-0.00123413,-0.00023298,0.00002361,-0.00034896,-0.00022285,0.000
 08714,0.00020693,-0.00004101,-0.00009748,-0.00001979,-0.00012914,-0.00
 058374,-0.00350856,0.00501864,0.00130394,-0.00034672,0.00059933,0.0258
 3149,-0.00126072,0.01011902,0.00005206,0.00008731,-0.00194106,0.063207
 90,-0.07537458,0.03492396,-0.01830446,0.00965392,-0.00777940,0.0009498
 9,-0.00011229,-0.00160897,-0.00423677,-0.00081838,0.00282654,-0.067108
 97,0.07283652,0.00002417,0.00004394,0.00007454,0.00001984,0.00004198,0
 .00002954,0.00062799,-0.00059755,-0.00104134,0.00026934,-0.00032805,-0
 .00082094,-0.00014753,0.00006936,-0.00003458,0.00003652,0.00002154,0.0
 0006787,-0.00132969,0.00521794,0.00487311,-0.00063666,0.00011854,-0.00
 030321,-0.01308350,0.00225958,-0.00040830,0.00127099,-0.00169370,-0.00
 300839,-0.09984003,0.03480697,-0.08455998,0.00277309,0.00016926,0.0051
 0419,0.00089050,-0.00178353,-0.00304445,-0.00063951,0.00276073,0.00621
 830,0.10952684,-0.04108398,0.07706356,-0.00027523,0.00190551,-0.000318
 32,0.00011771,-0.00016216,-0.00006542,0.00763634,-0.00256877,0.0027921
 4,-0.00098954,0.00129742,0.00013207,0.00009643,-0.00033001,-0.00011054
 ,0.00005265,0.00008217,0.00003661,0.00175304,0.00310275,-0.00324275,0.
 00062525,0.00064771,-0.00010311,-0.00148222,-0.00105469,0.00027077,0.0
 0003934,0.00008744,0.00037374,-0.00033429,0.00225155,-0.00336426,-0.02
 844028,-0.02224686,0.00039926,0.00044724,-0.00090348,0.00171762,-0.159
 41589,-0.06118998,0.00428409,-0.00064809,-0.00055652,0.00019674,0.5331
 1333,0.00210794,-0.00398236,0.00162373,-0.00018219,-0.00068153,0.00013
 347,-0.02375149,-0.01839831,0.00336758,0.00185690,-0.00044030,-0.00093
 000,-0.00057835,0.00013876,0.00005358,-0.00004986,-0.00004993,0.000003
 62,0.00278524,-0.00164954,0.00462937,-0.00090707,-0.00052660,0.0001090
 9,-0.00041835,0.00031404,-0.00085244,0.00002551,-0.00011549,-0.0003999
 4,0.00129493,0.00018082,0.00376307,0.00050868,0.00631515,0.00035682,0.
 00263405,-0.00010895,-0.00086319,-0.07177461,-0.14246835,0.01390373,0.
 00060230,0.00035557,-0.00004441,-0.04770285,0.54827152,-0.00104122,0.0
 0109984,-0.00191124,0.00027039,0.00059146,0.00001073,0.01146835,0.0088
 4996,0.00040493,0.00049626,0.00000135,-0.00170416,-0.00010549,0.000371
 60,0.00008266,0.00005722,0.00000601,0.00007893,-0.00264767,0.00441993,
 0.00364843,0.00054962,0.00047215,0.00007403,0.00023722,-0.00045111,-0.
 00079469,0.00032944,-0.00050007,-0.00089836,-0.00382674,0.00400788,0.0
 0599750,-0.01025709,-0.00573706,0.00796424,0.00039613,-0.00240872,-0.0
 0350452,0.00733130,0.01447446,-0.07679676,-0.00040401,-0.00049840,-0.0
 0023209,0.02083209,-0.00880187,0.55756505,-0.00058677,0.00005179,0.000
 18175,-0.00003568,0.00023136,0.00008600,0.00097492,0.00184010,-0.00000
 009,0.00104233,-0.00027373,-0.00065861,-0.00010894,-0.00004298,0.00022
 737,-0.00002579,-0.00005450,-0.00003423,-0.00081170,0.00023804,0.00067
 389,0.00002724,-0.00002085,0.00000575,0.00020804,-0.00013619,-0.000020
 55,0.00006131,-0.00012583,-0.00014173,-0.00109667,0.00069159,0.0008357
 6,-0.00196834,-0.00304529,0.00073749,0.00021338,-0.00040077,-0.0004663
 4,-0.01401711,-0.00441099,-0.02147811,-0.00023286,-0.00017647,-0.00001
 902,-0.09548261,-0.02188136,-0.10856676,0.10691449,0.00091349,0.000376
 54,0.00023524,0.00029232,-0.00009212,0.00000854,0.00035718,0.00067251,
 0.00082714,-0.00213735,-0.00236668,0.00004523,0.00046027,0.00033467,-0
 .00024512,-0.00006874,0.00001527,-0.00005670,-0.00017773,0.00045138,0.
 00038899,0.00001930,-0.00001768,0.00002391,-0.00021740,-0.00036841,-0.
 00006134,0.00005686,-0.00000002,-0.00000391,-0.00034424,0.00064915,0.0
 0032824,-0.00092775,-0.00203775,0.00075301,-0.00019750,0.00019418,-0.0
 0017188,-0.00848699,-0.00342149,-0.01985607,-0.00015993,-0.00011187,0.
 00001765,-0.02179597,-0.05524688,-0.03927256,0.02579430,0.05712236,0.0
 0012764,0.00163763,-0.00026057,-0.00007197,0.00024970,0.00004860,0.000
 38063,0.00083585,0.00044909,-0.00118962,-0.00032913,0.00037106,0.00025
 926,0.00011434,-0.00024353,-0.00002424,0.00000437,-0.00004767,-0.00075
 877,-0.00043083,0.00008459,-0.00004000,-0.00005062,-0.00002512,0.00049
 001,-0.00030077,0.00033857,0.00001206,-0.00004649,-0.00003065,0.000473
 58,0.00031191,-0.00028915,0.00020044,-0.00005024,-0.00017886,0.0001730
 6,-0.00008274,0.00007828,0.00315571,0.00092061,0.00639755,0.00003451,0
 .00001821,-0.00000218,-0.10787334,-0.04050111,-0.25712085,0.11690736,0
 .04267571,0.27768917,-0.00069052,0.00035142,-0.00082678,0.00003805,0.0
 0018672,-0.00018393,0.00107257,0.00120786,-0.00084995,-0.00011224,0.00
 024842,0.00053448,0.00006090,-0.00018990,0.00013005,0.00001605,0.00003
 258,-0.00001265,-0.00079564,-0.00064147,-0.00092834,-0.00001462,-0.000
 03683,0.00002144,0.00031978,-0.00025174,0.00037457,-0.00004205,0.00004
 450,0.00018424,-0.00007068,-0.00031333,-0.00147055,-0.00120451,-0.0024
 4453,0.00039150,-0.00023485,0.00024727,0.00068332,-0.01935506,0.006684
 58,0.01399167,-0.00019255,-0.00008332,0.00005545,-0.17570809,0.0703206
 3,0.12130088,0.01021199,-0.00523461,-0.00933737,0.19357710,0.00120915,
 -0.00057626,0.00036186,0.00023229,-0.00015775,-0.00011940,0.00043357,-
 0.00077959,0.00031933,-0.00210634,-0.00049820,0.00103210,0.00041782,0.
 00007910,-0.00024227,-0.00003740,0.00003573,-0.00005380,0.00047103,0.0
 0001651,-0.00087350,0.00002160,-0.00002915,0.00002836,-0.00055183,-0.0
 0012369,0.00003300,0.00001765,0.00004273,0.00005910,0.00000982,-0.0003
 6698,-0.00078901,-0.00063627,-0.00136817,0.00014554,-0.00017976,0.0001
 9009,-0.00005205,-0.01638645,0.00979104,0.01497995,-0.00013826,-0.0000
 6538,0.00002874,0.06866568,-0.08215141,-0.06127695,0.00399025,-0.00275
 309,-0.00298374,-0.07305613,0.08789106,-0.00072572,-0.00108365,0.00064
 175,-0.00020291,-0.00025071,0.00011672,0.00006247,0.00080668,0.0006753
 9,0.00256454,0.00090079,-0.00100598,-0.00054037,-0.00037446,0.00044652
 ,0.00003075,-0.00005190,0.00005016,-0.00028063,0.00008189,0.00008763,0
 .00002653,0.00004540,-0.00000251,0.00020790,-0.00016837,0.00008343,-0.
 00001730,0.00000241,0.00001232,0.00016288,0.00019432,-0.00041921,-0.00
 095265,-0.00018680,-0.00061853,-0.00005472,0.00005699,0.00021662,0.000
 57026,-0.00002212,-0.00099098,-0.00001639,0.00004385,0.00005422,0.1188
 3057,-0.06082096,-0.14817614,0.02032167,-0.01084569,-0.01861122,-0.129
 79793,0.06759046,0.15867629,-0.00012420,0.00137689,-0.00066515,0.00019
 564,0.00026559,-0.00007234,-0.00376409,-0.00273248,-0.00009854,-0.0017
 1894,-0.00080041,0.00040560,0.00038574,0.00023826,-0.00023032,-0.00002
 952,0.00001044,-0.00005122,0.00042631,-0.00093731,0.00068754,-0.000295
 37,-0.00023352,0.00008516,-0.00002661,0.00002004,-0.00007323,-0.000018
 66,0.00005439,-0.00001359,0.00019382,-0.00010207,0.00006067,0.00076510
 ,-0.00172591,0.00106023,-0.00068175,0.00009549,-0.00030238,0.00809328,
 -0.02303933,0.00989019,0.00004674,0.00005211,0.00000444,-0.08110511,0.
 08510996,-0.03641991,-0.00528722,0.01185448,-0.00291894,-0.00687563,0.
 01762356,-0.01018895,0.08982050,0.00031983,0.00011060,0.00028133,-0.00
 013360,-0.00005202,0.00003720,-0.00402443,-0.00154957,-0.00008643,-0.0
 0035173,0.00037248,-0.00062447,0.00013614,-0.00022199,0.00031651,-0.00
 000900,0.00003705,-0.00008492,0.00096061,-0.00047046,0.00080920,-0.000
 27288,-0.00024900,-0.00000368,-0.00027976,0.00035685,-0.00025557,-0.00
 005377,0.00006330,-0.00008122,-0.00039525,0.00001588,-0.00001779,0.002
 82680,0.00083556,0.00068681,-0.00090141,0.00073655,-0.00062598,0.00819
 072,-0.01872708,0.00773579,-0.00001257,-0.00002399,-0.00002501,0.08047
 105,-0.24975621,0.08465210,-0.00226846,0.00659994,-0.00199267,0.002927
 89,-0.00917659,0.00408186,-0.08713018,0.27109870,-0.00004779,0.0005471
 2,0.00046891,0.00002410,-0.00002855,0.00012757,0.00064843,0.00072195,0
 .00123726,-0.00007842,-0.00070931,-0.00005440,0.00000649,0.00012619,-0
 .00013186,-0.00002451,-0.00001972,0.00002091,-0.00021839,0.00030118,0.
 00023274,0.00009848,0.00000151,-0.00012454,-0.00003906,-0.00008945,0.0
 0008410,0.00002038,-0.00000043,0.00003903,0.00026819,-0.00016323,-0.00
 022416,-0.00098022,-0.00087422,0.00000285,-0.00008745,-0.00012181,0.00
 056539,-0.00081434,0.00282292,-0.00324162,0.00002304,-0.00000279,-0.00
 002985,-0.03478798,0.08526985,-0.08468768,-0.00859160,0.02520959,-0.00
 864711,0.00573991,-0.01818773,0.00876353,0.03884074,-0.09480308,0.0855
 9894\\0.00000040,0.00000136,-0.00000133,0.00000082,0.00000172,-0.00000
 170,0.00000033,0.00000008,-0.00000008,0.00000087,0.00000076,-0.0000007
 4,0.00000184,0.00000079,-0.00000077,0.00000214,0.00000036,-0.00000036,
 0.00000082,-0.00000049,0.00000048,0.00000152,-0.00000041,0.00000041,0.
 00000038,-0.00000111,0.00000109,0.00000077,-0.00000152,0.00000150,-0.0
 0000051,-0.00000117,0.00000117,-0.00000103,-0.00000063,0.00000063,-0.0
 0000174,-0.00000072,0.00000070,-0.00000061,-0.00000007,0.,-0.00000089,
 -0.00000166,0.00000163,-0.00000118,0.00000057,-0.00000048,-0.00000081,
 0.00000082,-0.00000079,-0.00000128,0.00000094,-0.00000095,-0.00000184,
 0.00000038,-0.00000038\\\@
 The archive entry for this job was punched.


 IF I HAVE SEEN FARTHER, IT IS BY STANDING ON THE
 SHOULDERS OF GIANTS. -- SIR ISAAC NEWTON
 Job cpu time:       0 days  0 hours 54 minutes 27.6 seconds.
 Elapsed time:       0 days  0 hours  1 minutes 44.4 seconds.
 File lengths (MBytes):  RWF=    136 Int=      0 D2E=      0 Chk=      8 Scr=      1
 Normal termination of Gaussian 16 at Tue Apr 22 20:54:42 2025.
