/home/tahminaafroz
cn013.cluster.local
tahminaafroz
Fri May 30 05:07:51 CDT 2025
 Entering Gaussian System, Link 0=g16
 Initial command:
 /home/apps/g16/l1.exe "/tmp/2-Me-ph-anion-opt-freq-thf/Gau-1719181.inp" -scrdir="/tmp/2-Me-ph-anion-opt-freq-thf/"
 Entering Link 1 = /home/apps/g16/l1.exe PID=   1719182.
  
 Copyright (c) 1988-2019, Gaussian, Inc.  All Rights Reserved.
  
 This is part of the Gaussian(R) 16 program.  It is based on
 the Gaussian(R) 09 system (copyright 2009, Gaussian, Inc.),
 the Gaussian(R) 03 system (copyright 2003, Gaussian, Inc.),
 the Gaussian(R) 98 system (copyright 1998, Gaussian, Inc.),
 the Gaussian(R) 94 system (copyright 1995, Gaussian, Inc.),
 the Gaussian 92(TM) system (copyright 1992, Gaussian, Inc.),
 the Gaussian 90(TM) system (copyright 1990, Gaussian, Inc.),
 the Gaussian 88(TM) system (copyright 1988, Gaussian, Inc.),
 the Gaussian 86(TM) system (copyright 1986, Carnegie Mellon
 University), and the Gaussian 82(TM) system (copyright 1983,
 Carnegie Mellon University). Gaussian is a federally registered
 trademark of Gaussian, Inc.
  
 This software contains proprietary and confidential information,
 including trade secrets, belonging to Gaussian, Inc.
  
 This software is provided under written license and may be
 used, copied, transmitted, or stored only in accord with that
 written license.
  
 The following legend is applicable only to US Government
 contracts under FAR:
  
                    RESTRICTED RIGHTS LEGEND
  
 Use, reproduction and disclosure by the US Government is
 subject to restrictions as set forth in subparagraphs (a)
 and (c) of the Commercial Computer Software - Restricted
 Rights clause in FAR 52.227-19.
  
 Gaussian, Inc.
 340 Quinnipiac St., Bldg. 40, Wallingford CT 06492
  
  
 ---------------------------------------------------------------
 Warning -- This program may not be used in any manner that
 competes with the business of Gaussian, Inc. or will provide
 assistance to any competitor of Gaussian, Inc.  The licensee
 of this program is prohibited from giving any competitor of
 Gaussian, Inc. access to this program.  By using this program,
 the user acknowledges that Gaussian, Inc. is engaged in the
 business of creating and licensing software in the field of
 computational chemistry and represents and warrants to the
 licensee that it is not a competitor of Gaussian, Inc. and that
 it will not use this program in any manner prohibited above.
 ---------------------------------------------------------------
  

 Cite this work as:
 Gaussian 16, Revision C.01,
 M. J. Frisch, G. W. Trucks, H. B. Schlegel, G. E. Scuseria, 
 M. A. Robb, J. R. Cheeseman, G. Scalmani, V. Barone, 
 G. A. Petersson, H. Nakatsuji, X. Li, M. Caricato, A. V. Marenich, 
 J. Bloino, B. G. Janesko, R. Gomperts, B. Mennucci, H. P. Hratchian, 
 J. V. Ortiz, A. F. Izmaylov, J. L. Sonnenberg, D. Williams-Young, 
 F. Ding, F. Lipparini, F. Egidi, J. Goings, B. Peng, A. Petrone, 
 T. Henderson, D. Ranasinghe, V. G. Zakrzewski, J. Gao, N. Rega, 
 G. Zheng, W. Liang, M. Hada, M. Ehara, K. Toyota, R. Fukuda, 
 J. Hasegawa, M. Ishida, T. Nakajima, Y. Honda, O. Kitao, H. Nakai, 
 T. Vreven, K. Throssell, J. A. Montgomery, Jr., J. E. Peralta, 
 F. Ogliaro, M. J. Bearpark, J. J. Heyd, E. N. Brothers, K. N. Kudin, 
 V. N. Staroverov, T. A. Keith, R. Kobayashi, J. Normand, 
 K. Raghavachari, A. P. Rendell, J. C. Burant, S. S. Iyengar, 
 J. Tomasi, M. Cossi, J. M. Millam, M. Klene, C. Adamo, R. Cammi, 
 J. W. Ochterski, R. L. Martin, K. Morokuma, O. Farkas, 
 J. B. Foresman, and D. J. Fox, Gaussian, Inc., Wallingford CT, 2019.
 
 ******************************************
 Gaussian 16:  AS64L-G16RevC.01  3-Jul-2019
                30-May-2025 
 ******************************************
 %mem=20GB
 %nprocshared=32
 Will use up to   32 processors via shared memory.
 %chk=2-Me-ph-anion-opt-freq-thf.chk
 ----------------------------------------------------------------------
 # opt=(calcfc,tight) freq 6-311+g(d,p) scrf=(smd,solvent=thf) nosymm s
 cf=(qc,fermi,xqc) geom=connectivity int=ultrafine m062x
 ----------------------------------------------------------------------
 1/7=10,10=4,18=20,19=15,26=6,38=1,57=2/1,3;
 2/9=110,12=2,15=1,17=6,18=5,40=1/2;
 3/5=4,6=6,7=111,11=2,25=1,30=1,70=32201,71=2,72=20,74=-55,75=-5,140=1/1,2,3;
 4//1;
 5/5=2,22=13,38=5,53=20/2;
 8/6=4,10=90,11=11/1;
 11/6=1,8=1,9=11,15=111,16=1,31=1/1,2,10;
 10/6=1,13=1,31=1/2;
 6/7=2,8=2,9=2,10=2,28=1/1;
 7/10=1,25=1,30=1/1,2,3,16;
 1/7=10,10=4,18=20,19=15,26=6/3(2);
 2/9=110,15=1/2;
 99//99;
 2/9=110,15=1/2;
 3/5=4,6=6,7=111,11=2,25=1,30=1,70=32205,71=1,72=20,74=-55,75=-5/1,2,3;
 4/5=5,16=3,69=1/1;
 5/5=2,22=13,38=5,53=20/2;
 7/30=1/1,2,3,16;
 1/7=10,18=20,19=15,26=6/3(-5);
 2/9=110,15=1/2;
 6/7=2,8=2,9=2,10=2,19=2,28=1/1;
 99/9=1/99;
 --------------------------
 2-Me-ph-anion-opt-freq-thf
 --------------------------
 Symbolic Z-matrix:
 Charge = -1 Multiplicity = 1
 C                     6.22368   7.04106   5.03062 
 C                     5.22631   6.10993   5.16928 
 H                     5.39961   5.14322   5.62954 
 C                     3.96041   6.46393   4.68559 
 H                     3.1351    5.76561   4.76883 
 C                     3.77313   7.71212   4.09944 
 C                     4.83122   8.61425   3.98884 
 H                     4.67017   9.58427   3.52782 
 C                     6.11062   8.29376   4.46292 
 H                     2.79493   7.98888   3.72318 
 C                     7.27028   9.24882   4.36415 
 H                     7.61002   9.54768   5.35882 
 H                     8.11558   8.78199   3.85389 
 H                     6.98521   10.14649   3.81406 
 

 GradGradGradGradGradGradGradGradGradGradGradGradGradGradGradGradGradGrad
 Berny optimization.
 Initialization pass.
                           ----------------------------
                           !    Initial Parameters    !
                           ! (Angstroms and Degrees)  !
 --------------------------                            --------------------------
 ! Name  Definition              Value          Derivative Info.                !
 --------------------------------------------------------------------------------
 ! R1    R(1,2)                  1.3715         calculate D2E/DX2 analytically  !
 ! R2    R(1,9)                  1.38           calculate D2E/DX2 analytically  !
 ! R3    R(2,3)                  1.0846         calculate D2E/DX2 analytically  !
 ! R4    R(2,4)                  1.4006         calculate D2E/DX2 analytically  !
 ! R5    R(4,5)                  1.0843         calculate D2E/DX2 analytically  !
 ! R6    R(4,6)                  1.3916         calculate D2E/DX2 analytically  !
 ! R7    R(6,7)                  1.3949         calculate D2E/DX2 analytically  !
 ! R8    R(6,10)                 1.084          calculate D2E/DX2 analytically  !
 ! R9    R(7,8)                  1.086          calculate D2E/DX2 analytically  !
 ! R10   R(7,9)                  1.4015         calculate D2E/DX2 analytically  !
 ! R11   R(9,11)                 1.5056         calculate D2E/DX2 analytically  !
 ! R12   R(11,12)                1.0928         calculate D2E/DX2 analytically  !
 ! R13   R(11,13)                1.0922         calculate D2E/DX2 analytically  !
 ! R14   R(11,14)                1.0907         calculate D2E/DX2 analytically  !
 ! A1    A(2,1,9)              126.7491         calculate D2E/DX2 analytically  !
 ! A2    A(1,2,3)              122.1286         calculate D2E/DX2 analytically  !
 ! A3    A(1,2,4)              116.7923         calculate D2E/DX2 analytically  !
 ! A4    A(3,2,4)              121.0791         calculate D2E/DX2 analytically  !
 ! A5    A(2,4,5)              119.9107         calculate D2E/DX2 analytically  !
 ! A6    A(2,4,6)              119.5893         calculate D2E/DX2 analytically  !
 ! A7    A(5,4,6)              120.5            calculate D2E/DX2 analytically  !
 ! A8    A(4,6,7)              120.7576         calculate D2E/DX2 analytically  !
 ! A9    A(4,6,10)             119.7783         calculate D2E/DX2 analytically  !
 ! A10   A(7,6,10)             119.4641         calculate D2E/DX2 analytically  !
 ! A11   A(6,7,8)              119.9241         calculate D2E/DX2 analytically  !
 ! A12   A(6,7,9)              121.1803         calculate D2E/DX2 analytically  !
 ! A13   A(8,7,9)              118.8956         calculate D2E/DX2 analytically  !
 ! A14   A(1,9,7)              114.9313         calculate D2E/DX2 analytically  !
 ! A15   A(1,9,11)             122.6651         calculate D2E/DX2 analytically  !
 ! A16   A(7,9,11)             122.4031         calculate D2E/DX2 analytically  !
 ! A17   A(9,11,12)            110.6858         calculate D2E/DX2 analytically  !
 ! A18   A(9,11,13)            110.8335         calculate D2E/DX2 analytically  !
 ! A19   A(9,11,14)            110.723          calculate D2E/DX2 analytically  !
 ! A20   A(12,11,13)           107.5501         calculate D2E/DX2 analytically  !
 ! A21   A(12,11,14)           108.3753         calculate D2E/DX2 analytically  !
 ! A22   A(13,11,14)           108.5689         calculate D2E/DX2 analytically  !
 ! D1    D(9,1,2,3)            179.9789         calculate D2E/DX2 analytically  !
 ! D2    D(9,1,2,4)             -0.0006         calculate D2E/DX2 analytically  !
 ! D3    D(2,1,9,7)             -0.0498         calculate D2E/DX2 analytically  !
 ! D4    D(2,1,9,11)           179.6914         calculate D2E/DX2 analytically  !
 ! D5    D(1,2,4,5)            179.9727         calculate D2E/DX2 analytically  !
 ! D6    D(1,2,4,6)              0.0404         calculate D2E/DX2 analytically  !
 ! D7    D(3,2,4,5)             -0.007          calculate D2E/DX2 analytically  !
 ! D8    D(3,2,4,6)           -179.9393         calculate D2E/DX2 analytically  !
 ! D9    D(2,4,6,7)             -0.0278         calculate D2E/DX2 analytically  !
 ! D10   D(2,4,6,10)           179.9391         calculate D2E/DX2 analytically  !
 ! D11   D(5,4,6,7)           -179.9597         calculate D2E/DX2 analytically  !
 ! D12   D(5,4,6,10)             0.0072         calculate D2E/DX2 analytically  !
 ! D13   D(4,6,7,8)            179.9221         calculate D2E/DX2 analytically  !
 ! D14   D(4,6,7,9)             -0.0259         calculate D2E/DX2 analytically  !
 ! D15   D(10,6,7,8)            -0.0449         calculate D2E/DX2 analytically  !
 ! D16   D(10,6,7,9)          -179.9929         calculate D2E/DX2 analytically  !
 ! D17   D(6,7,9,1)              0.0615         calculate D2E/DX2 analytically  !
 ! D18   D(6,7,9,11)          -179.6805         calculate D2E/DX2 analytically  !
 ! D19   D(8,7,9,1)           -179.8871         calculate D2E/DX2 analytically  !
 ! D20   D(8,7,9,11)             0.3709         calculate D2E/DX2 analytically  !
 ! D21   D(1,9,11,12)          -64.2363         calculate D2E/DX2 analytically  !
 ! D22   D(1,9,11,13)           55.0091         calculate D2E/DX2 analytically  !
 ! D23   D(1,9,11,14)          175.5569         calculate D2E/DX2 analytically  !
 ! D24   D(7,9,11,12)          115.4858         calculate D2E/DX2 analytically  !
 ! D25   D(7,9,11,13)         -125.2689         calculate D2E/DX2 analytically  !
 ! D26   D(7,9,11,14)           -4.721          calculate D2E/DX2 analytically  !
 --------------------------------------------------------------------------------
 Trust Radius=3.00D-01 FncErr=5.00D-06 GrdErr=5.00D-06 EigMax=2.50D+02 EigMin=1.00D-04
 Number of steps in this run=     72 maximum allowed number of steps=    100.
 GradGradGradGradGradGradGradGradGradGradGradGradGradGradGradGradGradGrad

                          Input orientation:                          
 ---------------------------------------------------------------------
 Center     Atomic      Atomic             Coordinates (Angstroms)
 Number     Number       Type             X           Y           Z
 ---------------------------------------------------------------------
      1          6           0        6.223681    7.041064    5.030623
      2          6           0        5.226307    6.109928    5.169282
      3          1           0        5.399609    5.143218    5.629544
      4          6           0        3.960411    6.463925    4.685594
      5          1           0        3.135096    5.765608    4.768825
      6          6           0        3.773126    7.712116    4.099441
      7          6           0        4.831216    8.614255    3.988837
      8          1           0        4.670168    9.584265    3.527819
      9          6           0        6.110615    8.293759    4.462923
     10          1           0        2.794925    7.988876    3.723175
     11          6           0        7.270282    9.248820    4.364147
     12          1           0        7.610020    9.547677    5.358821
     13          1           0        8.115580    8.781987    3.853888
     14          1           0        6.985208   10.146492    3.814060
 ---------------------------------------------------------------------
                    Distance matrix (angstroms):
                    1          2          3          4          5
     1  C    0.000000
     2  C    1.371494   0.000000
     3  H    2.153978   1.084621   0.000000
     4  C    2.361043   1.400629   2.169470   0.000000
     5  H    3.351818   2.156869   2.501245   1.084306   0.000000
     6  C    2.706036   2.413152   3.403807   1.391629   2.155006
     7  C    2.345039   2.796641   3.881119   2.422332   3.405876
     8  H    3.337618   3.882616   4.967115   3.403046   4.298684
     9  C    1.379968   2.459687   3.434013   2.832182   3.916483
    10  H    3.790005   3.396070   4.303068   2.147111   2.480327
    11  C    2.532538   3.831282   4.685789   4.337536   5.421835
    12  H    2.883185   4.187616   4.935430   4.825185   5.888725
    13  H    2.827508   4.149465   4.875458   4.830173   5.894139
    14  H    3.421057   4.606974   5.553635   4.844612   5.909914
                    6          7          8          9         10
     6  C    0.000000
     7  C    1.394863   0.000000
     8  H    2.153225   1.085999   0.000000
     9  C    2.436038   1.401548   2.148188   0.000000
    10  H    1.083997   2.146662   2.469811   3.410862   0.000000
    11  C    3.829051   2.548053   2.751829   1.505565   4.693306
    12  H    4.435885   3.235720   3.463616   2.150153   5.318866
    13  H    4.479043   3.291412   3.552581   2.151552   5.381030
    14  H    4.040433   2.649147   2.399467   2.149083   4.714026
                   11         12         13         14
    11  C    0.000000
    12  H    1.092755   0.000000
    13  H    1.092166   1.762582   0.000000
    14  H    1.090724   1.770665   1.772343   0.000000
 Symmetry turned off by external request.
 Stoichiometry    C7H7(1-)
 Framework group  C1[X(C7H7)]
 Deg. of freedom    36
 Full point group                 C1      NOp   1
 Rotational constants (GHZ):           5.9466208           2.5093252           1.7841845
 Standard basis: 6-311+G(d,p) (5D, 7F)
   196 basis functions,   308 primitive gaussians,   203 cartesian basis functions
    25 alpha electrons       25 beta electrons
       nuclear repulsion energy       258.8342024858 Hartrees.
 NAtoms=   14 NActive=   14 NUniq=   14 SFac= 1.00D+00 NAtFMM=   60 NAOKFM=F Big=F
 Integral buffers will be    131072 words long.
 Raffenetti 2 integral format.
 Two-electron integral symmetry is turned off.
 Force inversion solution in PCM.
 ------------------------------------------------------------------------------
 Polarizable Continuum Model (PCM)
 =================================
 Model                : PCM.
 Atomic radii         : SMD-Coulomb.
 Polarization charges : Total charges.
 Charge compensation  : None.
 Solution method      : Matrix inversion.
 Cavity type          : VdW (van der Waals Surface) (Alpha=1.000).
 Cavity algorithm     : GePol (No added spheres)
                        Default sphere list used, NSphG=   14.
                        Lebedev-Laikov grids with approx.  5.0 points / Ang**2.
                        Smoothing algorithm: York/Karplus (Gamma=1.0000).
                        Polarization charges: spherical gaussians, with
                                              point-specific exponents (IZeta= 3).
                        Self-potential: point-specific (ISelfS= 7).
                        Self-field    : sphere-specific E.n sum rule (ISelfD= 2).
 1st derivatives      : Analytical E(r).r(x)/FMM algorithm (CHGder, D1EAlg=3).
                        Cavity 1st derivative terms included.
 2nd derivatives      : Analytical E(r).r(xy)/FMM algorithm (CHGder, D2EAlg=3).
                        Cavity 2nd derivative terms included.
 Solvent              : TetraHydroFuran, Eps=   7.425700 Eps(inf)=   1.974025
 ------------------------------------------------------------------------------
 Spheres list:
 ISph  on   Nord     Re0    Alpha      Xe            Ye            Ze
    1   C      1    1.8500  1.000      6.223681      7.041064      5.030623
    2   C      2    1.8500  1.000      5.226307      6.109928      5.169282
    3   H      3    1.2000  1.000      5.399609      5.143218      5.629544
    4   C      4    1.8500  1.000      3.960411      6.463925      4.685594
    5   H      5    1.2000  1.000      3.135096      5.765608      4.768825
    6   C      6    1.8500  1.000      3.773126      7.712116      4.099441
    7   C      7    1.8500  1.000      4.831216      8.614255      3.988837
    8   H      8    1.2000  1.000      4.670168      9.584265      3.527819
    9   C      9    1.8500  1.000      6.110615      8.293759      4.462923
   10   H     10    1.2000  1.000      2.794925      7.988876      3.723175
   11   C     11    1.8500  1.000      7.270282      9.248820      4.364147
   12   H     12    1.2000  1.000      7.610020      9.547677      5.358821
   13   H     13    1.2000  1.000      8.115580      8.781987      3.853888
   14   H     14    1.2000  1.000      6.985208     10.146492      3.814060
 ------------------------------------------------------------------------------
 ------------------------------------------------------------------------------
 Atomic radii for non-electrostatic terms: SMD-CDS.
 ------------------------------------------------------------------------------
 Nuclear repulsion after PCM non-electrostatic terms =      258.8312146289 Hartrees.
 One-electron integrals computed using PRISM.
 NBasis=   196 RedAO= T EigKep=  3.29D-06  NBF=   196
 NBsUse=   196 1.00D-06 EigRej= -1.00D+00 NBFU=   196
 ExpMin= 4.38D-02 ExpMax= 4.56D+03 ExpMxC= 6.82D+02 IAcc=3 IRadAn=         5 AccDes= 0.00D+00
 Harris functional with IExCor= 1009 and IRadAn=       5 diagonalized for initial guess.
 HarFok:  IExCor= 1009 AccDes= 0.00D+00 IRadAn=         5 IDoV= 1 UseB2=F ITyADJ=14
 ICtDFT=  3500011 ScaDFX=  1.000000  1.000000  1.000000  1.000000
 FoFCou: FMM=F IPFlag=           0 FMFlag=      100000 FMFlg1=           0
         NFxFlg=           0 DoJE=T BraDBF=F KetDBF=T FulRan=T
         wScrn=  0.000000 ICntrl=       500 IOpCl=  0 I1Cent=   200000004 NGrid=           0
         NMat0=    1 NMatS0=      1 NMatT0=    0 NMatD0=    1 NMtDS0=    0 NMtDT0=    0
 Symmetry not used in FoFCou.
 Requested convergence on RMS density matrix=1.00D-08 within 128 cycles.
 Requested convergence on MAX density matrix=1.00D-06.
 Requested convergence on             energy=1.00D-06.
 Level shift goal  0.100 maximum shift  0.100.
 No special actions if energy rises.
 Dynamic level shift is on during FON iterations.
 Inv3:  Mode=1 IEnd=     4099683.
 Iteration    1 A*A^-1 deviation from unit magnitude is 4.55D-15 for   1157.
 Iteration    1 A*A^-1 deviation from orthogonality  is 3.04D-15 for    624     79.
 Iteration    1 A^-1*A deviation from unit magnitude is 4.55D-15 for   1157.
 Iteration    1 A^-1*A deviation from orthogonality  is 1.79D-15 for   1156   1145.
 Error on total polarization charges =  0.06787
 SCF Done:  E(RM062X) =  -270.935332835     A.U. after   16 cycles
            NFock= 16  Conv=0.91D-08     -V/T= 2.0037
 SMD-CDS (non-electrostatic) energy       (kcal/mol) =      -1.87
 (included in total energy above)
 DoSCS=F DFT=T ScalE2(SS,OS)=  1.000000  1.000000
 Range of M.O.s used for correlation:     1   196
 NBasis=   196 NAE=    25 NBE=    25 NFC=     0 NFV=     0
 NROrb=    196 NOA=    25 NOB=    25 NVA=   171 NVB=   171

 **** Warning!!: The largest alpha MO coefficient is  0.14476325D+03

 Symmetrizing basis deriv contribution to polar:
 IMax=3 JMax=2 DiffMx= 0.00D+00
 G2DrvN: will do    15 centers at a time, making    1 passes.
 Calling FoFCou, ICntrl=  3107 FMM=F I1Cent=   0 AccDes= 0.00D+00.
 NEqPCM:  Using equilibrium solvation (IEInf=0, Eps=   7.4257, EpsInf=   1.9740)
 G2PCM: DoFxE=T DoFxN=T DoGrad=T DoDP/DQ/DG/TGxP=FFFF NFrqRd=   0 IEInf=0 SqF1=F DoCFld=F IF1Alg=4.
 End of G2Drv F.D. properties file   721 does not exist.
 End of G2Drv F.D. properties file   722 does not exist.
 End of G2Drv F.D. properties file   788 does not exist.
          IDoAtm=11111111111111
 NEqPCM:  Using equilibrium solvation (IEInf=0, Eps=   7.4257, EpsInf=   1.9740)
          Differentiating once with respect to nuclear coordinates.
 Keep R1 ints in memory in canonical form, NReq=219272813.
          There are    45 degrees of freedom in the 1st order CPHF.  IDoFFX=6 NUNeed=     0.
     39 vectors produced by pass  0 Test12= 9.50D-15 2.22D-09 XBig12= 1.16D-01 1.31D-01.
 AX will form    39 AO Fock derivatives at one time.
     39 vectors produced by pass  1 Test12= 9.50D-15 2.22D-09 XBig12= 1.10D-02 3.21D-02.
     39 vectors produced by pass  2 Test12= 9.50D-15 2.22D-09 XBig12= 3.88D-04 4.58D-03.
     39 vectors produced by pass  3 Test12= 9.50D-15 2.22D-09 XBig12= 3.17D-06 3.80D-04.
     39 vectors produced by pass  4 Test12= 9.50D-15 2.22D-09 XBig12= 2.17D-08 2.09D-05.
     39 vectors produced by pass  5 Test12= 9.50D-15 2.22D-09 XBig12= 1.00D-10 1.25D-06.
     32 vectors produced by pass  6 Test12= 9.50D-15 2.22D-09 XBig12= 4.42D-13 1.05D-07.
      7 vectors produced by pass  7 Test12= 9.50D-15 2.22D-09 XBig12= 1.81D-15 5.11D-09.
 InvSVY:  IOpt=1 It=  1 EMax= 2.44D-15
 Solved reduced A of dimension   273 with    39 vectors.
 End of Minotr F.D. properties file   721 does not exist.
 End of Minotr F.D. properties file   722 does not exist.
 End of Minotr F.D. properties file   788 does not exist.

 **********************************************************************

            Population analysis using the SCF Density.

 **********************************************************************

 Alpha  occ. eigenvalues --  -10.49896 -10.49806 -10.49760 -10.49444 -10.49145
 Alpha  occ. eigenvalues --  -10.48464 -10.43181  -0.91038  -0.82389  -0.78037
 Alpha  occ. eigenvalues --   -0.72944  -0.62695  -0.60835  -0.52844  -0.47789
 Alpha  occ. eigenvalues --   -0.46412  -0.44892  -0.43243  -0.41471  -0.38523
 Alpha  occ. eigenvalues --   -0.38347  -0.35314  -0.26198  -0.24626  -0.16466
 Alpha virt. eigenvalues --    0.03836   0.04982   0.05520   0.05969   0.06826
 Alpha virt. eigenvalues --    0.07200   0.07951   0.08328   0.09670   0.10265
 Alpha virt. eigenvalues --    0.10477   0.11034   0.12040   0.12963   0.15007
 Alpha virt. eigenvalues --    0.16231   0.16545   0.16904   0.17855   0.18375
 Alpha virt. eigenvalues --    0.19204   0.20270   0.20931   0.21336   0.22827
 Alpha virt. eigenvalues --    0.23777   0.24650   0.24810   0.25554   0.26039
 Alpha virt. eigenvalues --    0.26742   0.27256   0.28497   0.28784   0.29367
 Alpha virt. eigenvalues --    0.29840   0.30961   0.32068   0.36140   0.40256
 Alpha virt. eigenvalues --    0.40624   0.43042   0.43924   0.48384   0.51987
 Alpha virt. eigenvalues --    0.52789   0.57315   0.58130   0.60281   0.61190
 Alpha virt. eigenvalues --    0.62901   0.63505   0.64349   0.66490   0.66858
 Alpha virt. eigenvalues --    0.66959   0.69579   0.70441   0.71033   0.72351
 Alpha virt. eigenvalues --    0.76670   0.76947   0.77411   0.77885   0.78536
 Alpha virt. eigenvalues --    0.81725   0.83633   0.84885   0.87827   0.89506
 Alpha virt. eigenvalues --    0.89973   0.91934   0.95858   0.96293   0.98353
 Alpha virt. eigenvalues --    1.00505   1.03783   1.05046   1.08162   1.11674
 Alpha virt. eigenvalues --    1.12404   1.13426   1.19653   1.24096   1.28077
 Alpha virt. eigenvalues --    1.35509   1.43039   1.45192   1.46667   1.54562
 Alpha virt. eigenvalues --    1.55525   1.60055   1.60919   1.62934   1.64471
 Alpha virt. eigenvalues --    1.65049   1.67382   1.68391   1.71682   1.73495
 Alpha virt. eigenvalues --    1.74799   1.77478   1.81514   1.81742   1.85453
 Alpha virt. eigenvalues --    1.87432   1.90831   1.91332   1.97541   1.99006
 Alpha virt. eigenvalues --    1.99710   2.02797   2.03929   2.07864   2.08254
 Alpha virt. eigenvalues --    2.09676   2.12950   2.16375   2.24012   2.29057
 Alpha virt. eigenvalues --    2.29582   2.40499   2.44005   2.45198   2.46591
 Alpha virt. eigenvalues --    2.47744   2.52165   2.57915   2.61679   2.63414
 Alpha virt. eigenvalues --    2.65021   2.67384   2.68848   2.73523   2.76043
 Alpha virt. eigenvalues --    2.78219   2.78661   2.79639   2.81037   2.85722
 Alpha virt. eigenvalues --    2.91397   2.93261   2.95492   2.96071   2.99264
 Alpha virt. eigenvalues --    3.01849   3.04147   3.20541   3.21032   3.28293
 Alpha virt. eigenvalues --    3.30700   3.46002   3.49883   3.60458   3.66233
 Alpha virt. eigenvalues --    3.73945   3.88013   3.88119   3.94745   4.11365
 Alpha virt. eigenvalues --    4.15343   4.23415   4.42559   4.89496  23.67433
 Alpha virt. eigenvalues --   24.05500  24.08020  24.11405  24.21321  24.25107
 Alpha virt. eigenvalues --   24.34562
          Condensed to atoms (all electrons):
               1          2          3          4          5          6
     1  C   10.449090  -1.719420  -0.197668   1.305213  -0.069995  -0.946834
     2  C   -1.719420   7.034239   0.553919  -0.898241   0.078359   0.852287
     3  H   -0.197668   0.553919   0.549860  -0.120270  -0.000895   0.030914
     4  C    1.305213  -0.898241  -0.120270   6.352946   0.282239  -0.227956
     5  H   -0.069995   0.078359  -0.000895   0.282239   0.512979   0.048742
     6  C   -0.946834   0.852287   0.030914  -0.227956   0.048742   5.813703
     7  C    1.215112  -1.704228  -0.061689   1.259049  -0.061364  -0.780078
     8  H   -0.058657   0.030362   0.000174  -0.043219   0.000016   0.063885
     9  C   -2.320030   1.860299   0.081586  -1.665333   0.059450   1.074834
    10  H    0.008934  -0.027414  -0.000260   0.028652  -0.006345   0.338051
    11  C   -0.546995  -0.109086   0.012582   0.030827   0.002505  -0.058719
    12  H   -0.001434   0.010375   0.000013  -0.005527   0.000002   0.005875
    13  H    0.063273   0.019073   0.000006  -0.003712   0.000002   0.003842
    14  H   -0.083295  -0.015911  -0.000009   0.008865  -0.000007   0.015852
               7          8          9         10         11         12
     1  C    1.215112  -0.058657  -2.320030   0.008934  -0.546995  -0.001434
     2  C   -1.704228   0.030362   1.860299  -0.027414  -0.109086   0.010375
     3  H   -0.061689   0.000174   0.081586  -0.000260   0.012582   0.000013
     4  C    1.259049  -0.043219  -1.665333   0.028652   0.030827  -0.005527
     5  H   -0.061364   0.000016   0.059450  -0.006345   0.002505   0.000002
     6  C   -0.780078   0.063885   1.074834   0.338051  -0.058719   0.005875
     7  C    9.335953   0.146413  -2.715734   0.017691   0.133919  -0.066115
     8  H    0.146413   0.522548   0.153180  -0.006370   0.042159   0.000438
     9  C   -2.715734   0.153180   9.094584  -0.017692  -0.307284   0.051311
    10  H    0.017691  -0.006370  -0.017692   0.495858   0.005511   0.000003
    11  C    0.133919   0.042159  -0.307284   0.005511   6.171775   0.366111
    12  H   -0.066115   0.000438   0.051311   0.000003   0.366111   0.514719
    13  H   -0.086868   0.000398  -0.010613   0.000005   0.375708  -0.030199
    14  H    0.217754  -0.001309  -0.240668   0.000004   0.467576  -0.028510
              13         14
     1  C    0.063273  -0.083295
     2  C    0.019073  -0.015911
     3  H    0.000006  -0.000009
     4  C   -0.003712   0.008865
     5  H    0.000002  -0.000007
     6  C    0.003842   0.015852
     7  C   -0.086868   0.217754
     8  H    0.000398  -0.001309
     9  C   -0.010613  -0.240668
    10  H    0.000005   0.000004
    11  C    0.375708   0.467576
    12  H   -0.030199  -0.028510
    13  H    0.519837  -0.029755
    14  H   -0.029755   0.536630
 Mulliken charges:
               1
     1  C   -1.097293
     2  C    0.035385
     3  H    0.151738
     4  C   -0.303531
     5  H    0.154313
     6  C   -0.234398
     7  C   -0.849816
     8  H    0.149983
     9  C    0.902110
    10  H    0.163372
    11  C   -0.586588
    12  H    0.182938
    13  H    0.179004
    14  H    0.152785
 Sum of Mulliken charges =  -1.00000
 Mulliken charges with hydrogens summed into heavy atoms:
               1
     1  C   -1.097293
     2  C    0.187123
     4  C   -0.149218
     6  C   -0.071026
     7  C   -0.699834
     9  C    0.902110
    11  C   -0.071861
 APT charges:
               1
     1  C   -3.000199
     2  C    1.425496
     3  H    0.114311
     4  C   -0.912159
     5  H   -0.752627
     6  C    0.198222
     7  C   -3.020636
     8  H    1.128511
     9  C    5.043298
    10  H   -0.152677
    11  C   -3.555431
    12  H    1.507467
    13  H    0.230104
    14  H    0.746321
 Sum of APT charges =  -1.00000
 APT charges with hydrogens summed into heavy atoms:
               1
     1  C   -3.000199
     2  C    1.539806
     4  C   -1.664786
     6  C    0.045546
     7  C   -1.892125
     9  C    5.043298
    11  C   -1.071539
 Electronic spatial extent (au):  <R**2>=          20153.3295
 Charge=             -1.0000 electrons
 Dipole moment (field-independent basis, Debye):
    X=            -30.4528    Y=            -33.5130    Z=            -24.4328  Tot=             51.4535
 Quadrupole moment (field-independent basis, Debye-Ang):
   XX=           -244.8461   YY=           -280.0907   ZZ=           -174.6465
   XY=           -210.5139   XZ=           -156.0544   YZ=           -171.8144
 Traceless Quadrupole moment (field-independent basis, Debye-Ang):
   XX=            -11.6517   YY=            -46.8963   ZZ=             58.5480
   XY=           -210.5139   XZ=           -156.0544   YZ=           -171.8144
 Octapole moment (field-independent basis, Debye-Ang**2):
  XXX=          -2083.5795  YYY=          -2694.8063  ZZZ=          -1322.9347  XYY=          -1707.4085
  XXY=          -1717.2365  XXZ=          -1238.5076  XZZ=          -1072.8101  YZZ=          -1262.2782
  YYZ=          -1419.6023  XYZ=          -1084.4151
 Hexadecapole moment (field-independent basis, Debye-Ang**3):
 XXXX=         -17826.1243 YYYY=         -28117.5296 ZZZZ=          -9677.6307 XXXY=         -14944.7938
 XXXZ=         -10402.6502 YYYX=         -15948.9496 YYYZ=         -13309.5184 ZZZX=          -7870.5019
 ZZZY=          -9685.8298 XXYY=         -13609.0761 XXZZ=          -7873.5509 YYZZ=         -10194.2639
 XXYZ=          -8674.8091 YYXZ=          -8691.3135 ZZXY=          -7687.5866
 N-N= 2.588312146289D+02 E-N=-1.155775758759D+03  KE= 2.699353312332D+02
  Exact polarizability:       0.000       0.000       0.000       0.000       0.000       0.000
 Approx polarizability:     132.345       6.792     123.436      10.827     -16.495      90.536
 D2PCM: PCM CHGder 2nd derivatives, FixD1E=F FixD2E=F DoIter=F DoCFld=F I1PDM=0
 Calling FoFJK, ICntrl=    100127 FMM=F ISym2X=0 I1Cent= 0 IOpClX= 0 NMat=1 NMatS=1 NMatT=0.
 -------------------------------------------------------------------
 Center     Atomic                   Forces (Hartrees/Bohr)
 Number     Number              X              Y              Z
 -------------------------------------------------------------------
      1        6           0.074504322   -0.019875529    0.027956999
      2        6          -0.024726477    0.018245946   -0.014155764
      3        1          -0.001553657   -0.002577230    0.000696897
      4        6          -0.004873946   -0.008977384    0.002604965
      5        1          -0.005205301    0.000092103   -0.001405191
      6        6          -0.004567744   -0.000442080   -0.000985116
      7        6           0.006555351    0.012224207   -0.003591423
      8        1          -0.004844234    0.002355343   -0.002245865
      9        6          -0.033181446   -0.004834043   -0.006801327
     10        1          -0.001003819    0.000345609   -0.000436095
     11        6          -0.003136403    0.001519063   -0.001568447
     12        1           0.000624896   -0.000279993    0.000602932
     13        1           0.000471947   -0.000766899    0.000325802
     14        1           0.000936513    0.002970887   -0.000998367
 -------------------------------------------------------------------
 Cartesian Forces:  Max     0.074504322 RMS     0.015025672
 FormGI is forming the generalized inverse of G from B-inverse, IUseBI=4.

 GradGradGradGradGradGradGradGradGradGradGradGradGradGradGradGradGradGrad
 Berny optimization.
 Internal  Forces:  Max     0.050010628 RMS     0.009927776
 Search for a local minimum.
 Step number   1 out of a maximum of   72
 All quantities printed in internal units (Hartrees-Bohrs-Radians)
 Mixed Optimization -- RFO/linear search
 Second derivative matrix not updated -- analytic derivatives used.
 ITU=  0
     Eigenvalues ---    0.00052   0.00840   0.01798   0.02171   0.02325
     Eigenvalues ---    0.02568   0.02718   0.02945   0.03933   0.05639
     Eigenvalues ---    0.05682   0.10471   0.11342   0.11915   0.11977
     Eigenvalues ---    0.12225   0.13934   0.14260   0.18394   0.18556
     Eigenvalues ---    0.19333   0.20183   0.28394   0.31466   0.33958
     Eigenvalues ---    0.34427   0.34956   0.35140   0.35619   0.36021
     Eigenvalues ---    0.36266   0.42236   0.43081   0.46307   0.50350
     Eigenvalues ---    0.52830
 RFO step:  Lambda=-2.47780809D-02 EMin= 5.17028535D-04
 Linear search not attempted -- first point.
 Maximum step size (   0.300) exceeded in Quadratic search.
    -- Step size scaled by   0.912
 Iteration  1 RMS(Cart)=  0.04547567 RMS(Int)=  0.00256274
 Iteration  2 RMS(Cart)=  0.00470529 RMS(Int)=  0.00080699
 Iteration  3 RMS(Cart)=  0.00000442 RMS(Int)=  0.00080699
 Iteration  4 RMS(Cart)=  0.00000000 RMS(Int)=  0.00080699
 Variable       Old X    -DE/DX   Delta X   Delta X   Delta X     New X
                                 (Linear)    (Quad)   (Total)
    R1        2.59175   0.02546   0.00000   0.05659   0.05781   2.64956
    R2        2.60776   0.02421   0.00000   0.05985   0.06105   2.66881
    R3        2.04964   0.00235   0.00000   0.00893   0.00893   2.05857
    R4        2.64680   0.00885   0.00000   0.00134   0.00140   2.64820
    R5        2.04904   0.00379   0.00000   0.00451   0.00451   2.05355
    R6        2.62980  -0.00249   0.00000  -0.00548  -0.00670   2.62309
    R7        2.63591  -0.00070   0.00000  -0.00077  -0.00202   2.63389
    R8        2.04846   0.00114   0.00000   0.00272   0.00272   2.05117
    R9        2.05224   0.00377   0.00000   0.00368   0.00368   2.05592
   R10        2.64854   0.00675   0.00000  -0.00467  -0.00471   2.64384
   R11        2.84511   0.00145   0.00000   0.01342   0.01342   2.85853
   R12        2.06501   0.00067   0.00000   0.00273   0.00273   2.06774
   R13        2.06389   0.00053   0.00000   0.00283   0.00283   2.06673
   R14        2.06117   0.00272   0.00000   0.00501   0.00501   2.06618
    A1        2.21219  -0.05001   0.00000  -0.19986  -0.19624   2.01595
    A2        2.13155  -0.01072   0.00000  -0.04697  -0.04752   2.08403
    A3        2.03841   0.02552   0.00000   0.11480   0.11589   2.15430
    A4        2.11323  -0.01480   0.00000  -0.06783  -0.06838   2.04485
    A5        2.09284   0.00338   0.00000   0.00748   0.00820   2.10103
    A6        2.08723   0.00106   0.00000   0.00041  -0.00103   2.08620
    A7        2.10312  -0.00443   0.00000  -0.00789  -0.00716   2.09596
    A8        2.10762  -0.00369   0.00000  -0.03021  -0.03297   2.07465
    A9        2.09053   0.00190   0.00000   0.01634   0.01772   2.10824
   A10        2.08504   0.00179   0.00000   0.01387   0.01525   2.10029
   A11        2.09307  -0.00467   0.00000  -0.01041  -0.00965   2.08342
   A12        2.11500   0.00019   0.00000  -0.00188  -0.00340   2.11160
   A13        2.07512   0.00448   0.00000   0.01229   0.01305   2.08817
   A14        2.00593   0.02693   0.00000   0.11673   0.11774   2.12367
   A15        2.14091  -0.01058   0.00000  -0.05010  -0.05060   2.09031
   A16        2.13634  -0.01635   0.00000  -0.06664  -0.06715   2.06919
   A17        1.93183  -0.00052   0.00000   0.00019   0.00014   1.93197
   A18        1.93441  -0.00113   0.00000  -0.00314  -0.00317   1.93124
   A19        1.93248   0.00311   0.00000   0.02017   0.02012   1.95260
   A20        1.87710  -0.00033   0.00000  -0.01049  -0.01051   1.86659
   A21        1.89151  -0.00078   0.00000  -0.00421  -0.00428   1.88723
   A22        1.89489  -0.00045   0.00000  -0.00350  -0.00353   1.89136
    D1        3.14123   0.00001   0.00000   0.00192   0.00191  -3.14005
    D2       -0.00001   0.00004   0.00000  -0.00010  -0.00015  -0.00016
    D3       -0.00087  -0.00003   0.00000  -0.00157  -0.00154  -0.00241
    D4        3.13621  -0.00011   0.00000  -0.00247  -0.00247   3.13374
    D5        3.14112  -0.00002   0.00000   0.00166   0.00169  -3.14038
    D6        0.00071  -0.00002   0.00000   0.00154   0.00153   0.00224
    D7       -0.00012   0.00001   0.00000  -0.00035  -0.00033  -0.00045
    D8       -3.14053   0.00001   0.00000  -0.00046  -0.00049  -3.14102
    D9       -0.00049  -0.00001   0.00000  -0.00129  -0.00124  -0.00172
   D10        3.14053   0.00001   0.00000  -0.00094  -0.00087   3.13966
   D11       -3.14089  -0.00001   0.00000  -0.00141  -0.00140   3.14090
   D12        0.00013   0.00000   0.00000  -0.00107  -0.00103  -0.00090
   D13        3.14023   0.00006   0.00000   0.00034   0.00041   3.14064
   D14       -0.00045   0.00003   0.00000  -0.00042  -0.00033  -0.00078
   D15       -0.00078   0.00004   0.00000   0.00000   0.00004  -0.00074
   D16       -3.14147   0.00002   0.00000  -0.00076  -0.00070   3.14102
   D17        0.00107   0.00001   0.00000   0.00185   0.00188   0.00295
   D18       -3.13602   0.00007   0.00000   0.00270   0.00276  -3.13326
   D19       -3.13962  -0.00002   0.00000   0.00111   0.00115  -3.13847
   D20        0.00647   0.00005   0.00000   0.00196   0.00203   0.00850
   D21       -1.12114   0.00075   0.00000   0.00789   0.00787  -1.11327
   D22        0.96009  -0.00073   0.00000  -0.00712  -0.00716   0.95293
   D23        3.06405   0.00002   0.00000  -0.00020  -0.00025   3.06380
   D24        2.01561   0.00077   0.00000   0.00739   0.00745   2.02305
   D25       -2.18635  -0.00070   0.00000  -0.00762  -0.00759  -2.19394
   D26       -0.08240   0.00005   0.00000  -0.00070  -0.00067  -0.08307
         Item               Value     Threshold  Converged?
 Maximum Force            0.050011     0.000015     NO 
 RMS     Force            0.009928     0.000010     NO 
 Maximum Displacement     0.233728     0.000060     NO 
 RMS     Displacement     0.045225     0.000040     NO 
 Predicted change in Energy=-1.340777D-02
 GradGradGradGradGradGradGradGradGradGradGradGradGradGradGradGradGradGrad

                          Input orientation:                          
 ---------------------------------------------------------------------
 Center     Atomic      Atomic             Coordinates (Angstroms)
 Number     Number       Type             X           Y           Z
 ---------------------------------------------------------------------
      1          6           0        6.347365    6.990214    5.082086
      2          6           0        5.236902    6.137657    5.158712
      3          1           0        5.348562    5.153323    5.611806
      4          6           0        3.965297    6.481185    4.680339
      5          1           0        3.138246    5.781554    4.766413
      6          6           0        3.767803    7.723326    4.093098
      7          6           0        4.846121    8.601160    3.996640
      8          1           0        4.700726    9.576493    3.537058
      9          6           0        6.109586    8.246014    4.481295
     10          1           0        2.791922    8.009934    3.714048
     11          6           0        7.238449    9.245331    4.358020
     12          1           0        7.587040    9.558805    5.346704
     13          1           0        8.094754    8.798599    3.844916
     14          1           0        6.933471   10.138395    3.805845
 ---------------------------------------------------------------------
                    Distance matrix (angstroms):
                    1          2          3          4          5
     1  C    0.000000
     2  C    1.402088   0.000000
     3  H    2.156937   1.089347   0.000000
     4  C    2.468757   1.401368   2.131729   0.000000
     5  H    3.443683   2.164502   2.448441   1.086694   0.000000
     6  C    2.858266   2.410006   3.377897   1.388081   2.149458
     7  C    2.455010   2.751721   3.840415   2.395327   3.385198
     8  H    3.433274   3.839640   4.928357   3.380663   4.284182
     9  C    1.412276   2.380260   3.379638   2.784280   3.870880
    10  H    3.943670   3.401530   4.277631   2.155830   2.488592
    11  C    2.530585   3.782187   4.678481   4.296269   5.382955
    12  H    2.864347   4.154846   4.948670   4.799252   5.864822
    13  H    2.802538   4.119950   4.894028   4.808405   5.875261
    14  H    3.447225   4.551319   5.533930   4.790615   5.857345
                    6          7          8          9         10
     6  C    0.000000
     7  C    1.393796   0.000000
     8  H    2.147965   1.087947   0.000000
     9  C    2.430606   1.399057   2.155607   0.000000
    10  H    1.085435   2.156187   2.475675   3.413400   0.000000
    11  C    3.798956   2.503755   2.687692   1.512668   4.659669
    12  H    4.418946   3.201937   3.406750   2.157598   5.296955
    13  H    4.465458   3.258162   3.495615   2.156669   5.362756
    14  H    3.992059   2.599332   2.318002   2.171665   4.657382
                   11         12         13         14
    11  C    0.000000
    12  H    1.094202   0.000000
    13  H    1.093666   1.758140   0.000000
    14  H    1.093377   1.771249   1.773460   0.000000
 Symmetry turned off by external request.
 Stoichiometry    C7H7(1-)
 Framework group  C1[X(C7H7)]
 Deg. of freedom    36
 Full point group                 C1      NOp   1
 Rotational constants (GHZ):           5.7458300           2.5579803           1.7895310
 Standard basis: 6-311+G(d,p) (5D, 7F)
   196 basis functions,   308 primitive gaussians,   203 cartesian basis functions
    25 alpha electrons       25 beta electrons
       nuclear repulsion energy       258.0906384265 Hartrees.
 NAtoms=   14 NActive=   14 NUniq=   14 SFac= 1.00D+00 NAtFMM=   60 NAOKFM=F Big=F
 Integral buffers will be    131072 words long.
 Raffenetti 2 integral format.
 Two-electron integral symmetry is turned off.
 ------------------------------------------------------------------------------
 Polarizable Continuum Model (PCM)
 =================================
 Model                : PCM.
 Atomic radii         : SMD-Coulomb.
 Polarization charges : Total charges.
 Charge compensation  : None.
 Solution method      : Matrix inversion.
 Cavity type          : VdW (van der Waals Surface) (Alpha=1.000).
 Cavity algorithm     : GePol (No added spheres)
                        Default sphere list used, NSphG=   14.
                        Lebedev-Laikov grids with approx.  5.0 points / Ang**2.
                        Smoothing algorithm: York/Karplus (Gamma=1.0000).
                        Polarization charges: spherical gaussians, with
                                              point-specific exponents (IZeta= 3).
                        Self-potential: point-specific (ISelfS= 7).
                        Self-field    : sphere-specific E.n sum rule (ISelfD= 2).
 1st derivatives      : Analytical E(r).r(x)/FMM algorithm (CHGder, D1EAlg=3).
                        Cavity 1st derivative terms included.
 Solvent              : TetraHydroFuran, Eps=   7.425700 Eps(inf)=   1.974025
 ------------------------------------------------------------------------------
 Spheres list:
 ISph  on   Nord     Re0    Alpha      Xe            Ye            Ze
    1   C      1    1.8500  1.000      6.347365      6.990214      5.082086
    2   C      2    1.8500  1.000      5.236902      6.137657      5.158712
    3   H      3    1.2000  1.000      5.348562      5.153323      5.611806
    4   C      4    1.8500  1.000      3.965297      6.481185      4.680339
    5   H      5    1.2000  1.000      3.138246      5.781554      4.766413
    6   C      6    1.8500  1.000      3.767803      7.723326      4.093098
    7   C      7    1.8500  1.000      4.846121      8.601160      3.996640
    8   H      8    1.2000  1.000      4.700726      9.576493      3.537058
    9   C      9    1.8500  1.000      6.109586      8.246014      4.481295
   10   H     10    1.2000  1.000      2.791922      8.009934      3.714048
   11   C     11    1.8500  1.000      7.238449      9.245331      4.358020
   12   H     12    1.2000  1.000      7.587040      9.558805      5.346704
   13   H     13    1.2000  1.000      8.094754      8.798599      3.844916
   14   H     14    1.2000  1.000      6.933471     10.138395      3.805845
 ------------------------------------------------------------------------------
 ------------------------------------------------------------------------------
 Atomic radii for non-electrostatic terms: SMD-CDS.
 ------------------------------------------------------------------------------
 Nuclear repulsion after PCM non-electrostatic terms =      258.0877290405 Hartrees.
 One-electron integrals computed using PRISM.
 NBasis=   196 RedAO= T EigKep=  4.00D-06  NBF=   196
 NBsUse=   196 1.00D-06 EigRej= -1.00D+00 NBFU=   196
 Initial guess from the checkpoint file:  "2-Me-ph-anion-opt-freq-thf.chk"
 B after Tr=     0.026385   -0.016266    0.013067
         Rot=    1.000000   -0.000012   -0.000193   -0.000251 Ang=  -0.04 deg.
 ExpMin= 4.38D-02 ExpMax= 4.56D+03 ExpMxC= 6.82D+02 IAcc=3 IRadAn=         5 AccDes= 0.00D+00
 Harris functional with IExCor= 1009 and IRadAn=       5 diagonalized for initial guess.
 HarFok:  IExCor= 1009 AccDes= 0.00D+00 IRadAn=         5 IDoV= 1 UseB2=F ITyADJ=14
 ICtDFT=  3500011 ScaDFX=  1.000000  1.000000  1.000000  1.000000
 FoFCou: FMM=F IPFlag=           0 FMFlag=      100000 FMFlg1=           0
         NFxFlg=           0 DoJE=T BraDBF=F KetDBF=T FulRan=T
         wScrn=  0.000000 ICntrl=       500 IOpCl=  0 I1Cent=   200000004 NGrid=           0
         NMat0=    1 NMatS0=      1 NMatT0=    0 NMatD0=    1 NMtDS0=    0 NMtDT0=    0
 Symmetry not used in FoFCou.
 Requested convergence on RMS density matrix=1.00D-08 within 128 cycles.
 Requested convergence on MAX density matrix=1.00D-06.
 Requested convergence on             energy=1.00D-06.
 Level shift goal  0.100 maximum shift  0.100.
 No special actions if energy rises.
 Dynamic level shift is on during FON iterations.
 Inv3:  Mode=1 IEnd=     4113723.
 Iteration    1 A*A^-1 deviation from unit magnitude is 3.89D-15 for   1156.
 Iteration    1 A*A^-1 deviation from orthogonality  is 2.07D-15 for   1158    940.
 Iteration    1 A^-1*A deviation from unit magnitude is 3.55D-15 for   1156.
 Iteration    1 A^-1*A deviation from orthogonality  is 2.57D-15 for    832    789.
 Error on total polarization charges =  0.06418
 SCF Done:  E(RM062X) =  -270.948453183     A.U. after   14 cycles
            NFock= 14  Conv=0.79D-08     -V/T= 2.0042
 SMD-CDS (non-electrostatic) energy       (kcal/mol) =      -1.83
 (included in total energy above)
 D1PCM: PCM CHGder 1st derivatives, ID1Alg=3 FixD1E=F DoIter=F DoCFld=F I1PDM=0.
 Calling FoFJK, ICntrl=      2127 FMM=F ISym2X=0 I1Cent= 0 IOpClX= 0 NMat=1 NMatS=1 NMatT=0.
 -------------------------------------------------------------------
 Center     Atomic                   Forces (Hartrees/Bohr)
 Number     Number              X              Y              Z
 -------------------------------------------------------------------
      1        6           0.012146628   -0.003107847    0.004923138
      2        6          -0.003577996    0.003084018   -0.002318595
      3        1          -0.000590378   -0.001226904    0.000332375
      4        6          -0.001359535   -0.003140895    0.000976658
      5        1          -0.000906583   -0.000149183   -0.000204860
      6        6          -0.002189697    0.000296182   -0.000686655
      7        6           0.001501700    0.003525687   -0.001110988
      8        1          -0.000998401    0.000447558   -0.000409034
      9        6          -0.005172437   -0.000988399   -0.001049742
     10        1          -0.000121643   -0.000001752   -0.000048960
     11        6           0.000387650    0.000720187   -0.000640994
     12        1           0.000283476   -0.000106740    0.000134310
     13        1           0.000192735   -0.000084135    0.000226942
     14        1           0.000404480    0.000732221   -0.000123593
 -------------------------------------------------------------------
 Cartesian Forces:  Max     0.012146628 RMS     0.002573363

 GradGradGradGradGradGradGradGradGradGradGradGradGradGradGradGradGradGrad
 Berny optimization.
 Using GEDIIS/GDIIS optimizer.
 FormGI is forming the generalized inverse of G from B-inverse, IUseBI=4.
 Internal  Forces:  Max     0.006674894 RMS     0.001677458
 Search for a local minimum.
 Step number   2 out of a maximum of   72
 All quantities printed in internal units (Hartrees-Bohrs-Radians)
 Mixed Optimization -- RFO/linear search
 Update second derivatives using D2CorX and points    1    2
 DE= -1.31D-02 DEPred=-1.34D-02 R= 9.79D-01
 TightC=F SS=  1.41D+00  RLast= 3.00D-01 DXNew= 5.0454D-01 9.0072D-01
 Trust test= 9.79D-01 RLast= 3.00D-01 DXMaxT set to 5.05D-01
 ITU=  1  0
 Use linear search instead of GDIIS.
     Eigenvalues ---    0.00052   0.00839   0.01798   0.02169   0.02318
     Eigenvalues ---    0.02565   0.02715   0.02942   0.03922   0.05638
     Eigenvalues ---    0.05682   0.10470   0.11367   0.11925   0.11976
     Eigenvalues ---    0.12226   0.13916   0.14258   0.18481   0.18678
     Eigenvalues ---    0.20116   0.20186   0.28426   0.31599   0.33958
     Eigenvalues ---    0.34428   0.34956   0.35183   0.35606   0.36013
     Eigenvalues ---    0.36264   0.42314   0.43010   0.46232   0.50324
     Eigenvalues ---    0.51923
 RFO step:  Lambda=-9.85045011D-05 EMin= 5.17028019D-04
 Quartic linear search produced a step of  0.17064.
 Iteration  1 RMS(Cart)=  0.02272540 RMS(Int)=  0.00048318
 Iteration  2 RMS(Cart)=  0.00050551 RMS(Int)=  0.00015602
 Iteration  3 RMS(Cart)=  0.00000021 RMS(Int)=  0.00015602
 Variable       Old X    -DE/DX   Delta X   Delta X   Delta X     New X
                                 (Linear)    (Quad)   (Total)
    R1        2.64956   0.00546   0.00987   0.00280   0.01290   2.66246
    R2        2.66881   0.00518   0.01042   0.00329   0.01393   2.68275
    R3        2.05857   0.00119   0.00152   0.00278   0.00431   2.06287
    R4        2.64820   0.00190   0.00024   0.00167   0.00192   2.65012
    R5        2.05355   0.00077   0.00077   0.00053   0.00130   2.05485
    R6        2.62309   0.00144  -0.00114   0.00430   0.00293   2.62602
    R7        2.63389   0.00202  -0.00034   0.00548   0.00490   2.63879
    R8        2.05117   0.00012   0.00046  -0.00016   0.00031   2.05148
    R9        2.05592   0.00070   0.00063   0.00036   0.00099   2.05692
   R10        2.64384   0.00252  -0.00080   0.00327   0.00246   2.64629
   R11        2.85853   0.00182   0.00229   0.00534   0.00763   2.86616
   R12        2.06774   0.00017   0.00047  -0.00040   0.00006   2.06780
   R13        2.06673   0.00006   0.00048   0.00033   0.00082   2.06755
   R14        2.06618   0.00057   0.00086   0.00057   0.00143   2.06761
    A1        2.01595  -0.00667  -0.03349   0.00192  -0.03088   1.98506
    A2        2.08403  -0.00126  -0.00811   0.00345  -0.00476   2.07927
    A3        2.15430   0.00399   0.01978   0.00033   0.02031   2.17461
    A4        2.04485  -0.00273  -0.01167  -0.00378  -0.01555   2.02930
    A5        2.10103   0.00064   0.00140   0.00087   0.00240   2.10343
    A6        2.08620  -0.00024  -0.00018  -0.00179  -0.00225   2.08395
    A7        2.09596  -0.00040  -0.00122   0.00093  -0.00016   2.09580
    A8        2.07465  -0.00046  -0.00563   0.00212  -0.00405   2.07060
    A9        2.10824   0.00016   0.00302  -0.00135   0.00194   2.11019
   A10        2.10029   0.00029   0.00260  -0.00077   0.00210   2.10240
   A11        2.08342  -0.00079  -0.00165  -0.00286  -0.00436   2.07906
   A12        2.11160  -0.00038  -0.00058  -0.00159  -0.00247   2.10913
   A13        2.08817   0.00117   0.00223   0.00445   0.00683   2.09499
   A14        2.12367   0.00375   0.02009  -0.00096   0.01931   2.14298
   A15        2.09031  -0.00213  -0.00863  -0.00448  -0.01321   2.07710
   A16        2.06919  -0.00162  -0.01146   0.00546  -0.00609   2.06310
   A17        1.93197  -0.00013   0.00002  -0.00167  -0.00166   1.93031
   A18        1.93124  -0.00013  -0.00054  -0.00031  -0.00086   1.93038
   A19        1.95260   0.00099   0.00343   0.00438   0.00780   1.96040
   A20        1.86659  -0.00026  -0.00179  -0.00252  -0.00433   1.86226
   A21        1.88723  -0.00031  -0.00073   0.00088   0.00013   1.88736
   A22        1.89136  -0.00022  -0.00060  -0.00102  -0.00163   1.88973
    D1       -3.14005  -0.00010   0.00033  -0.00335  -0.00298   3.14015
    D2       -0.00016  -0.00008  -0.00003  -0.00274  -0.00273  -0.00289
    D3       -0.00241   0.00014  -0.00026   0.00988   0.00959   0.00718
    D4        3.13374   0.00013  -0.00042   0.01415   0.01370  -3.13574
    D5       -3.14038  -0.00001   0.00029  -0.00365  -0.00336   3.13944
    D6        0.00224  -0.00002   0.00026  -0.00481  -0.00451  -0.00228
    D7       -0.00045   0.00001  -0.00006  -0.00305  -0.00310  -0.00356
    D8       -3.14102   0.00000  -0.00008  -0.00421  -0.00426   3.13791
    D9       -0.00172   0.00006  -0.00021   0.00530   0.00508   0.00336
   D10        3.13966   0.00003  -0.00015   0.00454   0.00435  -3.13917
   D11        3.14090   0.00005  -0.00024   0.00415   0.00393  -3.13836
   D12       -0.00090   0.00001  -0.00018   0.00339   0.00320   0.00230
   D13        3.14064  -0.00003   0.00007   0.00068   0.00069   3.14133
   D14       -0.00078   0.00000  -0.00006   0.00171   0.00159   0.00081
   D15       -0.00074   0.00001   0.00001   0.00143   0.00141   0.00067
   D16        3.14102   0.00003  -0.00012   0.00247   0.00232  -3.13985
   D17        0.00295  -0.00009   0.00032  -0.00970  -0.00942  -0.00647
   D18       -3.13326  -0.00009   0.00047  -0.01390  -0.01348   3.13645
   D19       -3.13847  -0.00007   0.00020  -0.00867  -0.00851   3.13621
   D20        0.00850  -0.00006   0.00035  -0.01286  -0.01256  -0.00406
   D21       -1.11327   0.00025   0.00134   0.05476   0.05613  -1.05714
   D22        0.95293  -0.00024  -0.00122   0.05037   0.04917   1.00209
   D23        3.06380   0.00006  -0.00004   0.05183   0.05181   3.11560
   D24        2.02305   0.00026   0.00127   0.05888   0.06013   2.08318
   D25       -2.19394  -0.00023  -0.00129   0.05449   0.05317  -2.14077
   D26       -0.08307   0.00007  -0.00011   0.05595   0.05581  -0.02726
         Item               Value     Threshold  Converged?
 Maximum Force            0.006675     0.000015     NO 
 RMS     Force            0.001677     0.000010     NO 
 Maximum Displacement     0.078830     0.000060     NO 
 RMS     Displacement     0.022714     0.000040     NO 
 Predicted change in Energy=-3.548324D-04
 GradGradGradGradGradGradGradGradGradGradGradGradGradGradGradGradGradGrad

                          Input orientation:                          
 ---------------------------------------------------------------------
 Center     Atomic      Atomic             Coordinates (Angstroms)
 Number     Number       Type             X           Y           Z
 ---------------------------------------------------------------------
      1          6           0        6.362222    6.993717    5.109378
      2          6           0        5.236507    6.148543    5.168447
      3          1           0        5.335690    5.162495    5.626177
      4          6           0        3.965732    6.479348    4.676125
      5          1           0        3.142123    5.773768    4.755022
      6          6           0        3.765275    7.720555    4.084265
      7          6           0        4.844858    8.601735    3.995288
      8          1           0        4.696742    9.575948    3.532963
      9          6           0        6.105353    8.245171    4.490280
     10          1           0        2.791173    8.002824    3.697004
     11          6           0        7.237416    9.245601    4.356229
     12          1           0        7.623247    9.524652    5.341426
     13          1           0        8.074109    8.808388    3.803201
     14          1           0        6.925796   10.159243    3.841175
 ---------------------------------------------------------------------
                    Distance matrix (angstroms):
                    1          2          3          4          5
     1  C    0.000000
     2  C    1.408916   0.000000
     3  H    2.161996   1.091626   0.000000
     4  C    2.489066   1.402384   2.124497   0.000000
     5  H    3.461631   2.167446   2.438095   1.087382   0.000000
     6  C    2.885011   2.410642   3.374518   1.389632   2.151328
     7  C    2.475744   2.747333   3.837849   2.396023   3.387315
     8  H    3.453523   3.835786   4.926293   3.380846   4.285655
     9  C    1.419648   2.368681   3.374246   2.780404   3.867642
    10  H    3.970578   3.403404   4.273611   2.158529   2.492239
    11  C    2.530648   3.775593   4.679860   4.296324   5.383687
    12  H    2.837192   4.138183   4.933803   4.805613   5.873115
    13  H    2.815969   4.121972   4.910673   4.802622   5.868507
    14  H    3.456372   4.549842   5.539148   4.795909   5.863761
                    6          7          8          9         10
     6  C    0.000000
     7  C    1.396387   0.000000
     8  H    2.148033   1.088473   0.000000
     9  C    2.432290   1.400357   2.161389   0.000000
    10  H    1.085597   2.159929   2.476453   3.416402   0.000000
    11  C    3.802038   2.503832   2.691081   1.516706   4.663491
    12  H    4.440628   3.222314   3.440582   2.159983   5.326258
    13  H    4.452913   3.241553   3.474016   2.159929   5.345056
    14  H    3.999399   2.603821   2.324631   2.181315   4.665409
                   11         12         13         14
    11  C    0.000000
    12  H    1.094235   0.000000
    13  H    1.094098   1.755690   0.000000
    14  H    1.094133   1.771975   1.773380   0.000000
 Symmetry turned off by external request.
 Stoichiometry    C7H7(1-)
 Framework group  C1[X(C7H7)]
 Deg. of freedom    36
 Full point group                 C1      NOp   1
 Rotational constants (GHZ):           5.7037785           2.5587145           1.7857327
 Standard basis: 6-311+G(d,p) (5D, 7F)
   196 basis functions,   308 primitive gaussians,   203 cartesian basis functions
    25 alpha electrons       25 beta electrons
       nuclear repulsion energy       257.6712439977 Hartrees.
 NAtoms=   14 NActive=   14 NUniq=   14 SFac= 1.00D+00 NAtFMM=   60 NAOKFM=F Big=F
 Integral buffers will be    131072 words long.
 Raffenetti 2 integral format.
 Two-electron integral symmetry is turned off.
 ------------------------------------------------------------------------------
 Polarizable Continuum Model (PCM)
 =================================
 Model                : PCM.
 Atomic radii         : SMD-Coulomb.
 Polarization charges : Total charges.
 Charge compensation  : None.
 Solution method      : Matrix inversion.
 Cavity type          : VdW (van der Waals Surface) (Alpha=1.000).
 Cavity algorithm     : GePol (No added spheres)
                        Default sphere list used, NSphG=   14.
                        Lebedev-Laikov grids with approx.  5.0 points / Ang**2.
                        Smoothing algorithm: York/Karplus (Gamma=1.0000).
                        Polarization charges: spherical gaussians, with
                                              point-specific exponents (IZeta= 3).
                        Self-potential: point-specific (ISelfS= 7).
                        Self-field    : sphere-specific E.n sum rule (ISelfD= 2).
 1st derivatives      : Analytical E(r).r(x)/FMM algorithm (CHGder, D1EAlg=3).
                        Cavity 1st derivative terms included.
 Solvent              : TetraHydroFuran, Eps=   7.425700 Eps(inf)=   1.974025
 ------------------------------------------------------------------------------
 Spheres list:
 ISph  on   Nord     Re0    Alpha      Xe            Ye            Ze
    1   C      1    1.8500  1.000      6.362222      6.993717      5.109378
    2   C      2    1.8500  1.000      5.236507      6.148543      5.168447
    3   H      3    1.2000  1.000      5.335690      5.162495      5.626177
    4   C      4    1.8500  1.000      3.965732      6.479348      4.676125
    5   H      5    1.2000  1.000      3.142123      5.773768      4.755022
    6   C      6    1.8500  1.000      3.765275      7.720555      4.084265
    7   C      7    1.8500  1.000      4.844858      8.601735      3.995288
    8   H      8    1.2000  1.000      4.696742      9.575948      3.532963
    9   C      9    1.8500  1.000      6.105353      8.245171      4.490280
   10   H     10    1.2000  1.000      2.791173      8.002824      3.697004
   11   C     11    1.8500  1.000      7.237416      9.245601      4.356229
   12   H     12    1.2000  1.000      7.623247      9.524652      5.341426
   13   H     13    1.2000  1.000      8.074109      8.808388      3.803201
   14   H     14    1.2000  1.000      6.925796     10.159243      3.841175
 ------------------------------------------------------------------------------
 ------------------------------------------------------------------------------
 Atomic radii for non-electrostatic terms: SMD-CDS.
 ------------------------------------------------------------------------------
 Nuclear repulsion after PCM non-electrostatic terms =      257.6683586759 Hartrees.
 One-electron integrals computed using PRISM.
 NBasis=   196 RedAO= T EigKep=  4.18D-06  NBF=   196
 NBsUse=   196 1.00D-06 EigRej= -1.00D+00 NBFU=   196
 Initial guess from the checkpoint file:  "2-Me-ph-anion-opt-freq-thf.chk"
 B after Tr=     0.048248   -0.041808    0.024384
         Rot=    0.999996    0.001915    0.001835   -0.000541 Ang=   0.31 deg.
 ExpMin= 4.38D-02 ExpMax= 4.56D+03 ExpMxC= 6.82D+02 IAcc=3 IRadAn=         5 AccDes= 0.00D+00
 Harris functional with IExCor= 1009 and IRadAn=       5 diagonalized for initial guess.
 HarFok:  IExCor= 1009 AccDes= 0.00D+00 IRadAn=         5 IDoV= 1 UseB2=F ITyADJ=14
 ICtDFT=  3500011 ScaDFX=  1.000000  1.000000  1.000000  1.000000
 FoFCou: FMM=F IPFlag=           0 FMFlag=      100000 FMFlg1=           0
         NFxFlg=           0 DoJE=T BraDBF=F KetDBF=T FulRan=T
         wScrn=  0.000000 ICntrl=       500 IOpCl=  0 I1Cent=   200000004 NGrid=           0
         NMat0=    1 NMatS0=      1 NMatT0=    0 NMatD0=    1 NMtDS0=    0 NMtDT0=    0
 Symmetry not used in FoFCou.
 Requested convergence on RMS density matrix=1.00D-08 within 128 cycles.
 Requested convergence on MAX density matrix=1.00D-06.
 Requested convergence on             energy=1.00D-06.
 Level shift goal  0.100 maximum shift  0.100.
 No special actions if energy rises.
 Dynamic level shift is on during FON iterations.
 Inv3:  Mode=1 IEnd=     4148928.
 Iteration    1 A*A^-1 deviation from unit magnitude is 3.55D-15 for   1175.
 Iteration    1 A*A^-1 deviation from orthogonality  is 1.81D-15 for    707    119.
 Iteration    1 A^-1*A deviation from unit magnitude is 3.33D-15 for   1175.
 Iteration    1 A^-1*A deviation from orthogonality  is 2.31D-15 for    863    792.
 Error on total polarization charges =  0.06356
 SCF Done:  E(RM062X) =  -270.948812699     A.U. after   13 cycles
            NFock= 13  Conv=0.66D-08     -V/T= 2.0044
 SMD-CDS (non-electrostatic) energy       (kcal/mol) =      -1.81
 (included in total energy above)
 D1PCM: PCM CHGder 1st derivatives, ID1Alg=3 FixD1E=F DoIter=F DoCFld=F I1PDM=0.
 Calling FoFJK, ICntrl=      2127 FMM=F ISym2X=0 I1Cent= 0 IOpClX= 0 NMat=1 NMatS=1 NMatT=0.
 -------------------------------------------------------------------
 Center     Atomic                   Forces (Hartrees/Bohr)
 Number     Number              X              Y              Z
 -------------------------------------------------------------------
      1        6           0.000744560   -0.000237957    0.000417700
      2        6          -0.000287201   -0.000271052    0.000013576
      3        1          -0.000069324   -0.000163353    0.000053445
      4        6          -0.000212988   -0.000163457    0.000050754
      5        1          -0.000094255    0.000036186    0.000021100
      6        6          -0.000213298    0.000058396   -0.000091655
      7        6           0.000132497    0.000289521   -0.000194353
      8        1           0.000015912    0.000036879   -0.000092340
      9        6           0.000001888    0.000197284   -0.000142956
     10        1           0.000015371    0.000031860   -0.000019448
     11        6          -0.000143247    0.000194790   -0.000026502
     12        1           0.000060765    0.000002675    0.000007327
     13        1          -0.000026826   -0.000052122    0.000009125
     14        1           0.000076145    0.000040351   -0.000005773
 -------------------------------------------------------------------
 Cartesian Forces:  Max     0.000744560 RMS     0.000182752

 GradGradGradGradGradGradGradGradGradGradGradGradGradGradGradGradGradGrad
 Berny optimization.
 Using GEDIIS/GDIIS optimizer.
 FormGI is forming the generalized inverse of G from B-inverse, IUseBI=4.
 Internal  Forces:  Max     0.000738234 RMS     0.000163264
 Search for a local minimum.
 Step number   3 out of a maximum of   72
 All quantities printed in internal units (Hartrees-Bohrs-Radians)
 Mixed Optimization -- En-DIIS/RFO-DIIS
 Update second derivatives using D2CorX and points    1    2    3
 DE= -3.60D-04 DEPred=-3.55D-04 R= 1.01D+00
 TightC=F SS=  1.41D+00  RLast= 1.47D-01 DXNew= 8.4853D-01 4.4130D-01
 Trust test= 1.01D+00 RLast= 1.47D-01 DXMaxT set to 5.05D-01
 ITU=  1  1  0
 Use linear search instead of GDIIS.
     Eigenvalues ---    0.00051   0.00845   0.01798   0.02168   0.02316
     Eigenvalues ---    0.02564   0.02712   0.02941   0.03917   0.05642
     Eigenvalues ---    0.05681   0.10478   0.11368   0.11923   0.11971
     Eigenvalues ---    0.12222   0.13950   0.14257   0.18456   0.18688
     Eigenvalues ---    0.20176   0.20745   0.28428   0.31605   0.33958
     Eigenvalues ---    0.34427   0.34956   0.35187   0.35566   0.36011
     Eigenvalues ---    0.36263   0.42207   0.42788   0.46241   0.50039
     Eigenvalues ---    0.50609
 RFO step:  Lambda=-8.94944378D-06 EMin= 5.10565942D-04
 Quartic linear search produced a step of  0.05978.
 Iteration  1 RMS(Cart)=  0.01568827 RMS(Int)=  0.00023673
 Iteration  2 RMS(Cart)=  0.00024601 RMS(Int)=  0.00000225
 Iteration  3 RMS(Cart)=  0.00000005 RMS(Int)=  0.00000225
 Variable       Old X    -DE/DX   Delta X   Delta X   Delta X     New X
                                 (Linear)    (Quad)   (Total)
    R1        2.66246   0.00071   0.00077   0.00085   0.00163   2.66409
    R2        2.68275   0.00074   0.00083   0.00095   0.00179   2.68453
    R3        2.06287   0.00017   0.00026   0.00026   0.00051   2.06339
    R4        2.65012   0.00031   0.00011   0.00060   0.00071   2.65083
    R5        2.05485   0.00005   0.00008   0.00006   0.00013   2.05499
    R6        2.62602   0.00027   0.00018   0.00029   0.00046   2.62648
    R7        2.63879   0.00025   0.00029   0.00032   0.00061   2.63940
    R8        2.05148   0.00000   0.00002  -0.00003  -0.00001   2.05147
    R9        2.05692   0.00007   0.00006   0.00007   0.00013   2.05704
   R10        2.64629   0.00016   0.00015   0.00014   0.00029   2.64658
   R11        2.86616   0.00011   0.00046  -0.00004   0.00042   2.86658
   R12        2.06780   0.00002   0.00000  -0.00038  -0.00038   2.06743
   R13        2.06755  -0.00002   0.00005   0.00037   0.00042   2.06796
   R14        2.06761   0.00004   0.00009  -0.00002   0.00006   2.06768
    A1        1.98506  -0.00024  -0.00185   0.00036  -0.00149   1.98358
    A2        2.07927   0.00005  -0.00028   0.00042   0.00013   2.07940
    A3        2.17461   0.00001   0.00121  -0.00062   0.00060   2.17521
    A4        2.02930  -0.00007  -0.00093   0.00020  -0.00073   2.02857
    A5        2.10343   0.00002   0.00014   0.00013   0.00027   2.10371
    A6        2.08395   0.00003  -0.00013   0.00024   0.00010   2.08405
    A7        2.09580  -0.00006  -0.00001  -0.00036  -0.00037   2.09543
    A8        2.07060   0.00008  -0.00024   0.00023  -0.00002   2.07059
    A9        2.11019  -0.00003   0.00012  -0.00005   0.00007   2.11025
   A10        2.10240  -0.00005   0.00013  -0.00018  -0.00005   2.10235
   A11        2.07906  -0.00001  -0.00026   0.00028   0.00002   2.07908
   A12        2.10913   0.00001  -0.00015   0.00000  -0.00015   2.10898
   A13        2.09499   0.00001   0.00041  -0.00028   0.00013   2.09513
   A14        2.14298   0.00010   0.00115  -0.00018   0.00097   2.14395
   A15        2.07710   0.00023  -0.00079   0.00146   0.00067   2.07777
   A16        2.06310  -0.00033  -0.00036  -0.00128  -0.00164   2.06146
   A17        1.93031   0.00006  -0.00010   0.00024   0.00014   1.93045
   A18        1.93038  -0.00009  -0.00005   0.00035   0.00030   1.93068
   A19        1.96040   0.00010   0.00047  -0.00008   0.00039   1.96079
   A20        1.86226  -0.00001  -0.00026  -0.00008  -0.00034   1.86192
   A21        1.88736  -0.00005   0.00001   0.00084   0.00085   1.88821
   A22        1.88973  -0.00001  -0.00010  -0.00130  -0.00140   1.88833
    D1        3.14015  -0.00002  -0.00018  -0.00243  -0.00260   3.13755
    D2       -0.00289  -0.00004  -0.00016  -0.00284  -0.00300  -0.00588
    D3        0.00718  -0.00001   0.00057  -0.00238  -0.00181   0.00538
    D4       -3.13574  -0.00002   0.00082  -0.00078   0.00004  -3.13571
    D5        3.13944   0.00004  -0.00020   0.00496   0.00476  -3.13899
    D6       -0.00228   0.00005  -0.00027   0.00531   0.00504   0.00277
    D7       -0.00356   0.00003  -0.00019   0.00456   0.00438   0.00082
    D8        3.13791   0.00003  -0.00025   0.00491   0.00466  -3.14061
    D9        0.00336  -0.00001   0.00030  -0.00238  -0.00208   0.00128
   D10       -3.13917  -0.00001   0.00026  -0.00147  -0.00122  -3.14039
   D11       -3.13836   0.00000   0.00023  -0.00203  -0.00180  -3.14015
   D12        0.00230   0.00000   0.00019  -0.00112  -0.00093   0.00137
   D13        3.14133  -0.00001   0.00004  -0.00128  -0.00124   3.14009
   D14        0.00081  -0.00003   0.00010  -0.00257  -0.00248  -0.00167
   D15        0.00067  -0.00001   0.00008  -0.00218  -0.00210  -0.00143
   D16       -3.13985  -0.00003   0.00014  -0.00348  -0.00334   3.14000
   D17       -0.00647   0.00004  -0.00056   0.00514   0.00458  -0.00189
   D18        3.13645   0.00005  -0.00081   0.00356   0.00275   3.13920
   D19        3.13621   0.00002  -0.00051   0.00383   0.00332   3.13953
   D20       -0.00406   0.00003  -0.00075   0.00225   0.00150  -0.00257
   D21       -1.05714   0.00005   0.00336   0.03655   0.03991  -1.01723
   D22        1.00209   0.00002   0.00294   0.03682   0.03976   1.04186
   D23        3.11560   0.00000   0.00310   0.03536   0.03846  -3.12912
   D24        2.08318   0.00004   0.00359   0.03807   0.04166   2.12484
   D25       -2.14077   0.00001   0.00318   0.03834   0.04152  -2.09925
   D26       -0.02726   0.00000   0.00334   0.03688   0.04021   0.01295
         Item               Value     Threshold  Converged?
 Maximum Force            0.000738     0.000015     NO 
 RMS     Force            0.000163     0.000010     NO 
 Maximum Displacement     0.060405     0.000060     NO 
 RMS     Displacement     0.015687     0.000040     NO 
 Predicted change in Energy=-5.527615D-06
 GradGradGradGradGradGradGradGradGradGradGradGradGradGradGradGradGradGrad

                          Input orientation:                          
 ---------------------------------------------------------------------
 Center     Atomic      Atomic             Coordinates (Angstroms)
 Number     Number       Type             X           Y           Z
 ---------------------------------------------------------------------
      1          6           0        6.361627    6.995439    5.117303
      2          6           0        5.234910    6.150005    5.174042
      3          1           0        5.332431    5.164229    5.633361
      4          6           0        3.964939    6.479933    4.678000
      5          1           0        3.140046    5.776025    4.759370
      6          6           0        3.766896    7.718261    4.078773
      7          6           0        4.847423    8.598666    3.988508
      8          1           0        4.701537    9.570065    3.519443
      9          6           0        6.105496    8.245119    4.492174
     10          1           0        2.793993    7.999262    3.687607
     11          6           0        7.236376    9.247265    4.358449
     12          1           0        7.644963    9.500176    5.341304
     13          1           0        8.059883    8.823531    3.775507
     14          1           0        6.915723   10.174013    3.873140
 ---------------------------------------------------------------------
                    Distance matrix (angstroms):
                    1          2          3          4          5
     1  C    0.000000
     2  C    1.409777   0.000000
     3  H    2.163075   1.091897   0.000000
     4  C    2.490552   1.402761   2.124577   0.000000
     5  H    3.463189   2.168011   2.438177   1.087454   0.000000
     6  C    2.886806   2.411246   3.375015   1.389875   2.151380
     7  C    2.477363   2.748014   3.838767   2.396499   3.387723
     8  H    3.455105   3.836534   4.927278   3.381382   4.286072
     9  C    1.420594   2.369043   3.375177   2.780719   3.868038
    10  H    3.972367   3.404015   4.273995   2.158785   2.492230
    11  C    2.532146   3.776782   4.682050   4.296806   5.384252
    12  H    2.823267   4.130373   4.922758   4.806706   5.873860
    13  H    2.833091   4.133293   4.927586   4.803698   5.870270
    14  H    3.458076   4.550837   5.541040   4.795952   5.863739
                    6          7          8          9         10
     6  C    0.000000
     7  C    1.396710   0.000000
     8  H    2.148390   1.088540   0.000000
     9  C    2.432597   1.400508   2.161663   0.000000
    10  H    1.085593   2.160185   2.476777   3.416698   0.000000
    11  C    3.801758   2.502925   2.689524   1.516927   4.662864
    12  H    4.450687   3.235585   3.462343   2.160128   5.340353
    13  H    4.443346   3.227357   3.449836   2.160508   5.330735
    14  H    3.998514   2.602478   2.322170   2.181811   4.663970
                   11         12         13         14
    11  C    0.000000
    12  H    1.094035   0.000000
    13  H    1.094320   1.755485   0.000000
    14  H    1.094168   1.772386   1.772691   0.000000
 Symmetry turned off by external request.
 Stoichiometry    C7H7(1-)
 Framework group  C1[X(C7H7)]
 Deg. of freedom    36
 Full point group                 C1      NOp   1
 Rotational constants (GHZ):           5.6993502           2.5580152           1.7849498
 Standard basis: 6-311+G(d,p) (5D, 7F)
   196 basis functions,   308 primitive gaussians,   203 cartesian basis functions
    25 alpha electrons       25 beta electrons
       nuclear repulsion energy       257.6082818725 Hartrees.
 NAtoms=   14 NActive=   14 NUniq=   14 SFac= 1.00D+00 NAtFMM=   60 NAOKFM=F Big=F
 Integral buffers will be    131072 words long.
 Raffenetti 2 integral format.
 Two-electron integral symmetry is turned off.
 ------------------------------------------------------------------------------
 Polarizable Continuum Model (PCM)
 =================================
 Model                : PCM.
 Atomic radii         : SMD-Coulomb.
 Polarization charges : Total charges.
 Charge compensation  : None.
 Solution method      : Matrix inversion.
 Cavity type          : VdW (van der Waals Surface) (Alpha=1.000).
 Cavity algorithm     : GePol (No added spheres)
                        Default sphere list used, NSphG=   14.
                        Lebedev-Laikov grids with approx.  5.0 points / Ang**2.
                        Smoothing algorithm: York/Karplus (Gamma=1.0000).
                        Polarization charges: spherical gaussians, with
                                              point-specific exponents (IZeta= 3).
                        Self-potential: point-specific (ISelfS= 7).
                        Self-field    : sphere-specific E.n sum rule (ISelfD= 2).
 1st derivatives      : Analytical E(r).r(x)/FMM algorithm (CHGder, D1EAlg=3).
                        Cavity 1st derivative terms included.
 Solvent              : TetraHydroFuran, Eps=   7.425700 Eps(inf)=   1.974025
 ------------------------------------------------------------------------------
 Spheres list:
 ISph  on   Nord     Re0    Alpha      Xe            Ye            Ze
    1   C      1    1.8500  1.000      6.361627      6.995439      5.117303
    2   C      2    1.8500  1.000      5.234910      6.150005      5.174042
    3   H      3    1.2000  1.000      5.332431      5.164229      5.633361
    4   C      4    1.8500  1.000      3.964939      6.479933      4.678000
    5   H      5    1.2000  1.000      3.140046      5.776025      4.759370
    6   C      6    1.8500  1.000      3.766896      7.718261      4.078773
    7   C      7    1.8500  1.000      4.847423      8.598666      3.988508
    8   H      8    1.2000  1.000      4.701537      9.570065      3.519443
    9   C      9    1.8500  1.000      6.105496      8.245119      4.492174
   10   H     10    1.2000  1.000      2.793993      7.999262      3.687607
   11   C     11    1.8500  1.000      7.236376      9.247265      4.358449
   12   H     12    1.2000  1.000      7.644963      9.500176      5.341304
   13   H     13    1.2000  1.000      8.059883      8.823531      3.775507
   14   H     14    1.2000  1.000      6.915723     10.174013      3.873140
 ------------------------------------------------------------------------------
 ------------------------------------------------------------------------------
 Atomic radii for non-electrostatic terms: SMD-CDS.
 ------------------------------------------------------------------------------
 Nuclear repulsion after PCM non-electrostatic terms =      257.6054002093 Hartrees.
 One-electron integrals computed using PRISM.
 NBasis=   196 RedAO= T EigKep=  4.19D-06  NBF=   196
 NBsUse=   196 1.00D-06 EigRej= -1.00D+00 NBFU=   196
 Initial guess from the checkpoint file:  "2-Me-ph-anion-opt-freq-thf.chk"
 B after Tr=     0.024289   -0.023341    0.012401
         Rot=    0.999999    0.001166    0.001131   -0.000167 Ang=   0.19 deg.
 ExpMin= 4.38D-02 ExpMax= 4.56D+03 ExpMxC= 6.82D+02 IAcc=3 IRadAn=         5 AccDes= 0.00D+00
 Harris functional with IExCor= 1009 and IRadAn=       5 diagonalized for initial guess.
 HarFok:  IExCor= 1009 AccDes= 0.00D+00 IRadAn=         5 IDoV= 1 UseB2=F ITyADJ=14
[...]
 ! A22   A(13,11,14)           108.1776         -DE/DX =    0.0                 !
 ! D1    D(9,1,2,3)            179.838          -DE/DX =    0.0                 !
 ! D2    D(9,1,2,4)             -0.2881         -DE/DX =    0.0                 !
 ! D3    D(2,1,9,7)              0.3831         -DE/DX =    0.0                 !
 ! D4    D(2,1,9,11)          -179.5501         -DE/DX =    0.0                 !
 ! D5    D(1,2,4,5)           -179.9397         -DE/DX =    0.0                 !
 ! D6    D(1,2,4,6)              0.0384         -DE/DX =    0.0                 !
 ! D7    D(3,2,4,5)             -0.0624         -DE/DX =    0.0                 !
 ! D8    D(3,2,4,6)            179.9156         -DE/DX =    0.0                 !
 ! D9    D(2,4,6,7)              0.1374         -DE/DX =    0.0                 !
 ! D10   D(2,4,6,10)          -179.8635         -DE/DX =    0.0                 !
 ! D11   D(5,4,6,7)           -179.8845         -DE/DX =    0.0                 !
 ! D12   D(5,4,6,10)             0.1147         -DE/DX =    0.0                 !
 ! D13   D(4,6,7,8)            179.9519         -DE/DX =    0.0                 !
 ! D14   D(4,6,7,9)             -0.0417         -DE/DX =    0.0                 !
 ! D15   D(10,6,7,8)            -0.0472         -DE/DX =    0.0                 !
 ! D16   D(10,6,7,9)           179.9591         -DE/DX =    0.0                 !
 ! D17   D(6,7,9,1)             -0.2372         -DE/DX =    0.0                 !
 ! D18   D(6,7,9,11)           179.6966         -DE/DX =    0.0                 !
 ! D19   D(8,7,9,1)            179.7692         -DE/DX =    0.0                 !
 ! D20   D(8,7,9,11)            -0.297          -DE/DX =    0.0                 !
 ! D21   D(1,9,11,12)          -58.364          -DE/DX =    0.0                 !
 ! D22   D(1,9,11,13)           59.6394         -DE/DX =    0.0                 !
 ! D23   D(1,9,11,14)         -179.3732         -DE/DX =    0.0                 !
 ! D24   D(7,9,11,12)          121.6996         -DE/DX =    0.0                 !
 ! D25   D(7,9,11,13)         -120.297          -DE/DX =    0.0                 !
 ! D26   D(7,9,11,14)            0.6904         -DE/DX =    0.0                 !
 --------------------------------------------------------------------------------
 GradGradGradGradGradGradGradGradGradGradGradGradGradGradGradGradGradGrad


 ----------------------------------------------------------------------

 Electric dipole moment (input orientation):
 (Debye = 10**-18 statcoulomb cm , SI units = C m)
                  (au)            (Debye)         (10**-30 SI)
   Tot        0.203177D+02      0.516424D+02      0.172261D+03
   x         -0.120558D+02     -0.306428D+02     -0.102213D+03
   y         -0.131605D+02     -0.334508D+02     -0.111580D+03
   z         -0.970910D+01     -0.246781D+02     -0.823171D+02

 Dipole polarizability, Alpha (input orientation).
 (esu units = cm**3 , SI units = C**2 m**2 J**-1)
 Alpha(0;0):
               (au)            (10**-24 esu)      (10**-40 SI)
   iso        0.129646D+03      0.192115D+02      0.213757D+02
   aniso      0.668627D+02      0.990803D+01      0.110242D+02
   xx         0.155516D+03      0.230450D+02      0.256411D+02
   yx         0.647770D+01      0.959896D+00      0.106803D+01
   yy         0.134199D+03      0.198863D+02      0.221265D+02
   zx         0.163578D+02      0.242397D+01      0.269703D+01
   zy        -0.193099D+02     -0.286143D+01     -0.318377D+01
   zz         0.992219D+02      0.147032D+02      0.163595D+02

 ----------------------------------------------------------------------

 Dipole orientation:
     6         -0.02037866         -0.07558590        -20.31824167
     6         -1.28916673          0.58396620        -18.07031131
     1         -1.18116740          2.52860964        -17.38911878
     6         -2.72019630         -1.09480839        -16.60053108
     1         -3.64988243         -0.44902454        -14.88543827
     6         -2.94395152         -3.60075055        -17.35458892
     6         -1.72287963         -4.37065273        -19.56409028
     1         -1.88687937         -6.33027100        -20.16774588
     6         -0.30182293         -2.65779262        -20.99634880
     1         -4.04342049         -4.93818511        -16.25415410
     6          0.98617204         -3.62260366        -23.36842169
     1          0.34885866         -2.56355642        -25.02569191
     1          3.03314369         -3.35657052        -23.24449570
     1          0.61558563         -5.62900034        -23.70342356

 Electric dipole moment (dipole orientation):
 (Debye = 10**-18 statcoulomb cm , SI units = C m)
                  (au)            (Debye)         (10**-30 SI)
   Tot        0.203177D+02      0.516424D+02      0.172261D+03
   x          0.000000D+00      0.000000D+00      0.000000D+00
   y          0.000000D+00      0.000000D+00      0.000000D+00
   z          0.203177D+02      0.516424D+02      0.172261D+03

 Dipole polarizability, Alpha (dipole orientation).
 (esu units = cm**3 , SI units = C**2 m**2 J**-1)
 Alpha(0;0):
               (au)            (10**-24 esu)      (10**-40 SI)
   iso        0.129646D+03      0.192115D+02      0.213757D+02
   aniso      0.668627D+02      0.990803D+01      0.110242D+02
   xx         0.110940D+03      0.164396D+02      0.182916D+02
   yx         0.142896D+02      0.211750D+01      0.235604D+01
   yy         0.141978D+03      0.210389D+02      0.234090D+02
   zx        -0.317662D+02     -0.470726D+01     -0.523753D+01
   zy         0.237240D+01      0.351553D+00      0.391155D+00
   zz         0.136019D+03      0.201559D+02      0.224265D+02

 ----------------------------------------------------------------------
 Unable to Open any file for archive entry.
 1\1\GINC-CN013\Freq\RM062X\6-311+G(d,p)\C7H7(1-)\TAHMINAAFROZ\30-May-2
 025\0\\#N Geom=AllCheck Guess=TCheck SCRF=Check GenChk RM062X/6-311+G(
 d,p) Freq\\2-Me-ph-anion-opt-freq-thf\\-1,1\C,6.3612117006,6.995892002
 7,5.1184602783\C,5.2346831807,6.1500528152,5.1744821578\H,5.3319530055
 ,5.1647871739,5.6348762068\C,3.9652841625,6.4793621676,4.6767178475\H,
 3.1408638096,5.7747122117,4.7562852096\C,3.7669845838,7.7182351985,4.0
 787010942\C,4.8470252368,8.5992854794,3.9901196546\H,4.700774134,9.571
 3554478,3.5225694363\C,6.1053133992,8.2455708553,4.4932105344\H,2.7941
 88718,7.9991655025,3.6872269583\C,7.2365541857,9.2469949767,4.35791726
 88\H,7.6457711818,9.5014427093,5.3401199075\H,8.0594039818,8.821997164
 4,3.7750280742\H,6.9162327199,10.1731362949,3.8712643718\\Version=AS64
 L-G16RevC.01\HF=-270.9488179\RMSD=1.630e-09\RMSF=1.945e-05\ZeroPoint=0
 .1144673\Thermal=0.1205189\ETot=-270.8282991\HTot=-270.8273549\GTot=-2
 70.8641517\Dipole=-1.8863215,1.4026512,-1.1503714\DipoleDeriv=-0.31254
 87,-0.1525376,0.2046978,-0.2903188,-0.8727494,-0.0579906,0.2625938,-0.
 0141978,-0.7496866,-0.1316581,0.1369664,-0.0350707,0.1853922,0.2016987
 ,-0.1299596,-0.0584987,-0.1514565,-0.155288,0.0550953,-0.0043737,-0.01
 21884,-0.0661709,-0.2357618,0.1329984,0.0145279,0.1503506,0.0440872,-0
 .1129613,-0.0911815,0.0470685,-0.0604741,0.0306741,-0.0910845,0.036023
 ,-0.0961225,-0.0848279,-0.1360547,-0.1594291,-0.0175973,-0.1630207,-0.
 0242938,0.0435107,-0.0160023,0.0441708,0.1552111,-0.1390121,0.0197857,
 0.0255821,0.0104227,-0.1525685,-0.0491359,0.0297013,-0.0459883,-0.2401
 762,-0.0276385,-0.0215615,0.0453427,0.0690648,-0.0615925,-0.0144247,0.
 0039373,-0.0401731,-0.1289435,0.0586705,0.0483704,-0.0539312,0.0533028
 ,-0.1580841,0.1615124,-0.0547099,0.1595226,0.0898221,0.0376988,0.37024
 51,-0.1325728,0.4084141,0.298247,-0.0662753,-0.1487475,-0.075779,-0.10
 056,-0.1296368,0.0463862,-0.1050319,0.049763,0.0820114,0.0562389,-0.10
 88697,0.0550499,0.1243875,-0.1051723,-0.1852777,0.0327676,-0.1390772,0
 .0553095,-0.0212546,0.0165305,-0.034072,0.1023134,0.0149629,-0.081568,
 -0.0492846,-0.0898357,0.0208523,-0.010272,-0.0956358,-0.0794544,-0.110
 0925,-0.1016834,-0.0163825,0.1060336,0.0432501,-0.0050382,-0.0690212,0
 .1326193,-0.0140555,0.0247683,0.0299384,0.0905578,-0.0558154,-0.010712
 3,-0.1787047,0.115158,-0.0134693,0.142205,0.0289852\Polar=155.5155934,
 6.4777021,134.1992892,16.3577538,-19.3098993,99.2218514\Quadrupole=-9.
 0457352,-33.6166819,42.6624172,-157.4082147,-117.7327446,-128.6857414\
 PG=C01 [X(C7H7)]\NImag=0\\0.36918670,0.09224310,0.43275072,0.04091328,
 -0.13457487,0.13978912,-0.22720975,-0.08757130,-0.01000338,0.57231724,
 -0.10800992,-0.16912186,0.01972181,0.03410947,0.59839261,-0.00106484,0
 .02516523,-0.06390478,0.10474068,-0.19041637,0.25354524,0.00218196,-0.
 02244566,0.01137625,-0.05595660,0.02297063,-0.01518804,0.06094065,-0.0
 0183012,-0.01555115,0.00491271,0.02754983,-0.25979445,0.10489079,-0.02
 216662,0.28086830,0.00243953,-0.00082780,-0.00216250,-0.01735648,0.103
 70789,-0.08953492,0.01990416,-0.11852769,0.08348956,-0.04583755,-0.047
 23940,0.00197034,-0.27199666,0.06913021,-0.08683649,-0.00114893,-0.001
 51829,-0.00081332,0.64657677,-0.00013566,0.05257348,-0.01367242,-0.000
 09256,-0.12798601,0.02698643,0.02727538,-0.00646609,0.01234220,0.08761
 952,0.62311517,-0.01886590,-0.02657914,0.02840077,-0.05621193,0.046111
 49,-0.10271391,-0.01357865,0.00440329,-0.00116844,0.10412054,-0.191505
 05,0.24399844,-0.00407463,0.00147495,-0.00347825,-0.01478021,-0.021087
 37,0.00415344,0.00077080,0.00071982,0.00091690,-0.21425922,-0.13735487
 ,0.01068260,0.22368696,0.00061584,0.00160964,0.00206647,0.00711119,0.0
 0799570,0.00005991,-0.00019214,0.00003860,-0.00166900,-0.13586976,-0.1
 7034534,0.02097946,0.14937486,0.17672493,-0.00306070,0.00238308,0.0040
 4496,-0.00829783,-0.00780718,0.00469870,0.00132012,-0.00142495,-0.0026
 5228,0.01005953,0.02055779,-0.04244860,-0.01019143,-0.02497923,0.03310
 126,-0.00717099,-0.02285165,0.01029065,0.01740323,0.02991034,-0.010894
 34,-0.00428798,0.00193023,-0.00413819,-0.12589775,0.05368708,-0.040971
 58,0.00639590,-0.02315251,0.01117522,0.69066775,-0.02294717,-0.0581712
 1,0.01576239,0.08247401,0.00112265,0.02631236,0.00018997,0.00280960,0.
 00222047,-0.00861399,-0.29332888,0.09878250,0.00496489,-0.01266520,0.0
 0814450,0.02636253,0.59181854,0.01026531,0.01572586,-0.01202529,-0.033
 94238,0.01188396,-0.00515604,-0.00339726,0.00264679,0.00547774,-0.0136
 7064,0.11598113,-0.11759411,-0.00115713,0.00031331,0.00226411,0.142387
 34,-0.19500315,0.25589596,0.02011005,0.07194409,-0.03157065,-0.0672353
 6,-0.00758354,-0.01279605,-0.00127594,-0.00068883,0.00022380,0.0451899
 0,-0.06021844,0.03663563,0.00206259,0.00172735,-0.00247953,-0.24629579
 ,-0.07685792,-0.01625950,0.62461750,0.02803155,0.00382038,0.01509794,-
 0.01897846,-0.00646957,-0.00643442,-0.00053810,0.00024601,-0.00082257,
 -0.01149248,-0.04347305,0.01952024,0.00054614,-0.00259624,0.00490457,-
 0.13898490,-0.19843625,0.02088044,0.05703618,0.63104598,-0.01232912,0.
 02724361,0.00471073,-0.00788261,-0.00323729,-0.00979942,0.00023044,-0.
 00085339,-0.00083213,0.01532442,0.00609995,0.01007877,-0.00195736,0.00
 523724,0.00542373,0.01096762,0.03824520,-0.07760938,0.10921516,-0.2029
 5498,0.25387612,-0.00447139,0.00196053,-0.00369469,-0.00121035,-0.0006
 4903,-0.00001433,0.00012310,0.00024453,0.00049137,-0.00276465,-0.00375
 410,-0.00139326,0.00016020,-0.00126560,0.00043795,0.00697819,-0.022210
 88,0.01093875,-0.06088765,0.03071197,-0.02050950,0.06005642,0.00149454
 ,0.00213028,0.00196971,0.00042033,0.00048423,-0.00012801,0.00019127,-0
 .00044928,-0.00065067,-0.00502475,0.00097456,0.00181017,0.00028595,-0.
 00078368,0.00066204,0.00561052,-0.01379386,0.00882547,0.03016422,-0.26
 971020,0.11074006,-0.03058773,0.28637092,-0.00342008,0.00200552,0.0037
 7328,-0.00047020,-0.00038432,0.00000376,0.00052522,-0.00063712,-0.0016
 2658,-0.00084809,0.00218731,0.00705431,-0.00023821,0.00024397,0.000382
 43,-0.00133673,0.00111088,0.00189052,-0.02013456,0.11087762,-0.0911609
 5,0.02359443,-0.12354324,0.08547762,-0.10801503,0.01450183,-0.01930405
 ,0.04085999,-0.02092536,0.02130210,-0.00137706,-0.00440086,-0.00158239
 ,-0.02664849,0.03377851,-0.01940125,-0.00036342,0.00072703,-0.00036955
 ,-0.05383016,-0.04650340,0.00341479,-0.27006028,0.07290646,-0.08652638
 ,0.00125677,-0.00182693,-0.00028230,0.59818323,0.03747943,-0.22100737,
 0.08274991,-0.04659877,-0.03914812,0.00340076,-0.00579157,-0.00027244,
 0.00338870,0.02894516,-0.03470768,0.01898501,0.00133611,-0.00024337,0.
 00042865,0.00571042,0.05497932,-0.01919568,-0.00180505,-0.12665800,0.0
 2493868,0.02316772,-0.00636735,0.01126781,0.03716017,0.51543298,-0.029
 52093,0.07659470,-0.10029412,0.03257735,0.01018293,0.00156394,-0.00095
 375,0.00383984,0.00925931,-0.01747396,0.02036581,-0.02366708,-0.000665
 26,0.00028602,-0.00034672,-0.01959669,-0.03389036,0.01720339,-0.053643
 11,0.04581792,-0.10376755,-0.01111307,0.00432752,-0.00041671,0.0985532
 2,-0.14165613,0.26420501,-0.00000624,-0.00006608,0.00100753,0.00250937
 ,0.00027717,-0.00160137,-0.00024110,-0.00004206,-0.00013510,-0.0004119
 7,-0.00148887,-0.00033791,0.00037975,0.00093298,0.00090621,-0.28130284
 ,0.06244544,-0.09538161,-0.01621647,0.00978466,-0.00956037,0.00072327,
 0.00017902,0.00125682,-0.00075254,-0.00490823,-0.00009310,0.29659745,0
 .00009076,-0.00102379,-0.00109986,-0.00145768,-0.00350578,0.00458626,0
 .00136130,-0.00049094,0.00073601,0.02655348,-0.00134663,0.00931408,-0.
 00013356,0.00036282,-0.00211358,0.06253209,-0.07367077,0.03442655,-0.0
 1817976,0.00931870,-0.00782658,0.00117978,0.00017424,-0.00157528,-0.00
 359912,-0.00101813,0.00274244,-0.06734237,0.07103170,0.00094957,-0.001
 17073,-0.00282808,-0.00087013,0.00506877,0.00543240,-0.00074690,0.0003
 3929,-0.00004807,-0.01262914,0.00157566,-0.00104279,0.00137157,-0.0018
 1383,-0.00319878,-0.09536601,0.03434741,-0.07573830,0.00270611,-0.0000
 5637,0.00368643,0.00082755,-0.00184263,-0.00309721,-0.00072448,0.00238
 956,0.00621726,0.10448017,-0.03897429,0.07035983,0.00630364,-0.0029638
 2,0.00389548,0.00496743,0.00337210,-0.00214172,0.00053785,0.00057965,-
 0.00003799,-0.00247847,0.00066483,-0.00066417,0.00001160,0.00004999,0.
 00038633,-0.00156370,0.00083162,-0.00310849,-0.02734067,-0.02262434,0.
 00095768,0.00044892,-0.00070750,0.00153362,-0.15661969,-0.05733543,0.0
 0146348,-0.00077694,-0.00075137,0.00002663,0.51631673,-0.02051526,-0.0
 2392703,0.00601177,-0.00060246,-0.00266392,0.00425011,-0.00067704,-0.0
 0060315,-0.00000520,0.00023974,-0.00031806,-0.00036670,-0.00005901,-0.
 00007573,-0.00062018,0.00106282,0.00132500,0.00344921,0.00147437,0.004
 73754,0.00074259,0.00190432,-0.00026244,-0.00109351,-0.06660201,-0.130
 66968,0.00918488,0.00060394,0.00037220,0.00015483,-0.04520367,0.532853
 54,0.01182680,0.01083985,-0.00130696,-0.00046151,0.00522509,0.00481000
 ,0.00050799,0.00034832,-0.00020390,-0.00037949,-0.00022776,-0.00119683
 ,0.00043921,-0.00058610,-0.00105838,-0.00323435,0.00344022,0.00614289,
 -0.00991188,-0.00579969,0.00561411,0.00044311,-0.00187707,-0.00312775,
 0.00533326,0.01163418,-0.07297711,-0.00057251,-0.00023718,0.00025431,0
 .01406366,-0.01078491,0.54779865,0.00082965,0.00198483,-0.00053499,-0.
 00027002,0.00046228,0.00102066,-0.00000909,-0.00006522,0.00002048,-0.0
 0011234,-0.00012083,-0.00020450,0.00008333,-0.00017153,-0.00022143,-0.
 00102604,0.00057191,0.00116924,-0.00169155,-0.00279750,0.00056302,0.00
 017650,-0.00032159,-0.00051393,-0.01158767,-0.00672743,-0.02198383,-0.
 00027948,-0.00013402,0.00002142,-0.07690810,-0.02105970,-0.08951477,0.
 08591988,-0.00111517,0.00035216,0.00073599,0.00151328,0.00068913,0.000
 56125,0.00005309,-0.00005148,-0.00001775,-0.00104657,0.00044620,-0.000
 73662,0.00002524,-0.00001310,0.00002164,-0.00084702,-0.00053989,0.0007
 1850,0.00029085,-0.00158682,0.00040508,-0.00001009,0.00019236,-0.00016
 218,-0.00802795,-0.00460823,-0.01850421,-0.00021193,-0.00006121,0.0001
 0963,-0.02083842,-0.05997498,-0.05394748,0.02617307,0.06105189,0.00112
 373,0.00087496,-0.00004891,-0.00105199,-0.00028036,0.00073604,-0.00008
 262,-0.00000496,0.00008484,0.00062079,-0.00038142,0.00026607,0.0000637
 8,-0.00012672,-0.00019249,0.00029827,0.00046581,-0.00031939,-0.0004470
 1,-0.00059781,0.00012673,0.00012625,-0.00005162,0.00013435,0.00131831,
 0.00189282,0.00529601,-0.00002101,-0.00003083,-0.00002682,-0.08844269,
 -0.05384596,-0.26356215,0.09595138,0.05844724,0.28454960,0.00109277,0.
 00184460,-0.00081608,0.00023145,-0.00068565,-0.00127459,-0.00002714,-0
 .00009740,0.00001298,-0.00016195,-0.00001873,0.00024320,-0.00007797,0.
 00006522,0.00034597,-0.00024540,-0.00049725,-0.00143077,-0.00166199,-0
 .00277585,0.00098489,-0.00007060,0.00015841,0.00053011,-0.01963918,0.0
 0795724,0.01162412,-0.00027053,-0.00016882,-0.00004820,-0.18989602,0.0
 8065095,0.10778234,0.00901731,-0.00504387,-0.00607933,0.20833757,-0.00
 092602,-0.00057424,-0.00096484,0.00178674,0.00075452,0.00018954,0.0000
 3907,0.00003334,0.00010916,-0.00127196,0.00069926,-0.00047974,0.000049
 75,-0.00003922,-0.00008984,-0.00055035,-0.00129790,-0.00054123,0.00017
 634,-0.00091556,0.00076977,-0.00015703,0.00026622,0.00006879,-0.017520
 54,0.00866834,0.01249485,-0.00012119,-0.00013253,-0.00010678,0.0796779
 8,-0.08676940,-0.05576844,0.00487358,-0.00348012,-0.00339617,-0.084247
 96,0.09282483,0.00007379,0.00063047,0.00062674,-0.00068438,0.00008604,
 0.00007976,-0.00000382,0.00003127,0.00001372,0.00037569,-0.00024693,0.
 00008400,-0.00001069,-0.00000046,-0.00002199,0.00015509,0.00014537,-0.
 00037121,-0.00062053,0.00011432,-0.00041710,-0.00011971,-0.00002918,0.
 00027065,0.00000836,-0.00082834,0.00025919,0.00001402,0.00004692,0.000
 04740,0.10686589,-0.05585089,-0.12078647,0.02231156,-0.01245736,-0.016
 10595,-0.11628639,0.06294414,0.12742942,-0.00291919,-0.00281603,-0.000
 05145,0.00037024,-0.00129131,0.00059489,-0.00023052,-0.00021467,0.0000
 5425,-0.00004870,0.00015875,-0.00005283,0.00000431,0.00004708,-0.00001
 088,0.00017560,-0.00020976,0.00017236,0.00068567,-0.00082530,0.0005221
 0,-0.00051874,-0.00003575,-0.00019610,0.00859353,-0.01858978,0.0108255
 2,0.00004827,0.00004930,0.00000185,-0.07300259,0.06878301,-0.03632187,
 -0.00414238,0.00908550,-0.00337787,-0.00662832,0.01819160,-0.01207888,
 0.07761283,-0.00447589,-0.00386001,0.00128329,0.00033639,-0.00074912,0
 .00057616,-0.00026959,-0.00031686,0.00001627,-0.00041090,0.00016309,-0
 .00023900,-0.00014289,0.00003019,-0.00006731,-0.00041960,-0.00015115,-
 0.00011117,0.00252015,0.00067707,0.00045004,-0.00053439,0.00077398,-0.
 00036625,0.01033219,-0.01438029,0.00821382,-0.00004250,-0.00000987,-0.
 00002049,0.06524838,-0.23402387,0.09774096,-0.00266783,0.00758409,-0.0
 0296497,0.00285911,-0.01003754,0.00541465,-0.07233263,0.25430028,0.000
 66955,0.00168927,0.00122505,-0.00008522,0.00013754,0.00023923,0.000086
 86,0.00003581,-0.00009634,0.00017982,-0.00006269,-0.00005060,0.0000708
 4,-0.00001103,0.00000404,0.00026371,-0.00008358,-0.00006090,-0.0009178
 8,-0.00054721,0.00006990,-0.00001484,-0.00021256,0.00044227,-0.0017396
 6,0.00060408,-0.00253481,0.00003823,0.00000536,-0.00001759,-0.03479772
 ,0.09877397,-0.10040042,-0.00808432,0.02482627,-0.01093793,0.00441175,
 -0.01522922,0.00889183,0.03991889,-0.10992600,0.10322628\\0.00001662,-
 0.00000344,-0.00002609,0.00002421,-0.00001257,-0.00002422,0.00003873,-
 0.00001917,-0.00004093,0.00001462,-0.00001545,-0.00000191,0.00002165,-
 0.00002372,-0.00000160,-0.00000396,-0.00000807,0.00002010,-0.00001246,
 0.00000242,0.00001906,-0.00002690,0.00000843,0.00003617,-0.00000311,0.
 00000607,-0.00000416,-0.00001148,-0.00000999,0.00003770,-0.00001230,0.
 00001666,-0.00000334,-0.00000148,0.00000472,-0.00000501,-0.00001709,0.
 00003256,-0.00002119,-0.00002706,0.00002153,0.00001541\\\@
 The archive entry for this job was punched.


 A leading authority is anyone who has guessed right more than once.
 -- Frank A. Clark
 Job cpu time:       0 days  0 hours 22 minutes 32.3 seconds.
 Elapsed time:       0 days  0 hours  0 minutes 44.8 seconds.
 File lengths (MBytes):  RWF=     80 Int=      0 D2E=      0 Chk=     11 Scr=      1
 Normal termination of Gaussian 16 at Fri May 30 05:10:08 2025.
