/home/tahminaafroz
cn010.cluster.local
tahminaafroz
Tue Apr 22 20:46:31 CDT 2025
 Entering Gaussian System, Link 0=g16
 Initial command:
 /home/apps/g16/l1.exe "/tmp/3-cl-phboh2-opt-freq/Gau-1051562.inp" -scrdir="/tmp/3-cl-phboh2-opt-freq/"
 Entering Link 1 = /home/apps/g16/l1.exe PID=   1051563.
  
 Copyright (c) 1988-2019, Gaussian, Inc.  All Rights Reserved.
  
 This is part of the Gaussian(R) 16 program.  It is based on
 the Gaussian(R) 09 system (copyright 2009, Gaussian, Inc.),
 the Gaussian(R) 03 system (copyright 2003, Gaussian, Inc.),
 the Gaussian(R) 98 system (copyright 1998, Gaussian, Inc.),
 the Gaussian(R) 94 system (copyright 1995, Gaussian, Inc.),
 the Gaussian 92(TM) system (copyright 1992, Gaussian, Inc.),
 the Gaussian 90(TM) system (copyright 1990, Gaussian, Inc.),
 the Gaussian 88(TM) system (copyright 1988, Gaussian, Inc.),
 the Gaussian 86(TM) system (copyright 1986, Carnegie Mellon
 University), and the Gaussian 82(TM) system (copyright 1983,
 Carnegie Mellon University). Gaussian is a federally registered
 trademark of Gaussian, Inc.
  
 This software contains proprietary and confidential information,
 including trade secrets, belonging to Gaussian, Inc.
  
 This software is provided under written license and may be
 used, copied, transmitted, or stored only in accord with that
 written license.
  
 The following legend is applicable only to US Government
 contracts under FAR:
  
                    RESTRICTED RIGHTS LEGEND
  
 Use, reproduction and disclosure by the US Government is
 subject to restrictions as set forth in subparagraphs (a)
 and (c) of the Commercial Computer Software - Restricted
 Rights clause in FAR 52.227-19.
  
 Gaussian, Inc.
 340 Quinnipiac St., Bldg. 40, Wallingford CT 06492
  
  
 ---------------------------------------------------------------
 Warning -- This program may not be used in any manner that
 competes with the business of Gaussian, Inc. or will provide
 assistance to any competitor of Gaussian, Inc.  The licensee
 of this program is prohibited from giving any competitor of
 Gaussian, Inc. access to this program.  By using this program,
 the user acknowledges that Gaussian, Inc. is engaged in the
 business of creating and licensing software in the field of
 computational chemistry and represents and warrants to the
 licensee that it is not a competitor of Gaussian, Inc. and that
 it will not use this program in any manner prohibited above.
 ---------------------------------------------------------------
  

 Cite this work as:
 Gaussian 16, Revision C.01,
 M. J. Frisch, G. W. Trucks, H. B. Schlegel, G. E. Scuseria, 
 M. A. Robb, J. R. Cheeseman, G. Scalmani, V. Barone, 
 G. A. Petersson, H. Nakatsuji, X. Li, M. Caricato, A. V. Marenich, 
 J. Bloino, B. G. Janesko, R. Gomperts, B. Mennucci, H. P. Hratchian, 
 J. V. Ortiz, A. F. Izmaylov, J. L. Sonnenberg, D. Williams-Young, 
 F. Ding, F. Lipparini, F. Egidi, J. Goings, B. Peng, A. Petrone, 
 T. Henderson, D. Ranasinghe, V. G. Zakrzewski, J. Gao, N. Rega, 
 G. Zheng, W. Liang, M. Hada, M. Ehara, K. Toyota, R. Fukuda, 
 J. Hasegawa, M. Ishida, T. Nakajima, Y. Honda, O. Kitao, H. Nakai, 
 T. Vreven, K. Throssell, J. A. Montgomery, Jr., J. E. Peralta, 
 F. Ogliaro, M. J. Bearpark, J. J. Heyd, E. N. Brothers, K. N. Kudin, 
 V. N. Staroverov, T. A. Keith, R. Kobayashi, J. Normand, 
 K. Raghavachari, A. P. Rendell, J. C. Burant, S. S. Iyengar, 
 J. Tomasi, M. Cossi, J. M. Millam, M. Klene, C. Adamo, R. Cammi, 
 J. W. Ochterski, R. L. Martin, K. Morokuma, O. Farkas, 
 J. B. Foresman, and D. J. Fox, Gaussian, Inc., Wallingford CT, 2019.
 
 ******************************************
 Gaussian 16:  AS64L-G16RevC.01  3-Jul-2019
                22-Apr-2025 
 ******************************************
 %mem=20GB
 %nprocshared=32
 Will use up to   32 processors via shared memory.
 %chk=3-cl-phboh2-opt-freq.chk
 ----------------------------------------------------------------------
 # opt=(calcfc,tight) freq 6-311+g(d,p) nosymm scf=(qc,fermi,xqc) geom=
 connectivity int=ultrafine m062x
 ----------------------------------------------------------------------
 1/7=10,10=4,18=20,19=15,26=4,38=1,57=2/1,3;
 2/9=110,12=2,15=1,17=6,18=5,40=1/2;
 3/5=4,6=6,7=111,11=2,25=1,30=1,71=2,74=-55,75=-5,140=1/1,2,3;
 4//1;
 5/5=2,22=13,38=5/2;
 8/6=4,10=90,11=11/1;
 11/6=1,8=1,9=11,15=111,16=1,31=1/1,2,10;
 10/6=1,13=1,31=1/2;
 6/7=2,8=2,9=2,10=2,28=1/1;
 7/10=1,25=1,30=1/1,2,3,16;
 1/7=10,10=4,18=20,19=15,26=4/3(2);
 2/9=110,15=1/2;
 99//99;
 2/9=110,15=1/2;
 3/5=4,6=6,7=111,11=2,25=1,30=1,71=1,74=-55,75=-5/1,2,3;
 4/5=5,16=3,69=1/1;
 5/5=2,22=13,38=5/2;
 7/30=1/1,2,3,16;
 1/7=10,18=20,19=15,26=4/3(-5);
 2/9=110,15=1/2;
 6/7=2,8=2,9=2,10=2,19=2,28=1/1;
 99/9=1/99;
 -------------------
 3-cl-phboh2-optfreq
 -------------------
 Symbolic Z-matrix:
 Charge =  0 Multiplicity = 1
 O                     8.68516   7.45621   5.54176 
 H                     9.49823   7.14809   5.95219 
 C                     6.24256   6.99584   5.1734 
 B                     7.63957   6.61458   5.77245 
 O                     7.87708   5.49076   6.51526 
 H                     7.10779   4.94127   6.67183 
 C                     5.1173    6.17405   5.28872 
 H                     5.17713   5.2192    5.80383 
 C                     3.88893   6.53713   4.75026 
 H                     3.02194   5.89581   4.84229 
 C                     3.78662   7.74959   4.08134 
 C                     4.88098   8.59388   3.94284 
 C                     6.09833   8.20841   4.48865 
 H                     6.95998   8.85807   4.38532 
 H                     2.84482   8.03774   3.66315 
 Cl                    4.70674   10.1208   3.08508 
 

 GradGradGradGradGradGradGradGradGradGradGradGradGradGradGradGradGradGrad
 Berny optimization.
 Initialization pass.
                           ----------------------------
                           !    Initial Parameters    !
                           ! (Angstroms and Degrees)  !
 --------------------------                            --------------------------
 ! Name  Definition              Value          Derivative Info.                !
 --------------------------------------------------------------------------------
 ! R1    R(1,2)                  0.9615         calculate D2E/DX2 analytically  !
 ! R2    R(1,4)                  1.3619         calculate D2E/DX2 analytically  !
 ! R3    R(3,4)                  1.5671         calculate D2E/DX2 analytically  !
 ! R4    R(3,7)                  1.3982         calculate D2E/DX2 analytically  !
 ! R5    R(3,13)                 1.4            calculate D2E/DX2 analytically  !
 ! R6    R(4,5)                  1.3679         calculate D2E/DX2 analytically  !
 ! R7    R(5,6)                  0.9583         calculate D2E/DX2 analytically  !
 ! R8    R(7,8)                  1.0866         calculate D2E/DX2 analytically  !
 ! R9    R(7,9)                  1.3895         calculate D2E/DX2 analytically  !
 ! R10   R(9,10)                 1.0823         calculate D2E/DX2 analytically  !
 ! R11   R(9,11)                 1.3885         calculate D2E/DX2 analytically  !
 ! R12   R(11,12)                1.3891         calculate D2E/DX2 analytically  !
 ! R13   R(11,15)                1.07           calculate D2E/DX2 analytically  !
 ! R14   R(12,13)                1.3887         calculate D2E/DX2 analytically  !
 ! R15   R(12,16)                1.76           calculate D2E/DX2 analytically  !
 ! R16   R(13,14)                1.0841         calculate D2E/DX2 analytically  !
 ! A1    A(2,1,4)              112.264          calculate D2E/DX2 analytically  !
 ! A2    A(4,3,7)              122.8829         calculate D2E/DX2 analytically  !
 ! A3    A(4,3,13)             119.3092         calculate D2E/DX2 analytically  !
 ! A4    A(7,3,13)             117.8079         calculate D2E/DX2 analytically  !
 ! A5    A(1,4,3)              117.9891         calculate D2E/DX2 analytically  !
 ! A6    A(1,4,5)              117.7997         calculate D2E/DX2 analytically  !
 ! A7    A(3,4,5)              124.2111         calculate D2E/DX2 analytically  !
 ! A8    A(4,5,6)              114.8621         calculate D2E/DX2 analytically  !
 ! A9    A(3,7,8)              120.7508         calculate D2E/DX2 analytically  !
 ! A10   A(3,7,9)              121.7316         calculate D2E/DX2 analytically  !
 ! A11   A(8,7,9)              117.5171         calculate D2E/DX2 analytically  !
 ! A12   A(7,9,10)             121.3576         calculate D2E/DX2 analytically  !
 ! A13   A(7,9,11)             118.6858         calculate D2E/DX2 analytically  !
 ! A14   A(10,9,11)            119.9565         calculate D2E/DX2 analytically  !
 ! A15   A(9,11,12)            121.3795         calculate D2E/DX2 analytically  !
 ! A16   A(9,11,15)            119.2283         calculate D2E/DX2 analytically  !
 ! A17   A(12,11,15)           119.3921         calculate D2E/DX2 analytically  !
 ! A18   A(11,12,13)           118.8632         calculate D2E/DX2 analytically  !
 ! A19   A(11,12,16)           119.8606         calculate D2E/DX2 analytically  !
 ! A20   A(13,12,16)           121.2762         calculate D2E/DX2 analytically  !
 ! A21   A(3,13,12)            121.5316         calculate D2E/DX2 analytically  !
 ! A22   A(3,13,14)            118.933          calculate D2E/DX2 analytically  !
 ! A23   A(12,13,14)           119.5354         calculate D2E/DX2 analytically  !
 ! D1    D(2,1,4,3)            179.4719         calculate D2E/DX2 analytically  !
 ! D2    D(2,1,4,5)             -0.4141         calculate D2E/DX2 analytically  !
 ! D3    D(7,3,4,1)            176.6408         calculate D2E/DX2 analytically  !
 ! D4    D(7,3,4,5)             -3.4812         calculate D2E/DX2 analytically  !
 ! D5    D(13,3,4,1)            -3.2945         calculate D2E/DX2 analytically  !
 ! D6    D(13,3,4,5)           176.5835         calculate D2E/DX2 analytically  !
 ! D7    D(4,3,7,8)             -0.398          calculate D2E/DX2 analytically  !
 ! D8    D(4,3,7,9)            179.8746         calculate D2E/DX2 analytically  !
 ! D9    D(13,3,7,8)           179.5382         calculate D2E/DX2 analytically  !
 ! D10   D(13,3,7,9)            -0.1892         calculate D2E/DX2 analytically  !
 ! D11   D(4,3,13,12)         -179.8146         calculate D2E/DX2 analytically  !
 ! D12   D(4,3,13,14)            0.1562         calculate D2E/DX2 analytically  !
 ! D13   D(7,3,13,12)            0.2468         calculate D2E/DX2 analytically  !
 ! D14   D(7,3,13,14)         -179.7824         calculate D2E/DX2 analytically  !
 ! D15   D(1,4,5,6)            178.4041         calculate D2E/DX2 analytically  !
 ! D16   D(3,4,5,6)             -1.4741         calculate D2E/DX2 analytically  !
 ! D17   D(3,7,9,10)           179.9409         calculate D2E/DX2 analytically  !
 ! D18   D(3,7,9,11)             0.0334         calculate D2E/DX2 analytically  !
 ! D19   D(8,7,9,10)             0.2052         calculate D2E/DX2 analytically  !
 ! D20   D(8,7,9,11)          -179.7024         calculate D2E/DX2 analytically  !
 ! D21   D(7,9,11,12)            0.0735         calculate D2E/DX2 analytically  !
 ! D22   D(7,9,11,15)          179.99           calculate D2E/DX2 analytically  !
 ! D23   D(10,9,11,12)        -179.8354         calculate D2E/DX2 analytically  !
 ! D24   D(10,9,11,15)           0.0811         calculate D2E/DX2 analytically  !
 ! D25   D(9,11,12,13)          -0.0178         calculate D2E/DX2 analytically  !
 ! D26   D(9,11,12,16)         179.9161         calculate D2E/DX2 analytically  !
 ! D27   D(15,11,12,13)       -179.9341         calculate D2E/DX2 analytically  !
 ! D28   D(15,11,12,16)         -0.0002         calculate D2E/DX2 analytically  !
 ! D29   D(11,12,13,3)          -0.1471         calculate D2E/DX2 analytically  !
 ! D30   D(11,12,13,14)        179.8823         calculate D2E/DX2 analytically  !
 ! D31   D(16,12,13,3)         179.92           calculate D2E/DX2 analytically  !
 ! D32   D(16,12,13,14)         -0.0506         calculate D2E/DX2 analytically  !
 --------------------------------------------------------------------------------
 Trust Radius=3.00D-01 FncErr=1.00D-07 GrdErr=1.00D-06 EigMax=2.50D+02 EigMin=1.00D-04
 Number of steps in this run=     81 maximum allowed number of steps=    100.
 GradGradGradGradGradGradGradGradGradGradGradGradGradGradGradGradGradGrad

                          Input orientation:                          
 ---------------------------------------------------------------------
 Center     Atomic      Atomic             Coordinates (Angstroms)
 Number     Number       Type             X           Y           Z
 ---------------------------------------------------------------------
      1          8           0        8.685162    7.456214    5.541765
      2          1           0        9.498228    7.148086    5.952188
      3          6           0        6.242555    6.995843    5.173404
      4          5           0        7.639566    6.614580    5.772452
      5          8           0        7.877080    5.490758    6.515262
      6          1           0        7.107787    4.941274    6.671834
      7          6           0        5.117302    6.174045    5.288723
      8          1           0        5.177127    5.219196    5.803826
      9          6           0        3.888928    6.537127    4.750260
     10          1           0        3.021935    5.895810    4.842289
     11          6           0        3.786616    7.749593    4.081337
     12          6           0        4.880982    8.593882    3.942844
     13          6           0        6.098326    8.208410    4.488648
     14          1           0        6.959981    8.858073    4.385320
     15          1           0        2.844815    8.037741    3.663147
     16         17           0        4.706736   10.120802    3.085083
 ---------------------------------------------------------------------
                    Distance matrix (angstroms):
                    1          2          3          4          5
     1  O    0.000000
     2  H    0.961492   0.000000
     3  C    2.512759   3.350983   0.000000
     4  B    1.361923   1.942050   1.567118   0.000000
     5  O    2.337458   2.385772   2.595676   1.367902   0.000000
     6  H    3.176490   3.331984   2.686107   1.972721   0.958258
     7  C    3.799686   4.536679   1.398158   2.605740   3.096394
     8  H    4.168841   4.734400   2.165420   2.830492   2.805287
     9  C    4.947228   5.769068   2.434960   3.888208   4.485028
    10  H    5.915764   6.688979   3.419372   4.764908   5.151246
    11  C    5.120027   6.040232   2.791485   4.358136   5.268607
    12  C    4.280493   5.238965   2.433493   3.856798   5.022282
    13  C    2.892503   3.850399   1.400004   2.562005   3.828415
    14  H    2.505758   3.438289   2.145618   2.723827   4.088586
    15  H    6.162550   7.092185   3.861484   5.428092   6.320235
    16  Cl   5.381746   6.325799   4.060196   5.302550   6.576817
                    6          7          8          9         10
     6  H    0.000000
     7  C    2.719329   0.000000
     8  H    2.134977   1.086576   0.000000
     9  C    4.074340   1.389487   2.122828   0.000000
    10  H    4.577397   2.160389   2.455038   1.082328   0.000000
    11  C    5.062362   2.389740   3.362053   1.388524   2.144830
    12  C    5.074209   2.779001   3.865160   2.422051   3.397742
    13  C    4.057030   2.396074   3.393185   2.782637   3.864888
    14  H    4.537765   3.378699   4.293268   3.866696   4.948942
    15  H    6.067391   3.358579   4.238676   2.126929   2.451451
    16  Cl   6.742206   4.538886   5.624817   4.035387   4.876155
                   11         12         13         14         15
    11  C    0.000000
    12  C    1.389115   0.000000
    13  C    2.391740   1.388675   0.000000
    14  H    3.375112   2.141919   1.084061   0.000000
    15  H    1.070000   2.129201   3.360939   4.257824   0.000000
    16  Cl   2.731625   1.760000   2.750229   2.891749   2.853077
                   16
    16  Cl   0.000000
 Symmetry turned off by external request.
 Stoichiometry    C6H6BClO2
 Framework group  C1[X(C6H6BClO2)]
 Deg. of freedom    42
 Full point group                 C1      NOp   1
 Rotational constants (GHZ):           2.1336942           0.6623536           0.5055986
 Standard basis: 6-311+G(d,p) (5D, 7F)
   264 basis functions,   425 primitive gaussians,   274 cartesian basis functions
    40 alpha electrons       40 beta electrons
       nuclear repulsion energy       536.9492952389 Hartrees.
 NAtoms=   16 NActive=   16 NUniq=   16 SFac= 1.00D+00 NAtFMM=   60 NAOKFM=F Big=F
 Integral buffers will be    131072 words long.
 Raffenetti 2 integral format.
 Two-electron integral symmetry is turned off.
 One-electron integrals computed using PRISM.
 NBasis=   264 RedAO= T EigKep=  2.09D-06  NBF=   264
 NBsUse=   264 1.00D-06 EigRej= -1.00D+00 NBFU=   264
 ExpMin= 3.15D-02 ExpMax= 1.06D+05 ExpMxC= 3.62D+03 IAcc=3 IRadAn=         5 AccDes= 0.00D+00
 Harris functional with IExCor= 1009 and IRadAn=       5 diagonalized for initial guess.
 HarFok:  IExCor= 1009 AccDes= 0.00D+00 IRadAn=         5 IDoV= 1 UseB2=F ITyADJ=14
 ICtDFT=  3500011 ScaDFX=  1.000000  1.000000  1.000000  1.000000
 FoFCou: FMM=F IPFlag=           0 FMFlag=      100000 FMFlg1=           0
         NFxFlg=           0 DoJE=T BraDBF=F KetDBF=T FulRan=T
         wScrn=  0.000000 ICntrl=       500 IOpCl=  0 I1Cent=   200000004 NGrid=           0
         NMat0=    1 NMatS0=      1 NMatT0=    0 NMatD0=    1 NMtDS0=    0 NMtDT0=    0
 Symmetry not used in FoFCou.
 Requested convergence on RMS density matrix=1.00D-08 within 128 cycles.
 Requested convergence on MAX density matrix=1.00D-06.
 Requested convergence on             energy=1.00D-06.
 Level shift goal  0.100 maximum shift  0.100.
 No special actions if energy rises.
 Dynamic level shift is on during FON iterations.
 SCF Done:  E(RM062X) =  -867.824551869     A.U. after   15 cycles
            NFock= 15  Conv=0.65D-08     -V/T= 2.0028
 DoSCS=F DFT=T ScalE2(SS,OS)=  1.000000  1.000000
 Range of M.O.s used for correlation:     1   264
 NBasis=   264 NAE=    40 NBE=    40 NFC=     0 NFV=     0
 NROrb=    264 NOA=    40 NOB=    40 NVA=   224 NVB=   224

 **** Warning!!: The largest alpha MO coefficient is  0.16832448D+03

 Symmetrizing basis deriv contribution to polar:
 IMax=3 JMax=2 DiffMx= 0.00D+00
 G2DrvN: will do    17 centers at a time, making    1 passes.
 Calling FoFCou, ICntrl=  3107 FMM=F I1Cent=   0 AccDes= 0.00D+00.
 End of G2Drv F.D. properties file   721 does not exist.
 End of G2Drv F.D. properties file   722 does not exist.
 End of G2Drv F.D. properties file   788 does not exist.
          IDoAtm=1111111111111111
          Differentiating once with respect to nuclear coordinates.
 Keep R1 ints in memory in canonical form, NReq=647109706.
          There are    51 degrees of freedom in the 1st order CPHF.  IDoFFX=6 NUNeed=     0.
     45 vectors produced by pass  0 Test12= 1.76D-14 1.96D-09 XBig12= 2.28D-01 1.62D-01.
 AX will form    45 AO Fock derivatives at one time.
     45 vectors produced by pass  1 Test12= 1.76D-14 1.96D-09 XBig12= 1.16D-02 3.66D-02.
     45 vectors produced by pass  2 Test12= 1.76D-14 1.96D-09 XBig12= 4.05D-04 3.62D-03.
     45 vectors produced by pass  3 Test12= 1.76D-14 1.96D-09 XBig12= 3.48D-06 2.92D-04.
     45 vectors produced by pass  4 Test12= 1.76D-14 1.96D-09 XBig12= 2.87D-08 2.68D-05.
     45 vectors produced by pass  5 Test12= 1.76D-14 1.96D-09 XBig12= 1.37D-10 1.62D-06.
     45 vectors produced by pass  6 Test12= 1.76D-14 1.96D-09 XBig12= 6.48D-13 8.97D-08.
      9 vectors produced by pass  7 Test12= 1.76D-14 1.96D-09 XBig12= 2.52D-15 5.25D-09.
 InvSVY:  IOpt=1 It=  1 EMax= 4.44D-16
 Solved reduced A of dimension   324 with    51 vectors.
 End of Minotr F.D. properties file   721 does not exist.
 End of Minotr F.D. properties file   722 does not exist.
 End of Minotr F.D. properties file   788 does not exist.

 **********************************************************************

            Population analysis using the SCF Density.

 **********************************************************************

 Alpha  occ. eigenvalues -- -102.67908 -19.64754 -19.63877 -10.61475 -10.56461
 Alpha  occ. eigenvalues --  -10.56419 -10.56248 -10.56174 -10.54646  -9.82129
 Alpha  occ. eigenvalues --   -7.54644  -7.53966  -7.53958  -7.09462  -1.17756
 Alpha  occ. eigenvalues --   -1.14043  -1.00176  -0.94338  -0.86357  -0.83901
 Alpha  occ. eigenvalues --   -0.71353  -0.70025  -0.66096  -0.63559  -0.60315
 Alpha  occ. eigenvalues --   -0.55134  -0.53916  -0.51585  -0.50561  -0.49160
 Alpha  occ. eigenvalues --   -0.46963  -0.46414  -0.46201  -0.42558  -0.41350
 Alpha  occ. eigenvalues --   -0.40613  -0.40548  -0.37860  -0.32632  -0.30998
 Alpha virt. eigenvalues --   -0.01737  -0.00873   0.00260   0.01182   0.01862
 Alpha virt. eigenvalues --    0.02901   0.02994   0.03958   0.04834   0.05826
 Alpha virt. eigenvalues --    0.07230   0.07575   0.08020   0.08600   0.09971
 Alpha virt. eigenvalues --    0.10682   0.11208   0.11836   0.12323   0.13050
 Alpha virt. eigenvalues --    0.13342   0.14206   0.14331   0.15040   0.16400
 Alpha virt. eigenvalues --    0.16506   0.17204   0.18117   0.18404   0.19141
 Alpha virt. eigenvalues --    0.19267   0.20406   0.21218   0.22216   0.22510
 Alpha virt. eigenvalues --    0.22657   0.23407   0.23684   0.24154   0.24632
 Alpha virt. eigenvalues --    0.25075   0.25508   0.26565   0.27375   0.28473
 Alpha virt. eigenvalues --    0.28726   0.29347   0.30732   0.32448   0.33722
 Alpha virt. eigenvalues --    0.34746   0.35357   0.36012   0.39384   0.42052
 Alpha virt. eigenvalues --    0.44164   0.45329   0.47485   0.48189   0.48651
 Alpha virt. eigenvalues --    0.49843   0.50293   0.50685   0.51432   0.55338
 Alpha virt. eigenvalues --    0.56150   0.56621   0.58735   0.59033   0.60454
 Alpha virt. eigenvalues --    0.61177   0.61971   0.63526   0.63856   0.66282
 Alpha virt. eigenvalues --    0.66701   0.69274   0.69952   0.70646   0.72092
 Alpha virt. eigenvalues --    0.72952   0.73442   0.77514   0.79366   0.83951
 Alpha virt. eigenvalues --    0.84665   0.85545   0.86021   0.87920   0.89337
 Alpha virt. eigenvalues --    0.90000   0.91464   0.92068   0.93182   0.93999
 Alpha virt. eigenvalues --    0.95005   0.98662   1.00275   1.00857   1.03080
 Alpha virt. eigenvalues --    1.05258   1.06287   1.07311   1.07455   1.08999
 Alpha virt. eigenvalues --    1.11085   1.11223   1.12287   1.16676   1.17967
 Alpha virt. eigenvalues --    1.18470   1.20624   1.25971   1.29979   1.31457
 Alpha virt. eigenvalues --    1.32158   1.34130   1.35819   1.39189   1.44993
 Alpha virt. eigenvalues --    1.47952   1.48762   1.50194   1.53509   1.55902
 Alpha virt. eigenvalues --    1.59804   1.60177   1.61499   1.63703   1.66591
 Alpha virt. eigenvalues --    1.67746   1.69759   1.71217   1.74947   1.77001
 Alpha virt. eigenvalues --    1.78317   1.79276   1.85182   1.87297   1.92027
 Alpha virt. eigenvalues --    1.93872   1.94993   1.95214   1.96557   2.00928
 Alpha virt. eigenvalues --    2.02112   2.02923   2.06526   2.08606   2.11607
 Alpha virt. eigenvalues --    2.15466   2.16642   2.19781   2.25699   2.29638
 Alpha virt. eigenvalues --    2.33472   2.35537   2.41436   2.43063   2.44856
 Alpha virt. eigenvalues --    2.53682   2.55648   2.56803   2.58283   2.60810
 Alpha virt. eigenvalues --    2.63098   2.64668   2.66798   2.70929   2.71317
 Alpha virt. eigenvalues --    2.74827   2.76617   2.78924   2.81402   2.83774
 Alpha virt. eigenvalues --    2.84126   2.85691   2.90500   2.93396   2.95004
 Alpha virt. eigenvalues --    3.06382   3.10514   3.13134   3.22765   3.23338
 Alpha virt. eigenvalues --    3.25956   3.26888   3.30873   3.39307   3.41997
 Alpha virt. eigenvalues --    3.45727   3.51935   3.56019   3.59775   3.62342
 Alpha virt. eigenvalues --    3.65768   3.81947   3.90870   3.95876   4.04579
 Alpha virt. eigenvalues --    4.09422   4.16631   4.19732   4.83971   5.07367
 Alpha virt. eigenvalues --    5.08575   5.38699   5.49151   5.68290   5.76113
 Alpha virt. eigenvalues --    9.96885  14.78906  23.62260  23.98159  24.03668
 Alpha virt. eigenvalues --   24.13624  24.15186  24.24565  25.93309  26.23482
 Alpha virt. eigenvalues --   26.74078  49.99386  50.04807 216.06945
          Condensed to atoms (all electrons):
               1          2          3          4          5          6
     1  O    7.759826   0.268601   0.062098   0.454366  -0.124445   0.019909
     2  H    0.268601   0.452455   0.044959  -0.005221  -0.035333   0.003278
     3  C    0.062098   0.044959   9.518831   0.220789  -0.170546  -0.007166
     4  B    0.454366  -0.005221   0.220789   3.351431   0.361957   0.018318
     5  O   -0.124445  -0.035333  -0.170546   0.361957   8.000128   0.248998
     6  H    0.019909   0.003278  -0.007166   0.018318   0.248998   0.435723
     7  C    0.076556  -0.008444  -0.534621   0.124121  -0.032575  -0.032727
     8  H    0.001993  -0.000057   0.016133   0.014559  -0.006851   0.011716
     9  C    0.058456   0.004297  -0.666302   0.087202  -0.032925   0.059387
    10  H   -0.000039  -0.000001   0.007125  -0.000367   0.000387  -0.000068
    11  C   -0.033016  -0.001675  -1.641806  -0.008948   0.024292  -0.003940
    12  C   -0.046340  -0.019399  -2.393981  -0.050892   0.106074  -0.020617
    13  C   -0.138071  -0.010304   2.068768  -0.028448   0.013330   0.014466
    14  H    0.007333  -0.000271   0.077969  -0.008376   0.002506  -0.000111
    15  H    0.000027   0.000000   0.022656   0.000056  -0.000009  -0.000001
    16  Cl   0.000503   0.000217   0.070744  -0.000677  -0.000732   0.000067
               7          8          9         10         11         12
     1  O    0.076556   0.001993   0.058456  -0.000039  -0.033016  -0.046340
     2  H   -0.008444  -0.000057   0.004297  -0.000001  -0.001675  -0.019399
     3  C   -0.534621   0.016133  -0.666302   0.007125  -1.641806  -2.393981
     4  B    0.124121   0.014559   0.087202  -0.000367  -0.008948  -0.050892
     5  O   -0.032575  -0.006851  -0.032925   0.000387   0.024292   0.106074
     6  H   -0.032727   0.011716   0.059387  -0.000068  -0.003940  -0.020617
     7  C   10.502162   0.298887  -0.511126   0.045121   0.267391  -0.976937
     8  H    0.298887   0.545831   0.020910  -0.006518  -0.023558   0.009021
     9  C   -0.511126   0.020910   8.172676   0.340028   1.780997  -1.397122
    10  H    0.045121  -0.006518   0.340028   0.497949   0.015151  -0.014884
    11  C    0.267391  -0.023558   1.780997   0.015151  15.467192  -0.091800
    12  C   -0.976937   0.009021  -1.397122  -0.014884  -0.091800  18.355102
    13  C   -3.094719  -0.007789  -1.940689  -0.041625  -9.417090  -7.485290
    14  H   -0.009669  -0.000067   0.003135   0.000050   0.030649   0.061377
    15  H   -0.048885  -0.000283  -0.005274  -0.007241   0.214436   0.122402
    16  Cl   0.041507   0.000767   0.243225   0.001321   0.018195  -1.151441
              13         14         15         16
     1  O   -0.138071   0.007333   0.000027   0.000503
     2  H   -0.010304  -0.000271   0.000000   0.000217
     3  C    2.068768   0.077969   0.022656   0.070744
     4  B   -0.028448  -0.008376   0.000056  -0.000677
     5  O    0.013330   0.002506  -0.000009  -0.000732
     6  H    0.014466  -0.000111  -0.000001   0.000067
     7  C   -3.094719  -0.009669  -0.048885   0.041507
     8  H   -0.007789  -0.000067  -0.000283   0.000767
     9  C   -1.940689   0.003135  -0.005274   0.243225
    10  H   -0.041625   0.000050  -0.007241   0.001321
    11  C   -9.417090   0.030649   0.214436   0.018195
    12  C   -7.485290   0.061377   0.122402  -1.151441
    13  C   26.311102   0.185961   0.047064   0.182547
    14  H    0.185961   0.452115  -0.000292  -0.004933
    15  H    0.047064  -0.000292   0.478156  -0.003571
    16  Cl   0.182547  -0.004933  -0.003571  17.302804
 Mulliken charges:
               1
     1  O   -0.367759
     2  H    0.306896
     3  C   -0.695647
     4  B    0.470129
     5  O   -0.354255
     6  H    0.252768
     7  C   -0.106043
     8  H    0.125302
     9  C   -0.216878
    10  H    0.163609
    11  C   -0.596470
    12  C    0.994727
    13  C   -0.659214
    14  H    0.202621
    15  H    0.180758
    16  Cl   0.299458
 Sum of Mulliken charges =   0.00000
 Mulliken charges with hydrogens summed into heavy atoms:
               1
     1  O   -0.060863
     3  C   -0.695647
     4  B    0.470129
     5  O   -0.101488
     7  C    0.019258
     9  C   -0.053269
    11  C   -0.415712
    12  C    0.994727
    13  C   -0.456593
    16  Cl   0.299458
 APT charges:
               1
     1  O   -0.418992
     2  H    2.050821
     3  C   -2.410824
     4  B   -0.395524
     5  O    1.219450
     6  H   -1.165378
     7  C   -0.328758
     8  H   -0.193350
     9  C   -0.252125
    10  H   -0.794291
    11  C   -0.002410
    12  C    2.293594
    13  C   -1.123459
    14  H    1.957585
    15  H   -0.154548
    16  Cl  -0.281790
 Sum of APT charges =   0.00000
 APT charges with hydrogens summed into heavy atoms:
               1
     1  O    1.631828
     3  C   -2.410824
     4  B   -0.395524
     5  O    0.054072
     7  C   -0.522108
     9  C   -1.046417
    11  C   -0.156958
    12  C    2.293594
    13  C    0.834126
    16  Cl  -0.281790
 Electronic spatial extent (au):  <R**2>=          34839.7467
 Charge=              0.0000 electrons
 Dipole moment (field-independent basis, Debye):
    X=             -0.7063    Y=             -2.5232    Z=              1.2820  Tot=              2.9171
 Quadrupole moment (field-independent basis, Debye-Ang):
   XX=            -66.8225   YY=           -101.6528   ZZ=            -54.5196
   XY=            -16.7149   XZ=              5.1662   YZ=             -4.0776
 Traceless Quadrupole moment (field-independent basis, Debye-Ang):
   XX=              7.5092   YY=            -27.3212   ZZ=             19.8120
   XY=            -16.7149   XZ=              5.1662   YZ=             -4.0776
 Octapole moment (field-independent basis, Debye-Ang**2):
  XXX=          -1071.1124  YYY=          -1910.6279  ZZZ=           -846.2848  XYY=           -582.7193
  XXY=           -562.2117  XXZ=           -254.7093  XZZ=           -316.9497  YZZ=           -496.5636
  YYZ=           -422.7100  XYZ=            -21.7015
 Hexadecapole moment (field-independent basis, Debye-Ang**3):
 XXXX=         -12816.9203 YYYY=         -28197.1572 ZZZZ=          -8681.9248 XXXY=          -8242.0076
 XXXZ=          -4790.2031 YYYX=         -10670.0043 YYYZ=          -8257.2232 ZZZX=          -5090.8243
 ZZZY=          -6648.5610 XXYY=          -7208.8548 XXZZ=          -3370.5600 YYZZ=          -5928.7748
 XXYZ=          -2105.7283 YYXZ=          -2399.1837 ZZXY=          -2707.7767
 N-N= 5.369492952389D+02 E-N=-3.120104410835D+03  KE= 8.653733430021D+02
  Exact polarizability:       0.000       0.000       0.000       0.000       0.000       0.000
 Approx polarizability:     132.647       4.015     134.220      14.449     -31.680      94.307
 Calling FoFJK, ICntrl=    100127 FMM=F ISym2X=0 I1Cent= 0 IOpClX= 0 NMat=1 NMatS=1 NMatT=0.
 -------------------------------------------------------------------
 Center     Atomic                   Forces (Hartrees/Bohr)
 Number     Number              X              Y              Z
 -------------------------------------------------------------------
      1        8          -0.000792231   -0.000422501    0.000029676
      2        1           0.000049888    0.000053972   -0.000018964
      3        6          -0.006411633    0.000709040   -0.002160212
      4        5           0.002174843    0.000538191    0.000312817
      5        8          -0.000571617    0.000536507   -0.000460405
      6        1          -0.000170326   -0.000086337   -0.000012071
      7        6          -0.000458570   -0.005329967    0.002671437
      8        1           0.001133835   -0.000101127    0.000378537
      9        6           0.008166726    0.004721793   -0.000177610
     10        1           0.000125724   -0.000077571    0.000080371
     11        6          -0.004568696    0.002344212   -0.002579292
     12        6           0.001173594   -0.006249905    0.003703399
     13        6           0.006393020    0.008142539   -0.002523842
     14        1           0.000245565    0.000249126   -0.000065260
     15        1          -0.008470050    0.003808104   -0.004381418
     16       17           0.001979926   -0.008836075    0.005202836
 -------------------------------------------------------------------
 Cartesian Forces:  Max     0.008836075 RMS     0.003519783
 FormGI is forming the generalized inverse of G from B-inverse, IUseBI=4.

 GradGradGradGradGradGradGradGradGradGradGradGradGradGradGradGradGradGrad
 Berny optimization.
 Internal  Forces:  Max     0.010399162 RMS     0.002896537
 Search for a local minimum.
 Step number   1 out of a maximum of   81
 All quantities printed in internal units (Hartrees-Bohrs-Radians)
 Mixed Optimization -- RFO/linear search
 Second derivative matrix not updated -- analytic derivatives used.
 ITU=  0
     Eigenvalues ---    0.00081   0.01033   0.01221   0.01503   0.01671
     Eigenvalues ---    0.01804   0.02177   0.02415   0.02539   0.02645
     Eigenvalues ---    0.02839   0.03127   0.03939   0.10302   0.11074
     Eigenvalues ---    0.11211   0.11616   0.12200   0.12462   0.15805
     Eigenvalues ---    0.16151   0.17470   0.18326   0.18805   0.19339
     Eigenvalues ---    0.19453   0.25562   0.27636   0.29140   0.35605
     Eigenvalues ---    0.36548   0.36782   0.39368   0.39460   0.42337
     Eigenvalues ---    0.42654   0.47874   0.47959   0.49207   0.52087
     Eigenvalues ---    0.55208   0.56303
 RFO step:  Lambda=-2.34952214D-03 EMin= 8.12549207D-04
 Linear search not attempted -- first point.
 Iteration  1 RMS(Cart)=  0.01548517 RMS(Int)=  0.00014106
 Iteration  2 RMS(Cart)=  0.00023552 RMS(Int)=  0.00003715
 Iteration  3 RMS(Cart)=  0.00000002 RMS(Int)=  0.00003715
 Variable       Old X    -DE/DX   Delta X   Delta X   Delta X     New X
                                 (Linear)    (Quad)   (Total)
    R1        1.81696   0.00001   0.00000   0.00000   0.00000   1.81696
    R2        2.57366  -0.00079   0.00000  -0.00216  -0.00216   2.57150
    R3        2.96142   0.00041   0.00000   0.00504   0.00504   2.96647
    R4        2.64213   0.00004   0.00000  -0.00057  -0.00064   2.64149
    R5        2.64562  -0.00118   0.00000  -0.00171  -0.00174   2.64388
    R6        2.58496  -0.00076   0.00000  -0.00165  -0.00165   2.58331
    R7        1.81085   0.00018   0.00000   0.00017   0.00017   1.81102
    R8        2.05333   0.00033   0.00000  -0.00070  -0.00070   2.05263
    R9        2.62575   0.00160   0.00000   0.00136   0.00132   2.62707
   R10        2.04530  -0.00005   0.00000   0.00174   0.00174   2.04704
   R11        2.62393   0.00110   0.00000   0.00249   0.00253   2.62646
   R12        2.62505  -0.00054   0.00000   0.00012   0.00020   2.62525
   R13        2.02201   0.01019   0.00000   0.02281   0.02281   2.04482
   R14        2.62421  -0.00220   0.00000  -0.00444  -0.00440   2.61981
   R15        3.32592  -0.01040   0.00000  -0.03021  -0.03021   3.29571
   R16        2.04858   0.00035   0.00000  -0.00129  -0.00129   2.04729
    A1        1.95938   0.00015   0.00000   0.00241   0.00241   1.96178
    A2        2.14471  -0.00041   0.00000  -0.00095  -0.00089   2.14382
    A3        2.08234  -0.00203   0.00000  -0.01051  -0.01046   2.07188
    A4        2.05614   0.00244   0.00000   0.01147   0.01135   2.06749
    A5        2.05930   0.00008   0.00000  -0.00074  -0.00074   2.05856
    A6        2.05599   0.00081   0.00000   0.00381   0.00381   2.05980
    A7        2.16789  -0.00089   0.00000  -0.00307  -0.00307   2.16482
    A8        2.00472  -0.00008   0.00000  -0.00083  -0.00083   2.00390
    A9        2.10750  -0.00006   0.00000  -0.00131  -0.00125   2.10625
   A10        2.12462  -0.00226   0.00000  -0.01035  -0.01046   2.11415
   A11        2.05106   0.00232   0.00000   0.01165   0.01171   2.06277
   A12        2.11809  -0.00240   0.00000  -0.01713  -0.01713   2.10096
   A13        2.07146   0.00445   0.00000   0.02459   0.02459   2.09605
   A14        2.09364  -0.00206   0.00000  -0.00746  -0.00746   2.08618
   A15        2.11847  -0.00910   0.00000  -0.04313  -0.04302   2.07545
   A16        2.08093   0.00580   0.00000   0.03318   0.03312   2.11405
   A17        2.08379   0.00330   0.00000   0.00995   0.00990   2.09368
   A18        2.07455   0.00981   0.00000   0.04400   0.04412   2.11867
   A19        2.09196  -0.00329   0.00000  -0.01245  -0.01251   2.07945
   A20        2.11667  -0.00652   0.00000  -0.03155  -0.03161   2.08506
   A21        2.12113  -0.00535   0.00000  -0.02658  -0.02658   2.09455
   A22        2.07577   0.00274   0.00000   0.01696   0.01696   2.09273
   A23        2.08629   0.00261   0.00000   0.00962   0.00962   2.09591
    D1        3.13238   0.00000   0.00000  -0.00039  -0.00039   3.13199
    D2       -0.00723   0.00000   0.00000  -0.00013  -0.00013  -0.00736
    D3        3.08296   0.00000   0.00000  -0.00069  -0.00070   3.08227
    D4       -0.06076   0.00001   0.00000  -0.00096  -0.00096  -0.06172
    D5       -0.05750   0.00000   0.00000  -0.00117  -0.00117  -0.05867
    D6        3.08196   0.00001   0.00000  -0.00144  -0.00144   3.08053
    D7       -0.00695   0.00000   0.00000  -0.00084  -0.00084  -0.00779
    D8        3.13940   0.00000   0.00000  -0.00088  -0.00088   3.13852
    D9        3.13353   0.00000   0.00000  -0.00038  -0.00038   3.13315
   D10       -0.00330  -0.00001   0.00000  -0.00042  -0.00042  -0.00372
   D11       -3.13836   0.00000   0.00000   0.00070   0.00070  -3.13766
   D12        0.00273   0.00000   0.00000   0.00063   0.00063   0.00335
   D13        0.00431   0.00000   0.00000   0.00025   0.00025   0.00456
   D14       -3.13779   0.00000   0.00000   0.00018   0.00018  -3.13762
   D15        3.11374   0.00002   0.00000   0.00053   0.00053   3.11427
   D16       -0.02573   0.00001   0.00000   0.00080   0.00080  -0.02493
   D17        3.14056   0.00000   0.00000   0.00029   0.00028   3.14085
   D18        0.00058   0.00000   0.00000   0.00021   0.00021   0.00079
   D19        0.00358   0.00000   0.00000   0.00027   0.00027   0.00385
   D20       -3.13640   0.00000   0.00000   0.00020   0.00020  -3.13620
   D21        0.00128  -0.00001   0.00000   0.00004   0.00004   0.00133
   D22        3.14142   0.00000   0.00000   0.00047   0.00048  -3.14129
   D23       -3.13872  -0.00001   0.00000  -0.00002  -0.00002  -3.13874
   D24        0.00142   0.00000   0.00000   0.00041   0.00041   0.00183
   D25       -0.00031   0.00001   0.00000  -0.00014  -0.00014  -0.00045
   D26        3.14013  -0.00001   0.00000  -0.00056  -0.00056   3.13957
   D27       -3.14044   0.00000   0.00000  -0.00059  -0.00058  -3.14103
   D28        0.00000  -0.00002   0.00000  -0.00101  -0.00101  -0.00101
   D29       -0.00257   0.00000   0.00000   0.00002   0.00002  -0.00255
   D30        3.13954  -0.00001   0.00000   0.00009   0.00009   3.13963
   D31        3.14020   0.00002   0.00000   0.00043   0.00043   3.14063
   D32       -0.00088   0.00001   0.00000   0.00050   0.00050  -0.00038
         Item               Value     Threshold  Converged?
 Maximum Force            0.010399     0.000015     NO 
 RMS     Force            0.002897     0.000010     NO 
 Maximum Displacement     0.056716     0.000060     NO 
 RMS     Displacement     0.015490     0.000040     NO 
 Predicted change in Energy=-1.186766D-03
 GradGradGradGradGradGradGradGradGradGradGradGradGradGradGradGradGradGrad

                          Input orientation:                          
 ---------------------------------------------------------------------
 Center     Atomic      Atomic             Coordinates (Angstroms)
 Number     Number       Type             X           Y           Z
 ---------------------------------------------------------------------
      1          8           0        8.682813    7.459397    5.538676
      2          1           0        9.498094    7.155715    5.948020
      3          6           0        6.239764    6.995309    5.172212
      4          5           0        7.640268    6.616445    5.771611
      5          8           0        7.875979    5.493709    6.515026
      6          1           0        7.105635    4.945243    6.670554
      7          6           0        5.117106    6.170810    5.289395
      8          1           0        5.181507    5.216761    5.804652
      9          6           0        3.892168    6.543198    4.747669
     10          1           0        3.030180    5.894422    4.845104
     11          6           0        3.766630    7.752648    4.074477
     12          6           0        4.881130    8.573215    3.954088
     13          6           0        6.106851    8.209622    4.490151
     14          1           0        6.962736    8.865002    4.382235
     15          1           0        2.821180    8.059150    3.646619
     16         17           0        4.731086   10.090789    3.107894
 ---------------------------------------------------------------------
                    Distance matrix (angstroms):
                    1          2          3          4          5
     1  O    0.000000
     2  H    0.961494   0.000000
     3  C    2.513595   3.353256   0.000000
     4  B    1.360782   1.942537   1.569786   0.000000
     5  O    2.338411   2.390610   2.595217   1.367026   0.000000
     6  H    3.176415   3.336481   2.682822   1.971509   0.958350
     7  C    3.799587   4.538379   1.397817   2.607196   3.093868
     8  H    4.166450   4.734240   2.164052   2.829437   2.800270
     9  C    4.941193   5.765625   2.428137   3.886139   4.482826
    10  H    5.906136   6.681408   3.408869   4.757378   5.141107
    11  C    5.137969   6.059388   2.809801   4.379075   5.286382
    12  C    4.266649   5.225077   2.412364   3.839945   5.001088
    13  C    2.880594   3.838833   1.399082   2.555723   3.821795
    14  H    2.504345   3.435315   2.154647   2.728631   4.092484
    15  H    6.188564   7.119960   3.891775   5.460824   6.352971
    16  Cl   5.333767   6.277368   4.014912   5.256405   6.529322
                    6          7          8          9         10
     6  H    0.000000
     7  C    2.713644   0.000000
     8  H    2.127388   1.086208   0.000000
     9  C    4.071526   1.390185   2.130503   0.000000
    10  H    4.565364   2.151522   2.451156   1.083249   0.000000
    11  C    5.076426   2.408739   3.380252   1.389862   2.142249
    12  C    5.048742   2.758674   3.844554   2.393488   3.375776
    13  C    4.050666   2.403152   3.397262   2.783541   3.866788
    14  H    4.541073   3.389390   4.301827   3.866873   4.950111
    15  H    6.098948   3.396442   4.278718   2.158110   2.483163
    16  Cl   6.693854   4.502688   5.588518   3.997255   4.849792
                   11         12         13         14         15
    11  C    0.000000
    12  C    1.389221   0.000000
    13  C    2.420381   1.386346   0.000000
    14  H    3.398109   2.145118   1.083379   0.000000
    15  H    1.082073   2.145273   3.395559   4.282875   0.000000
    16  Cl   2.707649   1.744015   2.709641   2.847237   2.839987
                   16
    16  Cl   0.000000
 Symmetry turned off by external request.
 Stoichiometry    C6H6BClO2
 Framework group  C1[X(C6H6BClO2)]
 Deg. of freedom    42
 Full point group                 C1      NOp   1
 Rotational constants (GHZ):           2.1335450           0.6708401           0.5105248
 Standard basis: 6-311+G(d,p) (5D, 7F)
   264 basis functions,   425 primitive gaussians,   274 cartesian basis functions
    40 alpha electrons       40 beta electrons
       nuclear repulsion energy       538.4544059926 Hartrees.
 NAtoms=   16 NActive=   16 NUniq=   16 SFac= 1.00D+00 NAtFMM=   60 NAOKFM=F Big=F
 Integral buffers will be    131072 words long.
 Raffenetti 2 integral format.
 Two-electron integral symmetry is turned off.
 One-electron integrals computed using PRISM.
 NBasis=   264 RedAO= T EigKep=  2.18D-06  NBF=   264
 NBsUse=   264 1.00D-06 EigRej= -1.00D+00 NBFU=   264
 Initial guess from the checkpoint file:  "3-cl-phboh2-opt-freq.chk"
 B after Tr=     0.001534   -0.004134    0.003016
         Rot=    1.000000   -0.000064    0.000157    0.000298 Ang=  -0.04 deg.
 ExpMin= 3.15D-02 ExpMax= 1.06D+05 ExpMxC= 3.62D+03 IAcc=3 IRadAn=         5 AccDes= 0.00D+00
 Harris functional with IExCor= 1009 and IRadAn=       5 diagonalized for initial guess.
 HarFok:  IExCor= 1009 AccDes= 0.00D+00 IRadAn=         5 IDoV= 1 UseB2=F ITyADJ=14
 ICtDFT=  3500011 ScaDFX=  1.000000  1.000000  1.000000  1.000000
 FoFCou: FMM=F IPFlag=           0 FMFlag=      100000 FMFlg1=           0
         NFxFlg=           0 DoJE=T BraDBF=F KetDBF=T FulRan=T
         wScrn=  0.000000 ICntrl=       500 IOpCl=  0 I1Cent=   200000004 NGrid=           0
         NMat0=    1 NMatS0=      1 NMatT0=    0 NMatD0=    1 NMtDS0=    0 NMtDT0=    0
 Symmetry not used in FoFCou.
 Requested convergence on RMS density matrix=1.00D-08 within 128 cycles.
 Requested convergence on MAX density matrix=1.00D-06.
 Requested convergence on             energy=1.00D-06.
 Level shift goal  0.100 maximum shift  0.100.
 No special actions if energy rises.
 Dynamic level shift is on during FON iterations.
 SCF Done:  E(RM062X) =  -867.825732334     A.U. after   13 cycles
            NFock= 13  Conv=0.67D-08     -V/T= 2.0028
 Calling FoFJK, ICntrl=      2127 FMM=F ISym2X=0 I1Cent= 0 IOpClX= 0 NMat=1 NMatS=1 NMatT=0.
 -------------------------------------------------------------------
 Center     Atomic                   Forces (Hartrees/Bohr)
 Number     Number              X              Y              Z
 -------------------------------------------------------------------
      1        8           0.000000097   -0.000008921   -0.000000760
      2        1           0.000000817   -0.000004811    0.000001454
      3        6           0.000010616   -0.000022462    0.000014020
      4        5           0.000023553   -0.000008642    0.000011660
      5        8          -0.000005904   -0.000004467    0.000008978
      6        1          -0.000007118   -0.000001180   -0.000000423
      7        6          -0.000029280   -0.000162689    0.000079692
      8        1           0.000022500   -0.000002772    0.000008664
      9        6           0.000078433    0.000020481    0.000011300
     10        1          -0.000014910   -0.000014037    0.000006361
     11        6           0.000087799   -0.000087189    0.000059386
     12        6           0.000050554   -0.000271846    0.000152382
     13        6           0.000190326    0.000037243    0.000036771
     14        1           0.000015385   -0.000003540    0.000002300
     15        1          -0.000307510    0.000173278   -0.000175838
     16       17          -0.000115359    0.000361553   -0.000215947
 -------------------------------------------------------------------
 Cartesian Forces:  Max     0.000361553 RMS     0.000106770

 GradGradGradGradGradGradGradGradGradGradGradGradGradGradGradGradGradGrad
 Berny optimization.
 Using GEDIIS/GDIIS optimizer.
 FormGI is forming the generalized inverse of G from B-inverse, IUseBI=4.
 Internal  Forces:  Max     0.000428095 RMS     0.000084858
 Search for a local minimum.
 Step number   2 out of a maximum of   81
 All quantities printed in internal units (Hartrees-Bohrs-Radians)
 Mixed Optimization -- En-DIIS/RFO-DIIS
 Update second derivatives using D2CorX and points    1    2
 DE= -1.18D-03 DEPred=-1.19D-03 R= 9.95D-01
 TightC=F SS=  1.41D+00  RLast= 1.01D-01 DXNew= 5.0454D-01 3.0329D-01
 Trust test= 9.95D-01 RLast= 1.01D-01 DXMaxT set to 3.03D-01
 ITU=  1  0
 Use linear search instead of GDIIS.
     Eigenvalues ---    0.00081   0.01033   0.01221   0.01503   0.01671
     Eigenvalues ---    0.01804   0.02177   0.02415   0.02539   0.02645
     Eigenvalues ---    0.02838   0.03126   0.03938   0.10302   0.11069
     Eigenvalues ---    0.11208   0.11620   0.12192   0.12462   0.15785
     Eigenvalues ---    0.16059   0.17505   0.18348   0.18797   0.19299
     Eigenvalues ---    0.19464   0.26118   0.27632   0.29143   0.35606
     Eigenvalues ---    0.36553   0.36784   0.39108   0.39382   0.42327
     Eigenvalues ---    0.42724   0.47871   0.47957   0.49207   0.52109
     Eigenvalues ---    0.55208   0.56303
 RFO step:  Lambda=-1.99131990D-06 EMin= 8.12538444D-04
 Quartic linear search produced a step of  0.00206.
 Iteration  1 RMS(Cart)=  0.00425064 RMS(Int)=  0.00000789
 Iteration  2 RMS(Cart)=  0.00001158 RMS(Int)=  0.00000008
 Iteration  3 RMS(Cart)=  0.00000000 RMS(Int)=  0.00000008
 Variable       Old X    -DE/DX   Delta X   Delta X   Delta X     New X
                                 (Linear)    (Quad)   (Total)
    R1        1.81696   0.00000   0.00000   0.00000   0.00000   1.81696
    R2        2.57150   0.00000   0.00000  -0.00003  -0.00003   2.57147
    R3        2.96647   0.00003   0.00001   0.00011   0.00012   2.96658
    R4        2.64149   0.00008   0.00000   0.00019   0.00019   2.64168
    R5        2.64388   0.00012   0.00000   0.00024   0.00024   2.64412
    R6        2.58331   0.00000   0.00000   0.00001   0.00001   2.58331
    R7        1.81102   0.00000   0.00000   0.00001   0.00001   1.81103
    R8        2.05263   0.00001   0.00000  -0.00001  -0.00001   2.05263
    R9        2.62707   0.00009   0.00000   0.00013   0.00014   2.62720
   R10        2.04704   0.00002   0.00000   0.00008   0.00008   2.04712
   R11        2.62646   0.00013   0.00001   0.00020   0.00021   2.62667
   R12        2.62525   0.00010   0.00000   0.00017   0.00017   2.62541
   R13        2.04482   0.00039   0.00005   0.00092   0.00096   2.04579
   R14        2.61981   0.00022  -0.00001   0.00031   0.00030   2.62011
   R15        3.29571   0.00043  -0.00006   0.00203   0.00196   3.29767
   R16        2.04729   0.00001   0.00000   0.00000   0.00000   2.04729
    A1        1.96178   0.00000   0.00000   0.00004   0.00004   1.96183
    A2        2.14382  -0.00004   0.00000  -0.00026  -0.00026   2.14356
    A3        2.07188   0.00000  -0.00002   0.00005   0.00003   2.07191
    A4        2.06749   0.00003   0.00002   0.00021   0.00023   2.06772
    A5        2.05856   0.00001   0.00000   0.00007   0.00007   2.05863
    A6        2.05980   0.00001   0.00001   0.00008   0.00009   2.05989
    A7        2.16482  -0.00001  -0.00001  -0.00015  -0.00016   2.16466
    A8        2.00390   0.00000   0.00000  -0.00009  -0.00010   2.00380
    A9        2.10625  -0.00001   0.00000  -0.00015  -0.00015   2.10610
   A10        2.11415  -0.00004  -0.00002  -0.00016  -0.00018   2.11397
   A11        2.06277   0.00005   0.00002   0.00031   0.00033   2.06310
   A12        2.10096  -0.00005  -0.00004  -0.00020  -0.00024   2.10072
   A13        2.09605   0.00008   0.00005   0.00025   0.00030   2.09635
   A14        2.08618  -0.00003  -0.00002  -0.00005  -0.00006   2.08611
   A15        2.07545  -0.00006  -0.00009  -0.00031  -0.00040   2.07505
   A16        2.11405   0.00010   0.00007   0.00072   0.00079   2.11484
   A17        2.09368  -0.00004   0.00002  -0.00041  -0.00039   2.09329
   A18        2.11867   0.00002   0.00009   0.00035   0.00044   2.11911
   A19        2.07945  -0.00015  -0.00003  -0.00093  -0.00095   2.07850
   A20        2.08506   0.00013  -0.00007   0.00058   0.00051   2.08557
   A21        2.09455  -0.00003  -0.00005  -0.00034  -0.00039   2.09416
   A22        2.09273   0.00001   0.00003   0.00008   0.00012   2.09285
   A23        2.09591   0.00003   0.00002   0.00025   0.00027   2.09618
    D1        3.13199   0.00000   0.00000  -0.00100  -0.00100   3.13099
    D2       -0.00736   0.00000   0.00000  -0.00068  -0.00068  -0.00804
    D3        3.08227  -0.00001   0.00000  -0.00687  -0.00688   3.07539
    D4       -0.06172   0.00000   0.00000  -0.00722  -0.00722  -0.06894
    D5       -0.05867  -0.00001   0.00000  -0.00699  -0.00699  -0.06566
    D6        3.08053  -0.00001   0.00000  -0.00733  -0.00733   3.07319
    D7       -0.00779   0.00000   0.00000  -0.00087  -0.00087  -0.00866
    D8        3.13852   0.00000   0.00000  -0.00036  -0.00036   3.13816
    D9        3.13315   0.00000   0.00000  -0.00076  -0.00076   3.13240
   D10       -0.00372   0.00000   0.00000  -0.00025  -0.00025  -0.00397
   D11       -3.13766   0.00000   0.00000   0.00063   0.00063  -3.13702
   D12        0.00335   0.00000   0.00000   0.00048   0.00048   0.00383
   D13        0.00456   0.00000   0.00000   0.00053   0.00053   0.00509
   D14       -3.13762   0.00000   0.00000   0.00037   0.00037  -3.13725
   D15        3.11427   0.00000   0.00000  -0.00239  -0.00239   3.11188
   D16       -0.02493   0.00000   0.00000  -0.00205  -0.00205  -0.02698
   D17        3.14085   0.00000   0.00000  -0.00012  -0.00012   3.14073
   D18        0.00079   0.00000   0.00000  -0.00007  -0.00007   0.00072
   D19        0.00385   0.00000   0.00000   0.00038   0.00038   0.00423
   D20       -3.13620   0.00000   0.00000   0.00043   0.00043  -3.13577
   D21        0.00133   0.00000   0.00000   0.00011   0.00011   0.00143
   D22       -3.14129   0.00000   0.00000   0.00021   0.00022  -3.14108
   D23       -3.13874   0.00000   0.00000   0.00016   0.00016  -3.13859
   D24        0.00183   0.00000   0.00000   0.00026   0.00027   0.00209
   D25       -0.00045   0.00000   0.00000   0.00018   0.00018  -0.00027
   D26        3.13957   0.00001   0.00000   0.00025   0.00025   3.13982
   D27       -3.14103   0.00000   0.00000   0.00007   0.00007  -3.14096
   D28       -0.00101   0.00000   0.00000   0.00014   0.00014  -0.00087
   D29       -0.00255   0.00000   0.00000  -0.00050  -0.00050  -0.00305
   D30        3.13963   0.00000   0.00000  -0.00035  -0.00034   3.13928
   D31        3.14063  -0.00001   0.00000  -0.00057  -0.00057   3.14006
   D32       -0.00038  -0.00001   0.00000  -0.00042  -0.00041  -0.00080
         Item               Value     Threshold  Converged?
 Maximum Force            0.000428     0.000015     NO 
 RMS     Force            0.000085     0.000010     NO 
 Maximum Displacement     0.019037     0.000060     NO 
 RMS     Displacement     0.004251     0.000040     NO 
 Predicted change in Energy=-1.000956D-06
 GradGradGradGradGradGradGradGradGradGradGradGradGradGradGradGradGradGrad

                          Input orientation:                          
 ---------------------------------------------------------------------
 Center     Atomic      Atomic             Coordinates (Angstroms)
 Number     Number       Type             X           Y           Z
 ---------------------------------------------------------------------
      1          8           0        8.684703    7.455430    5.532956
      2          1           0        9.499600    7.152409    5.943563
      3          6           0        6.240141    6.994927    5.171492
      4          5           0        7.640582    6.615926    5.771115
      5          8           0        7.874457    5.496424    6.519975
      6          1           0        7.102574    4.951598    6.680628
      7          6           0        5.117930    6.169443    5.287232
      8          1           0        5.183151    5.214464    5.800651
      9          6           0        3.892874    6.542086    4.745763
     10          1           0        3.031328    5.892474    4.841997
     11          6           0        3.766456    7.752585    4.074397
     12          6           0        4.880727    8.573846    3.955601
     13          6           0        6.106909    8.210233    4.491006
     14          1           0        6.962532    8.866105    4.383997
     15          1           0        2.820686    8.059966    3.646587
     16         17           0        4.728477   10.093517    3.111425
 ---------------------------------------------------------------------
                    Distance matrix (angstroms):
                    1          2          3          4          5
     1  O    0.000000
     2  H    0.961496   0.000000
     3  C    2.513684   3.353352   0.000000
     4  B    1.360763   1.942550   1.569849   0.000000
     5  O    2.338462   2.390738   2.595170   1.367030   0.000000
     6  H    3.176391   3.336551   2.682625   1.971460   0.958357
     7  C    3.799475   4.538284   1.397918   2.607155   3.093711
     8  H    4.165868   4.733686   2.164050   2.829122   2.800009
     9  C    4.941204   5.765639   2.428162   3.886143   4.482659
    10  H    5.906007   6.681275   3.408878   4.757296   5.140852
    11  C    5.138565   6.059944   2.810121   4.379463   5.286471
    12  C    4.267217   5.225558   2.412339   3.840096   5.000895
    13  C    2.881044   3.839175   1.399208   2.555904   3.821740
    14  H    2.505193   3.435944   2.154833   2.728948   4.092525
    15  H    6.189552   7.120930   3.892597   5.461709   6.353637
    16  Cl   5.336202   6.279708   4.016250   5.258132   6.530594
                    6          7          8          9         10
     6  H    0.000000
     7  C    2.713579   0.000000
     8  H    2.127826   1.086203   0.000000
     9  C    4.071306   1.390257   2.130771   0.000000
    10  H    4.565179   2.151478   2.451338   1.083291   0.000000
    11  C    5.076185   2.409106   3.380686   1.389972   2.142344
    12  C    5.048075   2.758742   3.844621   2.393377   3.375756
    13  C    4.050247   2.403514   3.397518   2.783804   3.867093
    14  H    4.540650   3.389746   4.302044   3.867136   4.950416
    15  H    6.099338   3.397518   4.279967   2.159105   2.484230
    16  Cl   6.694392   4.503795   5.589617   3.997743   4.850150
                   11         12         13         14         15
    11  C    0.000000
    12  C    1.389309   0.000000
    13  C    2.420893   1.386505   0.000000
    14  H    3.398629   2.145425   1.083379   0.000000
    15  H    1.082583   2.145537   3.396305   4.283517   0.000000
    16  Cl   2.707907   1.745054   2.711102   2.849032   2.839259
                   16
    16  Cl   0.000000
 Symmetry turned off by external request.
 Stoichiometry    C6H6BClO2
 Framework group  C1[X(C6H6BClO2)]
 Deg. of freedom    42
 Full point group                 C1      NOp   1
 Rotational constants (GHZ):           2.1337882           0.6704752           0.5103677
 Standard basis: 6-311+G(d,p) (5D, 7F)
   264 basis functions,   425 primitive gaussians,   274 cartesian basis functions
    40 alpha electrons       40 beta electrons
       nuclear repulsion energy       538.3810186154 Hartrees.
 NAtoms=   16 NActive=   16 NUniq=   16 SFac= 1.00D+00 NAtFMM=   60 NAOKFM=F Big=F
 Integral buffers will be    131072 words long.
 Raffenetti 2 integral format.
 Two-electron integral symmetry is turned off.
 One-electron integrals computed using PRISM.
 NBasis=   264 RedAO= T EigKep=  2.19D-06  NBF=   264
 NBsUse=   264 1.00D-06 EigRej= -1.00D+00 NBFU=   264
 Initial guess from the checkpoint file:  "3-cl-phboh2-opt-freq.chk"
 B after Tr=    -0.001975    0.004570   -0.004116
         Rot=    1.000000   -0.000284   -0.000148   -0.000047 Ang=  -0.04 deg.
 Requested convergence on RMS density matrix=1.00D-08 within 128 cycles.
 Requested convergence on MAX density matrix=1.00D-06.
 Requested convergence on             energy=1.00D-06.
 Level shift goal  0.100 maximum shift  0.100.
 No special actions if energy rises.
 Dynamic level shift is on during FON iterations.
 SCF Done:  E(RM062X) =  -867.825733299     A.U. after   11 cycles
            NFock= 11  Conv=0.22D-08     -V/T= 2.0028
 Calling FoFJK, ICntrl=      2127 FMM=F ISym2X=0 I1Cent= 0 IOpClX= 0 NMat=1 NMatS=1 NMatT=0.
 -------------------------------------------------------------------
 Center     Atomic                   Forces (Hartrees/Bohr)
 Number     Number              X              Y              Z
 -------------------------------------------------------------------
      1        8           0.000000647   -0.000003205    0.000002083
      2        1          -0.000000516   -0.000004769    0.000002323
      3        6           0.000004690   -0.000002011    0.000001438
      4        5          -0.000002640   -0.000002246   -0.000000126
      5        8          -0.000002819   -0.000003020    0.000001914
      6        1          -0.000005150   -0.000001262    0.000001559
      7        6          -0.000000963    0.000002219    0.000000038
      8        1          -0.000002022   -0.000000005   -0.000001103
      9        6          -0.000004312   -0.000001309   -0.000000762
     10        1          -0.000001985    0.000003323   -0.000002107
     11        6           0.000020397   -0.000005719    0.000009186
     12        6          -0.000009613    0.000032111   -0.000015963
     13        6          -0.000005480    0.000006234   -0.000004177
     14        1           0.000003159   -0.000000263    0.000000130
     15        1          -0.000012933    0.000010494   -0.000009620
     16       17           0.000019540   -0.000030572    0.000015188
 -------------------------------------------------------------------
 Cartesian Forces:  Max     0.000032111 RMS     0.000009255

 GradGradGradGradGradGradGradGradGradGradGradGradGradGradGradGradGradGrad
 Berny optimization.
 Using GEDIIS/GDIIS optimizer.
 FormGI is forming the generalized inverse of G from B-inverse, IUseBI=4.
 Internal  Forces:  Max     0.000036878 RMS     0.000005865
 Search for a local minimum.
 Step number   3 out of a maximum of   81
 All quantities printed in internal units (Hartrees-Bohrs-Radians)
 Mixed Optimization -- En-DIIS/RFO-DIIS
 Swapping is turned off.
 Update second derivatives using D2CorX and points    1    2    3
 DE= -9.65D-07 DEPred=-1.00D-06 R= 9.64D-01
 TightC=F SS=  1.41D+00  RLast= 1.50D-02 DXNew= 5.1007D-01 4.5055D-02
 Trust test= 9.64D-01 RLast= 1.50D-02 DXMaxT set to 3.03D-01
 ITU=  1  1  0
     Eigenvalues ---    0.00080   0.01033   0.01221   0.01503   0.01673
     Eigenvalues ---    0.01804   0.02177   0.02415   0.02542   0.02645
     Eigenvalues ---    0.02838   0.03128   0.03939   0.10301   0.11069
     Eigenvalues ---    0.11210   0.11620   0.12167   0.12463   0.15828
     Eigenvalues ---    0.16467   0.17532   0.18502   0.18800   0.19364
     Eigenvalues ---    0.19515   0.26787   0.27706   0.29147   0.35609
     Eigenvalues ---    0.36560   0.36781   0.38191   0.39379   0.42310
     Eigenvalues ---    0.42881   0.47872   0.47975   0.49207   0.51985
     Eigenvalues ---    0.55208   0.56303
 En-DIIS/RFO-DIIS/Sim-DIIS IScMMF=       -3 using points:     3    2
 RFO step:  Lambda=-8.61617314D-09.
 DidBck=F Rises=F RFO-DIIS coefs:    1.07845   -0.07845
 Iteration  1 RMS(Cart)=  0.00034578 RMS(Int)=  0.00000005
 Iteration  2 RMS(Cart)=  0.00000008 RMS(Int)=  0.00000000
 Variable       Old X    -DE/DX   Delta X   Delta X   Delta X     New X
                                 (Linear)    (Quad)   (Total)
    R1        1.81696   0.00000   0.00000   0.00000   0.00000   1.81696
    R2        2.57147   0.00000   0.00000   0.00000   0.00000   2.57147
    R3        2.96658   0.00000   0.00001  -0.00002  -0.00001   2.96658
    R4        2.64168   0.00000   0.00001  -0.00001   0.00001   2.64169
    R5        2.64412   0.00000   0.00002  -0.00002   0.00000   2.64412
    R6        2.58331   0.00000   0.00000   0.00000   0.00000   2.58332
    R7        1.81103   0.00000   0.00000   0.00000   0.00000   1.81103
    R8        2.05263   0.00000   0.00000   0.00000   0.00000   2.05263
    R9        2.62720   0.00000   0.00001   0.00000   0.00001   2.62721
   R10        2.04712   0.00000   0.00001  -0.00001   0.00000   2.04712
   R11        2.62667   0.00000   0.00002  -0.00001   0.00001   2.62667
   R12        2.62541   0.00000   0.00001  -0.00001   0.00001   2.62542
   R13        2.04579   0.00002   0.00008  -0.00002   0.00005   2.04584
   R14        2.62011  -0.00001   0.00002  -0.00002   0.00000   2.62011
   R15        3.29767  -0.00004   0.00015  -0.00031  -0.00016   3.29752
   R16        2.04729   0.00000   0.00000   0.00000   0.00000   2.04729
    A1        1.96183   0.00000   0.00000   0.00000   0.00000   1.96183
    A2        2.14356   0.00000  -0.00002   0.00001  -0.00001   2.14355
    A3        2.07191   0.00000   0.00000   0.00002   0.00002   2.07193
    A4        2.06772   0.00000   0.00002  -0.00003  -0.00001   2.06771
    A5        2.05863   0.00000   0.00001   0.00000   0.00001   2.05863
    A6        2.05989   0.00000   0.00001   0.00000   0.00001   2.05990
    A7        2.16466   0.00000  -0.00001   0.00000  -0.00002   2.16465
    A8        2.00380   0.00000  -0.00001  -0.00001  -0.00002   2.00378
    A9        2.10610   0.00000  -0.00001   0.00000  -0.00001   2.10609
   A10        2.11397   0.00000  -0.00001   0.00002   0.00000   2.11397
   A11        2.06310   0.00000   0.00003  -0.00002   0.00001   2.06311
   A12        2.10072   0.00000  -0.00002   0.00002   0.00001   2.10073
   A13        2.09635   0.00000   0.00002  -0.00003  -0.00001   2.09634
   A14        2.08611   0.00000   0.00000   0.00001   0.00000   2.08612
   A15        2.07505   0.00000  -0.00003   0.00005   0.00002   2.07507
   A16        2.11484   0.00000   0.00006  -0.00005   0.00001   2.11485
   A17        2.09329   0.00000  -0.00003   0.00001  -0.00002   2.09327
   A18        2.11911   0.00000   0.00003  -0.00006  -0.00002   2.11909
   A19        2.07850   0.00002  -0.00007   0.00017   0.00010   2.07860
   A20        2.08557  -0.00002   0.00004  -0.00011  -0.00007   2.08550
   A21        2.09416   0.00000  -0.00003   0.00005   0.00002   2.09418
   A22        2.09285   0.00000   0.00001  -0.00001   0.00000   2.09285
   A23        2.09618   0.00000   0.00002  -0.00004  -0.00002   2.09616
    D1        3.13099   0.00000  -0.00008  -0.00001  -0.00008   3.13090
    D2       -0.00804   0.00000  -0.00005   0.00000  -0.00006  -0.00809
    D3        3.07539   0.00000  -0.00054  -0.00004  -0.00058   3.07481
    D4       -0.06894   0.00000  -0.00057  -0.00004  -0.00061  -0.06955
    D5       -0.06566   0.00000  -0.00055  -0.00001  -0.00056  -0.06622
    D6        3.07319   0.00000  -0.00058  -0.00002  -0.00059   3.07260
    D7       -0.00866   0.00000  -0.00007  -0.00004  -0.00011  -0.00877
    D8        3.13816   0.00000  -0.00003  -0.00001  -0.00004   3.13812
    D9        3.13240   0.00000  -0.00006  -0.00007  -0.00012   3.13227
   D10       -0.00397   0.00000  -0.00002  -0.00003  -0.00005  -0.00403
   D11       -3.13702   0.00000   0.00005  -0.00003   0.00002  -3.13701
   D12        0.00383   0.00000   0.00004   0.00000   0.00004   0.00387
   D13        0.00509   0.00000   0.00004  -0.00001   0.00003   0.00512
   D14       -3.13725   0.00000   0.00003   0.00003   0.00006  -3.13719
   D15        3.11188   0.00000  -0.00019  -0.00007  -0.00026   3.11162
   D16       -0.02698   0.00000  -0.00016  -0.00007  -0.00023  -0.02720
   D17        3.14073   0.00000  -0.00001   0.00000  -0.00001   3.14072
   D18        0.00072   0.00000  -0.00001   0.00003   0.00003   0.00075
   D19        0.00423   0.00000   0.00003   0.00003   0.00006   0.00429
   D20       -3.13577   0.00000   0.00003   0.00006   0.00010  -3.13567
   D21        0.00143   0.00000   0.00001   0.00001   0.00002   0.00145
   D22       -3.14108   0.00000   0.00002  -0.00004  -0.00002  -3.14109
   D23       -3.13859   0.00000   0.00001   0.00004   0.00006  -3.13853
   D24        0.00209   0.00000   0.00002   0.00000   0.00002   0.00211
   D25       -0.00027   0.00000   0.00001  -0.00006  -0.00004  -0.00031
   D26        3.13982   0.00000   0.00002  -0.00016  -0.00014   3.13968
   D27       -3.14096   0.00000   0.00001  -0.00001   0.00000  -3.14096
   D28       -0.00087   0.00000   0.00001  -0.00011  -0.00010  -0.00097
   D29       -0.00305   0.00000  -0.00004   0.00006   0.00002  -0.00303
   D30        3.13928   0.00000  -0.00003   0.00002  -0.00001   3.13927
   D31        3.14006   0.00000  -0.00004   0.00015   0.00011   3.14017
   D32       -0.00080   0.00000  -0.00003   0.00012   0.00008  -0.00071
         Item               Value     Threshold  Converged?
 Maximum Force            0.000037     0.000015     NO 
 RMS     Force            0.000006     0.000010     YES
 Maximum Displacement     0.001537     0.000060     NO 
 RMS     Displacement     0.000346     0.000040     NO 
 Predicted change in Energy=-6.317017D-09
 GradGradGradGradGradGradGradGradGradGradGradGradGradGradGradGradGradGrad

                          Input orientation:                          
 ---------------------------------------------------------------------
 Center     Atomic      Atomic             Coordinates (Angstroms)
 Number     Number       Type             X           Y           Z
 ---------------------------------------------------------------------
      1          8           0        8.684835    7.455141    5.532482
      2          1           0        9.499706    7.152173    5.943177
      3          6           0        6.240153    6.994912    5.171448
      4          5           0        7.640593    6.615904    5.771058
      5          8           0        7.874337    5.496652    6.520335
      6          1           0        7.102320    4.952148    6.681441
      7          6           0        5.117992    6.169335    5.287039
      8          1           0        5.183297    5.214243    5.800238
      9          6           0        3.892911    6.541995    4.745628
     10          1           0        3.031404    5.892311    4.841736
     11          6           0        3.766437    7.752593    4.074444
     12          6           0        4.880665    8.573929    3.955739
     13          6           0        6.106854    8.210296    4.491115
     14          1           0        6.962448    8.866220    4.384173
     15          1           0        2.820636    8.060001    3.646652
     16         17           0        4.728537   10.093581    3.111678
 ---------------------------------------------------------------------
                    Distance matrix (angstroms):
                    1          2          3          4          5
     1  O    0.000000
     2  H    0.961496   0.000000
     3  C    2.513688   3.353353   0.000000
     4  B    1.360764   1.942552   1.569844   0.000000
     5  O    2.338469   2.390749   2.595156   1.367032   0.000000
     6  H    3.176387   3.336555   2.682591   1.971451   0.958358
     7  C    3.799462   4.538271   1.397921   2.607147   3.093697
     8  H    4.165823   4.733644   2.164047   2.829100   2.799999
     9  C    4.941205   5.765638   2.428168   3.886141   4.482642
    10  H    5.906001   6.681269   3.408887   4.757295   5.140841
    11  C    5.138579   6.059954   2.810120   4.379458   5.286445
    12  C    4.267260   5.225594   2.412354   3.840110   5.000885
    13  C    2.881091   3.839212   1.399207   2.555914   3.821726
    14  H    2.505269   3.436004   2.154834   2.728966   4.092520
    15  H    6.189591   7.120965   3.892623   5.461731   6.353637
    16  Cl   5.336099   6.279596   4.016142   5.258005   6.530449
                    6          7          8          9         10
     6  H    0.000000
     7  C    2.713570   0.000000
     8  H    2.127877   1.086204   0.000000
     9  C    4.071276   1.390260   2.130780   0.000000
    10  H    4.565171   2.151485   2.451356   1.083292   0.000000
    11  C    5.076125   2.409106   3.380692   1.389976   2.142349
    12  C    5.048019   2.758759   3.844639   2.393395   3.375772
    13  C    4.050186   2.403511   3.397513   2.783802   3.867090
    14  H    4.540591   3.389746   4.302041   3.867135   4.950415
    15  H    6.099304   3.397548   4.280005   2.159136   2.484257
    16  Cl   6.694206   4.503730   5.589553   3.997729   4.850159
                   11         12         13         14         15
    11  C    0.000000
    12  C    1.389312   0.000000
    13  C    2.420880   1.386505   0.000000
    14  H    3.398615   2.145416   1.083381   0.000000
    15  H    1.082610   2.145548   3.396312   4.283519   0.000000
    16  Cl   2.707911   1.744972   2.710972   2.848863   2.839319
                   16
    16  Cl   0.000000
 Symmetry turned off by external request.
 Stoichiometry    C6H6BClO2
 Framework group  C1[X(C6H6BClO2)]
 Deg. of freedom    42
 Full point group                 C1      NOp   1
 Rotational constants (GHZ):           2.1337357           0.6704970           0.5103805
 Standard basis: 6-311+G(d,p) (5D, 7F)
   264 basis functions,   425 primitive gaussians,   274 cartesian basis functions
    40 alpha electrons       40 beta electrons
       nuclear repulsion energy       538.3844058018 Hartrees.
 NAtoms=   16 NActive=   16 NUniq=   16 SFac= 1.00D+00 NAtFMM=   60 NAOKFM=F Big=F
 Integral buffers will be    131072 words long.
 Raffenetti 2 integral format.
 Two-electron integral symmetry is turned off.
 One-electron integrals computed using PRISM.
 NBasis=   264 RedAO= T EigKep=  2.19D-06  NBF=   264
 NBsUse=   264 1.00D-06 EigRej= -1.00D+00 NBFU=   264
 Initial guess from the checkpoint file:  "3-cl-phboh2-opt-freq.chk"
 B after Tr=    -0.000349    0.000362   -0.000059
         Rot=    1.000000   -0.000012   -0.000010    0.000007 Ang=   0.00 deg.
 Requested convergence on RMS density matrix=1.00D-08 within 128 cycles.
 Requested convergence on MAX density matrix=1.00D-06.
 Requested convergence on             energy=1.00D-06.
 Level shift goal  0.100 maximum shift  0.100.
 No special actions if energy rises.
 Dynamic level shift is on during FON iterations.
 SCF Done:  E(RM062X) =  -867.825733305     A.U. after    8 cycles
            NFock=  8  Conv=0.75D-08     -V/T= 2.0028
 Calling FoFJK, ICntrl=      2127 FMM=F ISym2X=0 I1Cent= 0 IOpClX= 0 NMat=1 NMatS=1 NMatT=0.
 -------------------------------------------------------------------
 Center     Atomic                   Forces (Hartrees/Bohr)
 Number     Number              X              Y              Z
 -------------------------------------------------------------------
      1        8           0.000000055   -0.000003724    0.000001975
      2        1          -0.000000616   -0.000004836    0.000002519
      3        6          -0.000000317   -0.000000384    0.000000186
      4        5          -0.000001382   -0.000002186    0.000001086
      5        8          -0.000003209   -0.000002543    0.000001618
      6        1          -0.000004354   -0.000001426    0.000001286
      7        6          -0.000001491    0.000001793   -0.000000632
      8        1          -0.000003077    0.000000969   -0.000000273
      9        6          -0.000000795    0.000002692   -0.000001334
     10        1          -0.000001494    0.000003882   -0.000001830
     11        6           0.000002463    0.000002596   -0.000001173
     12        6           0.000003167    0.000001774   -0.000001208
     13        6           0.000000949   -0.000001162    0.000000259
     14        1           0.000002713   -0.000001648    0.000000511
     15        1           0.000002135    0.000003765   -0.000002158
     16       17           0.000005254    0.000000437   -0.000000832
 -------------------------------------------------------------------
 Cartesian Forces:  Max     0.000005254 RMS     0.000002227

 GradGradGradGradGradGradGradGradGradGradGradGradGradGradGradGradGradGrad
 Berny optimization.
 Using GEDIIS/GDIIS optimizer.
 FormGI is forming the generalized inverse of G from B-inverse, IUseBI=4.
 Internal  Forces:  Max     0.000000876 RMS     0.000000250
 Search for a local minimum.
 Step number   4 out of a maximum of   81
 All quantities printed in internal units (Hartrees-Bohrs-Radians)
 Mixed Optimization -- En-DIIS/RFO-DIIS
 Swapping is turned off.
 Update second derivatives using D2CorX and points    1    2    3    4
 DE= -6.50D-09 DEPred=-6.32D-09 R= 1.03D+00
 Trust test= 1.03D+00 RLast= 1.29D-03 DXMaxT set to 3.03D-01
 ITU=  0  1  1  0
     Eigenvalues ---    0.00077   0.01032   0.01221   0.01502   0.01673
     Eigenvalues ---    0.01804   0.02177   0.02415   0.02543   0.02645
     Eigenvalues ---    0.02839   0.03132   0.03938   0.10300   0.11068
     Eigenvalues ---    0.11208   0.11620   0.12173   0.12467   0.15816
     Eigenvalues ---    0.16273   0.17610   0.18639   0.18796   0.19346
     Eigenvalues ---    0.19572   0.26749   0.27733   0.29129   0.35610
     Eigenvalues ---    0.36562   0.36783   0.38322   0.39379   0.42300
     Eigenvalues ---    0.42856   0.47872   0.48006   0.49210   0.51991
     Eigenvalues ---    0.55208   0.56301
 En-DIIS/RFO-DIIS/Sim-DIIS IScMMF=       -3 using points:     4    3    2
 RFO step:  Lambda=-1.33271355D-11.
 DIIS inversion failure, remove point   3.
 RFO-DIIS uses    2 points instead of    3
 DidBck=F Rises=F RFO-DIIS coefs:    1.18067   -0.18067    0.00000
 Iteration  1 RMS(Cart)=  0.00006825 RMS(Int)=  0.00000000
 Iteration  2 RMS(Cart)=  0.00000000 RMS(Int)=  0.00000000
 Variable       Old X    -DE/DX   Delta X   Delta X   Delta X     New X
                                 (Linear)    (Quad)   (Total)
    R1        1.81696   0.00000   0.00000   0.00000   0.00000   1.81696
    R2        2.57147   0.00000   0.00000   0.00000   0.00000   2.57147
    R3        2.96658   0.00000   0.00000   0.00000   0.00000   2.96657
    R4        2.64169   0.00000   0.00000   0.00000   0.00000   2.64169
    R5        2.64412   0.00000   0.00000   0.00000   0.00000   2.64412
    R6        2.58332   0.00000   0.00000   0.00000   0.00000   2.58332
    R7        1.81103   0.00000   0.00000   0.00000   0.00000   1.81104
    R8        2.05263   0.00000   0.00000   0.00000   0.00000   2.05263
    R9        2.62721   0.00000   0.00000   0.00000   0.00000   2.62721
   R10        2.04712   0.00000   0.00000   0.00000   0.00000   2.04712
   R11        2.62667   0.00000   0.00000   0.00000   0.00000   2.62667
   R12        2.62542   0.00000   0.00000   0.00000   0.00000   2.62542
   R13        2.04584   0.00000   0.00001  -0.00001   0.00000   2.04584
   R14        2.62011   0.00000   0.00000   0.00000   0.00000   2.62011
   R15        3.29752   0.00000  -0.00003   0.00002   0.00000   3.29751
   R16        2.04729   0.00000   0.00000   0.00000   0.00000   2.04729
    A1        1.96183   0.00000   0.00000   0.00000   0.00000   1.96183
    A2        2.14355   0.00000   0.00000   0.00000   0.00000   2.14355
    A3        2.07193   0.00000   0.00000   0.00000   0.00000   2.07193
    A4        2.06771   0.00000   0.00000   0.00000   0.00000   2.06771
    A5        2.05863   0.00000   0.00000   0.00000   0.00000   2.05864
    A6        2.05990   0.00000   0.00000   0.00000   0.00000   2.05990
    A7        2.16465   0.00000   0.00000   0.00000   0.00000   2.16464
    A8        2.00378   0.00000   0.00000   0.00000   0.00000   2.00378
    A9        2.10609   0.00000   0.00000   0.00000   0.00000   2.10609
   A10        2.11397   0.00000   0.00000   0.00000   0.00000   2.11397
   A11        2.06311   0.00000   0.00000   0.00000   0.00000   2.06311
   A12        2.10073   0.00000   0.00000   0.00000   0.00000   2.10073
   A13        2.09634   0.00000   0.00000   0.00000   0.00000   2.09634
   A14        2.08612   0.00000   0.00000   0.00000   0.00000   2.08612
   A15        2.07507   0.00000   0.00000   0.00000   0.00000   2.07507
   A16        2.11485   0.00000   0.00000   0.00000   0.00000   2.11484
   A17        2.09327   0.00000   0.00000   0.00000   0.00000   2.09327
   A18        2.11909   0.00000   0.00000   0.00000   0.00000   2.11909
   A19        2.07860   0.00000   0.00002  -0.00002   0.00000   2.07859
   A20        2.08550   0.00000  -0.00001   0.00002   0.00000   2.08550
   A21        2.09418   0.00000   0.00000   0.00000   0.00000   2.09418
   A22        2.09285   0.00000   0.00000   0.00000   0.00000   2.09285
   A23        2.09616   0.00000   0.00000   0.00000   0.00000   2.09616
    D1        3.13090   0.00000  -0.00002   0.00000  -0.00002   3.13088
[...]
     1         18.00348408         13.70443846        -10.91489481
     6         11.77899010         13.17014514         -9.85340758
     5         14.69190003         13.42927962         -9.35504254
     8         15.74915748         13.56760731         -7.00204533
     1         14.56349927         13.53911869         -5.63337728
     6         10.01183923         12.90361426         -7.90798941
     1         10.61404452         12.85119001         -5.94638732
     6          7.44518219         12.68695186         -8.42525263
     1          6.09601847         12.47984763         -6.89961067
     6          6.59326087         12.73124181        -10.90953834
     6          8.34573920         12.99091936        -12.84711683
     6         10.90931101         13.20567932        -12.35015562
     1         12.24123551         13.40235945        -13.89246002
     1          4.60209218         12.56597215        -11.34929133
    17          7.28769412         13.04224178        -15.96985725

 Electric dipole moment (dipole orientation):
 (Debye = 10**-18 statcoulomb cm , SI units = C m)
                  (au)            (Debye)         (10**-30 SI)
   Tot        0.113752D+01      0.289128D+01      0.964427D+01
   x          0.000000D+00      0.000000D+00      0.000000D+00
   y          0.000000D+00      0.000000D+00      0.000000D+00
   z          0.113752D+01      0.289128D+01      0.964427D+01

 Dipole polarizability, Alpha (dipole orientation).
 (esu units = cm**3 , SI units = C**2 m**2 J**-1)
 Alpha(0;0):
               (au)            (10**-24 esu)      (10**-40 SI)
   iso        0.976497D+02      0.144702D+02      0.161003D+02
   aniso      0.650149D+02      0.963421D+01      0.107195D+02
   xx         0.116714D+03      0.172953D+02      0.192436D+02
   yx         0.519993D+01      0.770550D+00      0.857352D+00
   yy         0.566744D+02      0.839828D+01      0.934434D+01
   zx         0.108828D+02      0.161267D+01      0.179434D+01
   zy        -0.149848D+01     -0.222052D+00     -0.247066D+00
   zz         0.119560D+03      0.177170D+02      0.197128D+02

 ----------------------------------------------------------------------
 Unable to Open any file for archive entry.
 1\1\GINC-CN010\Freq\RM062X\6-311+G(d,p)\C6H6B1Cl1O2\TAHMINAAFROZ\22-Ap
 r-2025\0\\#N Geom=AllCheck Guess=TCheck SCRF=Check GenChk RM062X/6-311
 +G(d,p) Freq\\3-cl-phboh2-optfreq\\0,1\O,8.6848618916,7.45508137,5.532
 3892439\H,9.4997265008,7.1521233408,5.9431041558\C,6.2401575758,6.9949
 062117,5.1714355522\B,7.6405958904,6.6158982129,5.7710470992\O,7.87431
 12343,5.4966975646,6.5204095062\H,7.1022666965,4.9522574885,6.68160368
 05\C,5.1180044829,6.1693157224,5.28700102\H,5.1833227442,5.2142054533,
 5.8001648288\C,3.8929214284,6.5419778047,4.7455988127\H,3.0314204116,5
 .892282292,4.8416841613\C,3.7664384268,7.7525927599,4.0744473941\C,4.8
 80659042,8.5739412851,3.9557626026\C,6.1068499694,8.2103036905,4.49112
 90815\H,6.9624393214,8.8662361687,4.3842017272\H,2.8206342759,8.060003
 3488,3.6466641878\Cl,4.728516428,10.0936109261,3.1117393561\\Version=A
 S64L-G16RevC.01\HF=-867.8257333\RMSD=2.963e-09\RMSF=2.204e-06\ZeroPoin
 t=0.1163734\Thermal=0.1254352\ETot=-867.7002981\HTot=-867.6993539\GTot
 =-867.7450649\Dipole=-0.268464,-0.9826725,0.5061883\DipoleDeriv=-1.341
 6044,-0.2574476,-0.0455809,-0.3902025,-0.695746,-0.0031754,0.0382656,0
 .0271478,-0.5447809,0.3653999,0.0342179,-0.017489,0.0649253,0.2934268,
 0.0502074,-0.0430067,0.0444856,0.3081884,-0.5309445,0.1748686,-0.20509
 78,0.0877039,-0.1551483,0.0400311,-0.1515763,0.0648642,-0.2134455,1.94
 57778,-0.1000779,0.4179643,0.0891937,1.3520534,-0.47923,0.3121268,-0.5
 21994,0.950831,-0.6989295,0.2481568,-0.1977011,0.1846376,-1.112779,0.4
 094713,-0.1653029,0.4197161,-0.8304293,0.2364442,-0.1025303,0.0421522,
 -0.0823701,0.3774011,-0.0574012,0.0395726,-0.06174,0.3697518,-0.018339
 1,-0.0546243,0.0640755,0.035939,-0.0070624,-0.0603903,-0.0006994,-0.08
 64185,-0.1022614,0.0756438,0.0261046,-0.0282138,0.0239522,-0.070683,0.
 1110046,-0.0259825,0.1096445,0.0597573,0.0269892,0.0629172,0.0073303,0
 .1108266,-0.0288825,-0.0118896,-0.0135297,-0.0208172,-0.1043091,-0.014
 7278,-0.0657997,-0.0092661,-0.0707975,0.0243414,0.041084,-0.0067755,0.
 0417711,0.1168292,-0.0126983,-0.0027754,0.0315436,-0.0126194,-0.209016
 ,0.0428655,0.034631,0.0443908,-0.1347056,-0.0266175,-0.1518262,0.06976
 15,-0.1431674,0.9580457,-0.5401283,0.0689368,-0.5438092,0.3166611,-0.0
 130888,0.1491607,-0.0549593,0.0281422,-0.2103712,0.0610156,0.008502,0.
 0955334,-0.1559723,0.0865565,-0.0459967,0.0117267,-0.043947,0.0663175,
 0.021252,0.0087617,0.0215278,0.1202729,0.0207589,0.0202358,-0.0446511,
 0.0267483,0.084596,0.0376417,-0.0487641,0.0359463,0.1095677,-0.1006205
 ,0.0654163,-0.041595,0.0910351,-0.6664933,0.3376417,-0.0551594,0.32975
 12,-0.2659552\Polar=109.2282028,-1.4908039,107.9954707,15.6146559,-28.
 320518,75.7254033\Quadrupole=5.7381468,-20.3177416,14.5795949,-12.2069
 68,4.009427,-2.8756567\PG=C01 [X(C6H6B1Cl1O2)]\NImag=0\\0.66508806,0.0
 3182330,0.28191063,0.15098966,-0.14451246,0.16669413,-0.38838063,0.116
 96447,-0.17494361,0.41586986,0.14796589,-0.07992678,0.08186553,-0.1260
 1771,0.07304944,-0.19430446,0.07345690,-0.11203494,0.18886438,-0.07355
 892,0.10765158,-0.02902606,-0.00168975,-0.00896017,-0.00043774,-0.0021
 3035,0.00002501,0.61048006,-0.01726330,0.00777611,-0.00385564,-0.00358
 622,-0.00073657,0.00213251,0.07062418,0.54318116,0.00032648,0.00015555
 ,0.00911308,0.00088168,0.00255046,0.00293669,0.09777161,-0.19871003,0.
 26535636,-0.24717483,-0.11620379,0.01914032,-0.03124839,-0.02254869,0.
 00463771,-0.17094969,0.02704217,-0.04451129,0.54760740,-0.14327378,-0.
 16779641,0.03420699,0.00733237,0.00921466,-0.00174471,0.02617891,-0.07
 861527,0.01531205,0.07982852,0.49678581,0.03606851,0.04161798,-0.06604
 961,-0.01386175,-0.00975542,0.00557838,-0.04462363,0.01533096,-0.08471
 281,0.05649963,-0.19223854,0.28024856,0.00585219,-0.03408505,0.0188758
 5,0.00407615,0.00243609,0.00051853,0.00175315,0.02085520,-0.01687218,-
 0.09358096,0.02273277,-0.02620720,0.45515310,-0.02180450,-0.04122337,0
 .02763621,0.00459671,-0.00145850,0.00000711,0.00456053,-0.00548298,0.0
 1495406,0.05522102,-0.23960486,0.13440120,0.20719992,0.47719932,0.0115
 5473,0.02452873,0.00058566,-0.00087770,-0.00063455,-0.00327072,-0.0065
 5562,0.01920971,0.00332984,-0.04665895,0.12693279,-0.13442302,-0.02909
 367,-0.23134619,0.16621063,0.00243465,0.00201530,-0.00212273,0.0001698
 4,0.00040289,0.00000749,-0.00137812,0.00108055,-0.00024736,0.00405381,
 0.00215330,0.00020039,-0.36774673,-0.25197887,0.07407477,0.36419081,0.
 00060165,-0.00100718,0.00454237,0.00060911,-0.00041414,-0.00006060,0.0
 0040221,0.00080855,-0.00219323,-0.02543022,-0.01789208,0.00369354,-0.2
 2147404,-0.18913901,0.06102015,0.24579290,0.20600729,-0.00143380,0.004
 75751,0.00295864,-0.00007673,-0.00008112,-0.00078577,-0.00003447,-0.00
 193369,-0.00139042,0.01764707,0.00965263,-0.00421103,0.05503994,0.0544
 5570,-0.03066388,-0.07038535,-0.06672738,0.03318690,-0.00131415,0.0007
 6159,-0.00111292,-0.00062844,-0.00028940,0.00009571,-0.25214285,-0.076
 87507,-0.01430068,-0.01763235,-0.00838134,-0.00121826,0.00027851,-0.00
 289932,0.00212580,0.00109239,0.00031040,0.00023411,0.63540079,0.004916
 30,-0.00027770,0.00179353,0.00061424,0.00043100,0.00004514,-0.12681415
 ,-0.18149903,0.02725696,-0.00074148,0.01204278,-0.00569711,-0.00003956
 ,-0.00489194,0.00214376,0.00355203,0.00058336,0.00120377,0.04915697,0.
 61026709,-0.00306763,0.00073187,-0.00050355,-0.00053058,-0.00016345,0.
 00032830,0.01218371,0.04090671,-0.07990329,-0.00534202,-0.00754360,0.0
 0439595,0.00057784,0.00103660,-0.00116599,-0.00161723,-0.00011060,-0.0
 0052410,0.11544067,-0.23318738,0.29043504,0.00029784,0.00038064,-0.000
 19779,-0.00005340,-0.00008231,-0.00003250,0.00679384,-0.02026593,0.012
 25650,0.00010028,-0.00097901,0.00135809,-0.00003445,0.00079597,-0.0000
 8956,-0.00206040,0.00018085,-0.00160171,-0.05881915,0.01094210,-0.0118
 3267,0.05974943,-0.00018230,0.00066395,-0.00035370,-0.00016630,-0.0000
 4275,0.00008667,0.00245062,-0.01216849,0.00755722,0.00165366,-0.003180
 81,0.00076698,0.00102475,0.00186849,-0.00106051,-0.00144096,0.00096874
 ,-0.00033036,0.01442685,-0.26674499,0.12331052,-0.01362005,0.28109805,
 0.00024239,-0.00011787,0.00028898,0.00001852,0.00012442,0.00014089,0.0
 0064490,0.00125817,0.00049761,0.00000265,-0.00011512,-0.00292581,-0.00
 043096,-0.00110779,-0.00016396,-0.00062346,0.00038593,0.00098762,-0.01
 389938,0.12175960,-0.10400966,0.01734548,-0.13692540,0.10056484,-0.001
 98994,0.00052123,-0.00066828,-0.00013820,-0.00012049,0.00014336,-0.054
 09495,-0.04088788,0.00349804,-0.00068854,-0.00670963,0.00170263,0.0011
 5686,0.00097292,-0.00031463,-0.00058275,0.00040432,-0.00018464,-0.2922
 6776,0.07524418,-0.10389926,0.00226537,-0.00197583,0.00055722,0.693330
 04,0.00011594,0.00067636,-0.00058506,-0.00040329,-0.00015074,-0.000168
 06,0.00698892,0.05182904,-0.02019283,-0.00362439,-0.00005047,0.0022360
 3,0.00018568,0.00067447,-0.00024633,-0.00077177,-0.00022989,-0.0006669
 1,0.00892291,-0.13032597,0.03753786,0.02583338,-0.00483267,0.01202670,
 0.09746084,0.59372354,-0.00072765,-0.00040352,-0.00022987,0.00027310,-
 0.00022454,-0.00030467,-0.02180006,-0.03327950,0.02174342,0.00004963,0
 .00125951,0.00526447,0.00014037,-0.00009370,0.00009029,0.00057903,-0.0
 0018847,-0.00029936,-0.06907273,0.05616703,-0.11247058,-0.01395239,0.0
 0401789,-0.00215751,0.10639222,-0.21225229,0.27666778,-0.00068803,0.00
 001588,-0.00014530,-0.00004457,-0.00003826,0.00002922,-0.00356606,0.00
 181362,-0.00402251,0.00037220,-0.00111344,0.00062644,-0.00015935,0.000
 36750,-0.00025761,-0.00003998,-0.00011556,0.00005126,-0.01560237,-0.01
 818870,0.00410428,0.00049138,0.00072025,0.00091698,-0.23918429,-0.1392
 1597,0.01596095,0.24996000,0.00013752,-0.00005175,-0.00000927,0.000040
 29,0.00000216,-0.00001817,0.00149240,0.00199713,0.00312630,0.00022614,
 0.00038766,-0.00000831,-0.00005586,-0.00003353,0.00000726,0.00003324,0
 .00000784,0.00001970,0.00843685,0.00902468,-0.00050516,0.00013454,-0.0
 0028327,-0.00193971,-0.13911158,-0.15801445,0.02334490,0.14989837,0.16
 205045,-0.00023309,-0.00003835,-0.00017468,-0.00002909,-0.00003621,-0.
 00002971,-0.00376840,0.00327068,0.00435373,-0.00006357,-0.00038830,0.0
 0042153,-0.00003548,0.00015062,-0.00006691,-0.00002916,-0.00003716,0.0
 0001657,-0.00991825,-0.00809967,0.00493538,0.00120726,-0.00173879,-0.0
 0280173,0.01590118,0.02322165,-0.04563497,-0.01509591,-0.02865096,0.03
 680560,-0.00140124,0.00000531,-0.00022418,0.00019446,-0.00000204,-0.00
 002669,-0.01549210,-0.02570005,0.01080791,0.00166406,-0.00191738,0.001
 69814,-0.00023334,0.00041718,-0.00032612,0.00018652,-0.00009490,0.0001
 3101,0.03051917,0.03039902,-0.00940799,-0.00425344,0.00127425,-0.00395
 374,-0.13021115,0.04443431,-0.04250705,0.00611369,-0.02287705,0.012711
 98,0.70765079,-0.00032590,0.00031762,-0.00031819,-0.00001144,-0.000113
 54,0.00005237,-0.02682369,-0.05573361,0.01905501,-0.00208864,-0.003088
 29,0.00058345,0.00107270,-0.00029036,0.00042365,-0.00012067,0.00045892
 ,-0.00013539,0.08168216,-0.00021146,0.02679250,0.00054387,0.00259749,0
 .00254968,-0.02429336,-0.28055621,0.10735237,0.00381546,-0.01157632,0.
 00917040,0.03055690,0.57227412,-0.00010271,-0.00028970,-0.00016394,0.0
 0004301,0.00011221,0.00006930,0.01132715,0.01900979,-0.01258685,0.0017
 0834,0.00067492,-0.00064838,-0.00056366,0.00027164,-0.00026998,-0.0000
 1248,-0.00014456,0.00028226,-0.03626855,0.01248596,-0.00957953,-0.0034
 9698,0.00268165,0.00471753,-0.00637185,0.12695337,-0.13074211,-0.00131
 537,0.00150273,0.00249451,0.14521114,-0.22112287,0.29198975,0.00111962
 ,-0.00040273,0.00034923,-0.00004054,0.00016106,0.00000374,0.02758356,0
 .08230528,-0.03866427,0.00325639,0.00195541,-0.00188772,-0.00065499,0.
 00066375,-0.00002739,-0.00012136,-0.00034813,0.00003250,-0.08348076,-0
 .01391647,-0.01411764,-0.00160049,-0.00035103,-0.00016476,0.05161586,-
 0.06980706,0.04945304,0.00199336,0.00050109,-0.00195371,-0.26529778,-0
 .07030786,-0.01915663,0.63486119,-0.00265811,0.00010396,-0.00063134,0.
 00039599,0.00024587,-0.00008430,0.02546350,0.00104196,0.01178665,0.002
 49720,-0.00278950,0.00566918,0.00004496,0.00066710,-0.00105021,0.00023
 725,-0.00023200,0.00027209,-0.01470624,-0.00393146,-0.00584020,-0.0003
 8823,0.00056913,-0.00068836,-0.01102141,-0.03795235,0.02049370,0.00042
 665,-0.00127785,0.00486318,-0.13970014,-0.17091001,0.01567539,0.068550
 61,0.45402591,0.00148124,-0.00013316,0.00055238,-0.00020383,-0.0001557
 7,-0.00005237,-0.00850830,0.02826027,-0.00720506,-0.00212296,0.0054004
 2,0.00309985,0.00021132,-0.00103247,-0.00081751,-0.00015175,0.00016710
 ,0.00004362,-0.01367543,-0.00563805,-0.00803251,-0.00010665,-0.0006876
 2,-0.00024204,0.01838638,0.00394778,0.01008043,-0.00186966,0.00487726,
 0.00465890,0.01745627,0.03534992,-0.08003932,0.10544541,-0.15087742,0.
 23780980,-0.00305704,-0.00043628,-0.00034398,0.00066371,0.00026595,-0.
 00000769,-0.12289874,-0.01826150,-0.00664209,0.00282662,0.02042422,-0.
 01081290,-0.00531554,0.00200582,-0.00333596,-0.00026095,-0.00070602,0.
 00045782,0.04856648,-0.01587574,0.02022296,-0.00346884,-0.00415730,-0.
 00085325,-0.02876439,0.03022704,-0.02253847,0.00010442,0.00096655,-0.0
 0014040,-0.05189613,-0.04245634,0.00514822,-0.29597886,0.07018693,-0.1
 0049017,0.69855237,-0.00199091,-0.00252707,0.00058643,-0.00042563,-0.0
 0034974,0.00003514,0.03656413,-0.26340351,0.11633358,0.00913098,-0.001
 89957,0.00473135,-0.00158127,0.00154620,-0.00059420,-0.00041173,-0.000
 35174,0.00001646,-0.06113352,-0.03760531,0.00563647,-0.00379848,0.0008
 0999,0.00237614,0.03049144,-0.03515487,0.02436909,0.00105762,-0.000696
 09,0.00009255,0.00755040,0.05464599,-0.02187033,0.00116675,-0.11574337
 ,0.02513967,0.10113464,0.58379773,0.00054604,0.00094146,-0.00097801,0.
 00041868,0.00015668,-0.00012091,-0.03588891,0.10087922,-0.12592693,-0.
 00508092,0.00813661,-0.00318333,-0.00095842,0.00043628,0.00066148,0.00
 002638,-0.00006500,0.00012399,0.04424219,0.01839166,0.00852659,-0.0010
 6595,0.00224240,0.00596556,-0.02274677,0.02421717,-0.02453515,-0.00023
 950,0.00010729,-0.00109494,-0.02118450,-0.03615404,0.02200989,-0.06387
 041,0.04483290,-0.10950058,0.10281201,-0.20567223,0.27738986,-0.001463
 91,0.00032760,-0.00052760,-0.00005317,-0.00003406,0.00004763,0.0068349
 1,0.00237885,0.00002245,0.00091481,0.00132144,0.00032701,-0.00010903,-
 0.00049295,0.00014356,0.00004965,-0.00002695,0.00005036,0.00173326,0.0
 0101983,-0.00212049,0.00035823,0.00030538,-0.00011086,-0.00003527,0.00
 106565,-0.00029575,-0.00008605,0.00004779,0.00021437,-0.00292492,0.001
 66296,-0.00348240,-0.01629309,-0.01719338,0.00338896,-0.23767934,-0.14
 032913,0.01846725,0.24861518,0.00021514,0.00059306,-0.00040912,0.00022
 075,0.00035316,-0.00020086,-0.02020738,-0.01169945,0.00167670,-0.00174
 639,-0.00237573,-0.00067830,0.00028772,0.00067473,-0.00004695,-0.00011
 895,0.00002907,-0.00009810,0.00081681,-0.00212198,0.00529854,-0.001084
 43,-0.00062434,0.00013827,0.00070925,-0.00046276,-0.00008783,0.0000209
 0,-0.00016394,-0.00040678,0.00162329,0.00128113,0.00316461,0.00899280,
 0.00736331,0.00071210,-0.14189490,-0.15838340,0.02316016,0.15073816,0.
 16468873,-0.00035657,-0.00034800,-0.00011611,-0.00007723,-0.00026657,-
 0.00009732,0.01180704,0.00794561,0.00131843,0.00204222,0.00012324,-0.0
 0247930,-0.00035937,-0.00011317,0.00050386,0.00007835,-0.00007087,0.00
 001824,-0.00204470,0.00533348,0.00406332,0.00062298,0.00053463,0.00012
 284,-0.00013114,0.00003076,-0.00104502,0.00023323,-0.00039201,-0.00066
 633,-0.00347917,0.00314309,0.00377286,-0.01040134,-0.00667910,0.004538
 80,0.01935408,0.02357796,-0.04640504,-0.01736353,-0.03073834,0.0380992
 0,-0.00002824,0.00005899,-0.00006325,0.00001715,0.00002108,-0.00000206
 ,0.00033591,-0.00059144,0.00077909,-0.00019493,-0.00000453,0.00016020,
 -0.00000119,0.00003915,-0.00003284,0.00001283,-0.00001217,0.00000155,0
 .00222326,-0.00085325,-0.00104258,0.00002516,-0.00014167,0.00007773,0.
 00295617,-0.00133902,0.00035602,0.00021612,0.00078842,0.00085955,-0.27
 964637,0.06801569,-0.10379687,-0.01664894,0.00975417,-0.01082352,-0.00
 213255,-0.00431871,-0.00007096,-0.00071479,0.00048132,-0.00045215,0.29
 293404,0.00001983,0.00011524,-0.00002178,0.00000917,0.00001004,-0.0000
 0507,-0.00042223,-0.00109367,-0.00023466,0.00007349,-0.00039355,-0.000
 14660,0.00007093,0.00015901,-0.00005539,-0.00012770,0.00003413,-0.0000
 5725,-0.00100702,-0.00277323,0.00513002,0.00120140,-0.00036687,0.00055
 001,0.02417444,-0.00181880,0.00994902,0.00021106,-0.00014905,-0.002113
 85,0.07049902,-0.07606886,0.03996049,-0.01708485,0.00758147,-0.0069881
 1,-0.00403001,-0.00094173,0.00265200,-0.00076901,0.00046288,-0.0004691
 5,-0.07259116,0.07501254,-0.00001738,-0.00000095,0.00007344,0.00000019
 ,0.00000265,-0.00000418,0.00065179,-0.00030317,-0.00096310,0.00013435,
 -0.00018442,-0.00060450,-0.00005398,-0.00004940,0.00001938,0.00005722,
 0.00000574,0.00006469,-0.00098764,0.00516748,0.00452716,-0.00063019,0.
 00015709,-0.00025465,-0.01303703,0.00274354,-0.00094748,0.00116809,-0.
 00193754,-0.00294674,-0.10512709,0.03925710,-0.08814449,0.00329357,0.0
 0060210,0.00410318,-0.00019716,0.00254746,0.00478966,0.00020278,-0.000
 11134,0.00010206,0.11354748,-0.04657382,0.08187919,-0.00026829,-0.0000
 5672,-0.00004526,0.00003391,0.00001035,0.00000061,-0.00379510,-0.00266
 848,-0.00108337,0.00067411,0.00045216,-0.00002959,-0.00043439,0.000335
 17,-0.00032879,-0.00000023,-0.00009347,0.00007108,0.00207397,0.0005846
 9,0.00044863,0.00020863,0.00017971,0.00023055,-0.00336706,-0.00007316,
 -0.00231025,0.00011953,-0.00065871,0.00037272,0.00502780,-0.02092184,0
 .01112962,-0.04031318,0.00811027,-0.00841731,0.00073878,0.02689341,-0.
 01540620,0.00085353,0.00094591,0.00052731,0.00064637,-0.00022736,0.000
 99501,0.03780163,0.00170323,0.00065334,0.00006551,-0.00017252,-0.00011
 356,0.00002484,0.00336215,0.00379863,0.00156623,-0.00328959,-0.0007443
 6,-0.00050640,0.00132506,-0.00066476,0.00076829,-0.00029682,0.00036815
 ,-0.00034767,0.00077738,-0.00196585,0.00096930,0.00020569,-0.00033162,
 -0.00027466,-0.00585843,0.00264576,-0.00042365,0.00032463,-0.00122368,
 0.00074099,0.00353188,-0.03302662,0.02093471,0.00792139,-0.13876216,0.
 06165808,0.00260694,-0.02374348,0.01573744,-0.00002218,0.00038553,-0.0
 0161156,0.00069313,0.00023045,-0.00132253,-0.01281195,0.19249423,-0.00
 096577,-0.00034598,-0.00001560,0.00010097,0.00006459,-0.00000454,-0.00
 427164,-0.00012159,0.00403930,0.00191777,0.00051554,0.00022905,-0.0007
 8891,0.00039331,-0.00055916,0.00016588,-0.00021699,0.00019202,0.000360
 07,0.00087384,-0.00102253,0.00021606,-0.00025865,-0.00073050,0.0007725
 7,0.00119663,0.00452034,-0.00014458,0.00047571,-0.00027021,-0.00177993
 ,0.01400095,-0.00316151,-0.00833361,0.06165574,-0.05899758,-0.00263302
 ,0.02269444,-0.00772213,0.00103628,-0.00137275,-0.00173048,0.00050261,
 -0.00157586,-0.00169362,0.01384524,-0.09797891,0.06692715\\-0.00000007
 ,0.00000377,-0.00000194,0.00000063,0.00000482,-0.00000254,0.00000031,0
 .00000053,-0.00000029,0.00000123,0.00000231,-0.00000131,0.00000327,0.0
 0000253,-0.00000165,0.00000415,0.00000145,-0.00000121,0.00000152,-0.00
 000104,0.00000035,0.00000314,-0.00000102,0.00000018,0.00000061,-0.0000
 0263,0.00000129,0.00000156,-0.00000380,0.00000178,-0.00000139,-0.00000
 271,0.00000158,-0.00000268,-0.00000109,0.00000084,-0.00000184,0.000000
 45,-0.00000005,-0.00000278,0.00000161,-0.00000052,-0.00000232,-0.00000
 385,0.00000218,-0.00000534,-0.00000133,0.00000129\\\@
 The archive entry for this job was punched.


 I do not feel obliged to believe that the same God who
 has endowed us with sense, reason, and intellect has
 intended us to forgo their use.
                   --Galileo Galilei
 Job cpu time:       0 days  0 hours 40 minutes  4.0 seconds.
 Elapsed time:       0 days  0 hours  1 minutes 16.9 seconds.
 File lengths (MBytes):  RWF=    119 Int=      0 D2E=      0 Chk=      7 Scr=      1
 Normal termination of Gaussian 16 at Tue Apr 22 20:49:45 2025.
