/home/tahminaafroz
cn014.cluster.local
tahminaafroz
Fri May 30 01:14:32 CDT 2025
 Entering Gaussian System, Link 0=g16
 Initial command:
 /home/apps/g16/l1.exe "/tmp/3-cl-ph-anion-opt-freq-thf/Gau-963618.inp" -scrdir="/tmp/3-cl-ph-anion-opt-freq-thf/"
 Entering Link 1 = /home/apps/g16/l1.exe PID=    963619.
  
 Copyright (c) 1988-2019, Gaussian, Inc.  All Rights Reserved.
  
 This is part of the Gaussian(R) 16 program.  It is based on
 the Gaussian(R) 09 system (copyright 2009, Gaussian, Inc.),
 the Gaussian(R) 03 system (copyright 2003, Gaussian, Inc.),
 the Gaussian(R) 98 system (copyright 1998, Gaussian, Inc.),
 the Gaussian(R) 94 system (copyright 1995, Gaussian, Inc.),
 the Gaussian 92(TM) system (copyright 1992, Gaussian, Inc.),
 the Gaussian 90(TM) system (copyright 1990, Gaussian, Inc.),
 the Gaussian 88(TM) system (copyright 1988, Gaussian, Inc.),
 the Gaussian 86(TM) system (copyright 1986, Carnegie Mellon
 University), and the Gaussian 82(TM) system (copyright 1983,
 Carnegie Mellon University). Gaussian is a federally registered
 trademark of Gaussian, Inc.
  
 This software contains proprietary and confidential information,
 including trade secrets, belonging to Gaussian, Inc.
  
 This software is provided under written license and may be
 used, copied, transmitted, or stored only in accord with that
 written license.
  
 The following legend is applicable only to US Government
 contracts under FAR:
  
                    RESTRICTED RIGHTS LEGEND
  
 Use, reproduction and disclosure by the US Government is
 subject to restrictions as set forth in subparagraphs (a)
 and (c) of the Commercial Computer Software - Restricted
 Rights clause in FAR 52.227-19.
  
 Gaussian, Inc.
 340 Quinnipiac St., Bldg. 40, Wallingford CT 06492
  
  
 ---------------------------------------------------------------
 Warning -- This program may not be used in any manner that
 competes with the business of Gaussian, Inc. or will provide
 assistance to any competitor of Gaussian, Inc.  The licensee
 of this program is prohibited from giving any competitor of
 Gaussian, Inc. access to this program.  By using this program,
 the user acknowledges that Gaussian, Inc. is engaged in the
 business of creating and licensing software in the field of
 computational chemistry and represents and warrants to the
 licensee that it is not a competitor of Gaussian, Inc. and that
 it will not use this program in any manner prohibited above.
 ---------------------------------------------------------------
  

 Cite this work as:
 Gaussian 16, Revision C.01,
 M. J. Frisch, G. W. Trucks, H. B. Schlegel, G. E. Scuseria, 
 M. A. Robb, J. R. Cheeseman, G. Scalmani, V. Barone, 
 G. A. Petersson, H. Nakatsuji, X. Li, M. Caricato, A. V. Marenich, 
 J. Bloino, B. G. Janesko, R. Gomperts, B. Mennucci, H. P. Hratchian, 
 J. V. Ortiz, A. F. Izmaylov, J. L. Sonnenberg, D. Williams-Young, 
 F. Ding, F. Lipparini, F. Egidi, J. Goings, B. Peng, A. Petrone, 
 T. Henderson, D. Ranasinghe, V. G. Zakrzewski, J. Gao, N. Rega, 
 G. Zheng, W. Liang, M. Hada, M. Ehara, K. Toyota, R. Fukuda, 
 J. Hasegawa, M. Ishida, T. Nakajima, Y. Honda, O. Kitao, H. Nakai, 
 T. Vreven, K. Throssell, J. A. Montgomery, Jr., J. E. Peralta, 
 F. Ogliaro, M. J. Bearpark, J. J. Heyd, E. N. Brothers, K. N. Kudin, 
 V. N. Staroverov, T. A. Keith, R. Kobayashi, J. Normand, 
 K. Raghavachari, A. P. Rendell, J. C. Burant, S. S. Iyengar, 
 J. Tomasi, M. Cossi, J. M. Millam, M. Klene, C. Adamo, R. Cammi, 
 J. W. Ochterski, R. L. Martin, K. Morokuma, O. Farkas, 
 J. B. Foresman, and D. J. Fox, Gaussian, Inc., Wallingford CT, 2019.
 
 ******************************************
 Gaussian 16:  AS64L-G16RevC.01  3-Jul-2019
                30-May-2025 
 ******************************************
 %mem=20GB
 %nprocshared=32
 Will use up to   32 processors via shared memory.
 %chk=3-cl-ph-anion-opt-freq-thf.chk
 ----------------------------------------------------------------------
 # opt=(calcfc,tight) freq 6-311+g(d,p) scrf=(smd,solvent=thf) nosymm s
 cf=(qc,fermi,xqc) geom=connectivity int=ultrafine m062x
 ----------------------------------------------------------------------
 1/7=10,10=4,18=20,19=15,26=6,38=1,57=2/1,3;
 2/9=110,12=2,15=1,17=6,18=5,40=1/2;
 3/5=4,6=6,7=111,11=2,25=1,30=1,70=32201,71=2,72=20,74=-55,75=-5,140=1/1,2,3;
 4//1;
 5/5=2,22=13,38=5,53=20/2;
 8/6=4,10=90,11=11/1;
 11/6=1,8=1,9=11,15=111,16=1,31=1/1,2,10;
 10/6=1,13=1,31=1/2;
 6/7=2,8=2,9=2,10=2,28=1/1;
 7/10=1,25=1,30=1/1,2,3,16;
 1/7=10,10=4,18=20,19=15,26=6/3(2);
 2/9=110,15=1/2;
 99//99;
 2/9=110,15=1/2;
 3/5=4,6=6,7=111,11=2,25=1,30=1,70=32205,71=1,72=20,74=-55,75=-5/1,2,3;
 4/5=5,16=3,69=1/1;
 5/5=2,22=13,38=5,53=20/2;
 7/30=1/1,2,3,16;
 1/7=10,18=20,19=15,26=6/3(-5);
 2/9=110,15=1/2;
 6/7=2,8=2,9=2,10=2,19=2,28=1/1;
 99/9=1/99;
 --------------------------
 3-cl-ph-anion-opt-freq-thf
 --------------------------
 Symbolic Z-matrix:
 Charge = -1 Multiplicity = 1
 C                     6.1606    7.01788   5.14102 
 C                     5.10883   6.15234   5.31126 
 H                     5.20889   5.21394   5.84382 
 C                     3.88624   6.54411   4.75768 
 H                     3.01735   5.90362   4.85847 
 C                     3.7713    7.75242   4.07517 
 C                     4.88648   8.57249   3.94595 
 C                     6.12535   8.22187   4.48283 
 H                     6.98989   8.86689   4.37828 
 H                     2.82442   8.05571   3.64663 
 Cl                    4.73428   10.08856   3.08434 
 

 GradGradGradGradGradGradGradGradGradGradGradGradGradGradGradGradGradGrad
 Berny optimization.
 Initialization pass.
                           ----------------------------
                           !    Initial Parameters    !
                           ! (Angstroms and Degrees)  !
 --------------------------                            --------------------------
 ! Name  Definition              Value          Derivative Info.                !
 --------------------------------------------------------------------------------
 ! R1    R(1,2)                  1.3727         calculate D2E/DX2 analytically  !
 ! R2    R(1,8)                  1.3726         calculate D2E/DX2 analytically  !
 ! R3    R(2,3)                  1.0836         calculate D2E/DX2 analytically  !
 ! R4    R(2,4)                  1.3981         calculate D2E/DX2 analytically  !
 ! R5    R(4,5)                  1.0841         calculate D2E/DX2 analytically  !
 ! R6    R(4,6)                  1.3925         calculate D2E/DX2 analytically  !
 ! R7    R(6,7)                  1.3903         calculate D2E/DX2 analytically  !
 ! R8    R(6,10)                 1.0827         calculate D2E/DX2 analytically  !
 ! R9    R(7,8)                  1.395          calculate D2E/DX2 analytically  !
 ! R10   R(7,11)                 1.7504         calculate D2E/DX2 analytically  !
 ! R11   R(8,9)                  1.0837         calculate D2E/DX2 analytically  !
 ! A1    A(2,1,8)              126.3609         calculate D2E/DX2 analytically  !
 ! A2    A(1,2,3)              122.4275         calculate D2E/DX2 analytically  !
 ! A3    A(1,2,4)              116.3735         calculate D2E/DX2 analytically  !
 ! A4    A(3,2,4)              121.199          calculate D2E/DX2 analytically  !
 ! A5    A(2,4,5)              119.8998         calculate D2E/DX2 analytically  !
 ! A6    A(2,4,6)              120.624          calculate D2E/DX2 analytically  !
 ! A7    A(5,4,6)              119.4762         calculate D2E/DX2 analytically  !
 ! A8    A(4,6,7)              119.4189         calculate D2E/DX2 analytically  !
 ! A9    A(4,6,10)             120.6145         calculate D2E/DX2 analytically  !
 ! A10   A(7,6,10)             119.9666         calculate D2E/DX2 analytically  !
 ! A11   A(6,7,8)              121.8934         calculate D2E/DX2 analytically  !
 ! A12   A(6,7,11)             119.1366         calculate D2E/DX2 analytically  !
 ! A13   A(8,7,11)             118.97           calculate D2E/DX2 analytically  !
 ! A14   A(1,8,7)              115.3292         calculate D2E/DX2 analytically  !
 ! A15   A(1,8,9)              123.2206         calculate D2E/DX2 analytically  !
 ! A16   A(7,8,9)              121.4502         calculate D2E/DX2 analytically  !
 ! D1    D(8,1,2,3)            179.9536         calculate D2E/DX2 analytically  !
 ! D2    D(8,1,2,4)             -0.0473         calculate D2E/DX2 analytically  !
 ! D3    D(2,1,8,7)              0.013          calculate D2E/DX2 analytically  !
 ! D4    D(2,1,8,9)           -179.979          calculate D2E/DX2 analytically  !
 ! D5    D(1,2,4,5)           -179.9883         calculate D2E/DX2 analytically  !
 ! D6    D(1,2,4,6)              0.0288         calculate D2E/DX2 analytically  !
 ! D7    D(3,2,4,5)              0.0108         calculate D2E/DX2 analytically  !
 ! D8    D(3,2,4,6)           -179.9721         calculate D2E/DX2 analytically  !
 ! D9    D(2,4,6,7)              0.0205         calculate D2E/DX2 analytically  !
 ! D10   D(2,4,6,10)          -179.993          calculate D2E/DX2 analytically  !
 ! D11   D(5,4,6,7)           -179.9625         calculate D2E/DX2 analytically  !
 ! D12   D(5,4,6,10)             0.024          calculate D2E/DX2 analytically  !
 ! D13   D(4,6,7,8)             -0.0576         calculate D2E/DX2 analytically  !
 ! D14   D(4,6,7,11)           179.9031         calculate D2E/DX2 analytically  !
 ! D15   D(10,6,7,8)           179.9559         calculate D2E/DX2 analytically  !
 ! D16   D(10,6,7,11)           -0.0834         calculate D2E/DX2 analytically  !
 ! D17   D(6,7,8,1)              0.041          calculate D2E/DX2 analytically  !
 ! D18   D(6,7,8,9)           -179.9668         calculate D2E/DX2 analytically  !
 ! D19   D(11,7,8,1)          -179.9197         calculate D2E/DX2 analytically  !
 ! D20   D(11,7,8,9)             0.0724         calculate D2E/DX2 analytically  !
 --------------------------------------------------------------------------------
 Trust Radius=3.00D-01 FncErr=5.00D-06 GrdErr=5.00D-06 EigMax=2.50D+02 EigMin=1.00D-04
 Number of steps in this run=     57 maximum allowed number of steps=    100.
 GradGradGradGradGradGradGradGradGradGradGradGradGradGradGradGradGradGrad

                          Input orientation:                          
 ---------------------------------------------------------------------
 Center     Atomic      Atomic             Coordinates (Angstroms)
 Number     Number       Type             X           Y           Z
 ---------------------------------------------------------------------
      1          6           0        6.160597    7.017882    5.141019
      2          6           0        5.108829    6.152340    5.311261
      3          1           0        5.208893    5.213936    5.843815
      4          6           0        3.886236    6.544111    4.757677
      5          1           0        3.017354    5.903616    4.858469
      6          6           0        3.771301    7.752423    4.075168
      7          6           0        4.886477    8.572485    3.945948
      8          6           0        6.125354    8.221866    4.482829
      9          1           0        6.989893    8.866890    4.378278
     10          1           0        2.824424    8.055711    3.646631
     11         17           0        4.734275   10.088558    3.084341
 ---------------------------------------------------------------------
                    Distance matrix (angstroms):
                    1          2          3          4          5
     1  C    0.000000
     2  C    1.372720   0.000000
     3  H    2.157286   1.083618   0.000000
     4  C    2.354597   1.398096   2.167598   0.000000
     5  H    3.346849   2.154333   2.499882   1.084135   0.000000
     6  C    2.717411   2.424288   3.411554   1.392496   2.144781
     7  C    2.338454   2.787584   3.871137   2.402850   3.383663
     8  C    1.372601   2.450012   3.426343   2.811415   3.895517
     9  H    2.165257   3.431857   4.320166   3.895117   4.979221
    10  H    3.800044   3.407685   4.311496   2.155644   2.477355
    11  Cl   3.961486   4.537981   5.621557   4.010278   4.858918
                    6          7          8          9         10
     6  C    0.000000
     7  C    1.390258   0.000000
     8  C    2.434775   1.394988   0.000000
     9  H    3.419539   2.167474   1.083704   0.000000
    10  H    1.082684   2.146790   3.409248   4.306327   0.000000
    11  Cl   2.714145   1.750431   2.715770   2.873075   2.845377
                   11
    11  Cl   0.000000
 Symmetry turned off by external request.
 Stoichiometry    C6H4Cl(1-)
 Framework group  C1[X(C6H4Cl)]
 Deg. of freedom    27
 Full point group                 C1      NOp   1
 Rotational constants (GHZ):           6.1171977           1.5932713           1.2640422
 Standard basis: 6-311+G(d,p) (5D, 7F)
   186 basis functions,   301 primitive gaussians,   193 cartesian basis functions
    29 alpha electrons       29 beta electrons
       nuclear repulsion energy       305.1297519768 Hartrees.
 NAtoms=   11 NActive=   11 NUniq=   11 SFac= 1.00D+00 NAtFMM=   60 NAOKFM=F Big=F
 Integral buffers will be    131072 words long.
 Raffenetti 2 integral format.
 Two-electron integral symmetry is turned off.
 Force inversion solution in PCM.
 ------------------------------------------------------------------------------
 Polarizable Continuum Model (PCM)
 =================================
 Model                : PCM.
 Atomic radii         : SMD-Coulomb.
 Polarization charges : Total charges.
 Charge compensation  : None.
 Solution method      : Matrix inversion.
 Cavity type          : VdW (van der Waals Surface) (Alpha=1.000).
 Cavity algorithm     : GePol (No added spheres)
                        Default sphere list used, NSphG=   11.
                        Lebedev-Laikov grids with approx.  5.0 points / Ang**2.
                        Smoothing algorithm: York/Karplus (Gamma=1.0000).
                        Polarization charges: spherical gaussians, with
                                              point-specific exponents (IZeta= 3).
                        Self-potential: point-specific (ISelfS= 7).
                        Self-field    : sphere-specific E.n sum rule (ISelfD= 2).
 1st derivatives      : Analytical E(r).r(x)/FMM algorithm (CHGder, D1EAlg=3).
                        Cavity 1st derivative terms included.
 2nd derivatives      : Analytical E(r).r(xy)/FMM algorithm (CHGder, D2EAlg=3).
                        Cavity 2nd derivative terms included.
 Solvent              : TetraHydroFuran, Eps=   7.425700 Eps(inf)=   1.974025
 ------------------------------------------------------------------------------
 Spheres list:
 ISph  on   Nord     Re0    Alpha      Xe            Ye            Ze
    1   C      1    1.8500  1.000      6.160597      7.017882      5.141019
    2   C      2    1.8500  1.000      5.108829      6.152340      5.311261
    3   H      3    1.2000  1.000      5.208893      5.213936      5.843815
    4   C      4    1.8500  1.000      3.886236      6.544111      4.757677
    5   H      5    1.2000  1.000      3.017354      5.903616      4.858469
    6   C      6    1.8500  1.000      3.771301      7.752423      4.075168
    7   C      7    1.8500  1.000      4.886477      8.572485      3.945948
    8   C      8    1.8500  1.000      6.125354      8.221866      4.482829
    9   H      9    1.2000  1.000      6.989893      8.866890      4.378278
   10   H     10    1.2000  1.000      2.824424      8.055711      3.646631
   11  Cl     11    2.3800  1.000      4.734275     10.088558      3.084341
 ------------------------------------------------------------------------------
 ------------------------------------------------------------------------------
 Atomic radii for non-electrostatic terms: SMD-CDS.
 ------------------------------------------------------------------------------
 Nuclear repulsion after PCM non-electrostatic terms =      305.1262115168 Hartrees.
 One-electron integrals computed using PRISM.
 NBasis=   186 RedAO= T EigKep=  3.98D-06  NBF=   186
 NBsUse=   186 1.00D-06 EigRej= -1.00D+00 NBFU=   186
 ExpMin= 4.38D-02 ExpMax= 1.06D+05 ExpMxC= 3.62D+03 IAcc=3 IRadAn=         5 AccDes= 0.00D+00
 Harris functional with IExCor= 1009 and IRadAn=       5 diagonalized for initial guess.
 HarFok:  IExCor= 1009 AccDes= 0.00D+00 IRadAn=         5 IDoV= 1 UseB2=F ITyADJ=14
 ICtDFT=  3500011 ScaDFX=  1.000000  1.000000  1.000000  1.000000
 FoFCou: FMM=F IPFlag=           0 FMFlag=      100000 FMFlg1=           0
         NFxFlg=           0 DoJE=T BraDBF=F KetDBF=T FulRan=T
         wScrn=  0.000000 ICntrl=       500 IOpCl=  0 I1Cent=   200000004 NGrid=           0
         NMat0=    1 NMatS0=      1 NMatT0=    0 NMatD0=    1 NMtDS0=    0 NMtDT0=    0
 Symmetry not used in FoFCou.
 Keep R1 ints in memory in canonical form, NReq=183961021.
 Requested convergence on RMS density matrix=1.00D-08 within 128 cycles.
 Requested convergence on MAX density matrix=1.00D-06.
 Requested convergence on             energy=1.00D-06.
 Level shift goal  0.100 maximum shift  0.100.
 No special actions if energy rises.
 Dynamic level shift is on during FON iterations.
 Inv3:  Mode=1 IEnd=     4134828.
 Iteration    1 A*A^-1 deviation from unit magnitude is 4.66D-15 for   1169.
 Iteration    1 A*A^-1 deviation from orthogonality  is 1.95D-15 for    461    331.
 Iteration    1 A^-1*A deviation from unit magnitude is 4.22D-15 for   1169.
 Iteration    1 A^-1*A deviation from orthogonality  is 1.57D-15 for   1164    999.
 Error on total polarization charges =  0.05145
 SCF Done:  E(RM062X) =  -691.239425237     A.U. after   17 cycles
            NFock= 17  Conv=0.65D-08     -V/T= 2.0025
 SMD-CDS (non-electrostatic) energy       (kcal/mol) =      -2.22
 (included in total energy above)
 DoSCS=F DFT=T ScalE2(SS,OS)=  1.000000  1.000000
 Range of M.O.s used for correlation:     1   186
 NBasis=   186 NAE=    29 NBE=    29 NFC=     0 NFV=     0
 NROrb=    186 NOA=    29 NOB=    29 NVA=   157 NVB=   157

 **** Warning!!: The largest alpha MO coefficient is  0.16127802D+03

 Symmetrizing basis deriv contribution to polar:
 IMax=3 JMax=2 DiffMx= 0.00D+00
 G2DrvN: will do    12 centers at a time, making    1 passes.
 Calling FoFCou, ICntrl=  3107 FMM=F I1Cent=   0 AccDes= 0.00D+00.
 NEqPCM:  Using equilibrium solvation (IEInf=0, Eps=   7.4257, EpsInf=   1.9740)
 G2PCM: DoFxE=T DoFxN=T DoGrad=T DoDP/DQ/DG/TGxP=FFFF NFrqRd=   0 IEInf=0 SqF1=F DoCFld=F IF1Alg=4.
 End of G2Drv F.D. properties file   721 does not exist.
 End of G2Drv F.D. properties file   722 does not exist.
 End of G2Drv F.D. properties file   788 does not exist.
          IDoAtm=11111111111
 NEqPCM:  Using equilibrium solvation (IEInf=0, Eps=   7.4257, EpsInf=   1.9740)
          Differentiating once with respect to nuclear coordinates.
 Keep R1 ints in memory in canonical form, NReq=183859871.
          There are    36 degrees of freedom in the 1st order CPHF.  IDoFFX=6 NUNeed=     0.
     30 vectors produced by pass  0 Test12= 1.26D-14 2.78D-09 XBig12= 1.39D-01 1.36D-01.
 AX will form    30 AO Fock derivatives at one time.
     30 vectors produced by pass  1 Test12= 1.26D-14 2.78D-09 XBig12= 9.36D-03 3.33D-02.
     30 vectors produced by pass  2 Test12= 1.26D-14 2.78D-09 XBig12= 3.47D-04 5.75D-03.
     30 vectors produced by pass  3 Test12= 1.26D-14 2.78D-09 XBig12= 3.13D-06 4.66D-04.
     30 vectors produced by pass  4 Test12= 1.26D-14 2.78D-09 XBig12= 2.84D-08 2.73D-05.
     30 vectors produced by pass  5 Test12= 1.26D-14 2.78D-09 XBig12= 1.78D-10 2.44D-06.
     30 vectors produced by pass  6 Test12= 1.26D-14 2.78D-09 XBig12= 8.41D-13 1.73D-07.
     13 vectors produced by pass  7 Test12= 1.26D-14 2.78D-09 XBig12= 3.60D-15 7.71D-09.
 InvSVY:  IOpt=1 It=  1 EMax= 1.11D-15
 Solved reduced A of dimension   223 with    30 vectors.
 End of Minotr F.D. properties file   721 does not exist.
 End of Minotr F.D. properties file   722 does not exist.
 End of Minotr F.D. properties file   788 does not exist.

 **********************************************************************

            Population analysis using the SCF Density.

 **********************************************************************

 Alpha  occ. eigenvalues -- -102.64704 -10.56718 -10.51291 -10.51099 -10.49937
 Alpha  occ. eigenvalues --  -10.49233 -10.44292  -9.79023  -7.51492  -7.50893
 Alpha  occ. eigenvalues --   -7.50882  -0.95990  -0.89419  -0.79789  -0.77945
 Alpha  occ. eigenvalues --   -0.64711  -0.61689  -0.55085  -0.48528  -0.47995
 Alpha  occ. eigenvalues --   -0.45760  -0.43344  -0.41628  -0.37575  -0.36645
 Alpha  occ. eigenvalues --   -0.35535  -0.27016  -0.25861  -0.17417
 Alpha virt. eigenvalues --    0.03601   0.04488   0.04596   0.06027   0.06078
 Alpha virt. eigenvalues --    0.06666   0.08098   0.08374   0.08769   0.10805
 Alpha virt. eigenvalues --    0.10856   0.11320   0.11853   0.12833   0.14719
 Alpha virt. eigenvalues --    0.16052   0.16562   0.16859   0.16956   0.17666
 Alpha virt. eigenvalues --    0.17854   0.18186   0.20952   0.21134   0.22560
 Alpha virt. eigenvalues --    0.23404   0.23669   0.24367   0.25414   0.26703
 Alpha virt. eigenvalues --    0.26755   0.27340   0.27624   0.27994   0.29391
 Alpha virt. eigenvalues --    0.30540   0.37429   0.38148   0.39582   0.42555
 Alpha virt. eigenvalues --    0.48868   0.50374   0.51089   0.52828   0.54850
 Alpha virt. eigenvalues --    0.59608   0.59706   0.60914   0.62180   0.63520
 Alpha virt. eigenvalues --    0.64439   0.65668   0.67995   0.68855   0.69107
 Alpha virt. eigenvalues --    0.70457   0.74679   0.75303   0.76018   0.78786
 Alpha virt. eigenvalues --    0.80679   0.82356   0.84205   0.88450   0.89378
 Alpha virt. eigenvalues --    0.90954   0.91179   0.91226   0.94242   0.95146
 Alpha virt. eigenvalues --    0.96026   0.99429   1.01441   1.02446   1.04038
 Alpha virt. eigenvalues --    1.09707   1.10384   1.10993   1.19219   1.20960
 Alpha virt. eigenvalues --    1.22797   1.25497   1.29070   1.31650   1.42036
 Alpha virt. eigenvalues --    1.45211   1.57458   1.57963   1.62001   1.63008
 Alpha virt. eigenvalues --    1.64961   1.69266   1.71167   1.73612   1.76506
 Alpha virt. eigenvalues --    1.77620   1.82694   1.85266   1.93590   1.96252
 Alpha virt. eigenvalues --    1.98906   2.01623   2.02347   2.04357   2.06138
 Alpha virt. eigenvalues --    2.07556   2.09547   2.11610   2.11725   2.29245
 Alpha virt. eigenvalues --    2.32512   2.36044   2.42494   2.43120   2.46782
 Alpha virt. eigenvalues --    2.47705   2.57245   2.58880   2.61614   2.64718
 Alpha virt. eigenvalues --    2.73283   2.75995   2.77182   2.79336   2.79643
 Alpha virt. eigenvalues --    2.81414   2.86738   2.89099   2.89288   2.92879
 Alpha virt. eigenvalues --    2.99350   2.99947   3.15563   3.18643   3.25382
 Alpha virt. eigenvalues --    3.30434   3.43891   3.49551   3.58638   3.70507
 Alpha virt. eigenvalues --    3.77981   3.87847   4.09287   4.19000   4.22710
 Alpha virt. eigenvalues --    4.88176   9.99283  23.62786  24.02179  24.07929
 Alpha virt. eigenvalues --   24.20184  24.23121  24.34226  25.96059  26.24036
 Alpha virt. eigenvalues --   26.70568 216.09302
          Condensed to atoms (all electrons):
               1          2          3          4          5          6
     1  C    9.302697  -0.889279  -0.164807   0.942261  -0.036891  -1.368559
     2  C   -0.889279   6.644709   0.527660  -0.394040   0.055131  -0.003904
     3  H   -0.164807   0.527660   0.535687  -0.113603  -0.000428   0.011170
     4  C    0.942261  -0.394040  -0.113603   6.994787   0.303654   1.400315
     5  H   -0.036891   0.055131  -0.000428   0.303654   0.507351   0.001996
     6  C   -1.368559  -0.003904   0.011170   1.400315   0.001996  11.237283
     7  C    0.285797  -1.513122  -0.005589  -0.418338  -0.002087  -1.371219
     8  C   -0.749776   1.485805   0.049116  -2.204720   0.010877  -3.873988
     9  H   -0.145314   0.039098   0.000420  -0.028078   0.000148   0.030759
    10  H    0.013940  -0.025219  -0.000145   0.003434  -0.006359   0.258915
    11  Cl  -0.040738   0.112177   0.002150  -0.017675   0.003655   0.173467
               7          8          9         10         11
     1  C    0.285797  -0.749776  -0.145314   0.013940  -0.040738
     2  C   -1.513122   1.485805   0.039098  -0.025219   0.112177
     3  H   -0.005589   0.049116   0.000420  -0.000145   0.002150
     4  C   -0.418338  -2.204720  -0.028078   0.003434  -0.017675
     5  H   -0.002087   0.010877   0.000148  -0.006359   0.003655
     6  C   -1.371219  -3.873988   0.030759   0.258915   0.173467
     7  C   11.864385  -2.014033  -0.131585   0.084565  -1.293650
     8  C   -2.014033  12.499261   0.509030   0.018294   0.458833
     9  H   -0.131585   0.509030   0.521614  -0.000258   0.030285
    10  H    0.084565   0.018294  -0.000258   0.470079  -0.006758
    11  Cl  -1.293650   0.458833   0.030285  -0.006758  17.436569
 Mulliken charges:
               1
     1  C   -1.149331
     2  C   -0.039018
     3  H    0.158370
     4  C   -0.467997
     5  H    0.162954
     6  C   -0.496234
     7  C    0.514876
     8  C   -0.188699
     9  H    0.173881
    10  H    0.189512
    11  Cl   0.141686
 Sum of Mulliken charges =  -1.00000
 Mulliken charges with hydrogens summed into heavy atoms:
               1
     1  C   -1.149331
     2  C    0.119353
     4  C   -0.305044
     6  C   -0.306722
     7  C    0.514876
     8  C   -0.014818
    11  Cl   0.141686
 APT charges:
               1
     1  C   -2.893014
     2  C    0.635392
     3  H    0.117807
     4  C   -1.207108
     5  H   -0.710762
     6  C    0.661365
     7  C    2.191963
     8  C   -0.927708
     9  H    1.813243
    10  H   -0.110698
    11  Cl  -0.570479
 Sum of APT charges =  -1.00000
 APT charges with hydrogens summed into heavy atoms:
               1
     1  C   -2.893014
     2  C    0.753199
     4  C   -1.917870
     6  C    0.550667
     7  C    2.191963
     8  C    0.885534
    11  Cl  -0.570479
 Electronic spatial extent (au):  <R**2>=          23245.7760
 Charge=             -1.0000 electrons
 Dipole moment (field-independent basis, Debye):
    X=            -29.8808    Y=            -36.1065    Z=            -23.4804  Tot=             52.4202
 Quadrupole moment (field-independent basis, Debye-Ang):
   XX=           -240.6052   YY=           -330.5846   ZZ=           -173.3356
   XY=           -218.0324   XZ=           -149.3801   YZ=           -172.7202
 Traceless Quadrupole moment (field-independent basis, Debye-Ang):
   XX=              7.5699   YY=            -82.4095   ZZ=             74.8396
   XY=           -218.0324   XZ=           -149.3801   YZ=           -172.7202
 Octapole moment (field-independent basis, Debye-Ang**2):
  XXX=          -1991.5776  YYY=          -3470.1045  ZZZ=          -1316.3971  XYY=          -1885.6321
  XXY=          -1758.5898  XXZ=          -1186.7189  XZZ=          -1040.5338  YZZ=          -1298.3736
  YYZ=          -1515.0073  XYZ=          -1070.4933
 Hexadecapole moment (field-independent basis, Debye-Ang**3):
 XXXX=         -16060.9151 YYYY=         -39091.8536 ZZZZ=          -9547.7481 XXXY=         -14669.6047
 XXXZ=          -9702.7793 YYYX=         -18709.1066 YYYZ=         -15089.8181 ZZZX=          -7577.0260
 ZZZY=          -9858.2709 XXYY=         -14522.3023 XXZZ=          -7464.4856 YYZZ=         -10923.2679
 XXYZ=          -8489.4375 YYXZ=          -8899.8311 ZZXY=          -7623.1781
 N-N= 3.051262115168D+02 E-N=-2.251083918745D+03  KE= 6.895132611180D+02
  Exact polarizability:       0.000       0.000       0.000       0.000       0.000       0.000
 Approx polarizability:     122.505       2.162     129.902      12.920     -30.408      92.346
 D2PCM: PCM CHGder 2nd derivatives, FixD1E=F FixD2E=F DoIter=F DoCFld=F I1PDM=0
 Calling FoFJK, ICntrl=    100127 FMM=F ISym2X=0 I1Cent= 0 IOpClX= 0 NMat=1 NMatS=1 NMatT=0.
 -------------------------------------------------------------------
 Center     Atomic                   Forces (Hartrees/Bohr)
 Number     Number              X              Y              Z
 -------------------------------------------------------------------
      1        6           0.070506355   -0.020438810    0.031067932
      2        6          -0.025296276    0.018517386   -0.017355773
      3        1          -0.001781829   -0.002395388    0.000806190
      4        6          -0.005156333   -0.011224421    0.004653333
      5        1          -0.005377702    0.000218428   -0.001585654
      6        6          -0.003607394    0.002743722   -0.002588038
      7        6           0.006222878   -0.003100189    0.003533832
      8        6          -0.031004368    0.000626599   -0.009120221
      9        1           0.000365474    0.003198865   -0.001650300
     10        1          -0.000577643    0.000399452   -0.000405458
     11       17          -0.004293161    0.011454356   -0.007355843
 -------------------------------------------------------------------
 Cartesian Forces:  Max     0.070506355 RMS     0.016700383
 FormGI is forming the generalized inverse of G from B-inverse, IUseBI=4.

 GradGradGradGradGradGradGradGradGradGradGradGradGradGradGradGradGradGrad
 Berny optimization.
 Internal  Forces:  Max     0.047832841 RMS     0.011176871
 Search for a local minimum.
 Step number   1 out of a maximum of   57
 All quantities printed in internal units (Hartrees-Bohrs-Radians)
 Mixed Optimization -- RFO/linear search
 Second derivative matrix not updated -- analytic derivatives used.
 ITU=  0
     Eigenvalues ---    0.00869   0.01743   0.02284   0.02622   0.02870
     Eigenvalues ---    0.03344   0.03579   0.03838   0.10628   0.11246
     Eigenvalues ---    0.11821   0.12041   0.14640   0.17134   0.19809
     Eigenvalues ---    0.20300   0.27078   0.28687   0.35469   0.35529
     Eigenvalues ---    0.36151   0.36696   0.42672   0.43249   0.46283
     Eigenvalues ---    0.50772   0.53301
 RFO step:  Lambda=-2.40576858D-02 EMin= 8.69292379D-03
 Linear search not attempted -- first point.
 Maximum step size (   0.300) exceeded in Quadratic search.
    -- Step size scaled by   0.915
 Iteration  1 RMS(Cart)=  0.04492443 RMS(Int)=  0.00285961
 Iteration  2 RMS(Cart)=  0.00414832 RMS(Int)=  0.00092598
 Iteration  3 RMS(Cart)=  0.00000371 RMS(Int)=  0.00092598
 Iteration  4 RMS(Cart)=  0.00000000 RMS(Int)=  0.00092598
 Variable       Old X    -DE/DX   Delta X   Delta X   Delta X     New X
                                 (Linear)    (Quad)   (Total)
    R1        2.59407   0.02724   0.00000   0.06132   0.06254   2.65661
    R2        2.59384   0.02447   0.00000   0.06027   0.06147   2.65531
    R3        2.04774   0.00231   0.00000   0.00849   0.00849   2.05623
    R4        2.64202   0.00664   0.00000  -0.00342  -0.00339   2.63863
    R5        2.04872   0.00403   0.00000   0.00421   0.00421   2.05293
    R6        2.63144  -0.00158   0.00000  -0.00027  -0.00149   2.62995
    R7        2.62721  -0.00211   0.00000  -0.00827  -0.00950   2.61771
    R8        2.04598   0.00078   0.00000   0.00121   0.00121   2.04718
    R9        2.63614   0.00570   0.00000  -0.00595  -0.00598   2.63016
   R10        3.30784   0.01392   0.00000   0.03630   0.03630   3.34413
   R11        2.04790   0.00236   0.00000   0.00680   0.00680   2.05470
    A1        2.20541  -0.04783   0.00000  -0.19944  -0.19583   2.00959
    A2        2.13676  -0.01091   0.00000  -0.05002  -0.05055   2.08621
    A3        2.03110   0.02600   0.00000   0.11835   0.11942   2.15052
    A4        2.11532  -0.01509   0.00000  -0.06833  -0.06887   2.04645
    A5        2.09265   0.00447   0.00000   0.00982   0.01054   2.10319
    A6        2.10529  -0.00098   0.00000  -0.00271  -0.00416   2.10112
    A7        2.08525  -0.00349   0.00000  -0.00710  -0.00638   2.07888
    A8        2.08425  -0.00336   0.00000  -0.03493  -0.03770   2.04655
    A9        2.10512   0.00190   0.00000   0.01846   0.01984   2.12496
   A10        2.09381   0.00146   0.00000   0.01647   0.01786   2.11167
   A11        2.12744   0.00344   0.00000   0.01074   0.00925   2.13669
   A12        2.07933  -0.00701   0.00000  -0.01455  -0.01381   2.06552
   A13        2.07642   0.00357   0.00000   0.00381   0.00456   2.08097
   A14        2.01287   0.02273   0.00000   0.10800   0.10903   2.12190
   A15        2.15061  -0.00854   0.00000  -0.04263  -0.04314   2.10746
   A16        2.11971  -0.01419   0.00000  -0.06537  -0.06588   2.05382
    D1        3.14078   0.00001   0.00000   0.00015   0.00017   3.14095
    D2       -0.00083  -0.00007   0.00000  -0.00052  -0.00052  -0.00134
    D3        0.00023   0.00005   0.00000   0.00028   0.00027   0.00049
    D4       -3.14123   0.00004   0.00000   0.00089   0.00088  -3.14035
    D5       -3.14139   0.00007   0.00000   0.00072   0.00074  -3.14065
    D6        0.00050   0.00007   0.00000   0.00064   0.00067   0.00117
    D7        0.00019  -0.00002   0.00000   0.00006   0.00007   0.00026
    D8       -3.14111  -0.00002   0.00000  -0.00002  -0.00001  -3.14111
    D9        0.00036  -0.00003   0.00000  -0.00045  -0.00042  -0.00007
   D10       -3.14147  -0.00001   0.00000  -0.00050  -0.00049   3.14122
   D11       -3.14094  -0.00003   0.00000  -0.00053  -0.00050  -3.14144
   D12        0.00042  -0.00001   0.00000  -0.00058  -0.00057  -0.00015
   D13       -0.00100   0.00002   0.00000   0.00024   0.00024  -0.00077
   D14        3.13990   0.00001   0.00000  -0.00039  -0.00040   3.13951
   D15        3.14082   0.00000   0.00000   0.00029   0.00030   3.14113
   D16       -0.00146   0.00000   0.00000  -0.00034  -0.00033  -0.00179
   D17        0.00072  -0.00003   0.00000  -0.00014  -0.00017   0.00055
   D18       -3.14101  -0.00002   0.00000  -0.00074  -0.00076   3.14142
   D19       -3.14019  -0.00002   0.00000   0.00049   0.00048  -3.13971
   D20        0.00126  -0.00001   0.00000  -0.00011  -0.00011   0.00116
         Item               Value     Threshold  Converged?
 Maximum Force            0.047833     0.000015     NO 
 RMS     Force            0.011177     0.000010     NO 
 Maximum Displacement     0.219331     0.000060     NO 
 RMS     Displacement     0.045242     0.000040     NO 
 Predicted change in Energy=-1.302038D-02
 GradGradGradGradGradGradGradGradGradGradGradGradGradGradGradGradGradGrad

                          Input orientation:                          
 ---------------------------------------------------------------------
 Center     Atomic      Atomic             Coordinates (Angstroms)
 Number     Number       Type             X           Y           Z
 ---------------------------------------------------------------------
      1          6           0        6.276662    6.981794    5.193296
      2          6           0        5.122105    6.186376    5.296367
      3          1           0        5.171540    5.234804    5.821772
      4          6           0        3.889251    6.553669    4.753386
      5          1           0        3.024444    5.904893    4.860063
      6          6           0        3.752510    7.756908    4.067547
      7          6           0        4.879581    8.554237    3.954239
      8          6           0        6.108907    8.189968    4.495750
      9          1           0        6.942917    8.874398    4.360811
     10          1           0        2.806781    8.063537    3.637239
     11         17           0        4.738935   10.089232    3.084967
 ---------------------------------------------------------------------
                    Distance matrix (angstroms):
                    1          2          3          4          5
     1  C    0.000000
     2  C    1.405816   0.000000
     3  H    2.160614   1.088111   0.000000
     4  C    2.465064   1.396302   2.127233   0.000000
     5  H    3.442046   2.160966   2.446207   1.086362   0.000000
     6  C    2.870446   2.419165   3.384075   1.391710   2.141990
     7  C    2.441244   2.732561   3.819890   2.371004   3.358731
     8  C    1.405132   2.372582   3.371941   2.769607   3.855931
     9  H    2.172297   3.378770   4.303352   3.855486   4.941826
    10  H    3.953676   3.411328   4.285557   2.167309   2.490465
    11  Cl   4.057810   4.502154   5.589519   4.000724   4.857894
                    6          7          8          9         10
     6  C    0.000000
     7  C    1.385230   0.000000
     8  C    2.433825   1.391821   0.000000
     9  H    3.393153   2.127242   1.087303   0.000000
    10  H    1.083323   2.153549   3.414243   4.276526   0.000000
    11  Cl   2.716290   1.769640   2.733923   2.821549   2.853360
                   11
    11  Cl   0.000000
 Symmetry turned off by external request.
 Stoichiometry    C6H4Cl(1-)
 Framework group  C1[X(C6H4Cl)]
 Deg. of freedom    27
 Full point group                 C1      NOp   1
 Rotational constants (GHZ):           5.8895063           1.5940911           1.2545322
 Standard basis: 6-311+G(d,p) (5D, 7F)
   186 basis functions,   301 primitive gaussians,   193 cartesian basis functions
    29 alpha electrons       29 beta electrons
       nuclear repulsion energy       303.5352376590 Hartrees.
 NAtoms=   11 NActive=   11 NUniq=   11 SFac= 1.00D+00 NAtFMM=   60 NAOKFM=F Big=F
 Integral buffers will be    131072 words long.
 Raffenetti 2 integral format.
 Two-electron integral symmetry is turned off.
 ------------------------------------------------------------------------------
 Polarizable Continuum Model (PCM)
 =================================
 Model                : PCM.
 Atomic radii         : SMD-Coulomb.
 Polarization charges : Total charges.
 Charge compensation  : None.
 Solution method      : Matrix inversion.
 Cavity type          : VdW (van der Waals Surface) (Alpha=1.000).
 Cavity algorithm     : GePol (No added spheres)
                        Default sphere list used, NSphG=   11.
                        Lebedev-Laikov grids with approx.  5.0 points / Ang**2.
                        Smoothing algorithm: York/Karplus (Gamma=1.0000).
                        Polarization charges: spherical gaussians, with
                                              point-specific exponents (IZeta= 3).
                        Self-potential: point-specific (ISelfS= 7).
                        Self-field    : sphere-specific E.n sum rule (ISelfD= 2).
 1st derivatives      : Analytical E(r).r(x)/FMM algorithm (CHGder, D1EAlg=3).
                        Cavity 1st derivative terms included.
 Solvent              : TetraHydroFuran, Eps=   7.425700 Eps(inf)=   1.974025
 ------------------------------------------------------------------------------
 Spheres list:
 ISph  on   Nord     Re0    Alpha      Xe            Ye            Ze
    1   C      1    1.8500  1.000      6.276662      6.981794      5.193296
    2   C      2    1.8500  1.000      5.122105      6.186376      5.296367
    3   H      3    1.2000  1.000      5.171540      5.234804      5.821772
    4   C      4    1.8500  1.000      3.889251      6.553669      4.753386
    5   H      5    1.2000  1.000      3.024444      5.904893      4.860063
    6   C      6    1.8500  1.000      3.752510      7.756908      4.067547
    7   C      7    1.8500  1.000      4.879581      8.554237      3.954239
    8   C      8    1.8500  1.000      6.108907      8.189968      4.495750
    9   H      9    1.2000  1.000      6.942917      8.874398      4.360811
   10   H     10    1.2000  1.000      2.806781      8.063537      3.637239
   11  Cl     11    2.3800  1.000      4.738935     10.089232      3.084967
 ------------------------------------------------------------------------------
 ------------------------------------------------------------------------------
 Atomic radii for non-electrostatic terms: SMD-CDS.
 ------------------------------------------------------------------------------
 Nuclear repulsion after PCM non-electrostatic terms =      303.5317925161 Hartrees.
 One-electron integrals computed using PRISM.
 NBasis=   186 RedAO= T EigKep=  3.79D-06  NBF=   186
 NBsUse=   186 1.00D-06 EigRej= -1.00D+00 NBFU=   186
 Initial guess from the checkpoint file:  "3-cl-ph-anion-opt-freq-thf.chk"
 B after Tr=     0.028325   -0.016803    0.016550
         Rot=    1.000000    0.000148   -0.000212   -0.000461 Ang=   0.06 deg.
 ExpMin= 4.38D-02 ExpMax= 1.06D+05 ExpMxC= 3.62D+03 IAcc=3 IRadAn=         5 AccDes= 0.00D+00
 Harris functional with IExCor= 1009 and IRadAn=       5 diagonalized for initial guess.
 HarFok:  IExCor= 1009 AccDes= 0.00D+00 IRadAn=         5 IDoV= 1 UseB2=F ITyADJ=14
 ICtDFT=  3500011 ScaDFX=  1.000000  1.000000  1.000000  1.000000
 FoFCou: FMM=F IPFlag=           0 FMFlag=      100000 FMFlg1=           0
         NFxFlg=           0 DoJE=T BraDBF=F KetDBF=T FulRan=T
         wScrn=  0.000000 ICntrl=       500 IOpCl=  0 I1Cent=   200000004 NGrid=           0
         NMat0=    1 NMatS0=      1 NMatT0=    0 NMatD0=    1 NMtDS0=    0 NMtDT0=    0
 Symmetry not used in FoFCou.
 Keep R1 ints in memory in canonical form, NReq=183961021.
 Requested convergence on RMS density matrix=1.00D-08 within 128 cycles.
 Requested convergence on MAX density matrix=1.00D-06.
 Requested convergence on             energy=1.00D-06.
 Level shift goal  0.100 maximum shift  0.100.
 No special actions if energy rises.
 Dynamic level shift is on during FON iterations.
 Inv3:  Mode=1 IEnd=     4085667.
 Iteration    1 A*A^-1 deviation from unit magnitude is 4.66D-15 for   1157.
 Iteration    1 A*A^-1 deviation from orthogonality  is 1.71D-15 for   1158    993.
 Iteration    1 A^-1*A deviation from unit magnitude is 4.66D-15 for   1157.
 Iteration    1 A^-1*A deviation from orthogonality  is 1.53D-15 for   1153    870.
 Error on total polarization charges =  0.04841
 SCF Done:  E(RM062X) =  -691.252307253     A.U. after   14 cycles
            NFock= 14  Conv=0.73D-08     -V/T= 2.0027
 SMD-CDS (non-electrostatic) energy       (kcal/mol) =      -2.16
 (included in total energy above)
 D1PCM: PCM CHGder 1st derivatives, ID1Alg=3 FixD1E=F DoIter=F DoCFld=F I1PDM=0.
 Calling FoFJK, ICntrl=      2127 FMM=F ISym2X=0 I1Cent= 0 IOpClX= 0 NMat=1 NMatS=1 NMatT=0.
 -------------------------------------------------------------------
 Center     Atomic                   Forces (Hartrees/Bohr)
 Number     Number              X              Y              Z
 -------------------------------------------------------------------
      1        6           0.012142871   -0.003595991    0.005191828
      2        6          -0.003949611    0.003057149   -0.002734601
      3        1          -0.000659045   -0.001140133    0.000393091
      4        6          -0.001523707   -0.003421557    0.001413763
      5        1          -0.001014193   -0.000079768   -0.000231603
      6        6          -0.002096257    0.000975164   -0.001133428
      7        6           0.002114190   -0.000129370    0.000690792
      8        6          -0.004355993    0.000141072   -0.001179584
      9        1           0.000277416    0.001279386   -0.000616894
     10        1          -0.000062227    0.000037632   -0.000045432
     11       17          -0.000873444    0.002876419   -0.001747930
 -------------------------------------------------------------------
 Cartesian Forces:  Max     0.012142871 RMS     0.002938446

 GradGradGradGradGradGradGradGradGradGradGradGradGradGradGradGradGradGrad
 Berny optimization.
 Using GEDIIS/GDIIS optimizer.
 FormGI is forming the generalized inverse of G from B-inverse, IUseBI=4.
 Internal  Forces:  Max     0.006853535 RMS     0.002022298
 Search for a local minimum.
 Step number   2 out of a maximum of   57
 All quantities printed in internal units (Hartrees-Bohrs-Radians)
 Mixed Optimization -- RFO/linear search
 Update second derivatives using D2CorX and points    1    2
 DE= -1.29D-02 DEPred=-1.30D-02 R= 9.89D-01
 TightC=F SS=  1.41D+00  RLast= 3.00D-01 DXNew= 5.0454D-01 8.9943D-01
 Trust test= 9.89D-01 RLast= 3.00D-01 DXMaxT set to 5.05D-01
 ITU=  1  0
 Use linear search instead of GDIIS.
     Eigenvalues ---    0.00869   0.01743   0.02283   0.02619   0.02865
     Eigenvalues ---    0.03340   0.03564   0.03834   0.10630   0.11237
     Eigenvalues ---    0.11821   0.12050   0.14774   0.17655   0.19918
     Eigenvalues ---    0.20390   0.26973   0.28660   0.35500   0.35532
     Eigenvalues ---    0.36134   0.36696   0.42645   0.43175   0.46271
     Eigenvalues ---    0.50736   0.52295
 RFO step:  Lambda=-6.65641891D-05 EMin= 8.68615936D-03
 Quartic linear search produced a step of  0.18746.
 Iteration  1 RMS(Cart)=  0.00864855 RMS(Int)=  0.00021466
 Iteration  2 RMS(Cart)=  0.00013489 RMS(Int)=  0.00019601
 Iteration  3 RMS(Cart)=  0.00000001 RMS(Int)=  0.00019601
 Variable       Old X    -DE/DX   Delta X   Delta X   Delta X     New X
                                 (Linear)    (Quad)   (Total)
    R1        2.65661   0.00621   0.01172   0.00315   0.01513   2.67174
    R2        2.65531   0.00554   0.01152   0.00270   0.01447   2.66978
    R3        2.05623   0.00116   0.00159   0.00253   0.00413   2.06036
    R4        2.63863   0.00182  -0.00064   0.00215   0.00152   2.64015
    R5        2.05293   0.00083   0.00079   0.00052   0.00130   2.05423
    R6        2.62995   0.00151  -0.00028   0.00450   0.00397   2.63392
    R7        2.61771   0.00156  -0.00178   0.00442   0.00238   2.62009
    R8        2.04718   0.00008   0.00023  -0.00023  -0.00001   2.04718
    R9        2.63016   0.00171  -0.00112   0.00177   0.00064   2.63080
   R10        3.34413   0.00342   0.00680   0.00673   0.01353   3.35767
   R11        2.05470   0.00110   0.00127   0.00227   0.00354   2.05824
    A1        2.00959  -0.00685  -0.03671   0.00310  -0.03284   1.97675
    A2        2.08621  -0.00133  -0.00948   0.00363  -0.00596   2.08026
    A3        2.15052   0.00417   0.02239  -0.00021   0.02240   2.17292
    A4        2.04645  -0.00284  -0.01291  -0.00342  -0.01644   2.03001
    A5        2.10319   0.00092   0.00198   0.00135   0.00348   2.10666
    A6        2.10112  -0.00057  -0.00078  -0.00174  -0.00283   2.09829
    A7        2.07888  -0.00036  -0.00120   0.00040  -0.00065   2.07823
    A8        2.04655  -0.00055  -0.00707   0.00053  -0.00712   2.03943
    A9        2.12496   0.00029   0.00372  -0.00021   0.00381   2.12877
   A10        2.11167   0.00026   0.00335  -0.00033   0.00331   2.11498
   A11        2.13669   0.00047   0.00173   0.00160   0.00302   2.13971
   A12        2.06552  -0.00127  -0.00259  -0.00261  -0.00504   2.06048
   A13        2.08097   0.00080   0.00085   0.00101   0.00202   2.08299
   A14        2.12190   0.00333   0.02044  -0.00327   0.01737   2.13927
   A15        2.10746  -0.00068  -0.00809   0.00637  -0.00182   2.10564
   A16        2.05382  -0.00264  -0.01235  -0.00310  -0.01556   2.03827
    D1        3.14095   0.00003   0.00003   0.00113   0.00115  -3.14108
    D2       -0.00134   0.00004  -0.00010   0.00204   0.00194   0.00060
    D3        0.00049  -0.00005   0.00005  -0.00247  -0.00242  -0.00193
    D4       -3.14035  -0.00001   0.00016  -0.00129  -0.00110  -3.14145
    D5       -3.14065  -0.00001   0.00014  -0.00046  -0.00033  -3.14097
    D6        0.00117   0.00000   0.00012  -0.00022  -0.00010   0.00107
    D7        0.00026   0.00001   0.00001   0.00043   0.00044   0.00070
    D8       -3.14111   0.00001   0.00000   0.00068   0.00067  -3.14044
    D9       -0.00007  -0.00003  -0.00008  -0.00124  -0.00133  -0.00139
   D10        3.14122  -0.00002  -0.00009  -0.00120  -0.00128   3.13994
   D11       -3.14144  -0.00002  -0.00009  -0.00100  -0.00110   3.14064
   D12       -0.00015  -0.00001  -0.00011  -0.00095  -0.00106  -0.00121
   D13       -0.00077   0.00002   0.00004   0.00080   0.00085   0.00009
   D14        3.13951   0.00002  -0.00007   0.00064   0.00058   3.14009
   D15        3.14113   0.00001   0.00006   0.00075   0.00081  -3.14125
   D16       -0.00179   0.00001  -0.00006   0.00060   0.00054  -0.00125
   D17        0.00055   0.00002  -0.00003   0.00115   0.00113   0.00168
   D18        3.14142  -0.00002  -0.00014   0.00000  -0.00013   3.14128
   D19       -3.13971   0.00002   0.00009   0.00131   0.00141  -3.13830
   D20        0.00116  -0.00001  -0.00002   0.00016   0.00015   0.00130
         Item               Value     Threshold  Converged?
 Maximum Force            0.006854     0.000015     NO 
 RMS     Force            0.002022     0.000010     NO 
 Maximum Displacement     0.041954     0.000060     NO 
 RMS     Displacement     0.008648     0.000040     NO 
 Predicted change in Energy=-3.816172D-04
 GradGradGradGradGradGradGradGradGradGradGradGradGradGradGradGradGradGrad

                          Input orientation:                          
 ---------------------------------------------------------------------
 Center     Atomic      Atomic             Coordinates (Angstroms)
 Number     Number       Type             X           Y           Z
 ---------------------------------------------------------------------
      1          6           0        6.298863    6.974160    5.202073
      2          6           0        5.124906    6.191711    5.294237
      3          1           0        5.162412    5.236346    5.818271
      4          6           0        3.888397    6.553429    4.753757
      5          1           0        3.023832    5.903429    4.861964
      6          6           0        3.748620    7.757530    4.065780
      7          6           0        4.880182    8.551216    3.956275
      8          6           0        6.108717    8.184706    4.498941
      9          1           0        6.935159    8.879694    4.356498
     10          1           0        2.803830    8.065206    3.634171
     11         17           0        4.738715   10.092391    3.083470
 ---------------------------------------------------------------------
                    Distance matrix (angstroms):
                    1          2          3          4          5
     1  C    0.000000
     2  C    1.413823   0.000000
     3  H    2.165922   1.090294   0.000000
     4  C    2.487639   1.397109   2.119200   0.000000
     5  H    3.462365   2.164366   2.435785   1.087052   0.000000
     6  C    2.899753   2.419722   3.380296   1.393811   2.144042
     7  C    2.460036   2.723471   3.812485   2.368706   3.358137
     8  C    1.412789   2.360595   3.365851   2.766915   3.853898
     9  H    2.179663   3.373666   4.307365   3.853840   4.940863
    10  H    3.982958   3.413677   4.282014   2.171458   2.495828
    11  Cl   4.079939   4.500215   5.589260   4.004641   4.863257
                    6          7          8          9         10
     6  C    0.000000
     7  C    1.386492   0.000000
     8  C    2.437245   1.392162   0.000000
     9  H    3.390840   2.119199   1.089176   0.000000
    10  H    1.083319   2.156663   3.418243   4.272356   0.000000
    11  Cl   2.719705   1.776801   2.742211   2.813467   2.855964
                   11
    11  Cl   0.000000
 Symmetry turned off by external request.
 Stoichiometry    C6H4Cl(1-)
 Framework group  C1[X(C6H4Cl)]
 Deg. of freedom    27
 Full point group                 C1      NOp   1
 Rotational constants (GHZ):           5.8361633           1.5904196           1.2498282
 Standard basis: 6-311+G(d,p) (5D, 7F)
   186 basis functions,   301 primitive gaussians,   193 cartesian basis functions
    29 alpha electrons       29 beta electrons
       nuclear repulsion energy       302.9024834334 Hartrees.
 NAtoms=   11 NActive=   11 NUniq=   11 SFac= 1.00D+00 NAtFMM=   60 NAOKFM=F Big=F
 Integral buffers will be    131072 words long.
 Raffenetti 2 integral format.
 Two-electron integral symmetry is turned off.
 ------------------------------------------------------------------------------
 Polarizable Continuum Model (PCM)
 =================================
 Model                : PCM.
 Atomic radii         : SMD-Coulomb.
 Polarization charges : Total charges.
 Charge compensation  : None.
 Solution method      : Matrix inversion.
 Cavity type          : VdW (van der Waals Surface) (Alpha=1.000).
 Cavity algorithm     : GePol (No added spheres)
                        Default sphere list used, NSphG=   11.
                        Lebedev-Laikov grids with approx.  5.0 points / Ang**2.
                        Smoothing algorithm: York/Karplus (Gamma=1.0000).
                        Polarization charges: spherical gaussians, with
                                              point-specific exponents (IZeta= 3).
                        Self-potential: point-specific (ISelfS= 7).
                        Self-field    : sphere-specific E.n sum rule (ISelfD= 2).
 1st derivatives      : Analytical E(r).r(x)/FMM algorithm (CHGder, D1EAlg=3).
                        Cavity 1st derivative terms included.
 Solvent              : TetraHydroFuran, Eps=   7.425700 Eps(inf)=   1.974025
 ------------------------------------------------------------------------------
 Spheres list:
 ISph  on   Nord     Re0    Alpha      Xe            Ye            Ze
    1   C      1    1.8500  1.000      6.298863      6.974160      5.202073
    2   C      2    1.8500  1.000      5.124906      6.191711      5.294237
    3   H      3    1.2000  1.000      5.162412      5.236346      5.818271
    4   C      4    1.8500  1.000      3.888397      6.553429      4.753757
    5   H      5    1.2000  1.000      3.023832      5.903429      4.861964
    6   C      6    1.8500  1.000      3.748620      7.757530      4.065780
    7   C      7    1.8500  1.000      4.880182      8.551216      3.956275
    8   C      8    1.8500  1.000      6.108717      8.184706      4.498941
    9   H      9    1.2000  1.000      6.935159      8.879694      4.356498
   10   H     10    1.2000  1.000      2.803830      8.065206      3.634171
   11  Cl     11    2.3800  1.000      4.738715     10.092391      3.083470
 ------------------------------------------------------------------------------
 ------------------------------------------------------------------------------
 Atomic radii for non-electrostatic terms: SMD-CDS.
 ------------------------------------------------------------------------------
 Nuclear repulsion after PCM non-electrostatic terms =      302.8990683192 Hartrees.
 One-electron integrals computed using PRISM.
 NBasis=   186 RedAO= T EigKep=  3.86D-06  NBF=   186
 NBsUse=   186 1.00D-06 EigRej= -1.00D+00 NBFU=   186
 Initial guess from the checkpoint file:  "3-cl-ph-anion-opt-freq-thf.chk"
 B after Tr=     0.004469   -0.002064    0.003593
         Rot=    1.000000   -0.000005   -0.000151   -0.000115 Ang=  -0.02 deg.
 ExpMin= 4.38D-02 ExpMax= 1.06D+05 ExpMxC= 3.62D+03 IAcc=3 IRadAn=         5 AccDes= 0.00D+00
 Harris functional with IExCor= 1009 and IRadAn=       5 diagonalized for initial guess.
 HarFok:  IExCor= 1009 AccDes= 0.00D+00 IRadAn=         5 IDoV= 1 UseB2=F ITyADJ=14
 ICtDFT=  3500011 ScaDFX=  1.000000  1.000000  1.000000  1.000000
 FoFCou: FMM=F IPFlag=           0 FMFlag=      100000 FMFlg1=           0
         NFxFlg=           0 DoJE=T BraDBF=F KetDBF=T FulRan=T
         wScrn=  0.000000 ICntrl=       500 IOpCl=  0 I1Cent=   200000004 NGrid=           0
         NMat0=    1 NMatS0=      1 NMatT0=    0 NMatD0=    1 NMtDS0=    0 NMtDT0=    0
 Symmetry not used in FoFCou.
 Keep R1 ints in memory in canonical form, NReq=183961021.
 Requested convergence on RMS density matrix=1.00D-08 within 128 cycles.
 Requested convergence on MAX density matrix=1.00D-06.
 Requested convergence on             energy=1.00D-06.
 Level shift goal  0.100 maximum shift  0.100.
 No special actions if energy rises.
 Dynamic level shift is on during FON iterations.
 Inv3:  Mode=1 IEnd=     4148928.
 Iteration    1 A*A^-1 deviation from unit magnitude is 4.44D-15 for   1170.
 Iteration    1 A*A^-1 deviation from orthogonality  is 1.45D-15 for    488    186.
 Iteration    1 A^-1*A deviation from unit magnitude is 4.22D-15 for   1170.
 Iteration    1 A^-1*A deviation from orthogonality  is 1.45D-15 for    686    338.
 Error on total polarization charges =  0.04784
 SCF Done:  E(RM062X) =  -691.252691880     A.U. after   13 cycles
            NFock= 13  Conv=0.52D-08     -V/T= 2.0028
 SMD-CDS (non-electrostatic) energy       (kcal/mol) =      -2.14
 (included in total energy above)
 D1PCM: PCM CHGder 1st derivatives, ID1Alg=3 FixD1E=F DoIter=F DoCFld=F I1PDM=0.
 Calling FoFJK, ICntrl=      2127 FMM=F ISym2X=0 I1Cent= 0 IOpClX= 0 NMat=1 NMatS=1 NMatT=0.
 -------------------------------------------------------------------
 Center     Atomic                   Forces (Hartrees/Bohr)
 Number     Number              X              Y              Z
 -------------------------------------------------------------------
      1        6           0.000742263   -0.000188465    0.000283700
      2        6          -0.000439964   -0.000343668    0.000056413
      3        1          -0.000021455   -0.000173913    0.000039803
      4        6          -0.000217219   -0.000248423    0.000061588
      5        1          -0.000074464   -0.000018706   -0.000021614
      6        6          -0.000196889    0.000131844   -0.000104568
      7        6           0.000077892   -0.000080015    0.000077693
      8        6           0.000121128    0.000424758   -0.000207441
      9        1           0.000079219    0.000125609   -0.000054098
     10        1           0.000000214    0.000013071    0.000019014
     11       17          -0.000070724    0.000357908   -0.000150491
 -------------------------------------------------------------------
 Cartesian Forces:  Max     0.000742263 RMS     0.000222801

 GradGradGradGradGradGradGradGradGradGradGradGradGradGradGradGradGradGrad
 Berny optimization.
 Using GEDIIS/GDIIS optimizer.
 FormGI is forming the generalized inverse of G from B-inverse, IUseBI=4.
 Internal  Forces:  Max     0.000823141 RMS     0.000196568
 Search for a local minimum.
 Step number   3 out of a maximum of   57
 All quantities printed in internal units (Hartrees-Bohrs-Radians)
 Mixed Optimization -- En-DIIS/RFO-DIIS
 Update second derivatives using D2CorX and points    1    2    3
 DE= -3.85D-04 DEPred=-3.82D-04 R= 1.01D+00
 TightC=F SS=  1.41D+00  RLast= 5.72D-02 DXNew= 8.4853D-01 1.7153D-01
 Trust test= 1.01D+00 RLast= 5.72D-02 DXMaxT set to 5.05D-01
 ITU=  1  1  0
 Use linear search instead of GDIIS.
     Eigenvalues ---    0.00868   0.01743   0.02283   0.02619   0.02863
     Eigenvalues ---    0.03339   0.03559   0.03833   0.10634   0.11253
     Eigenvalues ---    0.11824   0.12047   0.14747   0.17951   0.20030
     Eigenvalues ---    0.20827   0.26818   0.28628   0.35496   0.35537
     Eigenvalues ---    0.36122   0.36696   0.42591   0.42897   0.46266
     Eigenvalues ---    0.50416   0.50848
 RFO step:  Lambda=-3.01333630D-06 EMin= 8.68408328D-03
 Quartic linear search produced a step of  0.04618.
 Iteration  1 RMS(Cart)=  0.00083620 RMS(Int)=  0.00000134
 Iteration  2 RMS(Cart)=  0.00000033 RMS(Int)=  0.00000131
 Variable       Old X    -DE/DX   Delta X   Delta X   Delta X     New X
                                 (Linear)    (Quad)   (Total)
    R1        2.67174   0.00082   0.00070   0.00113   0.00183   2.67357
    R2        2.66978   0.00072   0.00067   0.00093   0.00160   2.67138
    R3        2.06036   0.00017   0.00019   0.00027   0.00046   2.06082
    R4        2.64015   0.00025   0.00007   0.00038   0.00045   2.64060
    R5        2.05423   0.00007   0.00006   0.00011   0.00017   2.05440
    R6        2.63392   0.00034   0.00018   0.00052   0.00070   2.63462
    R7        2.62009   0.00032   0.00011   0.00034   0.00045   2.62054
    R8        2.04718   0.00000   0.00000  -0.00003  -0.00003   2.04715
    R9        2.63080   0.00026   0.00003   0.00035   0.00038   2.63119
   R10        3.35767   0.00039   0.00062   0.00139   0.00201   3.35968
   R11        2.05824   0.00015   0.00016   0.00022   0.00038   2.05863
    A1        1.97675  -0.00007  -0.00152   0.00111  -0.00040   1.97635
    A2        2.08026   0.00004  -0.00028   0.00005  -0.00023   2.08003
    A3        2.17292  -0.00002   0.00103  -0.00070   0.00034   2.17325
    A4        2.03001  -0.00002  -0.00076   0.00065  -0.00011   2.02990
    A5        2.10666   0.00005   0.00016   0.00031   0.00047   2.10713
    A6        2.09829  -0.00003  -0.00013  -0.00018  -0.00032   2.09798
    A7        2.07823  -0.00001  -0.00003  -0.00013  -0.00015   2.07808
    A8        2.03943   0.00014  -0.00033   0.00054   0.00021   2.03964
    A9        2.12877  -0.00008   0.00018  -0.00032  -0.00015   2.12863
   A10        2.11498  -0.00007   0.00015  -0.00022  -0.00006   2.11492
   A11        2.13971   0.00005   0.00014   0.00035   0.00049   2.14020
   A12        2.06048  -0.00010  -0.00023  -0.00046  -0.00069   2.05979
   A13        2.08299   0.00004   0.00009   0.00011   0.00020   2.08320
   A14        2.13927  -0.00008   0.00080  -0.00112  -0.00032   2.13895
   A15        2.10564   0.00011  -0.00008   0.00062   0.00053   2.10618
   A16        2.03827  -0.00003  -0.00072   0.00051  -0.00021   2.03805
    D1       -3.14108   0.00000   0.00005   0.00011   0.00017  -3.14092
    D2        0.00060   0.00000   0.00009   0.00034   0.00042   0.00102
    D3       -0.00193   0.00000  -0.00011   0.00040   0.00029  -0.00163
    D4       -3.14145   0.00000  -0.00005   0.00035   0.00030  -3.14116
    D5       -3.14097  -0.00001  -0.00002  -0.00062  -0.00064   3.14157
    D6        0.00107  -0.00001   0.00000  -0.00072  -0.00072   0.00034
    D7        0.00070   0.00000   0.00002  -0.00041  -0.00039   0.00032
    D8       -3.14044   0.00000   0.00003  -0.00050  -0.00047  -3.14092
    D9       -0.00139   0.00000  -0.00006   0.00033   0.00027  -0.00112
   D10        3.13994   0.00000  -0.00006   0.00025   0.00020   3.14014
   D11        3.14064   0.00000  -0.00005   0.00023   0.00018   3.14082
   D12       -0.00121   0.00000  -0.00005   0.00016   0.00011  -0.00110
   D13        0.00009   0.00000   0.00004   0.00039   0.00043   0.00052
   D14        3.14009   0.00001   0.00003   0.00052   0.00055   3.14064
   D15       -3.14125   0.00001   0.00004   0.00047   0.00050  -3.14074
   D16       -0.00125   0.00001   0.00002   0.00060   0.00062  -0.00063
   D17        0.00168  -0.00001   0.00005  -0.00079  -0.00074   0.00094
   D18        3.14128   0.00000  -0.00001  -0.00074  -0.00074   3.14054
   D19       -3.13830  -0.00001   0.00007  -0.00092  -0.00086  -3.13916
   D20        0.00130  -0.00001   0.00001  -0.00087  -0.00086   0.00044
         Item               Value     Threshold  Converged?
 Maximum Force            0.000823     0.000015     NO 
 RMS     Force            0.000197     0.000010     NO 
 Maximum Displacement     0.002260     0.000060     NO 
 RMS     Displacement     0.000836     0.000040     NO 
 Predicted change in Energy=-2.253065D-06
 GradGradGradGradGradGradGradGradGradGradGradGradGradGradGradGradGradGrad

                          Input orientation:                          
 ---------------------------------------------------------------------
 Center     Atomic      Atomic             Coordinates (Angstroms)
 Number     Number       Type             X           Y           Z
 ---------------------------------------------------------------------
      1          6           0        6.299716    6.973836    5.202511
      2          6           0        5.124626    6.191343    5.294733
      3          1           0        5.161904    5.235929    5.819199
      4          6           0        3.888035    6.552929    4.753742
      5          1           0        3.023179    5.903077    4.861407
      6          6           0        3.748667    7.757463    4.065691
      7          6           0        4.880470    8.551254    3.956426
      8          6           0        6.109473    8.184957    4.498696
      9          1           0        6.935814    8.880219    4.355464
     10          1           0        2.804022    8.065224    3.633861
     11         17           0        4.737728   10.093587    3.083707
 ---------------------------------------------------------------------
                    Distance matrix (angstroms):
                    1          2          3          4          5
     1  C    0.000000
     2  C    1.414793   0.000000
     3  H    2.166851   1.090537   0.000000
     4  C    2.488928   1.397344   2.119535   0.000000
     5  H    3.463896   2.164935   2.436513   1.087140   0.000000
     6  C    2.900739   2.420028   3.380852   1.394181   2.144351
     7  C    2.460738   2.723941   3.813201   2.369376   3.358773
     8  C    1.413634   2.361799   3.367251   2.768276   3.855352
     9  H    2.180918   3.375305   4.309307   3.855368   4.942475
    10  H    3.983926   3.413960   4.282548   2.171694   2.495952
    11  Cl   4.081909   4.501759   5.591036   4.005903   4.864182
                    6          7          8          9         10
     6  C    0.000000
     7  C    1.386731   0.000000
     8  C    2.437960   1.392364   0.000000
     9  H    3.391527   2.119407   1.089378   0.000000
    10  H    1.083304   2.156829   3.418813   4.272778   0.000000
    11  Cl   2.720296   1.777866   2.743492   2.814465   2.855896
                   11
    11  Cl   0.000000
 Symmetry turned off by external request.
 Stoichiometry    C6H4Cl(1-)
 Framework group  C1[X(C6H4Cl)]
 Deg. of freedom    27
 Full point group                 C1      NOp   1
 Rotational constants (GHZ):           5.8317828           1.5893007           1.2489360
 Standard basis: 6-311+G(d,p) (5D, 7F)
   186 basis functions,   301 primitive gaussians,   193 cartesian basis functions
    29 alpha electrons       29 beta electrons
       nuclear repulsion energy       302.7965840077 Hartrees.
 NAtoms=   11 NActive=   11 NUniq=   11 SFac= 1.00D+00 NAtFMM=   60 NAOKFM=F Big=F
 Integral buffers will be    131072 words long.
 Raffenetti 2 integral format.
 Two-electron integral symmetry is turned off.
 ------------------------------------------------------------------------------
 Polarizable Continuum Model (PCM)
 =================================
 Model                : PCM.
 Atomic radii         : SMD-Coulomb.
 Polarization charges : Total charges.
 Charge compensation  : None.
 Solution method      : Matrix inversion.
 Cavity type          : VdW (van der Waals Surface) (Alpha=1.000).
 Cavity algorithm     : GePol (No added spheres)
                        Default sphere list used, NSphG=   11.
                        Lebedev-Laikov grids with approx.  5.0 points / Ang**2.
                        Smoothing algorithm: York/Karplus (Gamma=1.0000).
                        Polarization charges: spherical gaussians, with
                                              point-specific exponents (IZeta= 3).
                        Self-potential: point-specific (ISelfS= 7).
                        Self-field    : sphere-specific E.n sum rule (ISelfD= 2).
 1st derivatives      : Analytical E(r).r(x)/FMM algorithm (CHGder, D1EAlg=3).
                        Cavity 1st derivative terms included.
 Solvent              : TetraHydroFuran, Eps=   7.425700 Eps(inf)=   1.974025
 ------------------------------------------------------------------------------
 Spheres list:
 ISph  on   Nord     Re0    Alpha      Xe            Ye            Ze
    1   C      1    1.8500  1.000      6.299716      6.973836      5.202511
    2   C      2    1.8500  1.000      5.124626      6.191343      5.294733
    3   H      3    1.2000  1.000      5.161904      5.235929      5.819199
    4   C      4    1.8500  1.000      3.888035      6.552929      4.753742
    5   H      5    1.2000  1.000      3.023179      5.903077      4.861407
    6   C      6    1.8500  1.000      3.748667      7.757463      4.065691
    7   C      7    1.8500  1.000      4.880470      8.551254      3.956426
    8   C      8    1.8500  1.000      6.109473      8.184957      4.498696
    9   H      9    1.2000  1.000      6.935814      8.880219      4.355464
   10   H     10    1.2000  1.000      2.804022      8.065224      3.633861
   11  Cl     11    2.3800  1.000      4.737728     10.093587      3.083707
 ------------------------------------------------------------------------------
 ------------------------------------------------------------------------------
 Atomic radii for non-electrostatic terms: SMD-CDS.
 ------------------------------------------------------------------------------
 Nuclear repulsion after PCM non-electrostatic terms =      302.7931724229 Hartrees.
 One-electron integrals computed using PRISM.
 NBasis=   186 RedAO= T EigKep=  3.87D-06  NBF=   186
 NBsUse=   186 1.00D-06 EigRej= -1.00D+00 NBFU=   186
 Initial guess from the checkpoint file:  "3-cl-ph-anion-opt-freq-thf.chk"
 B after Tr=     0.001081    0.000510   -0.001453
         Rot=    1.000000   -0.000083   -0.000047   -0.000069 Ang=  -0.01 deg.
 Keep R1 ints in memory in canonical form, NReq=183961021.
 Requested convergence on RMS density matrix=1.00D-08 within 128 cycles.
 Requested convergence on MAX density matrix=1.00D-06.
 Requested convergence on             energy=1.00D-06.
 Level shift goal  0.100 maximum shift  0.100.
 No special actions if energy rises.
 Dynamic level shift is on during FON iterations.
 Inv3:  Mode=1 IEnd=     4141875.
 Iteration    1 A*A^-1 deviation from unit magnitude is 3.44D-15 for   1155.
 Iteration    1 A*A^-1 deviation from orthogonality  is 1.91D-15 for    488    186.
 Iteration    1 A^-1*A deviation from unit magnitude is 3.44D-15 for   1155.
 Iteration    1 A^-1*A deviation from orthogonality  is 1.83D-15 for    975    246.
 Error on total polarization charges =  0.04782
 SCF Done:  E(RM062X) =  -691.252694202     A.U. after   11 cycles
            NFock= 11  Conv=0.62D-08     -V/T= 2.0028
 SMD-CDS (non-electrostatic) energy       (kcal/mol) =      -2.14
 (included in total energy above)
 D1PCM: PCM CHGder 1st derivatives, ID1Alg=3 FixD1E=F DoIter=F DoCFld=F I1PDM=0.
 Calling FoFJK, ICntrl=      2127 FMM=F ISym2X=0 I1Cent= 0 IOpClX= 0 NMat=1 NMatS=1 NMatT=0.
 -------------------------------------------------------------------
 Center     Atomic                   Forces (Hartrees/Bohr)
 Number     Number              X              Y              Z
 -------------------------------------------------------------------
      1        6           0.000060108   -0.000020479    0.000002570
      2        6          -0.000082817   -0.000076571   -0.000007861
      3        1           0.000001397   -0.000016806   -0.000042699
      4        6           0.000014034    0.000024398   -0.000009340
      5        1           0.000000788    0.000006696   -0.000005470
      6        6           0.000016141    0.000009833    0.000016793
      7        6          -0.000013863   -0.000023679    0.000019159
      8        6          -0.000004891    0.000065435   -0.000044702
      9        1          -0.000000270   -0.000013390    0.000014761
     10        1          -0.000001949    0.000022040    0.000021749
     11       17           0.000011321    0.000022523    0.000035039
 -------------------------------------------------------------------
 Cartesian Forces:  Max     0.000082817 RMS     0.000030734

 GradGradGradGradGradGradGradGradGradGradGradGradGradGradGradGradGradGrad
 Berny optimization.
 Using GEDIIS/GDIIS optimizer.
 FormGI is forming the generalized inverse of G from B-inverse, IUseBI=4.
 Internal  Forces:  Max     0.000067935 RMS     0.000015246
 Search for a local minimum.
 Step number   4 out of a maximum of   57
 All quantities printed in internal units (Hartrees-Bohrs-Radians)
 Mixed Optimization -- En-DIIS/RFO-DIIS
 Swapping is turned off.
 Update second derivatives using D2CorX and points    1    2    3    4
 DE= -2.32D-06 DEPred=-2.25D-06 R= 1.03D+00
 TightC=F SS=  1.41D+00  RLast= 4.34D-03 DXNew= 8.4853D-01 1.3030D-02
 Trust test= 1.03D+00 RLast= 4.34D-03 DXMaxT set to 5.05D-01
 ITU=  1  1  1  0
     Eigenvalues ---    0.00880   0.01743   0.02283   0.02619   0.02863
     Eigenvalues ---    0.03338   0.03559   0.03831   0.10634   0.11261
     Eigenvalues ---    0.11818   0.12060   0.14715   0.17920   0.20006
     Eigenvalues ---    0.20877   0.26733   0.28610   0.35507   0.35578
     Eigenvalues ---    0.36127   0.36696   0.40877   0.42675   0.46299
     Eigenvalues ---    0.50103   0.50820
 En-DIIS/RFO-DIIS/Sim-DIIS IScMMF=       -3 using points:     4    3
 RFO step:  Lambda=-5.27465385D-08.
 DidBck=F Rises=F RFO-DIIS coefs:    0.84508    0.15492
 Iteration  1 RMS(Cart)=  0.00028886 RMS(Int)=  0.00000004
 Iteration  2 RMS(Cart)=  0.00000005 RMS(Int)=  0.00000001
 Variable       Old X    -DE/DX   Delta X   Delta X   Delta X     New X
                                 (Linear)    (Quad)   (Total)
    R1        2.67357   0.00007  -0.00028   0.00048   0.00019   2.67376
    R2        2.67138   0.00005  -0.00025   0.00040   0.00015   2.67153
    R3        2.06082  -0.00001  -0.00007   0.00005  -0.00003   2.06079
    R4        2.64060  -0.00002  -0.00007   0.00001  -0.00006   2.64054
    R5        2.05440  -0.00001  -0.00003   0.00002  -0.00001   2.05439
    R6        2.63462  -0.00001  -0.00011   0.00009  -0.00002   2.63460
    R7        2.62054  -0.00002  -0.00007   0.00001  -0.00006   2.62049
    R8        2.04715   0.00000   0.00000  -0.00001   0.00000   2.04714
    R9        2.63119  -0.00002  -0.00006   0.00002  -0.00004   2.63115
   R10        3.35968   0.00000  -0.00031   0.00037   0.00006   3.35974
   R11        2.05863  -0.00001  -0.00006   0.00003  -0.00003   2.05860
    A1        1.97635  -0.00001   0.00006  -0.00009  -0.00003   1.97631
    A2        2.08003   0.00001   0.00004  -0.00007  -0.00003   2.07999
    A3        2.17325  -0.00002  -0.00005  -0.00001  -0.00006   2.17320
    A4        2.02990   0.00001   0.00002   0.00007   0.00009   2.02999
    A5        2.10713  -0.00001  -0.00007   0.00002  -0.00006   2.10708
    A6        2.09798   0.00002   0.00005   0.00002   0.00006   2.09804
    A7        2.07808   0.00000   0.00002  -0.00003  -0.00001   2.07807
    A8        2.03964   0.00001  -0.00003   0.00004   0.00000   2.03964
    A9        2.12863  -0.00001   0.00002  -0.00003  -0.00001   2.12862
   A10        2.11492  -0.00001   0.00001   0.00000   0.00001   2.11493
   A11        2.14020   0.00001  -0.00008   0.00012   0.00004   2.14025
   A12        2.05979   0.00001   0.00011  -0.00007   0.00004   2.05982
   A13        2.08320  -0.00002  -0.00003  -0.00005  -0.00008   2.08312
   A14        2.13895  -0.00001   0.00005  -0.00007  -0.00002   2.13893
   A15        2.10618   0.00000  -0.00008   0.00003  -0.00006   2.10612
   A16        2.03805   0.00001   0.00003   0.00005   0.00008   2.03813
    D1       -3.14092   0.00000  -0.00003  -0.00025  -0.00027  -3.14119
    D2        0.00102   0.00000  -0.00007  -0.00018  -0.00025   0.00077
    D3       -0.00163   0.00000  -0.00005  -0.00017  -0.00021  -0.00184
    D4       -3.14116   0.00000  -0.00005  -0.00027  -0.00032  -3.14147
    D5        3.14157   0.00000   0.00010   0.00031   0.00041  -3.14120
    D6        0.00034   0.00000   0.00011   0.00036   0.00047   0.00081
    D7        0.00032   0.00000   0.00006   0.00037   0.00043   0.00075
    D8       -3.14092   0.00001   0.00007   0.00042   0.00049  -3.14042
    D9       -0.00112   0.00000  -0.00004  -0.00017  -0.00021  -0.00133
   D10        3.14014   0.00000  -0.00003  -0.00019  -0.00022   3.13992
   D11        3.14082   0.00000  -0.00003  -0.00012  -0.00015   3.14068
   D12       -0.00110   0.00000  -0.00002  -0.00014  -0.00015  -0.00125
   D13        0.00052   0.00000  -0.00007  -0.00017  -0.00024   0.00028
   D14        3.14064   0.00000  -0.00009  -0.00009  -0.00017   3.14047
   D15       -3.14074   0.00000  -0.00008  -0.00015  -0.00023  -3.14098
   D16       -0.00063   0.00000  -0.00010  -0.00007  -0.00017  -0.00079
   D17        0.00094   0.00000   0.00011   0.00035   0.00047   0.00141
   D18        3.14054   0.00001   0.00011   0.00046   0.00057   3.14111
   D19       -3.13916   0.00000   0.00013   0.00027   0.00040  -3.13876
   D20        0.00044   0.00000   0.00013   0.00037   0.00050   0.00095
         Item               Value     Threshold  Converged?
 Maximum Force            0.000068     0.000015     NO 
 RMS     Force            0.000015     0.000010     NO 
 Maximum Displacement     0.000855     0.000060     NO 
 RMS     Displacement     0.000289     0.000040     NO 
 Predicted change in Energy=-2.637330D-08
 GradGradGradGradGradGradGradGradGradGradGradGradGradGradGradGradGradGrad

                          Input orientation:                          
 ---------------------------------------------------------------------
 Center     Atomic      Atomic             Coordinates (Angstroms)
 Number     Number       Type             X           Y           Z
 ---------------------------------------------------------------------
      1          6           0        6.299760    6.973823    5.202506
      2          6           0        5.124613    6.191218    5.294622
      3          1           0        5.162013    5.235647    5.818765
      4          6           0        3.888011    6.553006    4.753870
      5          1           0        3.023095    5.903281    4.861755
      6          6           0        3.748665    7.757481    4.065730
      7          6           0        4.880475    8.551192    3.956332
      8          6           0        6.109432    8.185068    4.498770
      9          1           0        6.935682    8.880489    4.355903
     10          1           0        2.804009    8.065241    3.633929
     11         17           0        4.737879   10.093373    3.083254
 ---------------------------------------------------------------------
                    Distance matrix (angstroms):
                    1          2          3          4          5
     1  C    0.000000
     2  C    1.414894   0.000000
     3  H    2.166910   1.090523   0.000000
     4  C    2.488954   1.397315   2.119556   0.000000
     5  H    3.463915   2.164870   2.436509   1.087135   0.000000
     6  C    2.900769   2.420039   3.380877   1.394171   2.144334
     7  C    2.460774   2.723986   3.813235   2.369346   3.358733
     8  C    1.413712   2.361924   3.367354   2.768287   3.855359
     9  H    2.180942   3.375402   4.309378   3.855367   4.942469
    10  H    3.983955   3.413951   4.282557   2.171677   2.495922
    11  Cl   4.081947   4.501836   5.591101   4.005925   4.864199
                    6          7          8          9         10
     6  C    0.000000
     7  C    1.386701   0.000000
     8  C    2.437945   1.392344   0.000000
     9  H    3.391522   2.119426   1.089362   0.000000
    10  H    1.083302   2.156804   3.418791   4.272774   0.000000
    11  Cl   2.720330   1.777898   2.743442   2.814438   2.855945
                   11
    11  Cl   0.000000
 Symmetry turned off by external request.
 Stoichiometry    C6H4Cl(1-)
 Framework group  C1[X(C6H4Cl)]
 Deg. of freedom    27
 Full point group                 C1      NOp   1
 Rotational constants (GHZ):           5.8317634           1.5892673           1.2489146
 Standard basis: 6-311+G(d,p) (5D, 7F)
   186 basis functions,   301 primitive gaussians,   193 cartesian basis functions
    29 alpha electrons       29 beta electrons
       nuclear repulsion energy       302.7941833447 Hartrees.
 NAtoms=   11 NActive=   11 NUniq=   11 SFac= 1.00D+00 NAtFMM=   60 NAOKFM=F Big=F
 Integral buffers will be    131072 words long.
 Raffenetti 2 integral format.
 Two-electron integral symmetry is turned off.
 ------------------------------------------------------------------------------
 Polarizable Continuum Model (PCM)
 =================================
 Model                : PCM.
 Atomic radii         : SMD-Coulomb.
 Polarization charges : Total charges.
 Charge compensation  : None.
 Solution method      : Matrix inversion.
 Cavity type          : VdW (van der Waals Surface) (Alpha=1.000).
 Cavity algorithm     : GePol (No added spheres)
[...]
    A4        2.03000   0.00000   0.00000   0.00000   0.00000   2.03000
    A5        2.10707   0.00000   0.00000   0.00000   0.00000   2.10707
    A6        2.09805   0.00000   0.00000   0.00000   0.00000   2.09805
    A7        2.07807   0.00000   0.00000   0.00000   0.00000   2.07807
    A8        2.03964   0.00000   0.00000   0.00000   0.00000   2.03965
    A9        2.12861   0.00000   0.00000   0.00000   0.00000   2.12861
   A10        2.11493   0.00000   0.00000   0.00000   0.00000   2.11493
   A11        2.14024   0.00000   0.00000   0.00000   0.00000   2.14024
   A12        2.05983   0.00000   0.00000   0.00000   0.00000   2.05983
   A13        2.08311   0.00000   0.00000   0.00001   0.00001   2.08311
   A14        2.13893   0.00000   0.00000   0.00000   0.00000   2.13893
   A15        2.10612   0.00000   0.00000   0.00000   0.00000   2.10612
   A16        2.03814   0.00000   0.00000   0.00000   0.00000   2.03813
    D1       -3.14107   0.00000   0.00000  -0.00001  -0.00001  -3.14108
    D2        0.00087   0.00000   0.00000  -0.00001  -0.00001   0.00086
    D3       -0.00173   0.00000   0.00000  -0.00001  -0.00001  -0.00174
    D4       -3.14134   0.00000   0.00000  -0.00001  -0.00001  -3.14135
    D5       -3.14139   0.00000   0.00000   0.00002   0.00002  -3.14137
    D6        0.00060   0.00000   0.00000   0.00002   0.00002   0.00062
    D7        0.00055   0.00000   0.00000   0.00002   0.00002   0.00056
    D8       -3.14065   0.00000   0.00000   0.00002   0.00002  -3.14064
    D9       -0.00123   0.00000   0.00000  -0.00001  -0.00001  -0.00124
   D10        3.14003   0.00000   0.00000  -0.00001  -0.00001   3.14002
   D11        3.14075   0.00000   0.00000  -0.00001  -0.00001   3.14074
   D12       -0.00118   0.00000   0.00000  -0.00001  -0.00001  -0.00118
   D13        0.00039   0.00000   0.00000  -0.00001  -0.00001   0.00038
   D14        3.14056   0.00000   0.00000  -0.00001  -0.00001   3.14055
   D15       -3.14088   0.00000   0.00000  -0.00001  -0.00001  -3.14089
   D16       -0.00070   0.00000   0.00000  -0.00001  -0.00001  -0.00071
   D17        0.00119   0.00000   0.00000   0.00002   0.00002   0.00121
   D18        3.14086   0.00000   0.00000   0.00002   0.00002   3.14088
   D19       -3.13897   0.00000   0.00000   0.00002   0.00002  -3.13895
   D20        0.00071   0.00000   0.00000   0.00002   0.00002   0.00073
         Item               Value     Threshold  Converged?
 Maximum Force            0.000003     0.000015     YES
 RMS     Force            0.000001     0.000010     YES
 Maximum Displacement     0.000038     0.000060     YES
 RMS     Displacement     0.000012     0.000040     YES
 Predicted change in Energy=-6.705962D-11
 Optimization completed.
    -- Stationary point found.
                           ----------------------------
                           !   Optimized Parameters   !
                           ! (Angstroms and Degrees)  !
 --------------------------                            --------------------------
 ! Name  Definition              Value          Derivative Info.                !
 --------------------------------------------------------------------------------
 ! R1    R(1,2)                  1.4149         -DE/DX =    0.0                 !
 ! R2    R(1,8)                  1.4137         -DE/DX =    0.0                 !
 ! R3    R(2,3)                  1.0905         -DE/DX =    0.0                 !
 ! R4    R(2,4)                  1.3973         -DE/DX =    0.0                 !
 ! R5    R(4,5)                  1.0871         -DE/DX =    0.0                 !
 ! R6    R(4,6)                  1.3942         -DE/DX =    0.0                 !
 ! R7    R(6,7)                  1.3867         -DE/DX =    0.0                 !
 ! R8    R(6,10)                 1.0833         -DE/DX =    0.0                 !
 ! R9    R(7,8)                  1.3923         -DE/DX =    0.0                 !
 ! R10   R(7,11)                 1.7779         -DE/DX =    0.0                 !
 ! R11   R(8,9)                  1.0894         -DE/DX =    0.0                 !
 ! A1    A(2,1,8)              113.2349         -DE/DX =    0.0                 !
 ! A2    A(1,2,3)              119.1753         -DE/DX =    0.0                 !
 ! A3    A(1,2,4)              124.5141         -DE/DX =    0.0                 !
 ! A4    A(3,2,4)              116.3106         -DE/DX =    0.0                 !
 ! A5    A(2,4,5)              120.7261         -DE/DX =    0.0                 !
 ! A6    A(2,4,6)              120.2094         -DE/DX =    0.0                 !
 ! A7    A(5,4,6)              119.0645         -DE/DX =    0.0                 !
 ! A8    A(4,6,7)              116.863          -DE/DX =    0.0                 !
 ! A9    A(4,6,10)             121.9606         -DE/DX =    0.0                 !
 ! A10   A(7,6,10)             121.1764         -DE/DX =    0.0                 !
 ! A11   A(6,7,8)              122.627          -DE/DX =    0.0                 !
 ! A12   A(6,7,11)             118.0196         -DE/DX =    0.0                 !
 ! A13   A(8,7,11)             119.3533         -DE/DX =    0.0                 !
 ! A14   A(1,8,7)              122.5515         -DE/DX =    0.0                 !
 ! A15   A(1,8,9)              120.6717         -DE/DX =    0.0                 !
 ! A16   A(7,8,9)              116.7768         -DE/DX =    0.0                 !
 ! D1    D(8,1,2,3)           -179.9701         -DE/DX =    0.0                 !
 ! D2    D(8,1,2,4)              0.05           -DE/DX =    0.0                 !
 ! D3    D(2,1,8,7)             -0.0992         -DE/DX =    0.0                 !
 ! D4    D(2,1,8,9)           -179.9853         -DE/DX =    0.0                 !
 ! D5    D(1,2,4,5)           -179.9883         -DE/DX =    0.0                 !
 ! D6    D(1,2,4,6)              0.0342         -DE/DX =    0.0                 !
 ! D7    D(3,2,4,5)              0.0313         -DE/DX =    0.0                 !
 ! D8    D(3,2,4,6)           -179.9462         -DE/DX =    0.0                 !
 ! D9    D(2,4,6,7)             -0.0705         -DE/DX =    0.0                 !
 ! D10   D(2,4,6,10)           179.9105         -DE/DX =    0.0                 !
 ! D11   D(5,4,6,7)            179.9517         -DE/DX =    0.0                 !
 ! D12   D(5,4,6,10)            -0.0673         -DE/DX =    0.0                 !
 ! D13   D(4,6,7,8)              0.0221         -DE/DX =    0.0                 !
 ! D14   D(4,6,7,11)           179.941          -DE/DX =    0.0                 !
 ! D15   D(10,6,7,8)          -179.959          -DE/DX =    0.0                 !
 ! D16   D(10,6,7,11)           -0.0401         -DE/DX =    0.0                 !
 ! D17   D(6,7,8,1)              0.068          -DE/DX =    0.0                 !
 ! D18   D(6,7,8,9)            179.9583         -DE/DX =    0.0                 !
 ! D19   D(11,7,8,1)          -179.8499         -DE/DX =    0.0                 !
 ! D20   D(11,7,8,9)             0.0404         -DE/DX =    0.0                 !
 --------------------------------------------------------------------------------
 GradGradGradGradGradGradGradGradGradGradGradGradGradGradGradGradGradGrad


 ----------------------------------------------------------------------

 Electric dipole moment (input orientation):
 (Debye = 10**-18 statcoulomb cm , SI units = C m)
                  (au)            (Debye)         (10**-30 SI)
   Tot        0.206975D+02      0.526077D+02      0.175480D+03
   x         -0.118753D+02     -0.301841D+02     -0.100683D+03
   y         -0.141852D+02     -0.360552D+02     -0.120267D+03
   z         -0.928120D+01     -0.235905D+02     -0.786893D+02

 Dipole polarizability, Alpha (input orientation).
 (esu units = cm**3 , SI units = C**2 m**2 J**-1)
 Alpha(0;0):
               (au)            (10**-24 esu)      (10**-40 SI)
   iso        0.125700D+03      0.186269D+02      0.207252D+02
   aniso      0.774589D+02      0.114782D+02      0.127712D+02
   xx         0.138955D+03      0.205910D+02      0.229105D+02
   yx        -0.182872D+01     -0.270988D+00     -0.301515D+00
   yy         0.138395D+03      0.205080D+02      0.228182D+02
   zx         0.185350D+02      0.274660D+01      0.305600D+01
   zy        -0.338820D+02     -0.502080D+01     -0.558639D+01
   zz         0.997515D+02      0.147816D+02      0.164468D+02

 ----------------------------------------------------------------------

 Dipole orientation:
     6         -0.01960452          1.06517905        -20.27118419
     6         -1.43403709          1.58093016        -18.06155983
     1         -1.45774928          3.49918675        -17.30886101
     6         -2.83883512         -0.21587879        -16.73097942
     1         -3.88526465          0.30969494        -15.04300631
     6         -2.91421646         -2.71657110        -17.55678226
     6         -1.55020921         -3.29106131        -19.71927039
     6         -0.15579275         -1.49057065        -21.03712931
     1          0.84911502         -2.13974669        -22.71239783
     1         -3.98333510         -4.15343760        -16.56521880
    17         -1.60331982         -6.46407355        -20.82240060

 Electric dipole moment (dipole orientation):
 (Debye = 10**-18 statcoulomb cm , SI units = C m)
                  (au)            (Debye)         (10**-30 SI)
   Tot        0.206975D+02      0.526077D+02      0.175480D+03
   x          0.000000D+00      0.000000D+00      0.000000D+00
   y          0.000000D+00      0.000000D+00      0.000000D+00
   z          0.206975D+02      0.526077D+02      0.175480D+03

 Dipole polarizability, Alpha (dipole orientation).
 (esu units = cm**3 , SI units = C**2 m**2 J**-1)
 Alpha(0;0):
               (au)            (10**-24 esu)      (10**-40 SI)
   iso        0.125700D+03      0.186269D+02      0.207252D+02
   aniso      0.774589D+02      0.114782D+02      0.127712D+02
   xx         0.997843D+02      0.147865D+02      0.164522D+02
   yx         0.165001D+02      0.244507D+01      0.272051D+01
   yy         0.159234D+03      0.235961D+02      0.262542D+02
   zx        -0.272761D+02     -0.404190D+01     -0.449722D+01
   zy         0.752397D+01      0.111494D+01      0.124053D+01
   zz         0.118082D+03      0.174979D+02      0.194691D+02

 ----------------------------------------------------------------------
 Unable to Open any file for archive entry.
 1\1\GINC-CN014\Freq\RM062X\6-311+G(d,p)\C6H4Cl1(1-)\TAHMINAAFROZ\30-Ma
 y-2025\0\\#N Geom=AllCheck Guess=TCheck SCRF=Check GenChk RM062X/6-311
 +G(d,p) Freq\\3-cl-ph-anion-opt-freq-thf\\-1,1\C,6.2997512798,6.973834
 4949,5.2025157463\C,5.1245921083,6.1912451086,5.2946843623\H,5.1619498
 909,5.2357602979,5.8189797038\C,3.8880316318,6.552975337,4.7538081732\
 H,3.0231457673,5.9031950517,4.8615912846\C,3.7486736163,7.7574693611,4
 .0657108269\C,4.8804632981,8.5512110794,3.9563638469\C,6.1094451335,8.
 1850420861,4.4987086159\H,6.9357377174,8.8803760595,4.3556899039\H,2.8
 040180255,8.0652240068,3.6339054455\Cl,4.7378245312,10.0934851169,3.08
 34780906\\Version=AS64L-G16RevC.01\HF=-691.2526942\RMSD=3.982e-09\RMSF
 =1.396e-05\ZeroPoint=0.0775334\Thermal=0.0830443\ETot=-691.1696499\HTo
 t=-691.1687057\GTot=-691.2049695\Dipole=-2.6331428,1.2291317,-1.400049
 2\DipoleDeriv=-0.3798571,0.0023016,0.1060464,-0.1368838,-0.6859665,-0.
 082281,0.1854427,-0.0427413,-0.6949639,-0.1988095,0.1423967,-0.0744518
 ,0.1564396,0.1454524,-0.1442575,-0.0804939,-0.1495179,-0.1488748,0.063
 9825,-0.0223562,-0.0035923,-0.0670055,-0.1836801,0.1442175,0.0202863,0
 .1558282,0.0408165,-0.0284293,-0.1317464,0.0906103,-0.0279689,0.157887
 6,-0.1487425,0.031133,-0.1770433,0.0030124,-0.1259622,-0.1312365,-0.01
 10763,-0.1414932,0.0006513,0.0501815,-0.0042507,0.0538629,0.1374559,-0
 .2419459,-0.0389328,0.0261735,-0.0306828,-0.4760133,0.1114422,0.021295
 8,0.1076519,-0.3104297,0.3668879,0.0126993,0.0694004,-0.1150813,1.2364
 55,-0.6544399,0.1425441,-0.618438,0.4589481,-0.2007728,0.1722644,-0.09
 58896,0.2539079,-0.1396679,0.0440591,-0.1467629,0.0215208,-0.2403,-0.0
 034885,-0.1511004,0.0497859,-0.1087681,-0.078653,0.0722195,0.028884,0.
 0614521,0.0874464,-0.01456,0.0356675,-0.077941,0.0501481,0.1030373,0.0
 630204,-0.0873517,0.0598243,0.1372038,-0.2370451,0.1100429,-0.0790655,
 0.167388,-1.0795029,0.5445806,-0.1107266,0.5276003,-0.4703145\Polar=13
 8.9546182,-1.8287199,138.3945415,18.5349656,-33.8820191,99.7515123\Qua
 drupole=4.2335189,-60.0167352,55.7832164,-163.5387836,-112.5614042,-12
 8.6720023\PG=C01 [X(C6H4Cl1)]\NImag=0\\0.35966475,0.08987306,0.4042852
 0,0.03436959,-0.15491915,0.15970067,-0.22855134,-0.08242756,-0.0057094
 6,0.57537622,-0.10046954,-0.14957104,0.02468822,0.03893851,0.56918883,
 0.00395848,0.02984666,-0.06644436,0.10138740,-0.22205854,0.28455925,0.
 00066485,-0.02211696,0.01286025,-0.05421148,0.01025416,-0.00919439,0.0
 5966107,-0.00265778,-0.01317111,0.00476837,0.01482561,-0.25158147,0.11
 831413,-0.00829225,0.26946972,0.00239334,-0.00071638,-0.00190490,-0.01
 163082,0.11706732,-0.10543751,0.01337404,-0.13313464,0.10153737,-0.049
 11889,-0.04015556,0.00224166,-0.27501468,0.07217094,-0.09680302,0.0000
 7989,-0.00194035,-0.00013327,0.66299841,0.00437884,0.05168349,-0.01573
 127,0.00542612,-0.12782316,0.03452084,0.02576188,-0.00623400,0.0128060
 0,0.09212695,0.57814140,-0.02178481,-0.02821037,0.02928598,-0.06086194
 ,0.05331987,-0.11233470,-0.01501084,0.00505430,-0.00275104,0.09836753,
 -0.21247741,0.27712628,-0.00427424,0.00141615,-0.00362152,-0.01481308,
 -0.01927940,0.00492888,0.00074160,0.00072337,0.00086986,-0.23199109,-0
 .13427286,0.01793469,0.24229134,0.00057957,0.00193406,0.00234699,0.007
 58368,0.00860225,0.00001702,-0.00006431,-0.00028636,-0.00188509,-0.132
 79328,-0.15296173,0.02462247,0.14564841,0.15708549,-0.00319343,0.00257
 173,0.00372717,-0.00953365,-0.00749931,0.00605430,0.00129881,-0.001672
 11,-0.00250825,0.01711177,0.02422276,-0.04626679,-0.01767408,-0.029994
 63,0.03666725,-0.01146550,-0.02660859,0.01330245,0.02630288,0.02751638
 ,-0.01014553,-0.00383532,0.00164064,-0.00403044,-0.12377833,0.04373354
 ,-0.04140433,0.00537068,-0.02280965,0.01288205,0.71061220,-0.02599351,
 -0.05191959,0.01648848,0.07729857,-0.00188160,0.02787320,0.00049768,0.
 00272284,0.00262610,-0.02013308,-0.27129717,0.10703296,0.00393939,-0.0
 1182100,0.00922599,0.03368244,0.55200592,0.01300852,0.01630422,-0.0130
 2031,-0.03690828,0.01387454,-0.00825552,-0.00340799,0.00296820,0.00483
 286,-0.00718295,0.12493265,-0.13091984,-0.00153256,0.00173531,0.001938
 27,0.14738393,-0.22040470,0.28546880,0.03072956,0.08121615,-0.04091726
 ,-0.07565360,-0.00753887,-0.01397667,-0.00192200,-0.00073737,-0.000057
 39,0.04371604,-0.06837465,0.04713396,0.00241565,0.00086571,-0.00214478
 ,-0.27486097,-0.07705149,-0.01823164,0.63072049,0.01880129,0.00133933,
 0.01562765,-0.01544460,-0.00558522,-0.00726588,-0.00047286,0.00082870,
 -0.00067959,-0.01021693,-0.04091398,0.02281034,-0.00002805,-0.00058418
 ,0.00482389,-0.14274673,-0.16082708,0.01210781,0.08923898,0.39640089,-
 0.00717719,0.03306530,0.00063225,-0.00976100,-0.00505096,-0.01115224,-
 0.00022231,-0.00078030,0.00013161,0.01599507,0.00663570,0.00782960,-0.
 00166528,0.00508651,0.00520004,0.01711746,0.03049859,-0.07588677,0.094
 30226,-0.12202083,0.21710630,-0.10193553,-0.00179185,-0.01390729,0.039
 59892,-0.02121472,0.02275014,-0.00155490,-0.00396602,-0.00105883,-0.02
 662526,0.03162770,-0.02246280,-0.00005590,0.00079278,-0.00034912,-0.05
 376162,-0.04170193,0.00425815,-0.27780240,0.06677763,-0.09485410,0.634
 70047,0.02366557,-0.22953539,0.10185218,-0.04280967,-0.03525599,0.0067
 1174,-0.00585337,0.00008274,0.00359825,0.02230346,-0.03073123,0.018744
 18,0.00125101,-0.00029339,0.00035234,0.00918982,0.04725349,-0.01691060
 ,-0.01098260,-0.10069770,0.01457204,0.11001796,0.52885975,-0.02762418,
 0.09469757,-0.10815395,0.03429784,0.01277976,0.00226257,-0.00003204,0.
 00412192,0.00757218,-0.01747767,0.02137622,-0.02384206,-0.00061572,0.0
 0021252,-0.00059578,-0.02324382,-0.03118911,0.02144615,-0.05261282,0.0
 3641803,-0.10208660,0.08208217,-0.18113320,0.25194603,0.00834363,0.003
 02914,0.00155018,0.00272946,0.00007507,-0.00227643,0.00012228,0.000183
 32,-0.00008236,0.00038777,0.00107264,-0.00003649,-0.00007675,0.0000727
 9,0.00045019,-0.00316844,0.00244846,-0.00395895,-0.02174394,-0.0199513
 3,0.00358265,-0.21337788,-0.12809679,0.01937345,0.22692390,-0.01537996
 ,-0.01765051,0.00361673,-0.00164886,-0.00184083,0.00631360,-0.00095701
 ,-0.00067400,0.00013235,0.00088350,-0.00103927,-0.00003930,-0.00000638
 ,-0.00033166,-0.00080425,0.00119200,0.00218191,0.00250426,0.00762050,0
 .00377530,0.00215664,-0.13530235,-0.15151331,0.02350078,0.14203089,0.1
 6551984,0.01144037,0.00874541,-0.00439747,-0.00136640,0.00678494,0.006
 71726,0.00053044,0.00045354,-0.00002827,0.00010302,0.00000971,-0.00154
 621,0.00049631,-0.00078132,-0.00126548,-0.00326383,0.00288035,0.003749
 47,-0.01129345,-0.00557924,0.00363735,0.02330816,0.02554430,-0.0445196
 7,-0.01955415,-0.03610817,0.03821022,0.00006907,-0.00008662,0.00091197
 ,0.00249128,-0.00063898,-0.00105474,-0.00005293,-0.00011750,-0.0000268
 5,0.00238671,-0.00120024,0.00046677,0.00029720,0.00089310,0.00081230,-
 0.27628488,0.06700815,-0.10471509,-0.01653205,0.01045620,-0.01088995,-
 0.00143715,-0.00466538,0.00044610,-0.00094956,0.00024659,-0.00057298,0
 .28935053,0.00011360,-0.00114289,-0.00096024,-0.00172743,-0.00256318,0
 .00490839,0.00119963,-0.00042510,0.00070116,0.02440198,-0.00166065,0.0
 0939707,0.00005556,0.00005468,-0.00232853,0.06982973,-0.07360447,0.041
 84688,-0.01637082,0.00614128,-0.00675416,-0.00360306,-0.00072328,0.002
 54148,-0.00092061,0.00047681,-0.00017825,-0.07250941,0.07283308,0.0007
 9777,-0.00099474,-0.00221438,-0.00047056,0.00521720,0.00449163,-0.0007
 3852,0.00033892,-0.00012342,-0.01331046,0.00214988,-0.00189159,0.00125
 191,-0.00208672,-0.00280741,-0.10618116,0.04110813,-0.08466222,0.00352
 327,0.00078377,0.00271826,-0.00008685,0.00221101,0.00464167,0.00005068
 ,0.00014817,0.00055716,0.11403387,-0.04718761,0.08079615,-0.00412636,-
 0.00234736,-0.00108057,0.00174542,0.00018647,0.00042587,0.00030692,0.0
 0033832,0.00038271,-0.00304058,-0.00027992,-0.00234174,0.00009458,-0.0
 0076882,0.00033994,0.00486928,-0.01999468,0.01128686,-0.03906677,0.003
 58639,-0.00642760,0.00225126,0.02597997,-0.01459333,0.00080951,0.00132
 109,0.00017252,0.00066177,-0.00046917,0.00113004,0.03549497,0.00708886
 ,0.00374844,0.00222205,-0.00001438,-0.00168859,0.00081884,0.00004341,-
 0.00073196,-0.00051548,-0.00664764,0.00283629,-0.00025412,0.00055280,-
 0.00139817,0.00110212,0.00538042,-0.03281326,0.02104144,0.00211446,-0.
 09987733,0.04259147,-0.00163614,-0.02744569,0.01667402,0.00005642,0.00
 109571,-0.00177126,0.00061409,0.00061372,-0.00168801,-0.00755230,0.155
 66086,-0.00618847,-0.00039024,0.00278931,0.00055686,0.00087696,-0.0004
 6067,0.00054254,-0.00043232,-0.00132064,0.00108831,0.00155492,0.005310
 36,-0.00037248,0.00072693,-0.00014333,-0.00241679,0.01386000,-0.004690
 88,-0.00572548,0.04297406,-0.04812980,0.00032037,0.02445775,-0.0086705
 2,0.00090122,-0.00142082,-0.00111436,0.00058861,-0.00198618,-0.0015058
 5,0.01070530,-0.08022107,0.05793638\\0.00000068,0.00001570,0.00001894,
 -0.00000205,0.00001153,0.00002015,0.00000303,0.00002039,0.00003435,0.0
 0000421,-0.00000054,0.00000671,0.00000588,-0.00000409,0.00001018,0.000
 00226,-0.00001101,-0.00001059,-0.00000280,-0.00000946,-0.00001317,-0.0
 0000468,0.00001011,-0.00000308,-0.00000591,0.00000842,-0.00000530,0.00
 000291,-0.00002223,-0.00002129,-0.00000355,-0.00001882,-0.00003690\\\@
 The archive entry for this job was punched.


 DEMOCRATS BUY MOST OF THE BOOKS THAT HAVE BEEN
 BANNED; REPUBLICANS FORM CENSORSHIP COMMITTEES AND
 READ THEM AS A GROUP.
 Job cpu time:       0 days  0 hours 17 minutes 22.2 seconds.
 Elapsed time:       0 days  0 hours  0 minutes 34.9 seconds.
 File lengths (MBytes):  RWF=     70 Int=      0 D2E=      0 Chk=     10 Scr=      1
 Normal termination of Gaussian 16 at Fri May 30 01:16:17 2025.
