/home/tahminaafroz
cn017.cluster.local
Mon Apr 21 18:05:29 CDT 2025
 Entering Gaussian System, Link 0=g16
 Initial command:
 /home/apps/g16/l1.exe "/tmp/4-OMe-phboh2-opt-freq/Gau-3753733.inp" -scrdir="/tmp/4-OMe-phboh2-opt-freq/"
 Entering Link 1 = /home/apps/g16/l1.exe PID=   3753734.
  
 Copyright (c) 1988-2019, Gaussian, Inc.  All Rights Reserved.
  
 This is part of the Gaussian(R) 16 program.  It is based on
 the Gaussian(R) 09 system (copyright 2009, Gaussian, Inc.),
 the Gaussian(R) 03 system (copyright 2003, Gaussian, Inc.),
 the Gaussian(R) 98 system (copyright 1998, Gaussian, Inc.),
 the Gaussian(R) 94 system (copyright 1995, Gaussian, Inc.),
 the Gaussian 92(TM) system (copyright 1992, Gaussian, Inc.),
 the Gaussian 90(TM) system (copyright 1990, Gaussian, Inc.),
 the Gaussian 88(TM) system (copyright 1988, Gaussian, Inc.),
 the Gaussian 86(TM) system (copyright 1986, Carnegie Mellon
 University), and the Gaussian 82(TM) system (copyright 1983,
 Carnegie Mellon University). Gaussian is a federally registered
 trademark of Gaussian, Inc.
  
 This software contains proprietary and confidential information,
 including trade secrets, belonging to Gaussian, Inc.
  
 This software is provided under written license and may be
 used, copied, transmitted, or stored only in accord with that
 written license.
  
 The following legend is applicable only to US Government
 contracts under FAR:
  
                    RESTRICTED RIGHTS LEGEND
  
 Use, reproduction and disclosure by the US Government is
 subject to restrictions as set forth in subparagraphs (a)
 and (c) of the Commercial Computer Software - Restricted
 Rights clause in FAR 52.227-19.
  
 Gaussian, Inc.
 340 Quinnipiac St., Bldg. 40, Wallingford CT 06492
  
  
 ---------------------------------------------------------------
 Warning -- This program may not be used in any manner that
 competes with the business of Gaussian, Inc. or will provide
 assistance to any competitor of Gaussian, Inc.  The licensee
 of this program is prohibited from giving any competitor of
 Gaussian, Inc. access to this program.  By using this program,
 the user acknowledges that Gaussian, Inc. is engaged in the
 business of creating and licensing software in the field of
 computational chemistry and represents and warrants to the
 licensee that it is not a competitor of Gaussian, Inc. and that
 it will not use this program in any manner prohibited above.
 ---------------------------------------------------------------
  

 Cite this work as:
 Gaussian 16, Revision C.01,
 M. J. Frisch, G. W. Trucks, H. B. Schlegel, G. E. Scuseria, 
 M. A. Robb, J. R. Cheeseman, G. Scalmani, V. Barone, 
 G. A. Petersson, H. Nakatsuji, X. Li, M. Caricato, A. V. Marenich, 
 J. Bloino, B. G. Janesko, R. Gomperts, B. Mennucci, H. P. Hratchian, 
 J. V. Ortiz, A. F. Izmaylov, J. L. Sonnenberg, D. Williams-Young, 
 F. Ding, F. Lipparini, F. Egidi, J. Goings, B. Peng, A. Petrone, 
 T. Henderson, D. Ranasinghe, V. G. Zakrzewski, J. Gao, N. Rega, 
 G. Zheng, W. Liang, M. Hada, M. Ehara, K. Toyota, R. Fukuda, 
 J. Hasegawa, M. Ishida, T. Nakajima, Y. Honda, O. Kitao, H. Nakai, 
 T. Vreven, K. Throssell, J. A. Montgomery, Jr., J. E. Peralta, 
 F. Ogliaro, M. J. Bearpark, J. J. Heyd, E. N. Brothers, K. N. Kudin, 
 V. N. Staroverov, T. A. Keith, R. Kobayashi, J. Normand, 
 K. Raghavachari, A. P. Rendell, J. C. Burant, S. S. Iyengar, 
 J. Tomasi, M. Cossi, J. M. Millam, M. Klene, C. Adamo, R. Cammi, 
 J. W. Ochterski, R. L. Martin, K. Morokuma, O. Farkas, 
 J. B. Foresman, and D. J. Fox, Gaussian, Inc., Wallingford CT, 2019.
 
 ******************************************
 Gaussian 16:  AS64L-G16RevC.01  3-Jul-2019
                21-Apr-2025 
 ******************************************
 %mem=20GB
 %nprocshared=32
 Will use up to   32 processors via shared memory.
 %chk=4-OMe-phboh2-opt-freq.chk
 ----------------------------------------------------------------------
 # opt=(calcfc,tight) freq 6-311+g(d,p) nosymm scf=(qc,fermi,xqc) geom=
 connectivity int=ultrafine m062x
 ----------------------------------------------------------------------
 1/7=10,10=4,18=20,19=15,26=4,38=1,57=2/1,3;
 2/9=110,12=2,15=1,17=6,18=5,40=1/2;
 3/5=4,6=6,7=111,11=2,25=1,30=1,71=2,74=-55,75=-5,140=1/1,2,3;
 4//1;
 5/5=2,22=13,38=5/2;
 8/6=4,10=90,11=11/1;
 11/6=1,8=1,9=11,15=111,16=1,31=1/1,2,10;
 10/6=1,13=1,31=1/2;
 6/7=2,8=2,9=2,10=2,28=1/1;
 7/10=1,25=1,30=1/1,2,3,16;
 1/7=10,10=4,18=20,19=15,26=4/3(2);
 2/9=110,15=1/2;
 99//99;
 2/9=110,15=1/2;
 3/5=4,6=6,7=111,11=2,25=1,30=1,71=1,74=-55,75=-5/1,2,3;
 4/5=5,16=3,69=1/1;
 5/5=2,22=13,38=5/2;
 7/30=1/1,2,3,16;
 1/7=10,18=20,19=15,26=4/3(-5);
 2/9=110,15=1/2;
 6/7=2,8=2,9=2,10=2,19=2,28=1/1;
 99/9=1/99;
 ---------------------
 4-OMe-phboh2-opt-freq
 ---------------------
 Symbolic Z-matrix:
 Charge =  0 Multiplicity = 1
 O                     8.6937    7.4516    5.54165 
 H                     9.50219   7.13774   5.95654 
 C                     6.24551   6.99743   5.17177 
 B                     7.64171   6.61653   5.77197 
 O                     7.87495   5.49385   6.5199 
 H                     7.09974   4.95193   6.67447 
 C                     5.12292   6.1708    5.28852 
 H                     5.19038   5.21599   5.80391 
 C                     3.89549   6.53793   4.7481 
 H                     3.03837   5.88269   4.84886 
 C                     3.77272   7.74979   4.07563 
 C                     4.87718   8.58681   3.94549 
 H                     4.78267   9.53028   3.42076 
 C                     6.10033   8.21073   4.48781 
 H                     6.96312   8.85954   4.38658 
 O                     2.51286   8.13307   3.51817 
 C                     2.41564   7.64476   2.17765 
 H                     1.47417   7.93459   1.75988 
 H                     3.20884   8.05687   1.58953 
 H                     2.49116   6.57743   2.1805 
 

 GradGradGradGradGradGradGradGradGradGradGradGradGradGradGradGradGradGrad
 Berny optimization.
 Initialization pass.
                           ----------------------------
                           !    Initial Parameters    !
                           ! (Angstroms and Degrees)  !
 --------------------------                            --------------------------
 ! Name  Definition              Value          Derivative Info.                !
 --------------------------------------------------------------------------------
 ! R1    R(1,2)                  0.9614         calculate D2E/DX2 analytically  !
 ! R2    R(1,4)                  1.3627         calculate D2E/DX2 analytically  !
 ! R3    R(3,4)                  1.5667         calculate D2E/DX2 analytically  !
 ! R4    R(3,7)                  1.399          calculate D2E/DX2 analytically  !
 ! R5    R(3,14)                 1.4003         calculate D2E/DX2 analytically  !
 ! R6    R(4,5)                  1.369          calculate D2E/DX2 analytically  !
 ! R7    R(5,6)                  0.9584         calculate D2E/DX2 analytically  !
 ! R8    R(7,8)                  1.0871         calculate D2E/DX2 analytically  !
 ! R9    R(7,9)                  1.3905         calculate D2E/DX2 analytically  !
 ! R10   R(9,10)                 1.0836         calculate D2E/DX2 analytically  !
 ! R11   R(9,11)                 1.3914         calculate D2E/DX2 analytically  !
 ! R12   R(11,12)                1.3919         calculate D2E/DX2 analytically  !
 ! R13   R(11,16)                1.43           calculate D2E/DX2 analytically  !
 ! R14   R(12,13)                1.0837         calculate D2E/DX2 analytically  !
 ! R15   R(12,14)                1.3898         calculate D2E/DX2 analytically  !
 ! R16   R(14,15)                1.0843         calculate D2E/DX2 analytically  !
 ! R17   R(16,17)                1.43           calculate D2E/DX2 analytically  !
 ! R18   R(17,18)                1.07           calculate D2E/DX2 analytically  !
 ! R19   R(17,19)                1.07           calculate D2E/DX2 analytically  !
 ! R20   R(17,20)                1.07           calculate D2E/DX2 analytically  !
 ! A1    A(2,1,4)              112.0983         calculate D2E/DX2 analytically  !
 ! A2    A(4,3,7)              122.6467         calculate D2E/DX2 analytically  !
 ! A3    A(4,3,14)             119.3501         calculate D2E/DX2 analytically  !
 ! A4    A(7,3,14)             118.0032         calculate D2E/DX2 analytically  !
 ! A5    A(1,4,3)              118.3077         calculate D2E/DX2 analytically  !
 ! A6    A(1,4,5)              117.6027         calculate D2E/DX2 analytically  !
 ! A7    A(3,4,5)              124.0894         calculate D2E/DX2 analytically  !
 ! A8    A(4,5,6)              114.4569         calculate D2E/DX2 analytically  !
 ! A9    A(3,7,8)              120.5799         calculate D2E/DX2 analytically  !
 ! A10   A(3,7,9)              121.3254         calculate D2E/DX2 analytically  !
 ! A11   A(8,7,9)              118.0941         calculate D2E/DX2 analytically  !
 ! A12   A(7,9,10)             120.1633         calculate D2E/DX2 analytically  !
 ! A13   A(7,9,11)             119.7161         calculate D2E/DX2 analytically  !
 ! A14   A(10,9,11)            120.1206         calculate D2E/DX2 analytically  !
 ! A15   A(9,11,12)            119.9297         calculate D2E/DX2 analytically  !
 ! A16   A(9,11,16)            119.9738         calculate D2E/DX2 analytically  !
 ! A17   A(12,11,16)           120.0964         calculate D2E/DX2 analytically  !
 ! A18   A(11,12,13)           119.9739         calculate D2E/DX2 analytically  !
 ! A19   A(11,12,14)           119.9423         calculate D2E/DX2 analytically  !
 ! A20   A(13,12,14)           120.0838         calculate D2E/DX2 analytically  !
 ! A21   A(3,14,12)            121.0828         calculate D2E/DX2 analytically  !
 ! A22   A(3,14,15)            118.7874         calculate D2E/DX2 analytically  !
 ! A23   A(12,14,15)           120.1298         calculate D2E/DX2 analytically  !
 ! A24   A(11,16,17)           109.5            calculate D2E/DX2 analytically  !
 ! A25   A(16,17,18)           109.4712         calculate D2E/DX2 analytically  !
 ! A26   A(16,17,19)           109.4712         calculate D2E/DX2 analytically  !
 ! A27   A(16,17,20)           109.4712         calculate D2E/DX2 analytically  !
 ! A28   A(18,17,19)           109.4713         calculate D2E/DX2 analytically  !
 ! A29   A(18,17,20)           109.4712         calculate D2E/DX2 analytically  !
 ! A30   A(19,17,20)           109.4712         calculate D2E/DX2 analytically  !
 ! D1    D(2,1,4,3)            179.4321         calculate D2E/DX2 analytically  !
 ! D2    D(2,1,4,5)             -0.4323         calculate D2E/DX2 analytically  !
 ! D3    D(7,3,4,1)            176.3571         calculate D2E/DX2 analytically  !
 ! D4    D(7,3,4,5)             -3.788          calculate D2E/DX2 analytically  !
 ! D5    D(14,3,4,1)            -3.617          calculate D2E/DX2 analytically  !
 ! D6    D(14,3,4,5)           176.2379         calculate D2E/DX2 analytically  !
 ! D7    D(4,3,7,8)             -0.4723         calculate D2E/DX2 analytically  !
 ! D8    D(4,3,7,9)            179.8225         calculate D2E/DX2 analytically  !
 ! D9    D(14,3,7,8)           179.5021         calculate D2E/DX2 analytically  !
 ! D10   D(14,3,7,9)            -0.2031         calculate D2E/DX2 analytically  !
 ! D11   D(4,3,14,12)         -179.7549         calculate D2E/DX2 analytically  !
 ! D12   D(4,3,14,15)            0.2004         calculate D2E/DX2 analytically  !
 ! D13   D(7,3,14,12)            0.2698         calculate D2E/DX2 analytically  !
 ! D14   D(7,3,14,15)         -179.7749         calculate D2E/DX2 analytically  !
 ! D15   D(1,4,5,6)            178.3759         calculate D2E/DX2 analytically  !
 ! D16   D(3,4,5,6)             -1.48           calculate D2E/DX2 analytically  !
 ! D17   D(3,7,9,10)           179.9449         calculate D2E/DX2 analytically  !
 ! D18   D(3,7,9,11)             0.0287         calculate D2E/DX2 analytically  !
 ! D19   D(8,7,9,10)             0.2326         calculate D2E/DX2 analytically  !
 ! D20   D(8,7,9,11)          -179.6836         calculate D2E/DX2 analytically  !
 ! D21   D(7,9,11,12)            0.0852         calculate D2E/DX2 analytically  !
 ! D22   D(7,9,11,16)         -179.9745         calculate D2E/DX2 analytically  !
 ! D23   D(10,9,11,12)        -179.831          calculate D2E/DX2 analytically  !
 ! D24   D(10,9,11,16)           0.1093         calculate D2E/DX2 analytically  !
 ! D25   D(9,11,12,13)         179.9215         calculate D2E/DX2 analytically  !
 ! D26   D(9,11,12,14)          -0.0192         calculate D2E/DX2 analytically  !
 ! D27   D(16,11,12,13)         -0.0187         calculate D2E/DX2 analytically  !
 ! D28   D(16,11,12,14)       -179.9595         calculate D2E/DX2 analytically  !
 ! D29   D(9,11,16,17)         -89.6408         calculate D2E/DX2 analytically  !
 ! D30   D(12,11,16,17)         90.2994         calculate D2E/DX2 analytically  !
 ! D31   D(11,12,14,3)          -0.1625         calculate D2E/DX2 analytically  !
 ! D32   D(11,12,14,15)        179.8828         calculate D2E/DX2 analytically  !
 ! D33   D(13,12,14,3)         179.8968         calculate D2E/DX2 analytically  !
 ! D34   D(13,12,14,15)         -0.0579         calculate D2E/DX2 analytically  !
 ! D35   D(11,16,17,18)       -179.8127         calculate D2E/DX2 analytically  !
 ! D36   D(11,16,17,19)        -59.8127         calculate D2E/DX2 analytically  !
 ! D37   D(11,16,17,20)         60.1873         calculate D2E/DX2 analytically  !
 --------------------------------------------------------------------------------
 Trust Radius=3.00D-01 FncErr=1.00D-07 GrdErr=1.00D-06 EigMax=2.50D+02 EigMin=1.00D-04
 Number of steps in this run=     97 maximum allowed number of steps=    120.
 GradGradGradGradGradGradGradGradGradGradGradGradGradGradGradGradGradGrad

                          Input orientation:                          
 ---------------------------------------------------------------------
 Center     Atomic      Atomic             Coordinates (Angstroms)
 Number     Number       Type             X           Y           Z
 ---------------------------------------------------------------------
      1          8           0        8.693701    7.451595    5.541649
      2          1           0        9.502193    7.137737    5.956544
      3          6           0        6.245510    6.997434    5.171772
      4          5           0        7.641708    6.616527    5.771970
      5          8           0        7.874947    5.493847    6.519897
      6          1           0        7.099744    4.951929    6.674467
      7          6           0        5.122923    6.170805    5.288524
      8          1           0        5.190378    5.215994    5.803906
      9          6           0        3.895492    6.537926    4.748104
     10          1           0        3.038365    5.882688    4.848858
     11          6           0        3.772716    7.749791    4.075628
     12          6           0        4.877176    8.586807    3.945493
     13          1           0        4.782667    9.530279    3.420756
     14          6           0        6.100328    8.210725    4.487806
     15          1           0        6.963122    8.859535    4.386577
     16          8           0        2.512860    8.133075    3.518173
     17          6           0        2.415639    7.644761    2.177652
     18          1           0        1.474170    7.934593    1.759880
     19          1           0        3.208845    8.056874    1.589530
     20          1           0        2.491157    6.577433    2.180498
 ---------------------------------------------------------------------
                    Distance matrix (angstroms):
                    1          2          3          4          5
     1  O    0.000000
     2  H    0.961407   0.000000
     3  C    2.517282   3.352840   0.000000
     4  B    1.362746   1.940910   1.566747   0.000000
     5  O    2.336687   2.380687   2.594856   1.369016   0.000000
     6  H    3.173690   3.326399   2.678040   1.969546   0.958388
     7  C    3.801967   4.534227   1.398981   2.603203   3.090014
     8  H    4.164128   4.723150   2.164815   2.823390   2.792267
     9  C    4.948466   5.766732   2.431713   3.884407   4.479443
    10  H    5.909675   6.677064   3.410676   4.751991   5.131870
    11  C    5.143368   6.061300   2.807540   4.373896   5.281291
    12  C    4.289788   5.247372   2.429445   3.854952   5.018026
    13  H    4.910733   5.867572   3.408998   4.710868   5.954801
    14  C    2.900422   3.857613   1.400344   2.562498   3.828850
    15  H    2.512248   3.446196   2.144509   2.722293   4.087828
    16  O    6.539241   7.469078   4.237540   5.803844   6.687888
    17  C    7.125156   8.047133   4.904253   6.425588   7.299696
    18  H    8.164355   9.093741   5.940114   7.474804   8.341759
    19  H    6.787434   7.715041   4.814167   6.262402   7.256041
    20  H    7.108660   7.982925   4.818640   6.279202   6.999267
                    6          7          8          9         10
     6  H    0.000000
     7  C    2.704500   0.000000
     8  H    2.115014   1.087121   0.000000
     9  C    4.061218   1.390474   2.130482   0.000000
    10  H    4.549061   2.149814   2.446989   1.083584   0.000000
    11  C    5.064693   2.405696   3.378881   1.391372   2.150170
    12  C    5.059589   2.775102   3.861887   2.409523   3.392573
    13  H    6.075917   3.858808   4.945572   3.391623   4.288005
    14  C    4.049700   2.399530   3.395371   2.779805   3.863384
    15  H    4.530176   3.380697   4.292649   3.864055   4.947630
    16  O    6.412596   3.714441   4.571984   2.443134   2.666668
    17  C    7.029476   4.379436   5.171828   3.165797   3.260066
    18  H    8.043416   5.373609   6.128224   4.091816   4.024774
    19  H    7.115923   4.572036   5.455093   3.571453   3.921654
    20  H    6.639058   4.092843   4.718940   2.926827   2.811094
                   11         12         13         14         15
    11  C    0.000000
    12  C    1.391892   0.000000
    13  H    2.149185   1.083707   0.000000
    14  C    2.408346   1.389835   2.148499   0.000000
    15  H    3.392184   2.149443   2.477315   1.084258   0.000000
    16  O    1.430000   2.445090   2.667151   3.717008   4.592026
    17  C    2.335595   3.173622   3.271591   4.385665   5.199483
    18  H    3.268051   4.096674   4.031237   5.377654   6.154969
    19  H    2.567671   2.935084   2.828644   4.096871   4.749983
    20  H    2.570668   3.584115   3.938091   4.584477   5.483908
                   16         17         18         19         20
    16  O    0.000000
    17  C    1.430000   0.000000
    18  H    2.051796   1.070000   0.000000
    19  H    2.051796   1.070000   1.747303   0.000000
    20  H    2.051796   1.070000   1.747303   1.747303   0.000000
 Symmetry turned off by external request.
 Stoichiometry    C7H9BO3
 Framework group  C1[X(C7H9BO3)]
 Deg. of freedom    54
 Full point group                 C1      NOp   1
 Rotational constants (GHZ):           3.1892238           0.5391768           0.4791104
 Standard basis: 6-311+G(d,p) (5D, 7F)
   296 basis functions,   468 primitive gaussians,   307 cartesian basis functions
    40 alpha electrons       40 beta electrons
       nuclear repulsion energy       562.8911680675 Hartrees.
 NAtoms=   20 NActive=   20 NUniq=   20 SFac= 1.00D+00 NAtFMM=   60 NAOKFM=F Big=F
 Integral buffers will be    131072 words long.
 Raffenetti 2 integral format.
 Two-electron integral symmetry is turned off.
 One-electron integrals computed using PRISM.
 NBasis=   296 RedAO= T EigKep=  2.12D-06  NBF=   296
 NBsUse=   296 1.00D-06 EigRej= -1.00D+00 NBFU=   296
 ExpMin= 3.15D-02 ExpMax= 8.59D+03 ExpMxC= 1.30D+03 IAcc=3 IRadAn=         5 AccDes= 0.00D+00
 Harris functional with IExCor= 1009 and IRadAn=       5 diagonalized for initial guess.
 HarFok:  IExCor= 1009 AccDes= 0.00D+00 IRadAn=         5 IDoV= 1 UseB2=F ITyADJ=14
 ICtDFT=  3500011 ScaDFX=  1.000000  1.000000  1.000000  1.000000
 FoFCou: FMM=F IPFlag=           0 FMFlag=      100000 FMFlg1=           0
         NFxFlg=           0 DoJE=T BraDBF=F KetDBF=T FulRan=T
         wScrn=  0.000000 ICntrl=       500 IOpCl=  0 I1Cent=   200000004 NGrid=           0
         NMat0=    1 NMatS0=      1 NMatT0=    0 NMatD0=    1 NMtDS0=    0 NMtDT0=    0
 Symmetry not used in FoFCou.
 Requested convergence on RMS density matrix=1.00D-08 within 128 cycles.
 Requested convergence on MAX density matrix=1.00D-06.
 Requested convergence on             energy=1.00D-06.
 Level shift goal  0.100 maximum shift  0.100.
 No special actions if energy rises.
 Dynamic level shift is on during FON iterations.
 SCF Done:  E(RM062X) =  -522.729382429     A.U. after   14 cycles
            NFock= 14  Conv=0.37D-08     -V/T= 2.0036
 DoSCS=F DFT=T ScalE2(SS,OS)=  1.000000  1.000000
 Range of M.O.s used for correlation:     1   296
 NBasis=   296 NAE=    40 NBE=    40 NFC=     0 NFV=     0
 NROrb=    296 NOA=    40 NOB=    40 NVA=   256 NVB=   256

 **** Warning!!: The largest alpha MO coefficient is  0.14090380D+03

 Symmetrizing basis deriv contribution to polar:
 IMax=3 JMax=2 DiffMx= 0.00D+00
 G2DrvN: will do    21 centers at a time, making    1 passes.
 Calling FoFCou, ICntrl=  3107 FMM=F I1Cent=   0 AccDes= 0.00D+00.
 End of G2Drv F.D. properties file   721 does not exist.
 End of G2Drv F.D. properties file   722 does not exist.
 End of G2Drv F.D. properties file   788 does not exist.
          IDoAtm=11111111111111111111
          Differentiating once with respect to nuclear coordinates.
 Keep R1 ints in memory in canonical form, NReq=1002449809.
          There are    63 degrees of freedom in the 1st order CPHF.  IDoFFX=6 NUNeed=     0.
     57 vectors produced by pass  0 Test12= 1.63D-14 1.59D-09 XBig12= 1.43D-01 1.20D-01.
 AX will form    57 AO Fock derivatives at one time.
     57 vectors produced by pass  1 Test12= 1.63D-14 1.59D-09 XBig12= 1.03D-02 2.94D-02.
     57 vectors produced by pass  2 Test12= 1.63D-14 1.59D-09 XBig12= 3.66D-04 4.14D-03.
     57 vectors produced by pass  3 Test12= 1.63D-14 1.59D-09 XBig12= 2.98D-06 2.38D-04.
     57 vectors produced by pass  4 Test12= 1.63D-14 1.59D-09 XBig12= 1.83D-08 1.23D-05.
     57 vectors produced by pass  5 Test12= 1.63D-14 1.59D-09 XBig12= 7.12D-11 6.90D-07.
     50 vectors produced by pass  6 Test12= 1.63D-14 1.59D-09 XBig12= 2.72D-13 4.98D-08.
     10 vectors produced by pass  7 Test12= 1.63D-14 1.59D-09 XBig12= 1.05D-15 3.19D-09.
 InvSVY:  IOpt=1 It=  1 EMax= 5.00D-16
 Solved reduced A of dimension   402 with    63 vectors.
 End of Minotr F.D. properties file   721 does not exist.
 End of Minotr F.D. properties file   722 does not exist.
 End of Minotr F.D. properties file   788 does not exist.

 **********************************************************************

            Population analysis using the SCF Density.

 **********************************************************************

 Alpha  occ. eigenvalues --  -19.64206 -19.64134 -19.63324 -10.60956 -10.58063
 Alpha  occ. eigenvalues --  -10.55998 -10.55233 -10.55171 -10.54958 -10.53352
 Alpha  occ. eigenvalues --   -7.08669  -1.17168  -1.16615  -1.13453  -0.96662
 Alpha  occ. eigenvalues --   -0.85537  -0.85105  -0.78578  -0.70633  -0.68824
 Alpha  occ. eigenvalues --   -0.65577  -0.63430  -0.60122  -0.56101  -0.54850
 Alpha  occ. eigenvalues --   -0.53569  -0.52142  -0.50800  -0.49733  -0.48411
 Alpha  occ. eigenvalues --   -0.48125  -0.45837  -0.44113  -0.41994  -0.41715
 Alpha  occ. eigenvalues --   -0.40790  -0.39160  -0.35303  -0.31802  -0.30829
 Alpha virt. eigenvalues --   -0.00543  -0.00494   0.01028   0.01472   0.01657
 Alpha virt. eigenvalues --    0.03032   0.03310   0.03688   0.04455   0.05048
 Alpha virt. eigenvalues --    0.06099   0.06804   0.07868   0.08527   0.08817
 Alpha virt. eigenvalues --    0.10055   0.11351   0.11995   0.12452   0.12752
 Alpha virt. eigenvalues --    0.13530   0.14675   0.14796   0.15420   0.15600
 Alpha virt. eigenvalues --    0.16246   0.17108   0.17387   0.17719   0.18255
 Alpha virt. eigenvalues --    0.18641   0.19287   0.19868   0.20162   0.22053
 Alpha virt. eigenvalues --    0.22173   0.22983   0.23128   0.23656   0.23869
 Alpha virt. eigenvalues --    0.24587   0.25195   0.25580   0.25865   0.26113
 Alpha virt. eigenvalues --    0.26703   0.27615   0.28376   0.29214   0.29682
 Alpha virt. eigenvalues --    0.30035   0.31119   0.31748   0.33222   0.35343
 Alpha virt. eigenvalues --    0.36111   0.36433   0.37610   0.38647   0.39037
 Alpha virt. eigenvalues --    0.40773   0.43019   0.43565   0.45252   0.47547
 Alpha virt. eigenvalues --    0.48076   0.49086   0.49774   0.51738   0.52914
 Alpha virt. eigenvalues --    0.53306   0.54850   0.56214   0.57797   0.58077
 Alpha virt. eigenvalues --    0.59814   0.61074   0.61371   0.62587   0.64229
 Alpha virt. eigenvalues --    0.65501   0.66725   0.68844   0.69512   0.69837
 Alpha virt. eigenvalues --    0.70554   0.70713   0.71798   0.72048   0.74308
 Alpha virt. eigenvalues --    0.75028   0.76401   0.77594   0.79111   0.82984
 Alpha virt. eigenvalues --    0.85721   0.86192   0.87534   0.90044   0.90614
 Alpha virt. eigenvalues --    0.90856   0.92051   0.92798   0.95186   0.97409
 Alpha virt. eigenvalues --    1.00650   1.03037   1.03504   1.04082   1.06252
 Alpha virt. eigenvalues --    1.06969   1.08416   1.09969   1.11115   1.11811
 Alpha virt. eigenvalues --    1.12330   1.13088   1.14640   1.16067   1.19908
 Alpha virt. eigenvalues --    1.21711   1.24265   1.25867   1.31792   1.32903
 Alpha virt. eigenvalues --    1.34002   1.34842   1.37106   1.38959   1.41494
 Alpha virt. eigenvalues --    1.45410   1.47555   1.49828   1.50584   1.51047
 Alpha virt. eigenvalues --    1.53682   1.55867   1.57427   1.58872   1.60230
 Alpha virt. eigenvalues --    1.61642   1.62518   1.64897   1.66647   1.69064
 Alpha virt. eigenvalues --    1.70106   1.70439   1.71974   1.75870   1.76282
 Alpha virt. eigenvalues --    1.78432   1.79605   1.80384   1.81498   1.84218
 Alpha virt. eigenvalues --    1.85729   1.87248   1.92945   1.95435   1.95873
 Alpha virt. eigenvalues --    1.97093   2.00197   2.01578   2.01924   2.04594
 Alpha virt. eigenvalues --    2.08411   2.09356   2.10371   2.13274   2.14288
 Alpha virt. eigenvalues --    2.16337   2.17235   2.20968   2.22455   2.27444
 Alpha virt. eigenvalues --    2.29534   2.36260   2.42267   2.44349   2.47251
 Alpha virt. eigenvalues --    2.49307   2.55915   2.57334   2.58625   2.60171
 Alpha virt. eigenvalues --    2.61339   2.61929   2.62857   2.64118   2.67906
 Alpha virt. eigenvalues --    2.69382   2.73658   2.73777   2.74533   2.76515
 Alpha virt. eigenvalues --    2.78508   2.79223   2.80026   2.84732   2.87456
 Alpha virt. eigenvalues --    2.90146   2.95157   2.95863   2.98105   3.04962
 Alpha virt. eigenvalues --    3.06994   3.07181   3.11087   3.14785   3.19015
 Alpha virt. eigenvalues --    3.23978   3.26397   3.28184   3.30412   3.34184
 Alpha virt. eigenvalues --    3.37195   3.40531   3.43604   3.48045   3.54028
 Alpha virt. eigenvalues --    3.55652   3.60815   3.64460   3.66378   3.67888
 Alpha virt. eigenvalues --    3.89152   3.90021   3.92113   3.94766   4.03680
 Alpha virt. eigenvalues --    4.09622   4.10298   4.18422   4.19369   4.22710
 Alpha virt. eigenvalues --    4.86095   5.08188   5.09204   5.27090   5.39253
 Alpha virt. eigenvalues --    5.49099   5.49858   5.68791   5.76223   5.76917
 Alpha virt. eigenvalues --   14.79502  23.65624  24.01544  24.02934  24.04206
 Alpha virt. eigenvalues --   24.13364  24.17679  24.25852  50.00013  50.04301
 Alpha virt. eigenvalues --   50.05395
          Condensed to atoms (all electrons):
               1          2          3          4          5          6
     1  O    7.773976   0.266260   0.033621   0.446045  -0.120257   0.019567
     2  H    0.266260   0.454804   0.051877  -0.004918  -0.034890   0.003276
     3  C    0.033621   0.051877   8.733708   0.234203  -0.192678   0.007980
     4  B    0.446045  -0.004918   0.234203   3.351778   0.368193   0.015160
     5  O   -0.120257  -0.034890  -0.192678   0.368193   7.985700   0.254695
     6  H    0.019567   0.003276   0.007980   0.015160   0.254695   0.434629
     7  C    0.057344  -0.006853  -1.042677   0.078456   0.003176  -0.049361
     8  H    0.002226  -0.000040   0.026400   0.013615  -0.006368   0.011797
     9  C    0.051476   0.004823  -0.229399   0.078249   0.000073   0.057101
    10  H   -0.000040  -0.000001  -0.003653  -0.000023   0.000295  -0.000057
    11  C   -0.011596  -0.001304  -0.866930   0.016801   0.006310  -0.001289
    12  C   -0.004602  -0.018527  -0.733051   0.007742   0.045274  -0.009944
    13  H    0.000353   0.000000   0.011453   0.000299  -0.000016   0.000003
    14  C   -0.144755  -0.021634   0.282176  -0.069995   0.050923   0.002867
    15  H    0.003658  -0.000727   0.039476  -0.007967   0.002125  -0.000090
    16  O    0.000007   0.000001  -0.007692  -0.000961   0.000012  -0.000007
    17  C   -0.000133  -0.000003   0.004346  -0.001217   0.000008  -0.000043
    18  H    0.000000   0.000000  -0.000061  -0.000014   0.000000   0.000000
    19  H    0.000001   0.000000   0.001008  -0.000083  -0.000001   0.000000
    20  H    0.000000   0.000000   0.002075  -0.000044   0.000001   0.000000
               7          8          9         10         11         12
     1  O    0.057344   0.002226   0.051476  -0.000040  -0.011596  -0.004602
     2  H   -0.006853  -0.000040   0.004823  -0.000001  -0.001304  -0.018527
     3  C   -1.042677   0.026400  -0.229399  -0.003653  -0.866930  -0.733051
     4  B    0.078456   0.013615   0.078249  -0.000023   0.016801   0.007742
     5  O    0.003176  -0.006368   0.000073   0.000295   0.006310   0.045274
     6  H   -0.049361   0.011797   0.057101  -0.000057  -0.001289  -0.009944
     7  C   10.533102   0.272119  -2.610856   0.032576   0.431559   0.649358
     8  H    0.272119   0.547771   0.059210  -0.006587  -0.011611  -0.005356
     9  C   -2.610856   0.059210  11.479663   0.367786  -1.057068  -2.163761
    10  H    0.032576  -0.006587   0.367786   0.490226   0.006500  -0.041938
    11  C    0.431559  -0.011611  -1.057068   0.006500   8.154080  -0.697619
    12  C    0.649358  -0.005356  -2.163761  -0.041938  -0.697619  10.924558
    13  H   -0.008278   0.000077  -0.037621  -0.000077  -0.016471   0.374983
    14  C   -2.100228  -0.026158  -0.014398  -0.004674   0.068318  -2.361766
    15  H   -0.010093  -0.000132  -0.001471   0.000053   0.005116   0.004818
    16  O    0.046058  -0.000608  -0.296032  -0.003329   0.654161  -0.305207
    17  C   -0.024271  -0.000132   0.139759   0.000636  -0.406345   0.139184
    18  H    0.000698  -0.000003  -0.000704  -0.000218   0.008590   0.002246
    19  H    0.009924  -0.000005  -0.024086  -0.000010  -0.022719   0.052825
    20  H   -0.018530   0.000049   0.057828   0.000316  -0.027807  -0.024537
              13         14         15         16         17         18
     1  O    0.000353  -0.144755   0.003658   0.000007  -0.000133   0.000000
     2  H    0.000000  -0.021634  -0.000727   0.000001  -0.000003   0.000000
     3  C    0.011453   0.282176   0.039476  -0.007692   0.004346  -0.000061
     4  B    0.000299  -0.069995  -0.007967  -0.000961  -0.001217  -0.000014
     5  O   -0.000016   0.050923   0.002125   0.000012   0.000008   0.000000
     6  H    0.000003   0.002867  -0.000090  -0.000007  -0.000043   0.000000
     7  C   -0.008278  -2.100228  -0.010093   0.046058  -0.024271   0.000698
     8  H    0.000077  -0.026158  -0.000132  -0.000608  -0.000132  -0.000003
     9  C   -0.037621  -0.014398  -0.001471  -0.296032   0.139759  -0.000704
    10  H   -0.000077  -0.004674   0.000053  -0.003329   0.000636  -0.000218
    11  C   -0.016471   0.068318   0.005116   0.654161  -0.406345   0.008590
    12  C    0.374983  -2.361766   0.004818  -0.305207   0.139184   0.002246
    13  H    0.486735   0.032521  -0.005434  -0.003688   0.000244  -0.000215
    14  C    0.032521  10.360695   0.312402   0.052360  -0.029831   0.001987
    15  H   -0.005434   0.312402   0.474476  -0.000530  -0.000023  -0.000002
    16  O   -0.003688   0.052360  -0.000530   8.016297   0.160653  -0.052722
    17  C    0.000244  -0.029831  -0.000023   0.160653   5.119829   0.416265
    18  H   -0.000215   0.001987  -0.000002  -0.052722   0.416265   0.504310
    19  H    0.000403  -0.017878   0.000032  -0.045181   0.415836  -0.025962
    20  H   -0.000013   0.009631  -0.000003  -0.045729   0.415361  -0.026290
              19         20
     1  O    0.000001   0.000000
     2  H    0.000000   0.000000
     3  C    0.001008   0.002075
     4  B   -0.000083  -0.000044
     5  O   -0.000001   0.000001
     6  H    0.000000   0.000000
     7  C    0.009924  -0.018530
     8  H   -0.000005   0.000049
     9  C   -0.024086   0.057828
    10  H   -0.000010   0.000316
    11  C   -0.022719  -0.027807
    12  C    0.052825  -0.024537
    13  H    0.000403  -0.000013
    14  C   -0.017878   0.009631
    15  H    0.000032  -0.000003
    16  O   -0.045181  -0.045729
    17  C    0.415836   0.415361
    18  H   -0.025962  -0.026290
    19  H    0.545770  -0.047798
    20  H   -0.047798   0.549164
 Mulliken charges:
               1
     1  O   -0.373153
     2  H    0.307855
     3  C   -0.352182
     4  B    0.474681
     5  O   -0.362577
     6  H    0.253717
     7  C   -0.243223
     8  H    0.123735
     9  C    0.139429
    10  H    0.162217
    11  C   -0.230677
    12  C    0.165321
    13  H    0.164745
    14  C   -0.382563
    15  H    0.184316
    16  O   -0.167863
    17  C   -0.350124
    18  H    0.172096
    19  H    0.157924
    20  H    0.156326
 Sum of Mulliken charges =   0.00000
 Mulliken charges with hydrogens summed into heavy atoms:
               1
     1  O   -0.065297
     3  C   -0.352182
     4  B    0.474681
     5  O   -0.108860
     7  C   -0.119488
     9  C    0.301646
    11  C   -0.230677
    12  C    0.330066
    14  C   -0.198247
    16  O   -0.167863
    17  C    0.136223
 APT charges:
               1
     1  O   -0.419749
     2  H    2.022155
     3  C   -1.447432
     4  B   -0.403158
     5  O    1.259786
     6  H   -1.178627
     7  C   -0.560957
     8  H   -0.171964
     9  C    0.081567
    10  H   -0.812678
    11  C   -1.047715
    12  C   -0.675400
    13  H    1.244005
    14  C    0.151734
    15  H    1.874993
    16  O   -0.427954
    17  C    0.278716
    18  H    0.136969
    19  H    0.804859
    20  H   -0.709150
 Sum of APT charges =   0.00000
 APT charges with hydrogens summed into heavy atoms:
               1
     1  O    1.602406
     3  C   -1.447432
     4  B   -0.403158
     5  O    0.081159
     7  C   -0.732921
     9  C   -0.731112
    11  C   -1.047715
    12  C    0.568605
    14  C    2.026727
    16  O   -0.427954
    17  C    0.511394
 Electronic spatial extent (au):  <R**2>=          31456.2707
 Charge=              0.0000 electrons
 Dipole moment (field-independent basis, Debye):
    X=             -0.0334    Y=             -1.7332    Z=             -0.7341  Tot=              1.8826
 Quadrupole moment (field-independent basis, Debye-Ang):
   XX=            -65.4070   YY=            -86.5522   ZZ=            -67.0801
   XY=             -5.2874   XZ=              0.7282   YZ=            -17.2639
 Traceless Quadrupole moment (field-independent basis, Debye-Ang):
   XX=              7.6061   YY=            -13.5391   ZZ=              5.9330
   XY=             -5.2874   XZ=              0.7282   YZ=            -17.2639
 Octapole moment (field-independent basis, Debye-Ang**2):
  XXX=          -1012.1797  YYY=          -1611.4281  ZZZ=           -892.6275  XYY=           -404.8060
  XXY=           -485.3746  XXZ=           -277.2143  XZZ=           -329.1926  YZZ=           -557.5703
  YYZ=           -491.2841  XYZ=            -35.2384
 Hexadecapole moment (field-independent basis, Debye-Ang**3):
 XXXX=         -12028.4080 YYYY=         -22488.0942 ZZZZ=          -8831.6850 XXXY=          -7170.3487
 XXXZ=          -4781.3227 YYYX=          -7840.0096 YYYZ=          -8126.6621 ZZZX=          -5047.3569
 ZZZY=          -6720.3968 XXYY=          -5777.8527 XXZZ=          -3394.0576 YYZZ=          -6002.2312
 XXYZ=          -2064.1021 YYXZ=          -2203.6460 ZZXY=          -2592.6881
 N-N= 5.628911680675D+02 E-N=-2.348154948985D+03  KE= 5.208382705324D+02
  Exact polarizability:       0.000       0.000       0.000       0.000       0.000       0.000
 Approx polarizability:     144.919       4.248     126.478      17.022     -23.116     100.484
 Calling FoFJK, ICntrl=    100127 FMM=F ISym2X=0 I1Cent= 0 IOpClX= 0 NMat=1 NMatS=1 NMatT=0.
 -------------------------------------------------------------------
 Center     Atomic                   Forces (Hartrees/Bohr)
 Number     Number              X              Y              Z
 -------------------------------------------------------------------
      1        8           0.000031910    0.000064610   -0.000125704
      2        1           0.000028310    0.000041340    0.000026974
      3        6           0.001813468   -0.000774477    0.000779566
      4        5          -0.000587775    0.000169465   -0.000115128
      5        8          -0.000081926   -0.000165896   -0.000061520
      6        1           0.000159702   -0.000014506    0.000145619
      7        6           0.000577949    0.003050956   -0.001193500
      8        1          -0.000724287    0.000314095   -0.000194154
      9        6          -0.003107881   -0.001798995   -0.000286172
     10        1          -0.001547670    0.001514532   -0.000806160
     11        6          -0.023366437    0.007854579   -0.008937097
     12        6          -0.000971872    0.002759042   -0.002093918
     13        1          -0.002285049   -0.000044475   -0.000203155
     14        6          -0.002227843   -0.002410315    0.000924660
     15        1          -0.000564200    0.000342011   -0.000160362
     16        8           0.030677439   -0.010815613    0.009999499
     17        6           0.002318788    0.005433802    0.016176997
     18        1          -0.012755404    0.005844165   -0.000847829
     19        1           0.011770453    0.005603319   -0.011000052
     20        1           0.000842328   -0.016967639   -0.002028565
 -------------------------------------------------------------------
 Cartesian Forces:  Max     0.030677439 RMS     0.007057856
 FormGI is forming the generalized inverse of G from B-inverse, IUseBI=4.

 GradGradGradGradGradGradGradGradGradGradGradGradGradGradGradGradGradGrad
 Berny optimization.
 Internal  Forces:  Max     0.036662285 RMS     0.005281991
 Search for a local minimum.
 Step number   1 out of a maximum of   97
 All quantities printed in internal units (Hartrees-Bohrs-Radians)
 Mixed Optimization -- RFO/linear search
 Second derivative matrix not updated -- analytic derivatives used.
 ITU=  0
     Eigenvalues ---    0.00003   0.00075   0.00546   0.01036   0.01209
     Eigenvalues ---    0.01488   0.01765   0.01850   0.02129   0.02311
     Eigenvalues ---    0.02480   0.02621   0.02830   0.02864   0.03971
     Eigenvalues ---    0.08801   0.08907   0.10339   0.10529   0.11014
     Eigenvalues ---    0.11267   0.11914   0.12545   0.13250   0.15882
     Eigenvalues ---    0.17300   0.17428   0.18005   0.18498   0.18942
     Eigenvalues ---    0.19324   0.19632   0.20609   0.22478   0.27637
     Eigenvalues ---    0.29173   0.31915   0.35473   0.36388   0.36541
     Eigenvalues ---    0.36678   0.38538   0.38555   0.39038   0.39208
     Eigenvalues ---    0.41260   0.42162   0.42695   0.47042   0.47722
     Eigenvalues ---    0.49023   0.51779   0.55217   0.56241
 RFO step:  Lambda=-8.20850927D-03 EMin= 3.01800451D-05
 Linear search not attempted -- first point.
 Iteration  1 RMS(Cart)=  0.04247350 RMS(Int)=  0.00178711
 Iteration  2 RMS(Cart)=  0.00260142 RMS(Int)=  0.00007224
 Iteration  3 RMS(Cart)=  0.00000686 RMS(Int)=  0.00007213
 Iteration  4 RMS(Cart)=  0.00000000 RMS(Int)=  0.00007213
 Variable       Old X    -DE/DX   Delta X   Delta X   Delta X     New X
                                 (Linear)    (Quad)   (Total)
    R1        1.81680   0.00002   0.00000  -0.00006  -0.00006   1.81674
    R2        2.57522   0.00013   0.00000   0.00110   0.00110   2.57632
    R3        2.96072  -0.00047   0.00000  -0.00421  -0.00421   2.95652
    R4        2.64369   0.00032   0.00000   0.00043   0.00042   2.64411
    R5        2.64627   0.00048   0.00000   0.00114   0.00113   2.64740
    R6        2.58707   0.00020   0.00000   0.00099   0.00099   2.58806
    R7        1.81109  -0.00010   0.00000  -0.00017  -0.00017   1.81092
    R8        2.05436  -0.00041   0.00000  -0.00027  -0.00027   2.05409
    R9        2.62762  -0.00072   0.00000  -0.00245  -0.00245   2.62517
   R10        2.04768   0.00023   0.00000   0.00047   0.00047   2.04815
   R11        2.62931  -0.00377   0.00000   0.00037   0.00038   2.62969
   R12        2.63029  -0.00395   0.00000   0.00009   0.00010   2.63039
   R13        2.70231  -0.03666   0.00000  -0.12861  -0.12861   2.57370
   R14        2.04791   0.00026   0.00000   0.00058   0.00058   2.04849
   R15        2.62641  -0.00080   0.00000  -0.00287  -0.00287   2.62354
   R16        2.04895  -0.00023   0.00000  -0.00008  -0.00008   2.04887
   R17        2.70231  -0.00227   0.00000  -0.01749  -0.01749   2.68482
   R18        2.02201   0.01314   0.00000   0.03205   0.03205   2.05405
   R19        2.02201   0.01693   0.00000   0.04264   0.04264   2.06465
   R20        2.02201   0.01698   0.00000   0.04283   0.04283   2.06483
    A1        1.95648   0.00008   0.00000  -0.00025  -0.00025   1.95623
    A2        2.14059   0.00082   0.00000   0.00303   0.00303   2.14362
    A3        2.08305   0.00018   0.00000   0.00062   0.00062   2.08368
    A4        2.05954  -0.00100   0.00000  -0.00365  -0.00366   2.05589
    A5        2.06486  -0.00034   0.00000  -0.00017  -0.00017   2.06469
    A6        2.05255  -0.00004   0.00000  -0.00139  -0.00139   2.05116
    A7        2.16577   0.00038   0.00000   0.00157   0.00157   2.16733
    A8        1.99765   0.00032   0.00000   0.00079   0.00079   1.99844
    A9        2.10452   0.00038   0.00000   0.00039   0.00039   2.10490
   A10        2.11753   0.00064   0.00000   0.00424   0.00424   2.12177
   A11        2.06113  -0.00102   0.00000  -0.00461  -0.00462   2.05651
   A12        2.09724   0.00374   0.00000   0.02364   0.02360   2.12085
   A13        2.08944  -0.00284   0.00000  -0.00613  -0.00612   2.08332
   A14        2.09650  -0.00090   0.00000  -0.01749  -0.01752   2.07898
   A15        2.09317   0.00537   0.00000   0.00737   0.00735   2.10052
   A16        2.09394  -0.00270   0.00000  -0.00371  -0.00379   2.09015
   A17        2.09608  -0.00267   0.00000  -0.00364  -0.00372   2.09236
   A18        2.09394  -0.00084   0.00000  -0.01697  -0.01700   2.07694
   A19        2.09339  -0.00293   0.00000  -0.00647  -0.00646   2.08693
   A20        2.09586   0.00377   0.00000   0.02345   0.02341   2.11927
   A21        2.11329   0.00077   0.00000   0.00466   0.00466   2.11795
   A22        2.07323   0.00025   0.00000   0.00015   0.00015   2.07338
   A23        2.09666  -0.00102   0.00000  -0.00481  -0.00482   2.09184
   A24        1.91114   0.00854   0.00000   0.06418   0.06418   1.97531
   A25        1.91063  -0.00917   0.00000  -0.04567  -0.04559   1.86505
   A26        1.91063   0.00415   0.00000   0.02096   0.02085   1.93148
   A27        1.91063   0.00418   0.00000   0.02113   0.02101   1.93165
   A28        1.91063   0.00095   0.00000   0.00408   0.00417   1.91480
   A29        1.91063   0.00093   0.00000   0.00393   0.00401   1.91464
   A30        1.91063  -0.00105   0.00000  -0.00443  -0.00472   1.90591
    D1        3.13168  -0.00002   0.00000  -0.00179  -0.00179   3.12989
    D2       -0.00754  -0.00005   0.00000  -0.00258  -0.00258  -0.01013
    D3        3.07801   0.00001   0.00000  -0.00046  -0.00044   3.07757
    D4       -0.06611   0.00004   0.00000   0.00038   0.00041  -0.06571
    D5       -0.06313  -0.00011   0.00000  -0.00453  -0.00455  -0.06768
    D6        3.07593  -0.00008   0.00000  -0.00368  -0.00370   3.07223
    D7       -0.00824   0.00010   0.00000   0.00265   0.00267  -0.00557
    D8        3.13850  -0.00002   0.00000  -0.00137  -0.00138   3.13712
    D9        3.13290   0.00021   0.00000   0.00666   0.00672   3.13962
   D10       -0.00354   0.00009   0.00000   0.00264   0.00267  -0.00087
   D11       -3.13731   0.00003   0.00000   0.00153   0.00153  -3.13579
   D12        0.00350  -0.00010   0.00000  -0.00264  -0.00267   0.00083
   D13        0.00471  -0.00008   0.00000  -0.00235  -0.00238   0.00233
   D14       -3.13766  -0.00022   0.00000  -0.00652  -0.00657   3.13895
   D15        3.11325  -0.00005   0.00000  -0.00280  -0.00280   3.11045
   D16       -0.02583  -0.00009   0.00000  -0.00364  -0.00364  -0.02947
   D17        3.14063   0.00031   0.00000   0.01026   0.01038  -3.13218
   D18        0.00050  -0.00002   0.00000  -0.00132  -0.00131  -0.00081
   D19        0.00406   0.00019   0.00000   0.00633   0.00642   0.01048
   D20       -3.13607  -0.00014   0.00000  -0.00525  -0.00526  -3.14133
   D21        0.00149  -0.00005   0.00000  -0.00034  -0.00039   0.00109
   D22       -3.14115   0.00057   0.00000   0.02003   0.01997  -3.12118
   D23       -3.13864  -0.00039   0.00000  -0.01195  -0.01183   3.13271
   D24        0.00191   0.00024   0.00000   0.00843   0.00853   0.01044
   D25        3.14022   0.00038   0.00000   0.01180   0.01169  -3.13127
   D26       -0.00034   0.00006   0.00000   0.00061   0.00066   0.00033
   D27       -0.00033  -0.00024   0.00000  -0.00860  -0.00870  -0.00902
   D28       -3.14089  -0.00057   0.00000  -0.01979  -0.01973   3.12257
   D29       -1.56453  -0.00038   0.00000  -0.01618  -0.01611  -1.58064
   D30        1.57602   0.00025   0.00000   0.00424   0.00416   1.58018
   D31       -0.00284   0.00001   0.00000   0.00076   0.00075  -0.00208
   D32        3.13955   0.00014   0.00000   0.00498   0.00499  -3.13865
   D33        3.13979  -0.00031   0.00000  -0.01042  -0.01053   3.12926
   D34       -0.00101  -0.00018   0.00000  -0.00620  -0.00629  -0.00730
   D35       -3.13832   0.00000   0.00000   0.00143   0.00143  -3.13689
   D36       -1.04393  -0.00191   0.00000  -0.00870  -0.00900  -1.05292
   D37        1.05047   0.00191   0.00000   0.01165   0.01195   1.06241
         Item               Value     Threshold  Converged?
 Maximum Force            0.036662     0.000015     NO 
 RMS     Force            0.005282     0.000010     NO 
 Maximum Displacement     0.207725     0.000060     NO 
 RMS     Displacement     0.043709     0.000040     NO 
 Predicted change in Energy=-4.239374D-03
 GradGradGradGradGradGradGradGradGradGradGradGradGradGradGradGradGradGrad

                          Input orientation:                          
 ---------------------------------------------------------------------
 Center     Atomic      Atomic             Coordinates (Angstroms)
 Number     Number       Type             X           Y           Z
 ---------------------------------------------------------------------
      1          8           0        8.693790    7.460474    5.560015
      2          1           0        9.499101    7.154739    5.986918
      3          6           0        6.253057    6.990995    5.171334
      4          5           0        7.642974    6.622252    5.787684
      5          8           0        7.876164    5.506972    6.547564
      6          1           0        7.102701    4.962872    6.702638
      7          6           0        5.130700    6.162817    5.281827
      8          1           0        5.193187    5.213357    5.807320
      9          6           0        3.907084    6.518572    4.728633
     10          1           0        3.036056    5.880402    4.822144
     11          6           0        3.791175    7.727114    4.048582
     12          6           0        4.890636    8.571359    3.922301
     13          1           0        4.773297    9.511998    3.396453
     14          6           0        6.106928    8.200371    4.479456
     15          1           0        6.965593    8.855751    4.386192
     16          8           0        2.589425    8.094863    3.523757
     17          6           0        2.406230    7.656302    2.184870
     18          1           0        1.426530    8.006161    1.869803
     19          1           0        3.175100    8.077187    1.532650
     20          1           0        2.443914    6.565796    2.127541
 ---------------------------------------------------------------------
                    Distance matrix (angstroms):
                    1          2          3          4          5
     1  O    0.000000
     2  H    0.961377   0.000000
     3  C    2.515683   3.350939   0.000000
     4  B    1.363328   1.941248   1.564522   0.000000
     5  O    2.336650   2.379786   2.594380   1.369542   0.000000
     6  H    3.174140   3.325548   2.679565   1.970426   0.958299
     7  C    3.802225   4.534754   1.399204   2.603554   3.093509
     8  H    4.167123   4.726744   2.165132   2.826097   2.798666
     9  C    4.948831   5.767031   2.433671   3.884484   4.481678
    10  H    5.920391   6.689662   3.421175   4.765113   5.152006
    11  C    5.137233   6.055178   2.804159   4.368244   5.278359
    12  C    4.287208   5.244750   2.431836   3.854093   5.019546
    13  H    4.925446   5.882211   3.419846   4.722675   5.966365
    14  C    2.899467   3.856505   1.400942   2.561514   3.829055
    15  H    2.512235   3.445929   2.145105   2.722415   4.088397
    16  O    6.466225   7.395581   4.165961   5.729948   6.617416
    17  C    7.138863   8.063248   4.915250   6.439955   7.319351
    18  H    8.168751   9.101755   5.935152   7.477243   8.350159
    19  H    6.859733   7.790019   4.888113   6.339088   7.338621
    20  H    7.186326   8.063331   4.894389   6.358464   7.082870
                    6          7          8          9         10
     6  H    0.000000
     7  C    2.710601   0.000000
     8  H    2.123812   1.086978   0.000000
     9  C    4.065570   1.389180   2.126314   0.000000
    10  H    4.573370   2.163007   2.463480   1.083833   0.000000
    11  C    5.064706   2.400468   3.373095   1.391574   2.139847
    12  C    5.064057   2.776151   3.862772   2.414846   3.389753
    13  H    6.086996   3.859972   4.946403   3.389045   4.270724
    14  C    4.051604   2.397592   3.394171   2.780261   3.863928
    15  H    4.532022   3.379481   4.292792   3.864473   4.948133
    16  O    6.346992   3.644405   4.505254   2.381731   2.605595
    17  C    7.051357   4.386842   5.182399   3.165079   3.241253
    18  H    8.052131   5.362900   6.123030   4.066814   3.978158
    19  H    7.200956   4.641714   5.526934   3.630343   3.958025
    20  H    6.723479   4.163020   4.788358   2.984758   2.842760
                   11         12         13         14         15
    11  C    0.000000
    12  C    1.391945   0.000000
    13  H    2.139076   1.084014   0.000000
    14  C    2.402569   1.388315   2.161442   0.000000
    15  H    3.385962   2.145116   2.493272   1.084218   0.000000
    16  O    1.361941   2.383581   2.606487   3.646549   4.524776
    17  C    2.323039   3.166745   3.242615   4.388201   5.203104
    18  H    3.227459   4.065984   3.974802   5.362287   6.142901
    19  H    2.613812   2.982901   2.843708   4.158660   4.807983
    20  H    2.618048   3.637293   3.964376   4.649840   5.548963
                   16         17         18         19         20
    16  O    0.000000
    17  C    1.420745   0.000000
    18  H    2.023797   1.086958   0.000000
    19  H    2.075533   1.092564   1.782194   0.000000
    20  H    2.075726   1.092663   1.782175   1.781245   0.000000
 Symmetry turned off by external request.
 Stoichiometry    C7H9BO3
 Framework group  C1[X(C7H9BO3)]
 Deg. of freedom    54
 Full point group                 C1      NOp   1
 Rotational constants (GHZ):           3.2242517           0.5425519           0.4809081
 Standard basis: 6-311+G(d,p) (5D, 7F)
   296 basis functions,   468 primitive gaussians,   307 cartesian basis functions
    40 alpha electrons       40 beta electrons
       nuclear repulsion energy       564.7220861994 Hartrees.
 NAtoms=   20 NActive=   20 NUniq=   20 SFac= 1.00D+00 NAtFMM=   60 NAOKFM=F Big=F
 Integral buffers will be    131072 words long.
 Raffenetti 2 integral format.
 Two-electron integral symmetry is turned off.
 One-electron integrals computed using PRISM.
 NBasis=   296 RedAO= T EigKep=  2.11D-06  NBF=   296
 NBsUse=   296 1.00D-06 EigRej= -1.00D+00 NBFU=   296
 Initial guess from the checkpoint file:  "4-OMe-phboh2-opt-freq.chk"
 B after Tr=     0.069758   -0.043998   -0.004881
         Rot=    0.999998    0.001040    0.001685   -0.000759 Ang=   0.24 deg.
 ExpMin= 3.15D-02 ExpMax= 8.59D+03 ExpMxC= 1.30D+03 IAcc=3 IRadAn=         5 AccDes= 0.00D+00
 Harris functional with IExCor= 1009 and IRadAn=       5 diagonalized for initial guess.
 HarFok:  IExCor= 1009 AccDes= 0.00D+00 IRadAn=         5 IDoV= 1 UseB2=F ITyADJ=14
 ICtDFT=  3500011 ScaDFX=  1.000000  1.000000  1.000000  1.000000
 FoFCou: FMM=F IPFlag=           0 FMFlag=      100000 FMFlg1=           0
         NFxFlg=           0 DoJE=T BraDBF=F KetDBF=T FulRan=T
         wScrn=  0.000000 ICntrl=       500 IOpCl=  0 I1Cent=   200000004 NGrid=           0
         NMat0=    1 NMatS0=      1 NMatT0=    0 NMatD0=    1 NMtDS0=    0 NMtDT0=    0
 Symmetry not used in FoFCou.
 Requested convergence on RMS density matrix=1.00D-08 within 128 cycles.
 Requested convergence on MAX density matrix=1.00D-06.
 Requested convergence on             energy=1.00D-06.
 Level shift goal  0.100 maximum shift  0.100.
 No special actions if energy rises.
 Dynamic level shift is on during FON iterations.
 SCF Done:  E(RM062X) =  -522.733289259     A.U. after   12 cycles
            NFock= 12  Conv=0.62D-08     -V/T= 2.0035
 Calling FoFJK, ICntrl=      2127 FMM=F ISym2X=0 I1Cent= 0 IOpClX= 0 NMat=1 NMatS=1 NMatT=0.
 -------------------------------------------------------------------
 Center     Atomic                   Forces (Hartrees/Bohr)
 Number     Number              X              Y              Z
 -------------------------------------------------------------------
      1        8           0.000055863   -0.000005710   -0.000023947
      2        1          -0.000011745    0.000003260    0.000017984
      3        6           0.000177868   -0.000083869    0.000063587
      4        5          -0.000138062    0.000045554   -0.000018516
      5        8           0.000026486   -0.000055137   -0.000011136
      6        1          -0.000005653    0.000018029    0.000025169
      7        6           0.000000069    0.000140666   -0.000032681
      8        1          -0.000026291    0.000005675    0.000038434
      9        6           0.000403096   -0.000583201    0.000272570
     10        1          -0.000140432    0.000152370    0.000010920
     11        6           0.006122858   -0.001674569    0.003006150
     12        6           0.000754372    0.000109874   -0.000046776
     13        1          -0.000186657    0.000036675    0.000059520
     14        6          -0.000109368   -0.000058869    0.000063770
     15        1          -0.000005122    0.000033181    0.000027561
     16        8          -0.006460035    0.001787278   -0.002990383
     17        6          -0.000573341    0.000666764    0.000782707
     18        1          -0.000812845    0.000294554   -0.000240657
     19        1           0.000899159    0.000490018   -0.000863295
     20        1           0.000029779   -0.001322542   -0.000140982
 -------------------------------------------------------------------
 Cartesian Forces:  Max     0.006460035 RMS     0.001355944

 GradGradGradGradGradGradGradGradGradGradGradGradGradGradGradGradGradGrad
 Berny optimization.
 Using GEDIIS/GDIIS optimizer.
 FormGI is forming the generalized inverse of G from B-inverse, IUseBI=4.
 Internal  Forces:  Max     0.007952275 RMS     0.000902712
 Search for a local minimum.
 Step number   2 out of a maximum of   97
 All quantities printed in internal units (Hartrees-Bohrs-Radians)
 Mixed Optimization -- En-DIIS/RFO-DIIS
 Update second derivatives using D2CorX and points    1    2
 DE= -3.91D-03 DEPred=-4.24D-03 R= 9.22D-01
 TightC=F SS=  1.41D+00  RLast= 1.81D-01 DXNew= 5.0454D-01 5.4434D-01
 Trust test= 9.22D-01 RLast= 1.81D-01 DXMaxT set to 5.05D-01
 ITU=  1  0
 Use linear search instead of GDIIS.
     Eigenvalues ---    0.00003   0.00075   0.00546   0.01036   0.01209
     Eigenvalues ---    0.01488   0.01765   0.01850   0.02129   0.02311
     Eigenvalues ---    0.02479   0.02622   0.02831   0.02864   0.03971
     Eigenvalues ---    0.08800   0.08904   0.10337   0.10528   0.10983
     Eigenvalues ---    0.11266   0.11913   0.12537   0.13253   0.15882
     Eigenvalues ---    0.17308   0.17543   0.18109   0.18534   0.18943
     Eigenvalues ---    0.19319   0.19657   0.20606   0.22906   0.27636
     Eigenvalues ---    0.29201   0.34202   0.35487   0.36388   0.36544
     Eigenvalues ---    0.36723   0.38155   0.38554   0.39037   0.39211
     Eigenvalues ---    0.40667   0.42186   0.44137   0.47042   0.47881
     Eigenvalues ---    0.49038   0.52018   0.55217   0.56241
 RFO step:  Lambda=-2.11480161D-04 EMin= 3.01778932D-05
 Quartic linear search produced a step of -0.07598.
 Iteration  1 RMS(Cart)=  0.09025027 RMS(Int)=  0.02536283
 Iteration  2 RMS(Cart)=  0.08053099 RMS(Int)=  0.00363014
 Iteration  3 RMS(Cart)=  0.00487819 RMS(Int)=  0.00001345
 Iteration  4 RMS(Cart)=  0.00001295 RMS(Int)=  0.00001112
 Iteration  5 RMS(Cart)=  0.00000000 RMS(Int)=  0.00001112
 Variable       Old X    -DE/DX   Delta X   Delta X   Delta X     New X
                                 (Linear)    (Quad)   (Total)
    R1        1.81674   0.00000   0.00000   0.00002   0.00002   1.81676
    R2        2.57632   0.00004  -0.00008   0.00022   0.00014   2.57645
    R3        2.95652  -0.00007   0.00032  -0.00049  -0.00017   2.95635
    R4        2.64411   0.00000  -0.00003  -0.00176  -0.00180   2.64232
    R5        2.64740   0.00003  -0.00009   0.00203   0.00194   2.64934
    R6        2.58806   0.00004  -0.00008  -0.00022  -0.00029   2.58777
    R7        1.81092  -0.00001   0.00001   0.00009   0.00010   1.81102
    R8        2.05409   0.00001   0.00002   0.00000   0.00002   2.05411
    R9        2.62517   0.00000   0.00019   0.00188   0.00206   2.62723
   R10        2.04815   0.00002  -0.00004  -0.00098  -0.00102   2.04713
   R11        2.62969   0.00047  -0.00003  -0.00347  -0.00350   2.62619
   R12        2.63039   0.00046  -0.00001   0.00235   0.00234   2.63274
   R13        2.57370   0.00795   0.00977   0.01262   0.02239   2.59609
   R14        2.04849   0.00002  -0.00004   0.00094   0.00090   2.04939
   R15        2.62354   0.00002   0.00022  -0.00221  -0.00199   2.62154
   R16        2.04887   0.00001   0.00001   0.00003   0.00004   2.04891
   R17        2.68482   0.00045   0.00133  -0.00263  -0.00130   2.68352
   R18        2.05405   0.00090  -0.00243   0.00553   0.00309   2.05715
   R19        2.06465   0.00133  -0.00324   0.00724   0.00400   2.06865
   R20        2.06483   0.00133  -0.00325   0.00825   0.00500   2.06983
    A1        1.95623  -0.00001   0.00002  -0.00003  -0.00001   1.95622
    A2        2.14362   0.00001  -0.00023   0.00032   0.00008   2.14370
    A3        2.08368   0.00002  -0.00005  -0.00055  -0.00060   2.08308
    A4        2.05589  -0.00003   0.00028   0.00022   0.00049   2.05638
    A5        2.06469   0.00002   0.00001  -0.00018  -0.00017   2.06452
    A6        2.05116  -0.00003   0.00011  -0.00001   0.00009   2.05126
    A7        2.16733   0.00001  -0.00012   0.00019   0.00007   2.16740
    A8        1.99844   0.00000  -0.00006   0.00020   0.00015   1.99858
    A9        2.10490  -0.00003  -0.00003   0.00000  -0.00004   2.10487
   A10        2.12177   0.00010  -0.00032   0.00039   0.00006   2.12183
   A11        2.05651  -0.00006   0.00035  -0.00039  -0.00004   2.05647
   A12        2.12085   0.00013  -0.00179   0.01040   0.00861   2.12946
   A13        2.08332   0.00008   0.00046  -0.00221  -0.00175   2.08157
   A14        2.07898  -0.00021   0.00133  -0.00820  -0.00687   2.07211
   A15        2.10052  -0.00030  -0.00056   0.00376   0.00320   2.10372
   A16        2.09015   0.00011   0.00029  -0.01674  -0.01646   2.07369
   A17        2.09236   0.00019   0.00028   0.01288   0.01316   2.10552
   A18        2.07694  -0.00020   0.00129   0.00317   0.00445   2.08139
   A19        2.08693   0.00006   0.00049  -0.00285  -0.00236   2.08456
   A20        2.11927   0.00014  -0.00178  -0.00042  -0.00221   2.11706
   A21        2.11795   0.00010  -0.00035   0.00069   0.00033   2.11829
   A22        2.07338  -0.00004  -0.00001  -0.00006  -0.00008   2.07330
   A23        2.09184  -0.00006   0.00037  -0.00066  -0.00030   2.09154
   A24        1.97531   0.00149  -0.00488   0.00674   0.00187   1.97718
   A25        1.86505  -0.00008   0.00346  -0.00576  -0.00231   1.86274
   A26        1.93148   0.00012  -0.00158   0.01098   0.00941   1.94089
   A27        1.93165   0.00010  -0.00160  -0.00283  -0.00442   1.92723
   A28        1.91480  -0.00004  -0.00032  -0.00318  -0.00350   1.91130
   A29        1.91464  -0.00004  -0.00030   0.00246   0.00214   1.91678
   A30        1.90591  -0.00006   0.00036  -0.00174  -0.00135   1.90456
    D1        3.12989  -0.00001   0.00014  -0.00706  -0.00692   3.12297
    D2       -0.01013  -0.00002   0.00020  -0.00543  -0.00524  -0.01536
    D3        3.07757  -0.00001   0.00003  -0.01696  -0.01693   3.06064
    D4       -0.06571   0.00000  -0.00003  -0.01870  -0.01873  -0.08444
    D5       -0.06768  -0.00004   0.00035  -0.02100  -0.02065  -0.08833
    D6        3.07223  -0.00003   0.00028  -0.02274  -0.02246   3.04977
    D7       -0.00557   0.00002  -0.00020  -0.00727  -0.00748  -0.01305
    D8        3.13712  -0.00001   0.00010  -0.00238  -0.00227   3.13485
    D9        3.13962   0.00005  -0.00051  -0.00329  -0.00380   3.13582
   D10       -0.00087   0.00002  -0.00020   0.00160   0.00140   0.00053
   D11       -3.13579   0.00001  -0.00012   0.00634   0.00623  -3.12956
   D12        0.00083  -0.00002   0.00020  -0.00112  -0.00092  -0.00009
   D13        0.00233  -0.00002   0.00018   0.00250   0.00269   0.00502
   D14        3.13895  -0.00005   0.00050  -0.00496  -0.00446   3.13449
   D15        3.11045  -0.00002   0.00021  -0.00878  -0.00857   3.10188
   D16       -0.02947  -0.00003   0.00028  -0.00705  -0.00678  -0.03625
   D17       -3.13218   0.00008  -0.00079  -0.00300  -0.00381  -3.13599
   D18       -0.00081  -0.00002   0.00010  -0.00433  -0.00424  -0.00504
   D19        0.01048   0.00005  -0.00049   0.00176   0.00126   0.01174
   D20       -3.14133  -0.00005   0.00040   0.00043   0.00083  -3.14050
   D21        0.00109   0.00001   0.00003   0.00300   0.00304   0.00413
   D22       -3.12118   0.00010  -0.00152   0.00948   0.00793  -3.11325
   D23        3.13271  -0.00008   0.00090   0.00182   0.00272   3.13543
   D24        0.01044   0.00001  -0.00065   0.00829   0.00761   0.01805
   D25       -3.13127   0.00008  -0.00089   0.01118   0.01032  -3.12095
   D26        0.00033   0.00000  -0.00005   0.00098   0.00093   0.00126
   D27       -0.00902  -0.00001   0.00066   0.00436   0.00501  -0.00401
   D28        3.12257  -0.00010   0.00150  -0.00583  -0.00438   3.11819
   D29       -1.58064  -0.00012   0.00122  -0.36200  -0.36077  -1.94141
   D30        1.58018  -0.00003  -0.00032  -0.35545  -0.35576   1.22442
   D31       -0.00208   0.00001  -0.00006  -0.00379  -0.00385  -0.00594
   D32       -3.13865   0.00004  -0.00038   0.00375   0.00337  -3.13528
   D33        3.12926  -0.00008   0.00080  -0.01421  -0.01340   3.11586
   D34       -0.00730  -0.00005   0.00048  -0.00668  -0.00618  -0.01349
   D35       -3.13689  -0.00002  -0.00011   0.01756   0.01746  -3.11943
   D36       -1.05292  -0.00004   0.00068   0.01640   0.01711  -1.03582
   D37        1.06241   0.00003  -0.00091   0.01967   0.01873   1.08114
         Item               Value     Threshold  Converged?
 Maximum Force            0.007952     0.000015     NO 
 RMS     Force            0.000903     0.000010     NO 
 Maximum Displacement     0.741702     0.000060     NO 
 RMS     Displacement     0.168203     0.000040     NO 
 Predicted change in Energy=-1.512509D-04
 GradGradGradGradGradGradGradGradGradGradGradGradGradGradGradGradGradGrad

                          Input orientation:                          
 ---------------------------------------------------------------------
 Center     Atomic      Atomic             Coordinates (Angstroms)
 Number     Number       Type             X           Y           Z
 ---------------------------------------------------------------------
      1          8           0        8.691258    7.454479    5.465640
      2          1           0        9.506578    7.190314    5.901231
      3          6           0        6.243786    6.949845    5.177237
      4          5           0        7.649579    6.635908    5.787678
      5          8           0        7.905045    5.589096    6.632748
      6          1           0        7.136385    5.062539    6.857109
      7          6           0        5.133079    6.121893    5.366810
      8          1           0        5.217527    5.207225    5.948008
      9          6           0        3.893280    6.430266    4.818489
     10          1           0        3.026947    5.796624    4.965091
     11          6           0        3.751927    7.591896    4.068850
     12          6           0        4.839398    8.437994    3.862724
     13          1           0        4.701221    9.348897    3.290640
     14          6           0        6.070860    8.111612    4.411786
     15          1           0        6.920127    8.768419    4.260375
     16          8           0        2.514969    7.904925    3.559688
     17          6           0        2.448021    7.802665    2.144900
     18          1           0        1.439102    8.093070    1.857172
     19          1           0        3.171314    8.469679    1.665040
     20          1           0        2.643240    6.773007    1.826470
 ---------------------------------------------------------------------
                    Distance matrix (angstroms):
                    1          2          3          4          5
     1  O    0.000000
     2  H    0.961389   0.000000
     3  C    2.515542   3.350791   0.000000
     4  B    1.363401   1.941316   1.564432   0.000000
     5  O    2.336648   2.379900   2.594211   1.369388   0.000000
     6  H    3.174144   3.325499   2.679669   1.970416   0.958352
     7  C    3.800815   4.533721   1.398253   2.602712   3.093585
     8  H    4.165290   4.725547   2.164260   2.825194   2.799545
     9  C    4.948577   5.767072   2.433833   3.884764   4.482562
    10  H    5.923128   6.693605   3.423883   4.769671   5.159456
    11  C    5.134871   6.052677   2.801806   4.365773   5.275716
    12  C    4.286429   5.243547   2.432045   3.853580   5.018710
    13  H    4.923397   5.879296   3.419679   4.721050   5.964082
    14  C    2.899814   3.856345   1.401971   2.561861   3.828837
    15  H    2.513167   3.445657   2.145992   2.722564   4.087335
    16  O    6.479360   7.407840   4.175251   5.739213   6.622665
    17  C    7.080011   8.019241   4.932566   6.456574   7.404038
    18  H    8.125430   9.069375   5.951033   7.492811   8.419290
    19  H    6.778272   7.727720   4.907699   6.357178   7.442049
    20  H    7.091297   7.992699   4.921671   6.385405   7.224165
                    6          7          8          9         10
     6  H    0.000000
     7  C    2.712279   0.000000
     8  H    2.128242   1.086987   0.000000
     9  C    4.067478   1.390270   2.127269   0.000000
    10  H    4.583240   2.168633   2.472277   1.083294   0.000000
    11  C    5.062271   2.398581   3.371331   1.389721   2.133505
    12  C    5.063219   2.777201   3.863840   2.416526   3.387776
    13  H    6.084619   3.861416   4.947890   3.391975   4.269147
    14  C    4.051147   2.398017   3.394646   2.781041   3.864029
    15  H    4.530269   3.379620   4.292907   3.865262   4.948235
    16  O    6.348987   3.646833   4.503940   2.378853   2.584998
    17  C    7.189851   4.518322   5.373090   3.334716   3.508965
    18  H    8.163487   5.463384   6.272124   4.190144   4.177808
    19  H    7.368037   4.802470   5.759723   3.824223   4.249282
    20  H    6.958547   4.376900   5.105458   3.260713   3.309305
                   11         12         13         14         15
    11  C    0.000000
    12  C    1.393185   0.000000
    13  H    2.143320   1.084489   0.000000
    14  C    2.401075   1.387261   2.159572   0.000000
    15  H    3.385023   2.144001   2.490157   1.084239   0.000000
    16  O    1.373790   2.403947   2.633845   3.662397   4.543347
    17  C    2.333705   3.012183   2.963185   4.284761   5.040599
    18  H    3.239113   3.962730   3.778009   5.289573   6.022716
    19  H    2.624103   2.759225   2.399211   4.010011   4.569311
    20  H    2.632116   3.426605   3.607532   4.497144   5.310115
                   16         17         18         19         20
    16  O    0.000000
    17  C    1.420058   0.000000
    18  H    2.022733   1.088596   0.000000
    19  H    2.083129   1.094681   1.783062   0.000000
    20  H    2.074062   1.095309   1.787024   1.784269   0.000000
 Symmetry turned off by external request.
 Stoichiometry    C7H9BO3
 Framework group  C1[X(C7H9BO3)]
 Deg. of freedom    54
 Full point group                 C1      NOp   1
 Rotational constants (GHZ):           3.2307355           0.5424932           0.4782878
 Standard basis: 6-311+G(d,p) (5D, 7F)
   296 basis functions,   468 primitive gaussians,   307 cartesian basis functions
    40 alpha electrons       40 beta electrons
       nuclear repulsion energy       564.2995441933 Hartrees.
 NAtoms=   20 NActive=   20 NUniq=   20 SFac= 1.00D+00 NAtFMM=   60 NAOKFM=F Big=F
 Integral buffers will be    131072 words long.
 Raffenetti 2 integral format.
 Two-electron integral symmetry is turned off.
 One-electron integrals computed using PRISM.
 NBasis=   296 RedAO= T EigKep=  2.11D-06  NBF=   296
 NBsUse=   296 1.00D-06 EigRej= -1.00D+00 NBFU=   296
 Initial guess from the checkpoint file:  "4-OMe-phboh2-opt-freq.chk"
 B after Tr=     0.001861   -0.253184    0.287324
         Rot=    0.999960    0.007871   -0.003100   -0.002729 Ang=   1.02 deg.
 ExpMin= 3.15D-02 ExpMax= 8.59D+03 ExpMxC= 1.30D+03 IAcc=3 IRadAn=         5 AccDes= 0.00D+00
 Harris functional with IExCor= 1009 and IRadAn=       5 diagonalized for initial guess.
 HarFok:  IExCor= 1009 AccDes= 0.00D+00 IRadAn=         5 IDoV= 1 UseB2=F ITyADJ=14
 ICtDFT=  3500011 ScaDFX=  1.000000  1.000000  1.000000  1.000000
 FoFCou: FMM=F IPFlag=           0 FMFlag=      100000 FMFlg1=           0
         NFxFlg=           0 DoJE=T BraDBF=F KetDBF=T FulRan=T
         wScrn=  0.000000 ICntrl=       500 IOpCl=  0 I1Cent=   200000004 NGrid=           0
         NMat0=    1 NMatS0=      1 NMatT0=    0 NMatD0=    1 NMtDS0=    0 NMtDT0=    0
 Symmetry not used in FoFCou.
 Requested convergence on RMS density matrix=1.00D-08 within 128 cycles.
 Requested convergence on MAX density matrix=1.00D-06.
 Requested convergence on             energy=1.00D-06.
 Level shift goal  0.100 maximum shift  0.100.
 No special actions if energy rises.
 Dynamic level shift is on during FON iterations.
 SCF Done:  E(RM062X) =  -522.733645833     A.U. after   13 cycles
            NFock= 13  Conv=0.73D-08     -V/T= 2.0036
 Calling FoFJK, ICntrl=      2127 FMM=F ISym2X=0 I1Cent= 0 IOpClX= 0 NMat=1 NMatS=1 NMatT=0.
 -------------------------------------------------------------------
 Center     Atomic                   Forces (Hartrees/Bohr)
 Number     Number              X              Y              Z
 -------------------------------------------------------------------
      1        8           0.000128321    0.000068357    0.000034382
      2        1          -0.000029685   -0.000027970   -0.000021248
      3        6           0.000548685    0.000209954   -0.000002229
      4        5          -0.000258344    0.000062291   -0.000172993
      5        8           0.000054787   -0.000154449    0.000066796
      6        1          -0.000015732    0.000052265   -0.000003193
      7        6          -0.000553938    0.000160167   -0.000047857
      8        1          -0.000036012   -0.000004365   -0.000041088
      9        6           0.000138083    0.000159603    0.000681563
     10        1           0.000207923   -0.000206159    0.000087148
     11        6          -0.002057078    0.000764213   -0.000651425
     12        6           0.000015169    0.000172351    0.000066702
     13        1           0.000500826   -0.000165578    0.000251998
     14        6          -0.000139469   -0.000166151    0.000145744
     15        1          -0.000006707   -0.000028282   -0.000028349
     16        8           0.002648534   -0.001688458    0.000471452
     17        6          -0.000426645    0.000782600   -0.000722594
     18        1           0.000216441   -0.000096382   -0.000078074
     19        1          -0.000722137   -0.000348711   -0.000083106
     20        1          -0.000213024    0.000454704    0.000046370
 -------------------------------------------------------------------
 Cartesian Forces:  Max     0.002648534 RMS     0.000570112

 GradGradGradGradGradGradGradGradGradGradGradGradGradGradGradGradGradGrad
 Berny optimization.
 Using GEDIIS/GDIIS optimizer.
 FormGI is forming the generalized inverse of G from B-inverse, IUseBI=4.
 Internal  Forces:  Max     0.003960575 RMS     0.000521898
 Search for a local minimum.
 Step number   3 out of a maximum of   97
 All quantities printed in internal units (Hartrees-Bohrs-Radians)
 Mixed Optimization -- En-DIIS/RFO-DIIS
 Swapping is turned off.
 Update second derivatives using D2CorX and points    1    2    3
 DE= -3.57D-04 DEPred=-1.51D-04 R= 2.36D+00
 TightC=F SS=  1.41D+00  RLast= 5.11D-01 DXNew= 8.4853D-01 1.5341D+00
 Trust test= 2.36D+00 RLast= 5.11D-01 DXMaxT set to 8.49D-01
 ITU=  1  1  0
     Eigenvalues ---   -1.57915   0.00000   0.00077   0.00544   0.01035
     Eigenvalues ---    0.01210   0.01488   0.01765   0.01857   0.02129
     Eigenvalues ---    0.02312   0.02493   0.02540   0.02801   0.02859
     Eigenvalues ---    0.03971   0.08799   0.08873   0.10341   0.10522
     Eigenvalues ---    0.11178   0.11280   0.11919   0.12561   0.13215
     Eigenvalues ---    0.15877   0.16797   0.17448   0.18464   0.18931
     Eigenvalues ---    0.19166   0.19497   0.20068   0.20601   0.23553
     Eigenvalues ---    0.27637   0.29244   0.35467   0.36360   0.36529
     Eigenvalues ---    0.36618   0.37970   0.38554   0.39004   0.39136
     Eigenvalues ---    0.39255   0.41864   0.42210   0.47013   0.47612
     Eigenvalues ---    0.49007   0.51493   0.55217   0.56241
 Eigenvalue     2 is   1.57D-06 Eigenvector:
                          D29       D30       R13       D6        D5
   1                    0.70434   0.69265  -0.05645   0.05524   0.05134
                          D4        D3        D37       D35       A16
   1                    0.04723   0.04333  -0.03636  -0.03361   0.03281
 Use linear search instead of GDIIS.
 RFO step:  Lambda=-1.57915204D+00 EMin=-1.57914725D+00
 I=     1 Eig=   -1.58D+00 Dot1=  1.65D-03
 I=     1 Stepn=  6.00D-01 RXN=   6.00D-01 EDone=F
 Mixed    1 eigenvectors in step.  Raw Step.Grad=  1.65D-03.
 RFO eigenvector is Hessian eigenvector with negative curvature.
 Taking step of  6.00D-01 in eigenvector direction(s).  Step.Grad=  2.75D-04.
 Skip linear search -- no minimum in search direction.
 Iteration  1 RMS(Cart)=  0.07253831 RMS(Int)=  0.03847248
 Iteration  2 RMS(Cart)=  0.04353344 RMS(Int)=  0.01681107
 Iteration  3 RMS(Cart)=  0.03184595 RMS(Int)=  0.00009108
 Iteration  4 RMS(Cart)=  0.00005703 RMS(Int)=  0.00007432
 Iteration  5 RMS(Cart)=  0.00000003 RMS(Int)=  0.00007432
 Variable       Old X    -DE/DX   Delta X   Delta X   Delta X     New X
                                 (Linear)    (Quad)   (Total)
    R1        1.81676  -0.00003   0.00000  -0.00101  -0.00101   1.81575
    R2        2.57645   0.00010   0.00000   0.00281   0.00281   2.57927
    R3        2.95635  -0.00015   0.00000  -0.00432  -0.00432   2.95203
    R4        2.64232   0.00009   0.00000   0.00447   0.00446   2.64677
    R5        2.64934  -0.00030   0.00000  -0.01640  -0.01641   2.63293
    R6        2.58777   0.00013   0.00000   0.00448   0.00448   2.59225
    R7        1.81102  -0.00002   0.00000  -0.00050  -0.00050   1.81053
    R8        2.05411  -0.00002   0.00000  -0.00143  -0.00143   2.05268
    R9        2.62723  -0.00039   0.00000  -0.01864  -0.01864   2.60859
   R10        2.04713  -0.00003   0.00000  -0.00280  -0.00280   2.04433
   R11        2.62619   0.00037   0.00000  -0.00017  -0.00016   2.62603
   R12        2.63274   0.00050   0.00000   0.00337   0.00338   2.63612
   R13        2.59609  -0.00142   0.00000  -0.55524  -0.55524   2.04085
   R14        2.04939  -0.00034   0.00000  -0.01743  -0.01743   2.03196
   R15        2.62154   0.00005   0.00000   0.00210   0.00210   2.62364
   R16        2.04891  -0.00002   0.00000  -0.00149  -0.00149   2.04743
   R17        2.68352   0.00083   0.00000   0.01554   0.01554   2.69906
   R18        2.05715  -0.00021   0.00000  -0.05804  -0.05804   1.99911
   R19        2.06865  -0.00065   0.00000  -0.10319  -0.10319   1.96546
   R20        2.06983  -0.00048   0.00000  -0.09462  -0.09462   1.97521
    A1        1.95622  -0.00005   0.00000  -0.00224  -0.00224   1.95399
    A2        2.14370  -0.00001   0.00000  -0.00080  -0.00079   2.14291
    A3        2.08308   0.00023   0.00000   0.01162   0.01162   2.09470
    A4        2.05638  -0.00022   0.00000  -0.01080  -0.01082   2.04556
    A5        2.06452   0.00013   0.00000   0.00589   0.00589   2.07041
    A6        2.05126  -0.00004   0.00000  -0.00061  -0.00061   2.05065
    A7        2.16740  -0.00009   0.00000  -0.00528  -0.00528   2.16212
    A8        1.99858  -0.00008   0.00000  -0.00454  -0.00454   1.99404
    A9        2.10487  -0.00007   0.00000  -0.00204  -0.00204   2.10282
   A10        2.12183   0.00023   0.00000   0.00628   0.00627   2.12810
   A11        2.05647  -0.00016   0.00000  -0.00427  -0.00427   2.05220
   A12        2.12946  -0.00041   0.00000  -0.03276  -0.03278   2.09667
   A13        2.08157   0.00021   0.00000   0.01092   0.01092   2.09249
   A14        2.07211   0.00019   0.00000   0.02193   0.02191   2.09402
   A15        2.10372  -0.00053   0.00000  -0.01841  -0.01840   2.08531
   A16        2.07369  -0.00043   0.00000  -0.02509  -0.02511   2.04859
   A17        2.10552   0.00096   0.00000   0.04326   0.04323   2.14875
   A18        2.08139   0.00044   0.00000   0.03517   0.03516   2.11655
   A19        2.08456   0.00011   0.00000   0.00601   0.00601   2.09057
   A20        2.11706  -0.00055   0.00000  -0.04103  -0.04105   2.07601
   A21        2.11829   0.00020   0.00000   0.00600   0.00599   2.12428
   A22        2.07330  -0.00010   0.00000  -0.00371  -0.00370   2.06959
   A23        2.09154  -0.00010   0.00000  -0.00226  -0.00226   2.08928
   A24        1.97718   0.00396   0.00000   0.12875   0.12875   2.10593
   A25        1.86274  -0.00001   0.00000   0.00358   0.00354   1.86628
   A26        1.94089   0.00062   0.00000   0.02369   0.02363   1.96452
   A27        1.92723   0.00006   0.00000  -0.00496  -0.00500   1.92223
   A28        1.91130  -0.00036   0.00000  -0.01545  -0.01550   1.89580
   A29        1.91678  -0.00023   0.00000  -0.00846  -0.00848   1.90831
[...]
 .00752620,-0.01494750,0.01689796,0.00002772,-0.00040883,0.00152386,-0.
 00007320,0.00068832,-0.00027859,-0.00204986,-0.00031713,-0.00162348,-0
 .05907274,0.00732156,-0.01574218,0.05943815,-0.00015598,0.00050472,-0.
 00043330,-0.00016163,0.00000402,0.00010988,0.00293536,-0.00872991,0.01
 142032,0.00176257,-0.00287417,0.00105036,0.00081216,0.00120455,-0.0014
 6804,-0.00165979,0.00093053,-0.00040113,0.01048779,-0.18473207,0.14539
 637,-0.00828347,0.18938617,0.00029740,-0.00017194,0.00045687,0.0000625
 1,0.00015045,0.00006452,-0.00019247,0.00396050,-0.00212553,-0.00055266
 ,0.00004360,-0.00304667,-0.00059112,-0.00154428,0.00061939,-0.00019012
 ,0.00036609,0.00096290,-0.01901910,0.14364943,-0.18494534,0.02292341,-
 0.16201280,0.19075365,-0.00287608,-0.00014646,-0.00080790,-0.00002184,
 -0.00007062,0.00019819,-0.05180275,-0.03721368,0.01050918,0.00253830,-
 0.00596839,0.00466368,0.00047854,0.00146338,-0.00149201,-0.00060526,0.
 00018511,-0.00003558,-0.30841443,0.03146146,-0.13703417,0.00166365,-0.
 00163799,0.00032506,0.71447440,0.00074165,0.00073303,-0.00091061,-0.00
 039096,-0.00027000,-0.00018589,-0.00086735,0.03085896,-0.02186328,-0.0
 0554747,0.00061340,0.00227025,0.00057999,0.00039135,0.00029506,-0.0006
 1488,-0.00044638,-0.00088273,-0.01908803,-0.09959305,0.03374179,0.0204
 1785,0.00067722,0.01260111,0.13811537,0.44619297,-0.00188669,-0.001228
 52,0.00009511,0.00051281,-0.00015023,-0.00009351,-0.02484365,-0.037021
 71,0.03452489,0.00426440,0.00200569,0.00506576,-0.00061033,0.00063244,
 -0.00053599,0.00084820,-0.00043040,0.00001758,-0.08805818,0.05512335,-
 0.14726619,-0.02102012,0.00316178,-0.00736830,0.11690480,-0.25510129,0
 .41972925,-0.00059509,-0.00002662,-0.00013463,-0.00004947,-0.00002343,
 0.00003901,-0.00240321,0.00040970,-0.00480001,0.00034044,-0.00086934,0
 .00075808,-0.00014355,0.00025446,-0.00031058,-0.00004352,-0.00009001,0
 .00007046,-0.01483553,-0.01590391,0.00811002,0.00034274,0.00116774,0.0
 0097490,-0.23254948,-0.13596837,0.04765054,0.24376026,0.00006850,-0.00
 010236,-0.00005954,0.00003741,-0.00002370,-0.00003094,0.00003077,0.004
 37749,0.00340755,0.00012103,0.00042637,0.00018208,-0.00005895,-0.00001
 955,-0.00002495,0.00003287,0.00000159,0.00001911,0.00467027,0.00569736
 ,-0.00129657,0.00073236,-0.00163281,-0.00256771,-0.13465013,-0.1446268
 6,0.04926432,0.14693942,0.14545810,-0.00023967,-0.00009477,-0.00019758
 ,-0.00003681,-0.00005795,-0.00002408,-0.00434573,0.00360521,0.00252467
 ,-0.00021149,-0.00023749,0.00070121,-0.00000781,0.00011865,-0.00013225
 ,-0.00004461,-0.00004265,0.00001570,-0.01186194,-0.01006274,0.00702103
 ,0.00137864,-0.00235179,-0.00173072,0.04635981,0.04859597,-0.06212769,
 -0.04912124,-0.05479558,0.05669938,0.00311853,0.00143537,-0.00010663,-
 0.00030162,-0.00005482,-0.00009312,-0.00267794,-0.02184303,0.02248923,
 -0.00893986,-0.00061459,-0.00318175,0.00224034,-0.00199482,0.00306995,
 0.00014136,0.00059105,-0.00066057,0.02207621,0.02981326,-0.01943684,-0
 .00352903,-0.00124160,-0.00392520,-0.11514658,0.01429878,-0.03397875,0
 .00451779,-0.01943273,0.01868042,0.64646370,-0.00130129,-0.00021684,-0
 .00031509,0.00008685,-0.00003128,0.00009335,-0.02290140,-0.04731290,0.
 03133267,-0.00040979,-0.00249527,0.00210365,0.00062095,-0.00020256,0.0
 0015898,0.00013725,0.00039315,0.00011591,0.07334052,0.01533298,0.01580
 033,-0.00167490,0.00500003,0.00265605,-0.03867024,-0.19816792,0.110406
 18,0.00235594,-0.00762772,0.01313614,0.10733142,0.47027112,0.00261049,
 0.00074428,0.00016901,-0.00023573,0.00008186,-0.00004945,0.02327578,0.
 03157284,-0.02618940,-0.00341098,0.00205965,-0.00347652,0.00052334,-0.
 00091073,0.00091076,-0.00028769,0.00025262,-0.00003932,-0.06164409,-0.
 00257583,-0.02386359,-0.00345251,0.00278232,0.00428243,0.01735938,0.13
 300869,-0.18943924,-0.00241681,0.00379147,0.00004733,0.09943088,-0.252
 48033,0.45126448,-0.00095715,-0.00083596,0.00036376,0.00016436,0.00017
 930,-0.00003031,0.01776502,0.05926093,-0.05472270,0.00740380,0.0006471
 4,0.00007740,-0.00153257,0.00150761,-0.00157122,-0.00006631,-0.0005002
 5,0.00040705,-0.06791214,-0.02026923,-0.00774101,-0.00117142,-0.000068
 99,-0.00006838,0.04300040,-0.03838634,0.05278033,0.00120597,0.00027730
 ,-0.00206253,-0.22019899,-0.06753109,0.00046011,0.62959814,-0.00053549
 ,0.00036467,-0.00060889,0.00017330,0.00006542,-0.00006681,0.02226089,0
 .01468998,0.00505869,-0.00044271,-0.00041401,0.00604506,0.00121479,0.0
 0001597,-0.00057410,-0.00017252,0.00005453,-0.00015606,-0.01574409,-0.
 00777537,-0.00210593,0.00000790,-0.00013454,-0.00080016,-0.00680116,-0
 .02186432,0.02478973,-0.00026063,-0.00005947,0.00517921,-0.12041861,-0
 .17701158,0.05757585,0.09563030,0.46398950,-0.00000154,-0.00077724,0.0
 0071254,-0.00007235,-0.00006680,-0.00001113,-0.01848975,0.02106169,-0.
 01791896,0.00115788,0.00641990,0.00011563,-0.00129927,-0.00062004,-0.0
 0122552,0.00015785,-0.00019305,0.00034654,-0.01212369,-0.00400499,-0.0
 0428599,-0.00011481,-0.00082082,-0.00021438,0.02202446,0.01140474,0.00
 482760,-0.00153319,0.00539914,-0.00051578,0.05190264,0.08000723,-0.121
 35111,0.12075756,-0.29190274,0.45675193,-0.00025304,-0.00020154,0.0001
 1117,0.00000391,0.00000813,-0.00001704,-0.00376945,-0.00084913,-0.0038
 9870,0.00089940,0.00076203,-0.00057776,-0.00053051,0.00020766,-0.00033
 209,-0.00002909,-0.00008819,0.00006804,-0.00156217,-0.00036818,-0.0000
 2628,0.00001836,0.00023647,0.00018769,-0.00335161,-0.00384336,-0.00015
 629,0.00017800,-0.00088096,0.00097014,0.00888746,-0.01584519,0.0178082
 3,-0.05705497,0.00954965,-0.01933277,0.05845351,0.00017093,0.00003680,
 -0.00000383,-0.00001980,0.00000661,0.00001010,-0.00064459,0.00450174,0
 .00257123,-0.00044348,0.00018487,0.00011921,0.00015984,-0.00019365,-0.
 00002742,-0.00001970,0.00004219,-0.00001373,-0.00056111,-0.00006824,-0
 .00080452,0.00022870,-0.00046942,-0.00039717,-0.00424922,0.00137656,0.
 00256576,0.00028724,-0.00054601,0.00055640,0.00441901,-0.00817061,0.01
 294613,0.00863012,-0.18883858,0.15507356,-0.01152171,0.19356038,-0.000
 24762,-0.00015609,0.00001891,0.00000855,0.00002050,0.00000908,-0.00413
 511,0.00245545,0.00329016,0.00060406,0.00062579,0.00013797,-0.00024147
 ,-0.00002377,-0.00039440,-0.00000212,-0.00002603,0.00007614,0.00018334
 ,-0.00071135,0.00012637,0.00019734,-0.00038723,-0.00051778,0.00022538,
 0.00273934,0.00328759,-0.00016212,0.00006285,-0.00022952,-0.00190485,0
 .00435720,-0.00183318,-0.01842018,0.15549193,-0.19204147,0.02577471,-0
 .16992760,0.19990491,-0.00153758,-0.00025890,-0.00020577,0.00049218,0.
 00024777,-0.00000996,-0.12000024,-0.01342238,-0.01025879,-0.00038372,0
 .01695903,-0.01714883,-0.00471730,0.00021884,-0.00331999,-0.00034554,-
 0.00048208,0.00043124,0.04339621,-0.00799072,0.02421044,-0.00325946,-0
 .00483782,0.00039210,-0.02464794,0.01725986,-0.02620793,0.00015310,0.0
 0116336,-0.00060115,-0.05721183,-0.04343891,0.01816578,-0.28431038,0.0
 3512978,-0.12846661,0.00239267,-0.00059553,0.00056374,0.67351487,-0.00
 302532,-0.00260623,0.00103006,-0.00013854,-0.00031371,0.00005503,0.025
 30290,-0.19353624,0.13711974,0.01016414,0.00244427,0.00264277,-0.00288
 500,0.00204350,-0.00149634,-0.00028742,-0.00049498,0.00035494,-0.04401
 027,-0.03175169,0.01670200,-0.00440833,0.00173945,0.00315530,0.0202881
 5,-0.01825565,0.02391688,0.00080038,-0.00063442,-0.00006124,-0.0009986
 0,0.03462031,-0.03430838,-0.01610834,-0.10134308,0.03313588,0.02039315
 ,0.00089474,0.01003111,0.13217364,0.45830201,0.00263737,0.00216318,-0.
 00143315,0.00041222,0.00018285,-0.00023566,-0.04800776,0.12070177,-0.2
 0212476,-0.01081167,0.00564894,-0.00912153,0.00007377,-0.00007170,0.00
 185270,0.00004111,0.00022365,-0.00013924,0.05918386,0.03183743,-0.0014
 4234,-0.00002088,0.00295102,0.00408591,-0.02910951,0.02264039,-0.03681
 852,-0.00026852,0.00010816,-0.00122971,-0.02324436,-0.05241964,0.04072
 894,-0.07847188,0.05495262,-0.14624358,-0.01979611,0.00116059,-0.00716
 546,0.09412435,-0.24876677,0.42742816,-0.00116204,0.00025246,-0.000664
 72,-0.00003780,0.00001485,0.00005961,0.00642989,0.00240014,-0.00082678
 ,0.00036834,0.00131919,0.00008280,0.00002955,-0.00040079,0.00022642,0.
 00002368,-0.00000068,0.00003410,0.00186206,-0.00000566,-0.00223673,0.0
 0031142,0.00024384,-0.00015753,-0.00015720,0.00086712,-0.00040221,-0.0
 0010216,0.00010780,0.00018904,-0.00194569,0.00025437,-0.00440919,-0.01
 532254,-0.01600158,0.00707079,0.00044624,0.00110206,0.00094259,-0.2272
 6936,-0.13269332,0.05038131,0.23781822,0.00016675,0.00051545,-0.000567
 65,0.00019512,0.00016418,-0.00029520,-0.01642920,-0.00861196,0.0041976
 1,-0.00115390,-0.00266677,-0.00068323,0.00021731,0.00060495,-0.0000258
 8,-0.00010535,-0.00000505,-0.00009981,-0.00007471,0.00074368,0.0062537
 9,-0.00089683,-0.00052704,0.00027630,0.00086247,-0.00048367,-0.0003457
 9,0.00008413,-0.00034459,-0.00040482,0.00013625,0.00411623,0.00377701,
 0.00455332,0.00640199,0.00033383,0.00072005,-0.00154395,-0.00240786,-0
 .13206777,-0.14826017,0.04861012,0.14348299,0.14983486,-0.00050897,-0.
 00048885,0.00020797,-0.00010429,-0.00036809,0.00005217,0.01735496,0.01
 211468,-0.00160318,0.00255630,0.00033363,-0.00224743,-0.00043604,-0.00
 019974,0.00054815,0.00011866,-0.00005311,0.00007612,-0.00217534,0.0062
 6878,0.00014465,0.00095580,0.00076917,-0.00018257,-0.00042873,-0.00033
 744,-0.00106146,0.00021456,-0.00038940,-0.00032346,-0.00432664,0.00377
 619,0.00241572,-0.01289285,-0.00833942,0.00744022,0.00131650,-0.002239
 09,-0.00158635,0.04986284,0.04830017,-0.06709659,-0.05081079,-0.058342
 28,0.06308594,-0.00444628,-0.00163369,-0.00019181,0.00047424,0.0000911
 8,0.00008389,-0.01107937,0.00161927,-0.00580590,0.01034877,-0.00070373
 ,0.00534410,-0.00235504,0.00228038,-0.00334143,0.00009898,-0.00067297,
 0.00075206,0.00678659,-0.00218512,0.00286943,-0.00009394,0.00034318,-0
 .00040183,-0.01785050,0.01456091,-0.02472164,0.00013956,0.00044277,0.0
 0104744,-0.26921389,-0.02278585,-0.07207553,-0.04858347,-0.00336805,-0
 .02135756,0.00070269,0.00108195,0.00036243,0.00420507,-0.00622049,0.00
 491316,-0.00146115,0.00034154,-0.00077637,0.41363983,0.00114917,0.0005
 7984,0.00000083,-0.00009403,-0.00005037,-0.00004450,0.00356175,0.00230
 881,-0.00188896,-0.00198463,-0.00021590,-0.00120637,0.00052702,-0.0001
 5793,0.00046399,-0.00023535,0.00010345,-0.00024579,-0.00690535,-0.0024
 6361,0.00419917,0.00128487,-0.00029469,0.00089814,0.03726297,0.0009303
 0,0.02177958,0.00071862,-0.00019965,-0.00268662,0.00345135,-0.08287161
 ,0.03704382,-0.02131328,0.01016223,-0.00948920,0.00235288,-0.00075659,
 -0.00081482,-0.00121581,-0.00181109,0.00800693,-0.00069181,0.00005034,
 -0.00073687,-0.01236927,0.26498863,-0.00303688,-0.00112422,0.00005412,
 0.00031758,0.00002078,0.00000794,-0.00767609,-0.00274628,-0.00180177,0
 .00657573,-0.00067850,0.00281120,-0.00154180,0.00118528,-0.00180105,0.
 00027088,-0.00038779,0.00054594,0.00751773,0.00619388,0.00200389,-0.00
 130989,0.00048323,-0.00098570,-0.04675042,0.01214805,-0.02448105,0.000
 75405,-0.00278994,-0.00023103,-0.09753455,0.02595707,-0.11256491,-0.00
 390074,-0.00190433,0.00986017,-0.00088832,-0.00136034,-0.00167246,0.00
 003505,0.00592286,0.00125874,0.00022764,-0.00029977,-0.00002176,0.1566
 8369,-0.19307313,0.32498515,0.00029974,0.00009843,0.00005063,-0.000034
 00,-0.00001493,-0.00002282,0.00077955,0.00020305,0.00013513,-0.0006754
 6,0.00019279,-0.00038146,0.00013077,-0.00018301,0.00023452,0.00000444,
 0.00003985,-0.00004387,-0.00036108,0.00071925,-0.00152410,-0.00035364,
 0.00006111,-0.00007891,-0.00365878,-0.00281288,-0.00006488,0.00009842,
 0.00043645,-0.00011220,-0.01437358,0.02972642,-0.03291065,-0.00249543,
 0.00120857,-0.00173943,-0.00274743,0.00106994,-0.00200624,0.00052693,0
 .00077974,-0.00070867,0.00013117,-0.00002984,0.00009111,-0.08678005,-0
 .01084761,-0.00070486,0.62865709,-0.00134167,-0.00057230,-0.00003016,0
 .00013210,0.00006914,0.00003310,-0.00234013,0.00078201,-0.00178394,0.0
 0299363,-0.00018254,0.00121933,-0.00071918,0.00051632,-0.00082625,0.00
 009854,-0.00016636,0.00024519,-0.00004064,0.00043136,0.00111998,-0.000
 12369,0.00002521,-0.00038910,-0.00299558,0.00301621,-0.00135815,0.0001
 6009,-0.00032376,-0.00022587,0.01568730,-0.00443552,0.00634603,-0.0060
 4767,0.00145918,-0.00514313,-0.00098528,-0.00054368,-0.00030666,0.0006
 8105,-0.00132872,0.00203683,-0.00035440,-0.00001530,-0.00014995,0.0113
 4103,-0.15648149,0.09798026,0.01847629,0.53627549,0.00146701,0.0005295
 3,-0.00002352,-0.00016800,-0.00001098,0.00002008,0.00261509,-0.0006977
 2,0.00178176,-0.00309985,0.00003366,-0.00156628,0.00074480,-0.00056833
 ,0.00090090,-0.00010095,0.00020057,-0.00023537,-0.00080355,0.00145402,
 -0.00011412,0.00010501,-0.00030686,0.00002403,0.00011374,-0.00126723,0
 .00422400,0.00015749,-0.00011274,-0.00046283,-0.01927047,0.01227871,-0
 .02481365,0.00531311,-0.00206367,0.00304990,-0.00001417,0.00055382,-0.
 00097578,-0.00064416,0.00207493,-0.00182869,0.00040531,-0.00001358,0.0
 0016985,-0.02224802,0.08858026,-0.15583051,0.00297650,0.04955329,0.532
 36142,-0.00015886,-0.00004548,-0.00001535,0.00002129,0.00000580,0.0000
 0040,-0.00019403,0.00012082,-0.00015330,0.00031381,-0.00000770,0.00015
 035,-0.00010578,0.00007441,-0.00012448,0.00001995,-0.00002905,0.000039
 86,-0.00004265,0.00005515,-0.00007207,-0.00002776,0.00002472,-0.000018
 26,-0.00017404,-0.00007795,-0.00009242,-0.00000050,0.00001420,-0.00002
 181,0.00230526,0.00015365,0.00055381,-0.00017460,-0.00034206,0.0001236
 2,0.00005268,0.00038011,-0.00016153,0.00020472,0.00004234,-0.00006288,
 0.00000142,-0.00001397,-0.00000271,-0.00307123,0.00259230,-0.00388564,
 -0.30498647,-0.03077716,-0.07696781,0.32393578,0.00004940,0.00002234,-
 0.00000892,-0.00000343,0.00000204,0.00000129,0.00008939,0.00005044,-0.
 00012504,-0.00008621,0.00000759,-0.00006688,0.00000958,-0.00000173,0.0
 0001201,-0.00000941,0.00000303,-0.00000850,-0.00031731,-0.00028065,0.0
 0014129,0.00010601,-0.00003374,0.00003927,0.00123260,0.00017673,0.0005
 6220,-0.00003022,-0.00000793,0.00001303,-0.00102048,-0.00272434,0.0028
 4597,-0.00071817,-0.00054883,0.00053244,0.00001439,0.00029094,-0.00070
 430,0.00020561,0.00039331,-0.00003570,0.00003390,0.00000794,0.00004465
 ,0.03028956,-0.00257906,0.01545155,-0.04070948,-0.05371735,-0.01553121
 ,0.03185722,0.05845354,-0.00011321,-0.00004683,-0.00000309,0.00001057,
 0.00000452,0.00000239,-0.00011865,-0.00010927,-0.00005796,0.00022806,-
 0.00003392,0.00010451,-0.00005743,0.00003895,-0.00005997,0.00001699,-0
 .00001521,0.00002650,0.00028758,0.00029614,-0.00016971,-0.00009716,0.0
 0000390,-0.00008704,-0.00136301,0.00000839,-0.00036638,0.00002089,0.00
 003241,-0.00000229,0.00169177,0.00333174,-0.00188019,0.00049310,0.0006
 9358,-0.00015003,0.00020133,-0.00054904,0.00017841,-0.00022486,-0.0001
 0789,0.00027442,-0.00004875,0.00002453,-0.00000533,-0.03076785,0.00376
 273,-0.01647074,-0.06734270,-0.01134170,-0.06944065,0.08588566,0.00273
 795,0.08100782,0.00011394,0.00002702,0.00000252,-0.00001461,-0.0000043
 0,-0.00000212,-0.00005551,-0.00056599,0.00055627,-0.00029494,0.0000351
 1,-0.00006091,0.00009415,-0.00007626,0.00009766,-0.00001068,0.00002542
 ,-0.00003016,0.00077127,0.00014342,0.00005447,0.00000420,0.00000569,0.
 00003399,-0.00047599,0.00020105,-0.00073582,-0.00001307,-0.00002485,0.
 00005735,0.00198416,0.00119039,0.00150151,0.00038168,-0.00018568,0.000
 55308,-0.00186104,0.00108107,0.00031262,-0.00048756,-0.00000436,-0.000
 79943,-0.00000827,0.00004188,0.00002195,0.00134640,0.00623795,0.000668
 19,-0.05825295,-0.03644091,-0.01530538,-0.00175418,-0.02800675,-0.0116
 6343,0.05531427,0.00024169,0.00011111,0.00000183,-0.00002139,-0.000006
 68,-0.00000459,0.00066240,0.00008821,0.00007443,-0.00051789,0.00002436
 ,-0.00028284,0.00009992,-0.00007663,0.00013644,-0.00001302,0.00002016,
 -0.00003747,-0.00064144,0.00014178,-0.00012846,0.00004736,-0.00004849,
 0.00002143,0.00091675,-0.00043165,0.00112981,0.00003368,0.00004061,-0.
 00022827,-0.00574439,0.00044772,-0.00315804,0.00027752,-0.00007177,0.0
 0047328,0.00046202,0.00037786,-0.00044208,0.00011591,0.00034924,-0.000
 15061,0.00006062,0.00000424,0.00003774,0.00197812,-0.03022448,0.008499
 92,-0.03312136,-0.26282305,-0.09157058,-0.00062222,-0.00076106,-0.0020
 6036,0.03736576,0.29615304,-0.00008208,-0.00001382,-0.00001385,0.00001
 007,-0.00000324,-0.00000267,-0.00045058,-0.00041602,0.00028498,0.00010
 844,0.00001238,0.00013794,-0.00004280,0.00003261,-0.00007438,0.0000117
 0,-0.00001119,0.00001825,0.00079399,0.00000487,-0.00004186,-0.00002239
 ,0.00006066,0.00001866,-0.00041942,0.00017211,-0.00127992,-0.00004959,
 0.00003866,0.00015833,0.00370265,0.00063219,0.00305895,-0.00055289,-0.
 00135293,0.00084907,-0.00062006,0.00068997,-0.00002016,-0.00023157,0.0
 0024535,-0.00089095,-0.00000964,0.00001172,0.00002413,0.00107494,0.035
 69390,0.00469029,-0.01513955,-0.09773996,-0.09208517,0.00031279,-0.007
 31485,-0.00266406,0.01664642,0.09127366,0.09505967,0.00015478,0.000066
 81,0.00000364,-0.00001903,-0.00000156,0.00000054,0.00003067,-0.0006067
 9,0.00060930,-0.00036021,-0.00005578,-0.00020784,0.00009082,-0.0000617
 7,0.00011996,-0.00000982,0.00002666,-0.00002952,0.00064859,0.00031367,
 0.00012034,0.00003210,-0.00003339,-0.00000148,-0.00042283,0.00055500,-
 0.00018216,-0.00000071,-0.00002688,-0.00001583,0.00180421,-0.00063910,
 -0.00084614,0.00026059,-0.00090260,0.00078309,-0.00087559,-0.00055583,
 -0.00189352,-0.00071484,0.00083555,-0.00046547,0.00004424,-0.00003024,
 -0.00002996,0.00719277,-0.00348172,-0.00582133,-0.15590925,0.03259629,
 0.12472429,-0.01616479,0.00701379,0.02296112,0.00321873,-0.00158006,-0
 .00504042,0.16099957,0.00014449,0.00004274,0.00002075,-0.00001434,-0.0
 0000633,-0.00000571,0.00044198,0.00023275,0.00002254,-0.00029967,0.000
 06082,-0.00012598,0.00009235,-0.00007908,0.00011222,-0.00001596,0.0000
 2200,-0.00003300,-0.00037498,-0.00022418,-0.00025337,-0.00000058,0.000
 00498,0.00006551,0.00061522,-0.00082723,0.00029836,-0.00003887,0.00014
 731,0.00004518,-0.00380011,0.00108660,-0.00139522,0.00081579,0.0008580
 9,-0.00082368,-0.00012290,-0.00014197,0.00012363,0.00015509,-0.0004508
 4,0.00021993,0.00000889,0.00001464,-0.00000077,-0.01443075,-0.00101714
 ,0.03052142,0.03470722,-0.06198487,-0.04311590,-0.00340514,0.00124678,
 0.00332937,0.01895433,-0.00331453,-0.02201606,-0.03343206,0.06432945,-
 0.00018970,-0.00007213,0.00001941,0.00001561,0.00000063,-0.00000058,-0
 .00060325,-0.00044380,0.00005130,0.00039797,-0.00008223,0.00016238,-0.
 00006678,0.00006400,-0.00006690,0.00001150,-0.00001750,0.00001493,0.00
 080366,0.00022644,0.00044304,-0.00001750,-0.00000704,-0.00006433,-0.00
 124293,0.00092260,-0.00093353,0.00004670,-0.00023840,0.00003930,0.0066
 9618,-0.00092853,0.00262294,-0.00021773,0.00008839,0.00000435,-0.00077
 823,-0.00092402,-0.00059298,-0.00046592,0.00005361,0.00014132,-0.00005
 325,0.00000096,-0.00003679,0.00855679,0.00975690,-0.03035646,0.1192924
 3,-0.03923913,-0.19515536,-0.00548819,0.00141373,0.00976340,0.00809122
 ,-0.00358525,-0.00722724,-0.13478859,0.03301079,0.22117180\\0.00000005
 ,0.00000200,-0.00000086,0.00000030,0.00000241,-0.00000113,0.00000046,0
 .00000044,-0.00000043,0.00000072,0.00000130,-0.00000090,0.00000159,0.0
 0000107,-0.00000110,0.00000197,0.00000048,-0.00000114,0.00000123,-0.00
 000033,-0.00000022,0.00000183,-0.00000050,-0.00000058,0.00000074,-0.00
 000078,-0.00000003,0.00000126,-0.00000159,0.00000011,0.00000004,-0.000
 00099,0.00000044,-0.00000092,-0.00000005,0.00000020,-0.00000149,0.0000
 0040,0.00000059,-0.00000063,0.00000070,0.00000004,-0.00000101,0.000001
 35,-0.00000015,-0.00000050,-0.00000120,0.00000066,-0.00000087,-0.00000
 129,0.00000112,-0.00000134,-0.00000188,0.00000127,-0.00000191,-0.00000
 111,0.00000137,-0.00000152,-0.00000044,0.00000073\\\@
 The archive entry for this job was punched.


 The hours that make us happy make us wise.
                         -- John Masefield
 Job cpu time:       0 days  0 hours 59 minutes  4.9 seconds.
 Elapsed time:       0 days  0 hours  1 minutes 53.2 seconds.
 File lengths (MBytes):  RWF=    169 Int=      0 D2E=      0 Chk=      9 Scr=      1
 Normal termination of Gaussian 16 at Mon Apr 21 18:14:47 2025.
