/home/tahminaafroz
cn017.cluster.local
Wed Apr 23 16:29:39 CDT 2025
 Entering Gaussian System, Link 0=g16
 Initial command:
 /home/apps/g16/l1.exe "/tmp/3-OMe-phboh2-opt-freq/Gau-4171376.inp" -scrdir="/tmp/3-OMe-phboh2-opt-freq/"
 Entering Link 1 = /home/apps/g16/l1.exe PID=   4171377.
  
 Copyright (c) 1988-2019, Gaussian, Inc.  All Rights Reserved.
  
 This is part of the Gaussian(R) 16 program.  It is based on
 the Gaussian(R) 09 system (copyright 2009, Gaussian, Inc.),
 the Gaussian(R) 03 system (copyright 2003, Gaussian, Inc.),
 the Gaussian(R) 98 system (copyright 1998, Gaussian, Inc.),
 the Gaussian(R) 94 system (copyright 1995, Gaussian, Inc.),
 the Gaussian 92(TM) system (copyright 1992, Gaussian, Inc.),
 the Gaussian 90(TM) system (copyright 1990, Gaussian, Inc.),
 the Gaussian 88(TM) system (copyright 1988, Gaussian, Inc.),
 the Gaussian 86(TM) system (copyright 1986, Carnegie Mellon
 University), and the Gaussian 82(TM) system (copyright 1983,
 Carnegie Mellon University). Gaussian is a federally registered
 trademark of Gaussian, Inc.
  
 This software contains proprietary and confidential information,
 including trade secrets, belonging to Gaussian, Inc.
  
 This software is provided under written license and may be
 used, copied, transmitted, or stored only in accord with that
 written license.
  
 The following legend is applicable only to US Government
 contracts under FAR:
  
                    RESTRICTED RIGHTS LEGEND
  
 Use, reproduction and disclosure by the US Government is
 subject to restrictions as set forth in subparagraphs (a)
 and (c) of the Commercial Computer Software - Restricted
 Rights clause in FAR 52.227-19.
  
 Gaussian, Inc.
 340 Quinnipiac St., Bldg. 40, Wallingford CT 06492
  
  
 ---------------------------------------------------------------
 Warning -- This program may not be used in any manner that
 competes with the business of Gaussian, Inc. or will provide
 assistance to any competitor of Gaussian, Inc.  The licensee
 of this program is prohibited from giving any competitor of
 Gaussian, Inc. access to this program.  By using this program,
 the user acknowledges that Gaussian, Inc. is engaged in the
 business of creating and licensing software in the field of
 computational chemistry and represents and warrants to the
 licensee that it is not a competitor of Gaussian, Inc. and that
 it will not use this program in any manner prohibited above.
 ---------------------------------------------------------------
  

 Cite this work as:
 Gaussian 16, Revision C.01,
 M. J. Frisch, G. W. Trucks, H. B. Schlegel, G. E. Scuseria, 
 M. A. Robb, J. R. Cheeseman, G. Scalmani, V. Barone, 
 G. A. Petersson, H. Nakatsuji, X. Li, M. Caricato, A. V. Marenich, 
 J. Bloino, B. G. Janesko, R. Gomperts, B. Mennucci, H. P. Hratchian, 
 J. V. Ortiz, A. F. Izmaylov, J. L. Sonnenberg, D. Williams-Young, 
 F. Ding, F. Lipparini, F. Egidi, J. Goings, B. Peng, A. Petrone, 
 T. Henderson, D. Ranasinghe, V. G. Zakrzewski, J. Gao, N. Rega, 
 G. Zheng, W. Liang, M. Hada, M. Ehara, K. Toyota, R. Fukuda, 
 J. Hasegawa, M. Ishida, T. Nakajima, Y. Honda, O. Kitao, H. Nakai, 
 T. Vreven, K. Throssell, J. A. Montgomery, Jr., J. E. Peralta, 
 F. Ogliaro, M. J. Bearpark, J. J. Heyd, E. N. Brothers, K. N. Kudin, 
 V. N. Staroverov, T. A. Keith, R. Kobayashi, J. Normand, 
 K. Raghavachari, A. P. Rendell, J. C. Burant, S. S. Iyengar, 
 J. Tomasi, M. Cossi, J. M. Millam, M. Klene, C. Adamo, R. Cammi, 
 J. W. Ochterski, R. L. Martin, K. Morokuma, O. Farkas, 
 J. B. Foresman, and D. J. Fox, Gaussian, Inc., Wallingford CT, 2019.
 
 ******************************************
 Gaussian 16:  AS64L-G16RevC.01  3-Jul-2019
                23-Apr-2025 
 ******************************************
 %mem=20GB
 %nprocshared=32
 Will use up to   32 processors via shared memory.
 %chk=3-OMe-phboh2-opt-freq.chk
 ----------------------------------------------------------------------
 # opt=(calcfc,tight) freq 6-311+g(d,p) nosymm scf=(qc,fermi,xqc) geom=
 connectivity int=ultrafine m062x
 ----------------------------------------------------------------------
 1/7=10,10=4,18=20,19=15,26=4,38=1,57=2/1,3;
 2/9=110,12=2,15=1,17=6,18=5,40=1/2;
 3/5=4,6=6,7=111,11=2,25=1,30=1,71=2,74=-55,75=-5,140=1/1,2,3;
 4//1;
 5/5=2,22=13,38=5/2;
 8/6=4,10=90,11=11/1;
 11/6=1,8=1,9=11,15=111,16=1,31=1/1,2,10;
 10/6=1,13=1,31=1/2;
 6/7=2,8=2,9=2,10=2,28=1/1;
 7/10=1,25=1,30=1/1,2,3,16;
 1/7=10,10=4,18=20,19=15,26=4/3(2);
 2/9=110,15=1/2;
 99//99;
 2/9=110,15=1/2;
 3/5=4,6=6,7=111,11=2,25=1,30=1,71=1,74=-55,75=-5/1,2,3;
 4/5=5,16=3,69=1/1;
 5/5=2,22=13,38=5/2;
 7/30=1/1,2,3,16;
 1/7=10,18=20,19=15,26=4/3(-5);
 2/9=110,15=1/2;
 6/7=2,8=2,9=2,10=2,19=2,28=1/1;
 99/9=1/99;
 ---------------------
 3-OMe-phboh2-opt-freq
 ---------------------
 Symbolic Z-matrix:
 Charge =  0 Multiplicity = 1
 O                     8.66698   7.53064   5.47881 
 H                     9.4676    7.37846   5.98861 
 C                     6.26035   6.86267   5.17548 
 B                     7.64029   6.73213   5.89222 
 O                     7.89484   5.8628    6.92112 
 H                     7.1404    5.33704   7.19071 
 C                     5.15404   6.05732   5.48701 
 H                     5.22623   5.29146   6.25509 
 C                     3.94258   6.19849   4.8367 
 H                     3.08871   5.57684   5.07592 
 C                     3.8008    7.16644   3.83729 
 C                     4.88182   7.98207   3.50209 
 C                     6.09104   7.81853   4.17197 
 H                     6.93016   8.45312   3.90899 
 H                     2.58002   7.23596   3.25347 
 O                     4.76786   8.97962   2.48385 
 C                     3.47561   9.58795   2.55406 
 H                     3.47881   10.4981   1.99148 
 H                     2.74458   8.92031   2.14815 
 H                     3.23651   9.8006    3.5751 
 

 GradGradGradGradGradGradGradGradGradGradGradGradGradGradGradGradGradGrad
 Berny optimization.
 Initialization pass.
                           ----------------------------
                           !    Initial Parameters    !
                           ! (Angstroms and Degrees)  !
 --------------------------                            --------------------------
 ! Name  Definition              Value          Derivative Info.                !
 --------------------------------------------------------------------------------
 ! R1    R(1,2)                  0.9613         calculate D2E/DX2 analytically  !
 ! R2    R(1,4)                  1.3648         calculate D2E/DX2 analytically  !
 ! R3    R(3,4)                  1.5604         calculate D2E/DX2 analytically  !
 ! R4    R(3,7)                  1.4034         calculate D2E/DX2 analytically  !
 ! R5    R(3,13)                 1.3962         calculate D2E/DX2 analytically  !
 ! R6    R(4,5)                  1.3708         calculate D2E/DX2 analytically  !
 ! R7    R(5,6)                  0.9583         calculate D2E/DX2 analytically  !
 ! R8    R(7,8)                  1.0871         calculate D2E/DX2 analytically  !
 ! R9    R(7,9)                  1.3822         calculate D2E/DX2 analytically  !
 ! R10   R(9,10)                 1.0829         calculate D2E/DX2 analytically  !
 ! R11   R(9,11)                 1.3985         calculate D2E/DX2 analytically  !
 ! R12   R(11,12)                1.3951         calculate D2E/DX2 analytically  !
 ! R13   R(11,15)                1.355          calculate D2E/DX2 analytically  !
 ! R14   R(12,13)                1.392          calculate D2E/DX2 analytically  !
 ! R15   R(12,16)                1.43           calculate D2E/DX2 analytically  !
 ! R16   R(13,14)                1.0844         calculate D2E/DX2 analytically  !
 ! R17   R(16,17)                1.43           calculate D2E/DX2 analytically  !
 ! R18   R(17,18)                1.07           calculate D2E/DX2 analytically  !
 ! R19   R(17,19)                1.07           calculate D2E/DX2 analytically  !
 ! R20   R(17,20)                1.07           calculate D2E/DX2 analytically  !
 ! A1    A(2,1,4)              111.9177         calculate D2E/DX2 analytically  !
 ! A2    A(4,3,7)              123.1715         calculate D2E/DX2 analytically  !
 ! A3    A(4,3,13)             119.646          calculate D2E/DX2 analytically  !
 ! A4    A(7,3,13)             117.1825         calculate D2E/DX2 analytically  !
 ! A5    A(1,4,3)              118.5009         calculate D2E/DX2 analytically  !
 ! A6    A(1,4,5)              117.3037         calculate D2E/DX2 analytically  !
 ! A7    A(3,4,5)              124.1953         calculate D2E/DX2 analytically  !
 ! A8    A(4,5,6)              114.387          calculate D2E/DX2 analytically  !
 ! A9    A(3,7,8)              120.5832         calculate D2E/DX2 analytically  !
 ! A10   A(3,7,9)              121.8623         calculate D2E/DX2 analytically  !
 ! A11   A(8,7,9)              117.5542         calculate D2E/DX2 analytically  !
 ! A12   A(7,9,10)             121.9055         calculate D2E/DX2 analytically  !
 ! A13   A(7,9,11)             119.7201         calculate D2E/DX2 analytically  !
 ! A14   A(10,9,11)            118.3743         calculate D2E/DX2 analytically  !
 ! A15   A(9,11,12)            119.8549         calculate D2E/DX2 analytically  !
 ! A16   A(9,11,15)            115.7696         calculate D2E/DX2 analytically  !
 ! A17   A(12,11,15)           124.3755         calculate D2E/DX2 analytically  !
 ! A18   A(11,12,13)           119.2625         calculate D2E/DX2 analytically  !
 ! A19   A(11,12,16)           121.1437         calculate D2E/DX2 analytically  !
 ! A20   A(13,12,16)           119.5938         calculate D2E/DX2 analytically  !
 ! A21   A(3,13,12)            122.1173         calculate D2E/DX2 analytically  !
 ! A22   A(3,13,14)            118.7572         calculate D2E/DX2 analytically  !
 ! A23   A(12,13,14)           119.1254         calculate D2E/DX2 analytically  !
 ! A24   A(12,16,17)           109.5            calculate D2E/DX2 analytically  !
 ! A25   A(16,17,18)           109.4712         calculate D2E/DX2 analytically  !
 ! A26   A(16,17,19)           109.4712         calculate D2E/DX2 analytically  !
 ! A27   A(16,17,20)           109.4712         calculate D2E/DX2 analytically  !
 ! A28   A(18,17,19)           109.4713         calculate D2E/DX2 analytically  !
 ! A29   A(18,17,20)           109.4712         calculate D2E/DX2 analytically  !
 ! A30   A(19,17,20)           109.4712         calculate D2E/DX2 analytically  !
 ! D1    D(2,1,4,3)            179.4421         calculate D2E/DX2 analytically  !
 ! D2    D(2,1,4,5)             -0.4564         calculate D2E/DX2 analytically  !
 ! D3    D(7,3,4,1)            177.5606         calculate D2E/DX2 analytically  !
 ! D4    D(7,3,4,5)             -2.5484         calculate D2E/DX2 analytically  !
 ! D5    D(13,3,4,1)            -2.4278         calculate D2E/DX2 analytically  !
 ! D6    D(13,3,4,5)           177.4631         calculate D2E/DX2 analytically  !
 ! D7    D(4,3,7,8)             -0.3585         calculate D2E/DX2 analytically  !
 ! D8    D(4,3,7,9)            179.8396         calculate D2E/DX2 analytically  !
 ! D9    D(13,3,7,8)           179.6302         calculate D2E/DX2 analytically  !
 ! D10   D(13,3,7,9)            -0.1717         calculate D2E/DX2 analytically  !
 ! D11   D(4,3,13,12)         -179.7981         calculate D2E/DX2 analytically  !
 ! D12   D(4,3,13,14)            0.1364         calculate D2E/DX2 analytically  !
 ! D13   D(7,3,13,12)            0.2128         calculate D2E/DX2 analytically  !
 ! D14   D(7,3,13,14)         -179.8527         calculate D2E/DX2 analytically  !
 ! D15   D(1,4,5,6)            178.6813         calculate D2E/DX2 analytically  !
 ! D16   D(3,4,5,6)             -1.2109         calculate D2E/DX2 analytically  !
 ! D17   D(3,7,9,10)           179.9449         calculate D2E/DX2 analytically  !
 ! D18   D(3,7,9,11)             0.0413         calculate D2E/DX2 analytically  !
 ! D19   D(8,7,9,10)             0.1372         calculate D2E/DX2 analytically  !
 ! D20   D(8,7,9,11)          -179.7663         calculate D2E/DX2 analytically  !
 ! D21   D(7,9,11,12)            0.0561         calculate D2E/DX2 analytically  !
 ! D22   D(7,9,11,15)         -179.9708         calculate D2E/DX2 analytically  !
 ! D23   D(10,9,11,12)        -179.8508         calculate D2E/DX2 analytically  !
 ! D24   D(10,9,11,15)           0.1222         calculate D2E/DX2 analytically  !
 ! D25   D(9,11,12,13)          -0.0169         calculate D2E/DX2 analytically  !
 ! D26   D(9,11,12,16)         179.9405         calculate D2E/DX2 analytically  !
 ! D27   D(15,11,12,13)       -179.9875         calculate D2E/DX2 analytically  !
 ! D28   D(15,11,12,16)         -0.0301         calculate D2E/DX2 analytically  !
 ! D29   D(11,12,13,3)          -0.1224         calculate D2E/DX2 analytically  !
 ! D30   D(11,12,13,14)        179.9434         calculate D2E/DX2 analytically  !
 ! D31   D(16,12,13,3)         179.9196         calculate D2E/DX2 analytically  !
 ! D32   D(16,12,13,14)         -0.0147         calculate D2E/DX2 analytically  !
 ! D33   D(11,12,16,17)         37.9755         calculate D2E/DX2 analytically  !
 ! D34   D(13,12,16,17)       -142.0672         calculate D2E/DX2 analytically  !
 ! D35   D(12,16,17,18)        164.463          calculate D2E/DX2 analytically  !
 ! D36   D(12,16,17,19)        -75.537          calculate D2E/DX2 analytically  !
 ! D37   D(12,16,17,20)         44.463          calculate D2E/DX2 analytically  !
 --------------------------------------------------------------------------------
 Trust Radius=3.00D-01 FncErr=1.00D-07 GrdErr=1.00D-06 EigMax=2.50D+02 EigMin=1.00D-04
 Number of steps in this run=     97 maximum allowed number of steps=    120.
 GradGradGradGradGradGradGradGradGradGradGradGradGradGradGradGradGradGrad

                          Input orientation:                          
 ---------------------------------------------------------------------
 Center     Atomic      Atomic             Coordinates (Angstroms)
 Number     Number       Type             X           Y           Z
 ---------------------------------------------------------------------
      1          8           0        8.666976    7.530645    5.478809
      2          1           0        9.467602    7.378460    5.988610
      3          6           0        6.260349    6.862668    5.175479
      4          5           0        7.640289    6.732129    5.892222
      5          8           0        7.894844    5.862804    6.921118
      6          1           0        7.140400    5.337038    7.190707
      7          6           0        5.154045    6.057321    5.487008
      8          1           0        5.226232    5.291461    6.255088
      9          6           0        3.942583    6.198486    4.836703
     10          1           0        3.088712    5.576837    5.075923
     11          6           0        3.800802    7.166441    3.837290
     12          6           0        4.881817    7.982073    3.502086
     13          6           0        6.091041    7.818533    4.171973
     14          1           0        6.930162    8.453124    3.908985
     15          1           0        2.580017    7.235957    3.253471
     16          8           0        4.767857    8.979620    2.483846
     17          6           0        3.475608    9.587947    2.554063
     18          1           0        3.478810   10.498105    1.991477
     19          1           0        2.744577    8.920314    2.148155
     20          1           0        3.236509    9.800603    3.575096
 ---------------------------------------------------------------------
                    Distance matrix (angstroms):
                    1          2          3          4          5
     1  O    0.000000
     2  H    0.961280   0.000000
     3  C    2.515960   3.348686   0.000000
     4  B    1.364780   1.940646   1.560447   0.000000
     5  O    2.336266   2.374943   2.592018   1.370821   0.000000
     6  H    3.173790   3.320890   2.676412   1.970338   0.958277
     7  C    3.809388   4.539139   1.403404   2.607868   3.099433
     8  H    4.177951   4.734532   2.168789   2.834584   2.809185
     9  C    4.950438   5.765853   2.434737   3.882258   4.480830
    10  H    5.924248   6.690970   3.423822   4.766329   5.156106
    11  C    5.148483   6.065126   2.816452   4.376418   5.288728
    12  C    4.294025   5.251340   2.440013   3.858015   5.025874
    13  C    2.902782   3.859404   1.396197   2.557284   3.825752
    14  H    2.516314   3.452296   2.140609   2.720172   4.088192
    15  H    6.487684   7.412160   4.168729   5.729154   6.601861
    16  O    5.125667   6.077392   3.735493   4.991904   6.259551
    17  C    6.303724   7.251341   4.696142   6.053393   7.244136
    18  H    6.919853   7.846967   5.575951   6.834932   8.080144
    19  H    6.935362   7.894648   5.075357   6.540198   7.658642
    20  H    6.186017   7.107626   4.509578   5.846186   6.957170
                    6          7          8          9         10
     6  H    0.000000
     7  C    2.714223   0.000000
     8  H    2.131079   1.087060   0.000000
     9  C    4.063184   1.382195   2.117136   0.000000
    10  H    4.576679   2.159967   2.457816   1.082945   0.000000
    11  C    5.073957   2.404783   3.375374   1.398522   2.137317
    12  C    5.069845   2.778254   3.864846   2.417550   3.387824
    13  C    4.046199   2.389382   3.387234   2.771694   3.854388
    14  H    4.530330   3.374110   4.289952   3.856123   4.938776
    15  H    6.317026   3.606035   4.448958   2.332286   2.516502
    16  O    6.407176   4.208082   5.294799   3.735200   4.595359
    17  C    7.280069   4.887191   5.934818   4.113023   4.753785
    18  H    8.189984   5.894549   6.952769   5.176593   5.821070
    19  H    7.588838   5.014998   6.016152   4.008972   4.457476
    20  H    6.945245   4.620012   5.610144   3.881422   4.484922
                   11         12         13         14         15
    11  C    0.000000
    12  C    1.395067   0.000000
    13  C    2.404669   1.392019   0.000000
    14  H    3.384315   2.140835   1.084432   0.000000
    15  H    1.354988   2.432444   3.675640   4.564532   0.000000
    16  O    2.460615   1.430000   2.438998   2.642685   2.901608
    17  C    2.759731   2.335595   3.548091   3.880410   2.612108
    18  H    3.822393   3.252812   4.331099   4.446416   3.611380
    19  H    2.654215   2.698373   4.063075   4.564856   2.021352
    20  H    2.706655   2.453451   3.526077   3.945916   2.666802
                   16         17         18         19         20
    16  O    0.000000
    17  C    1.430000   0.000000
    18  H    2.051796   1.070000   0.000000
    19  H    2.051796   1.070000   1.747303   0.000000
    20  H    2.051796   1.070000   1.747303   1.747303   0.000000
 Symmetry turned off by external request.
 Stoichiometry    C7H9BO3
 Framework group  C1[X(C7H9BO3)]
 Deg. of freedom    54
 Full point group                 C1      NOp   1
 Rotational constants (GHZ):           2.2998090           0.6330325           0.5048130
 Standard basis: 6-311+G(d,p) (5D, 7F)
   296 basis functions,   468 primitive gaussians,   307 cartesian basis functions
    40 alpha electrons       40 beta electrons
       nuclear repulsion energy       564.8900311807 Hartrees.
 NAtoms=   20 NActive=   20 NUniq=   20 SFac= 1.00D+00 NAtFMM=   60 NAOKFM=F Big=F
 Integral buffers will be    131072 words long.
 Raffenetti 2 integral format.
 Two-electron integral symmetry is turned off.
 One-electron integrals computed using PRISM.
 NBasis=   296 RedAO= T EigKep=  2.44D-06  NBF=   296
 NBsUse=   296 1.00D-06 EigRej= -1.00D+00 NBFU=   296
 ExpMin= 3.15D-02 ExpMax= 8.59D+03 ExpMxC= 1.30D+03 IAcc=3 IRadAn=         5 AccDes= 0.00D+00
 Harris functional with IExCor= 1009 and IRadAn=       5 diagonalized for initial guess.
 HarFok:  IExCor= 1009 AccDes= 0.00D+00 IRadAn=         5 IDoV= 1 UseB2=F ITyADJ=14
 ICtDFT=  3500011 ScaDFX=  1.000000  1.000000  1.000000  1.000000
 FoFCou: FMM=F IPFlag=           0 FMFlag=      100000 FMFlg1=           0
         NFxFlg=           0 DoJE=T BraDBF=F KetDBF=T FulRan=T
         wScrn=  0.000000 ICntrl=       500 IOpCl=  0 I1Cent=   200000004 NGrid=           0
         NMat0=    1 NMatS0=      1 NMatT0=    0 NMatD0=    1 NMtDS0=    0 NMtDT0=    0
 Symmetry not used in FoFCou.
 Requested convergence on RMS density matrix=1.00D-08 within 128 cycles.
 Requested convergence on MAX density matrix=1.00D-06.
 Requested convergence on             energy=1.00D-06.
 Level shift goal  0.100 maximum shift  0.100.
 No special actions if energy rises.
 Dynamic level shift is on during FON iterations.
 SCF Done:  E(RM062X) =  -522.696222094     A.U. after   15 cycles
            NFock= 15  Conv=0.46D-08     -V/T= 2.0041
 DoSCS=F DFT=T ScalE2(SS,OS)=  1.000000  1.000000
 Range of M.O.s used for correlation:     1   296
 NBasis=   296 NAE=    40 NBE=    40 NFC=     0 NFV=     0
 NROrb=    296 NOA=    40 NOB=    40 NVA=   256 NVB=   256

 **** Warning!!: The largest alpha MO coefficient is  0.13403069D+03

 Symmetrizing basis deriv contribution to polar:
 IMax=3 JMax=2 DiffMx= 0.00D+00
 G2DrvN: will do    21 centers at a time, making    1 passes.
 Calling FoFCou, ICntrl=  3107 FMM=F I1Cent=   0 AccDes= 0.00D+00.
 End of G2Drv F.D. properties file   721 does not exist.
 End of G2Drv F.D. properties file   722 does not exist.
 End of G2Drv F.D. properties file   788 does not exist.
          IDoAtm=11111111111111111111
          Differentiating once with respect to nuclear coordinates.
 Keep R1 ints in memory in canonical form, NReq=1002449809.
          There are    63 degrees of freedom in the 1st order CPHF.  IDoFFX=6 NUNeed=     0.
     57 vectors produced by pass  0 Test12= 1.63D-14 1.59D-09 XBig12= 2.08D-01 9.89D-02.
 AX will form    57 AO Fock derivatives at one time.
     57 vectors produced by pass  1 Test12= 1.63D-14 1.59D-09 XBig12= 9.17D-03 3.03D-02.
     57 vectors produced by pass  2 Test12= 1.63D-14 1.59D-09 XBig12= 2.63D-04 2.06D-03.
     57 vectors produced by pass  3 Test12= 1.63D-14 1.59D-09 XBig12= 2.33D-06 1.90D-04.
     57 vectors produced by pass  4 Test12= 1.63D-14 1.59D-09 XBig12= 1.60D-08 1.73D-05.
     57 vectors produced by pass  5 Test12= 1.63D-14 1.59D-09 XBig12= 6.72D-11 9.27D-07.
     49 vectors produced by pass  6 Test12= 1.63D-14 1.59D-09 XBig12= 2.56D-13 5.64D-08.
      9 vectors produced by pass  7 Test12= 1.63D-14 1.59D-09 XBig12= 1.00D-15 3.82D-09.
 InvSVY:  IOpt=1 It=  1 EMax= 5.55D-16
 Solved reduced A of dimension   400 with    63 vectors.
 End of Minotr F.D. properties file   721 does not exist.
 End of Minotr F.D. properties file   722 does not exist.
 End of Minotr F.D. properties file   788 does not exist.

 **********************************************************************

            Population analysis using the SCF Density.

 **********************************************************************

 Alpha  occ. eigenvalues --  -19.64814 -19.64157 -19.63272 -10.61170 -10.57900
 Alpha  occ. eigenvalues --  -10.57753 -10.55585 -10.55395 -10.54903 -10.53795
 Alpha  occ. eigenvalues --   -7.08810  -1.17128  -1.16866  -1.13377  -0.96673
 Alpha  occ. eigenvalues --   -0.85620  -0.84644  -0.78843  -0.69838  -0.69011
 Alpha  occ. eigenvalues --   -0.65315  -0.63223  -0.59395  -0.55804  -0.55402
 Alpha  occ. eigenvalues --   -0.54235  -0.51590  -0.50125  -0.49518  -0.48247
 Alpha  occ. eigenvalues --   -0.45882  -0.44579  -0.44062  -0.43042  -0.40838
 Alpha  occ. eigenvalues --   -0.40722  -0.39849  -0.36916  -0.31772  -0.29579
 Alpha virt. eigenvalues --   -0.01029  -0.00520   0.00987   0.01707   0.01740
 Alpha virt. eigenvalues --    0.02833   0.03272   0.03291   0.04827   0.05006
 Alpha virt. eigenvalues --    0.06403   0.06565   0.07621   0.08405   0.09256
 Alpha virt. eigenvalues --    0.10493   0.10818   0.11470   0.12430   0.12886
 Alpha virt. eigenvalues --    0.13420   0.14244   0.14765   0.15099   0.15288
 Alpha virt. eigenvalues --    0.16098   0.16429   0.16628   0.17416   0.18725
 Alpha virt. eigenvalues --    0.19387   0.19940   0.20088   0.20955   0.22061
 Alpha virt. eigenvalues --    0.22198   0.22602   0.23213   0.23614   0.24457
 Alpha virt. eigenvalues --    0.24588   0.24664   0.25130   0.25702   0.26104
 Alpha virt. eigenvalues --    0.26408   0.26878   0.28337   0.29024   0.30141
 Alpha virt. eigenvalues --    0.30385   0.31513   0.31880   0.33497   0.33822
 Alpha virt. eigenvalues --    0.35804   0.36513   0.37152   0.38057   0.39138
 Alpha virt. eigenvalues --    0.40327   0.41111   0.43836   0.45932   0.47619
 Alpha virt. eigenvalues --    0.48260   0.48941   0.50067   0.50785   0.51922
 Alpha virt. eigenvalues --    0.53347   0.55312   0.56740   0.57945   0.58234
 Alpha virt. eigenvalues --    0.60029   0.60597   0.61516   0.62998   0.64137
 Alpha virt. eigenvalues --    0.64987   0.66307   0.67892   0.69098   0.69895
 Alpha virt. eigenvalues --    0.70374   0.70594   0.71579   0.73347   0.74122
 Alpha virt. eigenvalues --    0.75128   0.76485   0.77237   0.79490   0.80437
 Alpha virt. eigenvalues --    0.85025   0.85787   0.86314   0.87706   0.89078
 Alpha virt. eigenvalues --    0.91069   0.91641   0.93011   0.95446   0.96331
 Alpha virt. eigenvalues --    0.99258   1.00180   1.02537   1.03595   1.06459
 Alpha virt. eigenvalues --    1.07258   1.08319   1.09447   1.11231   1.12495
 Alpha virt. eigenvalues --    1.12829   1.13423   1.15912   1.17684   1.19412
 Alpha virt. eigenvalues --    1.21466   1.23170   1.27901   1.31243   1.32359
 Alpha virt. eigenvalues --    1.33487   1.34467   1.36143   1.37785   1.41192
 Alpha virt. eigenvalues --    1.43616   1.45529   1.49307   1.50490   1.51169
 Alpha virt. eigenvalues --    1.54070   1.56790   1.57362   1.59099   1.60063
 Alpha virt. eigenvalues --    1.61300   1.62148   1.62601   1.64208   1.67842
 Alpha virt. eigenvalues --    1.70196   1.70790   1.71937   1.73983   1.74759
 Alpha virt. eigenvalues --    1.76597   1.77257   1.80677   1.82058   1.85061
 Alpha virt. eigenvalues --    1.86089   1.86262   1.91203   1.91676   1.94683
 Alpha virt. eigenvalues --    1.95735   1.98891   1.99637   1.99801   2.02028
 Alpha virt. eigenvalues --    2.04488   2.07475   2.10962   2.12510   2.15649
 Alpha virt. eigenvalues --    2.17571   2.18093   2.19064   2.21960   2.25463
 Alpha virt. eigenvalues --    2.27481   2.32842   2.36288   2.41487   2.46285
 Alpha virt. eigenvalues --    2.49935   2.52694   2.55334   2.57267   2.59705
 Alpha virt. eigenvalues --    2.60033   2.63115   2.63522   2.64031   2.65252
 Alpha virt. eigenvalues --    2.67623   2.72435   2.73894   2.74058   2.76985
 Alpha virt. eigenvalues --    2.78177   2.79919   2.83772   2.84244   2.86390
 Alpha virt. eigenvalues --    2.87613   2.89820   2.93679   2.97584   3.06529
 Alpha virt. eigenvalues --    3.07192   3.08329   3.11153   3.14333   3.16030
 Alpha virt. eigenvalues --    3.23932   3.24881   3.26376   3.29194   3.31377
 Alpha virt. eigenvalues --    3.32902   3.37196   3.41492   3.45125   3.50441
 Alpha virt. eigenvalues --    3.56211   3.59244   3.62380   3.65659   3.66623
 Alpha virt. eigenvalues --    3.88246   3.89491   3.90331   3.95346   3.96867
 Alpha virt. eigenvalues --    4.07406   4.11248   4.14288   4.20026   4.20713
 Alpha virt. eigenvalues --    4.85311   5.08145   5.09333   5.21396   5.39513
 Alpha virt. eigenvalues --    5.49746   5.51199   5.69007   5.75987   5.77318
 Alpha virt. eigenvalues --   14.79759  23.60660  23.98582  24.01004  24.04803
 Alpha virt. eigenvalues --   24.10637  24.16890  24.24576  50.00179  50.05387
 Alpha virt. eigenvalues --   50.05822
          Condensed to atoms (all electrons):
               1          2          3          4          5          6
     1  O    7.755398   0.264424   0.073426   0.446982  -0.118373   0.019192
     2  H    0.264424   0.458414   0.061686  -0.003428  -0.037707   0.003504
     3  C    0.073426   0.061686   9.609348   0.202715  -0.185139   0.007972
     4  B    0.446982  -0.003428   0.202715   3.361574   0.358777   0.015944
     5  O   -0.118373  -0.037707  -0.185139   0.358777   8.009890   0.253582
     6  H    0.019192   0.003504   0.007972   0.015944   0.253582   0.434256
     7  C    0.048698  -0.003177  -1.448304   0.088047  -0.012387  -0.034652
     8  H    0.002136  -0.000047   0.059981   0.014145  -0.006233   0.011672
     9  C    0.063188   0.004962   0.363994   0.051931  -0.002468   0.056530
    10  H   -0.000036  -0.000001  -0.009789  -0.000184   0.000342  -0.000061
    11  C   -0.030281  -0.001988  -1.903408   0.047167  -0.001953  -0.001810
    12  C   -0.041657  -0.031338  -0.922630  -0.098336   0.073547  -0.014637
    13  C   -0.126573  -0.021627   0.535027   0.041866   0.036631  -0.005147
    14  H    0.005523  -0.000725   0.069125  -0.007537   0.002571  -0.000119
    15  H   -0.000004   0.000000   0.032789  -0.000230   0.000016  -0.000002
    16  O    0.000219  -0.000002  -0.037053  -0.001825  -0.000041   0.000009
    17  C   -0.000777  -0.000018  -0.031605  -0.003543   0.000012  -0.000014
    18  H    0.000003   0.000000   0.001414  -0.000012   0.000000   0.000000
    19  H   -0.000006   0.000000  -0.001615  -0.000087   0.000000   0.000000
    20  H    0.000033   0.000000   0.005894   0.000267  -0.000004   0.000000
               7          8          9         10         11         12
     1  O    0.048698   0.002136   0.063188  -0.000036  -0.030281  -0.041657
     2  H   -0.003177  -0.000047   0.004962  -0.000001  -0.001988  -0.031338
     3  C   -1.448304   0.059981   0.363994  -0.009789  -1.903408  -0.922630
     4  B    0.088047   0.014145   0.051931  -0.000184   0.047167  -0.098336
     5  O   -0.012387  -0.006233  -0.002468   0.000342  -0.001953   0.073547
     6  H   -0.034652   0.011672   0.056530  -0.000061  -0.001810  -0.014637
     7  C   11.289871   0.267682  -1.906733   0.026355   1.295019  -0.429135
     8  H    0.267682   0.551116   0.045569  -0.006851  -0.033081   0.003475
     9  C   -1.906733   0.045569   8.425989   0.289374  -0.976480   0.111368
    10  H    0.026355  -0.006851   0.289374   0.503096   0.049048   0.007483
    11  C    1.295019  -0.033081  -0.976480   0.049048  12.315232  -0.671679
    12  C   -0.429135   0.003475   0.111368   0.007483  -0.671679  16.409632
    13  C   -3.087098  -0.030040  -0.291109  -0.013758  -4.910170  -8.575286
    14  H    0.000298  -0.000106  -0.010038   0.000053  -0.001739   0.020284
    15  H   -0.035435  -0.000266   0.071031  -0.007374   0.278654   0.067886
    16  O   -0.002101   0.000223   0.018056  -0.000389   0.035988   0.614152
    17  C    0.061541   0.000002  -0.076618   0.001794  -0.068880  -0.011467
    18  H   -0.000179   0.000000   0.002413  -0.000004  -0.007893   0.006770
    19  H   -0.008235   0.000002   0.054728   0.000035   0.120892   0.010166
    20  H    0.012440  -0.000001  -0.040443  -0.000003  -0.064910  -0.130501
              13         14         15         16         17         18
     1  O   -0.126573   0.005523  -0.000004   0.000219  -0.000777   0.000003
     2  H   -0.021627  -0.000725   0.000000  -0.000002  -0.000018   0.000000
     3  C    0.535027   0.069125   0.032789  -0.037053  -0.031605   0.001414
     4  B    0.041866  -0.007537  -0.000230  -0.001825  -0.003543  -0.000012
     5  O    0.036631   0.002571   0.000016  -0.000041   0.000012   0.000000
     6  H   -0.005147  -0.000119  -0.000002   0.000009  -0.000014   0.000000
     7  C   -3.087098   0.000298  -0.035435  -0.002101   0.061541  -0.000179
     8  H   -0.030040  -0.000106  -0.000266   0.000223   0.000002   0.000000
     9  C   -0.291109  -0.010038   0.071031   0.018056  -0.076618   0.002413
    10  H   -0.013758   0.000053  -0.007374  -0.000389   0.001794  -0.000004
    11  C   -4.910170  -0.001739   0.278654   0.035988  -0.068880  -0.007893
    12  C   -8.575286   0.020284   0.067886   0.614152  -0.011467   0.006770
    13  C   23.074475   0.273537  -0.082211  -0.555820  -0.088270   0.017885
    14  H    0.273537   0.457925  -0.000063  -0.000875   0.001793  -0.000081
    15  H   -0.082211  -0.000063   0.539449  -0.007307  -0.007630   0.000560
    16  O   -0.555820  -0.000875  -0.007307   8.117598   0.103207  -0.049229
    17  C   -0.088270   0.001793  -0.007630   0.103207   5.212827   0.414727
    18  H    0.017885  -0.000081   0.000560  -0.049229   0.414727   0.490014
    19  H   -0.200278   0.000079  -0.000139  -0.040703   0.425768  -0.027987
    20  H    0.214708  -0.000035  -0.001317  -0.040214   0.412054  -0.022544
              19         20
     1  O   -0.000006   0.000033
     2  H    0.000000   0.000000
     3  C   -0.001615   0.005894
     4  B   -0.000087   0.000267
     5  O    0.000000  -0.000004
     6  H    0.000000   0.000000
     7  C   -0.008235   0.012440
     8  H    0.000002  -0.000001
     9  C    0.054728  -0.040443
    10  H    0.000035  -0.000003
    11  C    0.120892  -0.064910
    12  C    0.010166  -0.130501
    13  C   -0.200278   0.214708
    14  H    0.000079  -0.000035
    15  H   -0.000139  -0.001317
    16  O   -0.040703  -0.040214
    17  C    0.425768   0.412054
    18  H   -0.027987  -0.022544
    19  H    0.566705  -0.047895
    20  H   -0.047895   0.529493
 Mulliken charges:
               1
     1  O   -0.361516
     2  H    0.307068
     3  C   -0.483827
     4  B    0.485768
     5  O   -0.371064
     6  H    0.253780
     7  C   -0.122515
     8  H    0.120624
     9  C   -0.255243
    10  H    0.160871
    11  C    0.532271
    12  C   -0.398097
    13  C   -0.206741
    14  H    0.190131
    15  H    0.151593
    16  O   -0.153894
    17  C   -0.344902
    18  H    0.174143
    19  H    0.148569
    20  H    0.172979
 Sum of Mulliken charges =   0.00000
 Mulliken charges with hydrogens summed into heavy atoms:
               1
     1  O   -0.054448
     3  C   -0.483827
     4  B    0.485768
     5  O   -0.117284
     7  C   -0.001890
     9  C   -0.094371
    11  C    0.683864
    12  C   -0.398097
    13  C   -0.016611
    16  O   -0.153894
    17  C    0.150789
 APT charges:
               1
     1  O   -0.797775
     2  H    2.272016
     3  C   -1.129138
     4  B   -0.444929
     5  O    1.374102
     6  H   -0.920236
     7  C   -0.633066
     8  H    0.204368
     9  C    0.580021
    10  H   -0.638776
    11  C   -1.231533
    12  C   -2.186590
    13  C    2.580977
    14  H    1.748218
    15  H   -0.527348
    16  O   -0.179730
    17  C   -1.168619
    18  H    1.395025
    19  H   -1.003717
    20  H    0.706730
 Sum of APT charges =   0.00000
 APT charges with hydrogens summed into heavy atoms:
               1
     1  O    1.474242
     3  C   -1.129138
     4  B   -0.444929
     5  O    0.453866
     7  C   -0.428698
     9  C   -0.058755
    11  C   -1.758882
    12  C   -2.186590
    13  C    4.329195
    16  O   -0.179730
    17  C   -0.070580
 Electronic spatial extent (au):  <R**2>=          32919.8462
 Charge=              0.0000 electrons
 Dipole moment (field-independent basis, Debye):
    X=             -2.1869    Y=             -0.8155    Z=              1.4131  Tot=              2.7284
 Quadrupole moment (field-independent basis, Debye-Ang):
   XX=            -80.7088   YY=            -73.3048   ZZ=            -53.1162
   XY=            -21.8459   XZ=              2.0869   YZ=              2.8032
 Traceless Quadrupole moment (field-independent basis, Debye-Ang):
   XX=            -11.6655   YY=             -4.2615   ZZ=             15.9271
   XY=            -21.8459   XZ=              2.0869   YZ=              2.8032
 Octapole moment (field-independent basis, Debye-Ang**2):
  XXX=          -1147.6306  YYY=          -1486.3184  ZZZ=           -803.4095  XYY=           -560.5566
  XXY=           -624.1301  XXZ=           -283.8655  XZZ=           -313.2825  YZZ=           -449.3142
  YYZ=           -309.2362  XYZ=            -19.9115
 Hexadecapole moment (field-independent basis, Debye-Ang**3):
 XXXX=         -13139.5170 YYYY=         -21839.3510 ZZZZ=          -8324.4840 XXXY=          -8387.2054
 XXXZ=          -4969.3272 YYYX=          -9569.8003 YYYZ=          -6485.8271 ZZZX=          -4909.7920
 ZZZY=          -6047.0716 XXYY=          -7212.3395 XXZZ=          -3408.4472 YYZZ=          -5172.0729
 XXYZ=          -2110.0816 YYXZ=          -2111.3014 ZZXY=          -2493.0739
 N-N= 5.648900311807D+02 E-N=-2.351865151249D+03  KE= 5.205627130988D+02
  Exact polarizability:       0.000       0.000       0.000       0.000       0.000       0.000
 Approx polarizability:     145.967       8.928     118.490      16.760     -31.271     118.338
 Calling FoFJK, ICntrl=    100127 FMM=F ISym2X=0 I1Cent= 0 IOpClX= 0 NMat=1 NMatS=1 NMatT=0.
 -------------------------------------------------------------------
 Center     Atomic                   Forces (Hartrees/Bohr)
 Number     Number              X              Y              Z
 -------------------------------------------------------------------
      1        8          -0.002437391   -0.001087417    0.000215874
      2        1           0.000202260    0.000028701   -0.000042561
      3        6          -0.011719874   -0.001581747   -0.004635245
      4        5           0.005817799    0.000352782    0.002182376
      5        8          -0.001204775    0.001016837   -0.001478475
      6        1          -0.000169970   -0.000267575    0.000163284
      7        6           0.005921742   -0.004407084    0.006804050
      8        1           0.000479302    0.000202502    0.000285046
      9        6          -0.004251932    0.008196503   -0.010060205
     10        1           0.001805558   -0.001245951    0.001770117
     11        6          -0.075257405   -0.004163772   -0.028359312
     12        6          -0.010445045    0.017258651   -0.026503496
     13        6           0.005327447    0.005360211   -0.004668466
     14        1          -0.001228434    0.001415981   -0.001626805
     15        1           0.085812343   -0.002715786    0.037891651
     16        8          -0.001000339   -0.021901261    0.035754704
     17        6           0.014685234   -0.005975431   -0.006014593
     18        1           0.005281613    0.009872493   -0.008929108
     19        1          -0.012260060   -0.004875127   -0.007188414
     20        1          -0.005358074    0.004516490    0.014439577
 -------------------------------------------------------------------
 Cartesian Forces:  Max     0.085812343 RMS     0.018133455
 FormGI is forming the generalized inverse of G from B-inverse, IUseBI=4.

 GradGradGradGradGradGradGradGradGradGradGradGradGradGradGradGradGradGrad
 Berny optimization.
 Internal  Forces:  Max     0.093778908 RMS     0.012445382
 Search for a local minimum.
 Step number   1 out of a maximum of   97
 All quantities printed in internal units (Hartrees-Bohrs-Radians)
 Mixed Optimization -- RFO/linear search
 Second derivative matrix not updated -- analytic derivatives used.
 ITU=  0
     Eigenvalues ---   -0.00937   0.00005   0.00820   0.00997   0.01212
     Eigenvalues ---    0.01485   0.01522   0.01732   0.02184   0.02268
     Eigenvalues ---    0.02368   0.02552   0.02739   0.03028   0.03931
     Eigenvalues ---    0.05827   0.08836   0.08938   0.10323   0.10883
     Eigenvalues ---    0.11126   0.11305   0.11647   0.12413   0.13253
     Eigenvalues ---    0.15729   0.17074   0.17500   0.18107   0.18786
     Eigenvalues ---    0.18897   0.19481   0.19591   0.22518   0.25249
     Eigenvalues ---    0.28346   0.29703   0.35136   0.35592   0.36503
     Eigenvalues ---    0.36572   0.38617   0.38702   0.38996   0.40060
     Eigenvalues ---    0.41184   0.42202   0.46112   0.47594   0.48588
     Eigenvalues ---    0.51582   0.55248   0.56265   0.67798
 RFO step:  Lambda=-7.58420663D-02 EMin=-9.36659149D-03
 Linear search not attempted -- first point.
 Maximum step size (   0.300) exceeded in Quadratic search.
    -- Step size scaled by   0.405
 Iteration  1 RMS(Cart)=  0.09975477 RMS(Int)=  0.01255193
 Iteration  2 RMS(Cart)=  0.01665614 RMS(Int)=  0.00010040
 Iteration  3 RMS(Cart)=  0.00019714 RMS(Int)=  0.00002503
 Iteration  4 RMS(Cart)=  0.00000004 RMS(Int)=  0.00002503
 Variable       Old X    -DE/DX   Delta X   Delta X   Delta X     New X
                                 (Linear)    (Quad)   (Total)
    R1        1.81656   0.00014   0.00000   0.00008   0.00008   1.81663
    R2        2.57906  -0.00235   0.00000  -0.00169  -0.00169   2.57737
    R3        2.94882   0.00243   0.00000   0.00397   0.00397   2.95278
    R4        2.65205  -0.00312   0.00000   0.00047   0.00047   2.65252
    R5        2.63843   0.00043   0.00000  -0.00390  -0.00391   2.63453
    R6        2.59048  -0.00172   0.00000  -0.00110  -0.00110   2.58937
    R7        1.81088   0.00032   0.00000   0.00016   0.00016   1.81104
    R8        2.05425   0.00009   0.00000  -0.00050  -0.00050   2.05375
    R9        2.61197   0.00339   0.00000   0.00037   0.00037   2.61234
   R10        2.04647  -0.00032   0.00000   0.00054   0.00054   2.04700
   R11        2.64282  -0.00536   0.00000   0.00110   0.00110   2.64392
   R12        2.63629  -0.00383   0.00000  -0.00046  -0.00046   2.63583
   R13        2.56056  -0.09378   0.00000  -0.28112  -0.28112   2.27944
   R14        2.63053  -0.00409   0.00000   0.00309   0.00309   2.63362
   R15        2.70231  -0.03290   0.00000  -0.05434  -0.05434   2.64797
   R16        2.04928   0.00027   0.00000  -0.00016  -0.00016   2.04912
   R17        2.70231  -0.00099   0.00000  -0.01451  -0.01451   2.68779
   R18        2.02201   0.01311   0.00000   0.01057   0.01057   2.03258
   R19        2.02201   0.01415   0.00000   0.01680   0.01680   2.03881
   R20        2.02201   0.01587   0.00000   0.01436   0.01436   2.03637
    A1        1.95333   0.00026   0.00000   0.00056   0.00056   1.95389
    A2        2.14975  -0.00199   0.00000  -0.00339  -0.00339   2.14635
    A3        2.08822  -0.00240   0.00000  -0.00339  -0.00339   2.08483
    A4        2.04522   0.00438   0.00000   0.00679   0.00678   2.05200
    A5        2.06823  -0.00065   0.00000   0.00037   0.00037   2.06860
    A6        2.04734   0.00163   0.00000   0.00189   0.00189   2.04923
    A7        2.16762  -0.00098   0.00000  -0.00226  -0.00226   2.16535
    A8        1.99643   0.00025   0.00000  -0.00075  -0.00075   1.99568
    A9        2.10457   0.00201   0.00000   0.00291   0.00290   2.10748
   A10        2.12690  -0.00516   0.00000  -0.00877  -0.00876   2.11813
   A11        2.05171   0.00315   0.00000   0.00587   0.00587   2.05757
   A12        2.12765  -0.00309   0.00000  -0.00847  -0.00848   2.11918
   A13        2.08951   0.00045   0.00000   0.00855   0.00855   2.09806
   A14        2.06602   0.00264   0.00000  -0.00007  -0.00007   2.06595
   A15        2.09186   0.00291   0.00000  -0.00652  -0.00653   2.08533
   A16        2.02056   0.00297   0.00000   0.01665   0.01664   2.03720
   A17        2.17076  -0.00588   0.00000  -0.01013  -0.01014   2.16062
   A18        2.08152  -0.00037   0.00000   0.00355   0.00354   2.08506
   A19        2.11436   0.01878   0.00000   0.02663   0.02663   2.14098
   A20        2.08731  -0.01841   0.00000  -0.03017  -0.03017   2.05713
   A21        2.13135  -0.00221   0.00000  -0.00358  -0.00359   2.12776
   A22        2.07270   0.00363   0.00000   0.00739   0.00739   2.08010
   A23        2.07913  -0.00142   0.00000  -0.00380  -0.00380   2.07533
   A24        1.91114   0.04201   0.00000   0.05774   0.05774   1.96887
   A25        1.91063  -0.01169   0.00000  -0.01856  -0.01856   1.89208
   A26        1.91063   0.00750   0.00000   0.00765   0.00762   1.91825
   A27        1.91063   0.00498   0.00000   0.00884   0.00882   1.91945
   A28        1.91063  -0.00140   0.00000  -0.00213  -0.00213   1.90850
   A29        1.91063   0.00110   0.00000   0.00293   0.00294   1.91357
   A30        1.91063  -0.00049   0.00000   0.00126   0.00121   1.91184
    D1        3.13185   0.00006   0.00000   0.00034   0.00034   3.13219
    D2       -0.00797   0.00005   0.00000  -0.00003  -0.00003  -0.00800
    D3        3.09902   0.00003   0.00000  -0.00012  -0.00012   3.09889
    D4       -0.04448   0.00003   0.00000   0.00028   0.00027  -0.04420
    D5       -0.04237  -0.00004   0.00000  -0.00130  -0.00129  -0.04366
    D6        3.09732  -0.00003   0.00000  -0.00090  -0.00089   3.09642
    D7       -0.00626  -0.00001   0.00000  -0.00008  -0.00007  -0.00633
    D8        3.13879   0.00018   0.00000  -0.00329  -0.00328   3.13551
    D9        3.13514   0.00005   0.00000   0.00107   0.00107   3.13621
   D10       -0.00300   0.00024   0.00000  -0.00213  -0.00214  -0.00513
   D11       -3.13807   0.00019   0.00000  -0.00080  -0.00080  -3.13887
   D12        0.00238   0.00015   0.00000   0.00036   0.00039   0.00277
   D13        0.00371   0.00013   0.00000  -0.00191  -0.00190   0.00182
   D14       -3.13902   0.00009   0.00000  -0.00076  -0.00072  -3.13974
   D15        3.11858   0.00003   0.00000  -0.00019  -0.00019   3.11838
   D16       -0.02113   0.00003   0.00000  -0.00059  -0.00059  -0.02172
   D17        3.14063  -0.00042   0.00000   0.00516   0.00517  -3.13738
   D18        0.00072  -0.00025   0.00000   0.00220   0.00220   0.00292
   D19        0.00240  -0.00023   0.00000   0.00205   0.00206   0.00445
   D20       -3.13751  -0.00006   0.00000  -0.00090  -0.00091  -3.13842
   D21        0.00098  -0.00013   0.00000   0.00174   0.00174   0.00272
   D22       -3.14108  -0.00062   0.00000   0.01016   0.01024  -3.13084
   D23       -3.13899   0.00004   0.00000  -0.00110  -0.00113  -3.14012
   D24        0.00213  -0.00046   0.00000   0.00732   0.00737   0.00951
   D25       -0.00029   0.00048   0.00000  -0.00563  -0.00564  -0.00593
   D26        3.14055  -0.00104   0.00000  -0.00121  -0.00115   3.13941
   D27       -3.14137   0.00102   0.00000  -0.01482  -0.01479   3.12702
   D28       -0.00053  -0.00050   0.00000  -0.01040  -0.01030  -0.01082
   D29       -0.00214  -0.00048   0.00000   0.00580   0.00581   0.00368
   D30        3.14060  -0.00045   0.00000   0.00463   0.00463  -3.13795
   D31        3.14019   0.00100   0.00000   0.00142   0.00151  -3.14148
   D32       -0.00026   0.00103   0.00000   0.00025   0.00033   0.00007
   D33        0.66280   0.00165   0.00000  -0.20769  -0.20768   0.45512
   D34       -2.47954   0.00013   0.00000  -0.20324  -0.20325  -2.68279
   D35        2.87042  -0.00045   0.00000  -0.00080  -0.00081   2.86961
   D36       -1.31837  -0.00473   0.00000  -0.01009  -0.01013  -1.32850
   D37        0.77603   0.00231   0.00000   0.00157   0.00162   0.77765
         Item               Value     Threshold  Converged?
 Maximum Force            0.093779     0.000015     NO 
 RMS     Force            0.012445     0.000010     NO 
 Maximum Displacement     0.461959     0.000060     NO 
 RMS     Displacement     0.109253     0.000040     NO 
 Predicted change in Energy=-2.985959D-02
 GradGradGradGradGradGradGradGradGradGradGradGradGradGradGradGradGradGrad

                          Input orientation:                          
 ---------------------------------------------------------------------
 Center     Atomic      Atomic             Coordinates (Angstroms)
 Number     Number       Type             X           Y           Z
 ---------------------------------------------------------------------
      1          8           0        8.675205    7.513015    5.471635
      2          1           0        9.484792    7.342050    5.961000
      3          6           0        6.259388    6.863518    5.190655
      4          5           0        7.653783    6.705649    5.877887
      5          8           0        7.921257    5.802187    6.872756
      6          1           0        7.168257    5.271854    7.137701
      7          6           0        5.158567    6.049464    5.500099
      8          1           0        5.242711    5.259447    6.241663
      9          6           0        3.937330    6.223220    4.876080
     10          1           0        3.086114    5.598071    5.116915
     11          6           0        3.775860    7.223228    3.910987
     12          6           0        4.857193    8.040434    3.581711
     13          6           0        6.079348    7.852367    4.224547
     14          1           0        6.912990    8.495002    3.964035
     15          1           0        2.681184    7.326741    3.415052
     16          8           0        4.770925    9.059720    2.624055
     17          6           0        3.449376    9.563142    2.472177
     18          1           0        3.501084   10.499688    1.945763
     19          1           0        2.853745    8.865963    1.903697
     20          1           0        3.000123    9.715806    3.439692
 ---------------------------------------------------------------------
                    Distance matrix (angstroms):
                    1          2          3          4          5
     1  O    0.000000
     2  H    0.961321   0.000000
     3  C    2.517334   3.350471   0.000000
     4  B    1.363885   1.940234   1.562546   0.000000
     5  O    2.336346   2.376367   2.591852   1.370238   0.000000
     6  H    3.173243   3.322149   2.674028   1.969425   0.958362
     7  C    3.809139   4.538660   1.403655   2.607568   3.094800
     8  H    4.177742   4.734053   2.170552   2.834979   2.804898
     9  C    4.946283   5.762219   2.429174   3.879224   4.476121
    10  H    5.918681   6.685583   3.417084   4.761241   5.148131
    11  C    5.150067   6.067008   2.816887   4.378913   5.289211
    12  C    4.292691   5.250088   2.437207   3.856811   5.022869
    13  C    2.899804   3.856519   1.394131   2.554866   3.822156
    14  H    2.518443   3.454176   2.143253   2.722754   4.090051
    15  H    6.339757   7.264377   4.021304   5.583732   6.460522
    16  O    5.073895   6.025457   3.691376   4.943677   6.211890
    17  C    6.364672   7.316514   4.751238   6.118919   7.314889
    18  H    6.937111   7.867501   5.599937   6.863034   8.116631
    19  H    6.960607   7.921793   5.139288   6.595568   7.730327
    20  H    6.417760   7.351371   4.671641   6.054948   7.163792
                    6          7          8          9         10
     6  H    0.000000
     7  C    2.706524   0.000000
     8  H    2.123856   1.086795   0.000000
     9  C    4.056959   1.382393   2.120778   0.000000
    10  H    4.566605   2.155376   2.455735   1.083228   0.000000
    11  C    5.072269   2.411407   3.382329   1.399105   2.138025
    12  C    5.064693   2.781187   3.867539   2.413256   3.385072
    13  C    4.041192   2.392767   3.389979   2.768908   3.851964
    14  H    4.530563   3.379075   4.294909   3.853228   4.936226
    15  H    6.181788   3.480846   4.338762   2.220420   2.459392
    16  O    6.361457   4.181332   5.267993   3.716480   4.586498
    17  C    7.349309   4.943236   5.995571   4.143902   4.779999
    18  H    8.230105   5.931699   6.996296   5.202426   5.852714
    19  H    7.676421   5.116540   6.126343   4.122294   4.588888
    20  H    7.127224   4.727180   5.721834   3.890980   4.447046
                   11         12         13         14         15
    11  C    0.000000
    12  C    1.394822   0.000000
    13  C    2.408359   1.393653   0.000000
    14  H    3.385529   2.139884   1.084345   0.000000
    15  H    1.206226   2.296116   3.532575   4.424296   0.000000
    16  O    2.453375   1.401247   2.394002   2.588995   2.827705
    17  C    2.766218   2.351947   3.593648   3.919590   2.545707
    18  H    3.830508   3.250121   4.341499   4.442217   3.591468
    19  H    2.752832   2.740627   4.101005   4.567283   2.164065
    20  H    2.652703   2.505145   3.683753   4.132291   2.410386
                   16         17         18         19         20
    16  O    0.000000
    17  C    1.422319   0.000000
    18  H    2.036193   1.075594   0.000000
    19  H    2.057192   1.078891   1.757804   0.000000
    20  H    2.057050   1.077599   1.759902   1.761517   0.000000
 Symmetry turned off by external request.
 Stoichiometry    C7H9BO3
 Framework group  C1[X(C7H9BO3)]
 Deg. of freedom    54
 Full point group                 C1      NOp   1
 Rotational constants (GHZ):           2.3354648           0.6319144           0.5022778
 Standard basis: 6-311+G(d,p) (5D, 7F)
   296 basis functions,   468 primitive gaussians,   307 cartesian basis functions
    40 alpha electrons       40 beta electrons
       nuclear repulsion energy       565.8842120713 Hartrees.
 NAtoms=   20 NActive=   20 NUniq=   20 SFac= 1.00D+00 NAtFMM=   60 NAOKFM=F Big=F
 Integral buffers will be    131072 words long.
 Raffenetti 2 integral format.
 Two-electron integral symmetry is turned off.
 One-electron integrals computed using PRISM.
 NBasis=   296 RedAO= T EigKep=  2.36D-06  NBF=   296
 NBsUse=   296 1.00D-06 EigRej= -1.00D+00 NBFU=   296
 Initial guess from the checkpoint file:  "3-OMe-phboh2-opt-freq.chk"
 B after Tr=    -0.115189    0.137707   -0.022686
         Rot=    0.999980   -0.004844   -0.003556    0.001819 Ang=  -0.72 deg.
 ExpMin= 3.15D-02 ExpMax= 8.59D+03 ExpMxC= 1.30D+03 IAcc=3 IRadAn=         5 AccDes= 0.00D+00
 Harris functional with IExCor= 1009 and IRadAn=       5 diagonalized for initial guess.
 HarFok:  IExCor= 1009 AccDes= 0.00D+00 IRadAn=         5 IDoV= 1 UseB2=F ITyADJ=14
 ICtDFT=  3500011 ScaDFX=  1.000000  1.000000  1.000000  1.000000
 FoFCou: FMM=F IPFlag=           0 FMFlag=      100000 FMFlg1=           0
         NFxFlg=           0 DoJE=T BraDBF=F KetDBF=T FulRan=T
         wScrn=  0.000000 ICntrl=       500 IOpCl=  0 I1Cent=   200000004 NGrid=           0
         NMat0=    1 NMatS0=      1 NMatT0=    0 NMatD0=    1 NMtDS0=    0 NMtDT0=    0
 Symmetry not used in FoFCou.
 Requested convergence on RMS density matrix=1.00D-08 within 128 cycles.
 Requested convergence on MAX density matrix=1.00D-06.
 Requested convergence on             energy=1.00D-06.
 Level shift goal  0.100 maximum shift  0.100.
 No special actions if energy rises.
 Dynamic level shift is on during FON iterations.
 SCF Done:  E(RM062X) =  -522.724464431     A.U. after   14 cycles
            NFock= 14  Conv=0.55D-08     -V/T= 2.0039
 Calling FoFJK, ICntrl=      2127 FMM=F ISym2X=0 I1Cent= 0 IOpClX= 0 NMat=1 NMatS=1 NMatT=0.
 -------------------------------------------------------------------
 Center     Atomic                   Forces (Hartrees/Bohr)
 Number     Number              X              Y              Z
 -------------------------------------------------------------------
      1        8          -0.001611960   -0.000700623    0.000179365
      2        1           0.000148626    0.000017287   -0.000059758
      3        6          -0.008304374   -0.000863196   -0.003442556
      4        5           0.004027084    0.000194260    0.001456113
      5        8          -0.000838127    0.000691642   -0.000907763
      6        1          -0.000109613   -0.000174614    0.000088841
      7        6           0.003761817   -0.003586820    0.004684590
      8        1           0.000368771    0.000158344    0.000154129
      9        6          -0.002141572    0.006241190   -0.006524419
     10        1           0.001281769   -0.001020247    0.001246941
     11        6          -0.052261625   -0.001068555   -0.017434707
     12        6          -0.005907750    0.013558903   -0.015896453
     13        6           0.004716015    0.002993170   -0.003252149
     14        1          -0.000979938    0.001077364   -0.001076936
     15        1           0.057838274   -0.002772263    0.022936065
     16        8          -0.001698308   -0.015361509    0.022918615
     17        6           0.010333184   -0.005009472   -0.002938774
     18        1           0.004164598    0.006924389   -0.004980590
     19        1          -0.007217939   -0.004068248   -0.005947869
     20        1          -0.005568931    0.002769000    0.008797316
 -------------------------------------------------------------------
 Cartesian Forces:  Max     0.057838274 RMS     0.012173302

 GradGradGradGradGradGradGradGradGradGradGradGradGradGradGradGradGradGrad
 Berny optimization.
 Using GEDIIS/GDIIS optimizer.
 FormGI is forming the generalized inverse of G from B-inverse, IUseBI=4.
 Internal  Forces:  Max     0.062157648 RMS     0.008118902
 Search for a local minimum.
 Step number   2 out of a maximum of   97
 All quantities printed in internal units (Hartrees-Bohrs-Radians)
 Mixed Optimization -- RFO/linear search
 Update second derivatives using D2CorX and points    1    2
 DE= -2.82D-02 DEPred=-2.99D-02 R= 9.46D-01
 TightC=F SS=  1.41D+00  RLast= 4.18D-01 DXNew= 5.0454D-01 1.2526D+00
 Trust test= 9.46D-01 RLast= 4.18D-01 DXMaxT set to 5.05D-01
 ITU=  1  0
 Use linear search instead of GDIIS.
     Eigenvalues ---   -0.01231   0.00005   0.00819   0.00997   0.01212
     Eigenvalues ---    0.01485   0.01522   0.01732   0.02183   0.02268
     Eigenvalues ---    0.02368   0.02552   0.02739   0.03026   0.03931
     Eigenvalues ---    0.08829   0.08931   0.09663   0.10324   0.10891
     Eigenvalues ---    0.11124   0.11285   0.11645   0.12408   0.13251
     Eigenvalues ---    0.15722   0.16946   0.17317   0.18113   0.18758
     Eigenvalues ---    0.18890   0.19474   0.19535   0.22552   0.24231
     Eigenvalues ---    0.28101   0.29684   0.34924   0.35540   0.36500
     Eigenvalues ---    0.36570   0.38582   0.38702   0.38995   0.39886
     Eigenvalues ---    0.40809   0.42156   0.46072   0.47578   0.48587
     Eigenvalues ---    0.51534   0.55248   0.56265   0.67792
 RFO step:  Lambda=-2.56732829D-02 EMin=-1.23060473D-02
 Quartic linear search produced a step of  0.91826.
 Iteration  1 RMS(Cart)=  0.10579058 RMS(Int)=  0.05451369
 Iteration  2 RMS(Cart)=  0.10527708 RMS(Int)=  0.01873373
 Iteration  3 RMS(Cart)=  0.05732793 RMS(Int)=  0.00196496
 Iteration  4 RMS(Cart)=  0.00262368 RMS(Int)=  0.00027013
 Iteration  5 RMS(Cart)=  0.00000524 RMS(Int)=  0.00027012
 Iteration  6 RMS(Cart)=  0.00000000 RMS(Int)=  0.00027012
 Variable       Old X    -DE/DX   Delta X   Delta X   Delta X     New X
                                 (Linear)    (Quad)   (Total)
    R1        1.81663   0.00009   0.00007   0.00013   0.00020   1.81683
    R2        2.57737  -0.00153  -0.00155  -0.00279  -0.00435   2.57302
    R3        2.95278   0.00177   0.00364   0.00738   0.01102   2.96381
    R4        2.65252  -0.00171   0.00044  -0.01001  -0.00962   2.64290
    R5        2.63453   0.00017  -0.00359   0.01297   0.00937   2.64390
    R6        2.58937  -0.00112  -0.00101  -0.00260  -0.00361   2.58576
    R7        1.81104   0.00020   0.00015   0.00009   0.00023   1.81127
    R8        2.05375   0.00002  -0.00046  -0.00031  -0.00077   2.05297
    R9        2.61234   0.00238   0.00034   0.01711   0.01741   2.62975
   R10        2.04700  -0.00014   0.00049   0.00034   0.00083   2.04784
   R11        2.64392  -0.00347   0.00101  -0.02004  -0.01902   2.62490
   R12        2.63583  -0.00282  -0.00042  -0.00492  -0.00530   2.63053
   R13        2.27944  -0.06216  -0.25814  -0.15947  -0.41761   1.86183
   R14        2.63362  -0.00237   0.00284  -0.01389  -0.01102   2.62260
   R15        2.64797  -0.02293  -0.04989  -0.04343  -0.09332   2.55465
   R16        2.04912   0.00014  -0.00015  -0.00076  -0.00091   2.04820
   R17        2.68779  -0.00083  -0.01333   0.01668   0.00336   2.69115
   R18        2.03258   0.00867   0.00971   0.01797   0.02768   2.06026
   R19        2.03881   0.00975   0.01543   0.01438   0.02981   2.06862
   R20        2.03637   0.01061   0.01319   0.02256   0.03574   2.07211
    A1        1.95389   0.00021   0.00051   0.00256   0.00308   1.95697
    A2        2.14635  -0.00141  -0.00312  -0.00578  -0.00888   2.13748
    A3        2.08483  -0.00171  -0.00311  -0.00694  -0.01003   2.07479
    A4        2.05200   0.00312   0.00623   0.01272   0.01891   2.07092
    A5        2.06860  -0.00042   0.00034  -0.00403  -0.00369   2.06491
    A6        2.04923   0.00112   0.00174   0.00386   0.00560   2.05483
    A7        2.16535  -0.00069  -0.00208   0.00017  -0.00191   2.16344
    A8        1.99568   0.00015  -0.00069   0.00238   0.00169   1.99737
    A9        2.10748   0.00131   0.00267  -0.00069   0.00199   2.10947
   A10        2.11813  -0.00347  -0.00805  -0.00185  -0.00999   2.10815
   A11        2.05757   0.00216   0.00539   0.00254   0.00794   2.06551
   A12        2.11918  -0.00234  -0.00778  -0.01042  -0.01824   2.10094
   A13        2.09806   0.00049   0.00785  -0.01078  -0.00296   2.09510
   A14        2.06595   0.00186  -0.00007   0.02122   0.02113   2.08708
   A15        2.08533   0.00135  -0.00600   0.00796   0.00186   2.08719
   A16        2.03720   0.00375   0.01528   0.05896   0.07399   2.11119
   A17        2.16062  -0.00510  -0.00931  -0.06661  -0.07611   2.08451
   A18        2.08506   0.00066   0.00325   0.01459   0.01776   2.10282
   A19        2.14098   0.00964   0.02445  -0.06007  -0.03586   2.10512
   A20        2.05713  -0.01030  -0.02771   0.04562   0.01765   2.07478
   A21        2.12776  -0.00215  -0.00330  -0.02246  -0.02571   2.10205
   A22        2.08010   0.00292   0.00679   0.01493   0.02169   2.10178
   A23        2.07533  -0.00076  -0.00349   0.00754   0.00402   2.07935
   A24        1.96887   0.02459   0.05302  -0.03259   0.02043   1.98930
   A25        1.89208  -0.00780  -0.01704  -0.01436  -0.03135   1.86073
   A26        1.91825   0.00500   0.00700   0.03350   0.04042   1.95867
   A27        1.91945   0.00340   0.00810  -0.00296   0.00492   1.92438
   A28        1.90850  -0.00062  -0.00196  -0.00165  -0.00343   1.90507
   A29        1.91357   0.00053   0.00270  -0.00471  -0.00209   1.91148
   A30        1.91184  -0.00058   0.00111  -0.00984  -0.00905   1.90279
    D1        3.13219   0.00006   0.00031   0.00110   0.00140   3.13359
    D2       -0.00800   0.00006  -0.00003   0.00249   0.00247  -0.00553
    D3        3.09889   0.00003  -0.00011   0.00174   0.00159   3.10049
    D4       -0.04420   0.00003   0.00025   0.00024   0.00046  -0.04374
    D5       -0.04366  -0.00004  -0.00118   0.00270   0.00155  -0.04211
    D6        3.09642  -0.00004  -0.00082   0.00121   0.00042   3.09685
    D7       -0.00633  -0.00003  -0.00007  -0.00079  -0.00090  -0.00723
    D8        3.13551   0.00011  -0.00301   0.01336   0.01044  -3.13723
    D9        3.13621   0.00004   0.00098  -0.00173  -0.00084   3.13536
   D10       -0.00513   0.00018  -0.00196   0.01242   0.01050   0.00536
   D11       -3.13887   0.00014  -0.00073   0.00471   0.00407  -3.13479
   D12        0.00277   0.00011   0.00035   0.00056   0.00093   0.00369
   D13        0.00182   0.00007  -0.00174   0.00562   0.00402   0.00583
   D14       -3.13974   0.00004  -0.00066   0.00146   0.00087  -3.13887
   D15        3.11838   0.00003  -0.00018   0.00164   0.00145   3.11984
   D16       -0.02172   0.00002  -0.00054   0.00312   0.00258  -0.01914
   D17       -3.13738  -0.00031   0.00475  -0.02619  -0.02162   3.12418
   D18        0.00292  -0.00015   0.00202  -0.00944  -0.00769  -0.00477
   D19        0.00445  -0.00018   0.00189  -0.01243  -0.01056  -0.00611
   D20       -3.13842  -0.00001  -0.00083   0.00432   0.00337  -3.13505
   D21        0.00272  -0.00014   0.00160  -0.01168  -0.00973  -0.00702
   D22       -3.13084  -0.00048   0.00941  -0.05217  -0.04376   3.10859
   D23       -3.14012   0.00002  -0.00104   0.00454   0.00406  -3.13606
   D24        0.00951  -0.00032   0.00677  -0.03596  -0.02996  -0.02046
   D25       -0.00593   0.00036  -0.00518   0.02903   0.02417   0.01824
   D26        3.13941  -0.00078  -0.00105  -0.01270  -0.01279   3.12662
   D27        3.12702   0.00078  -0.01358   0.07320   0.05840  -3.09776
   D28       -0.01082  -0.00037  -0.00945   0.03147   0.02143   0.01061
   D29        0.00368  -0.00034   0.00534  -0.02640  -0.02140  -0.01772
   D30       -3.13795  -0.00031   0.00425  -0.02225  -0.01829   3.12694
   D31       -3.14148   0.00079   0.00139   0.01312   0.01482  -3.12667
   D32        0.00007   0.00082   0.00030   0.01726   0.01792   0.01799
   D33        0.45512  -0.00067  -0.19071   0.70819   0.51719   0.97231
   D34       -2.68279  -0.00182  -0.18663   0.66715   0.48081  -2.20198
   D35        2.86961   0.00027  -0.00075   0.04482   0.04429   2.91390
   D36       -1.32850  -0.00227  -0.00930   0.05380   0.04410  -1.28440
   D37        0.77765   0.00237   0.00149   0.06108   0.06275   0.84040
         Item               Value     Threshold  Converged?
 Maximum Force            0.062158     0.000015     NO 
 RMS     Force            0.008119     0.000010     NO 
 Maximum Displacement     1.023796     0.000060     NO 
 RMS     Displacement     0.251862     0.000040     NO 
 Predicted change in Energy=-2.377172D-02
 GradGradGradGradGradGradGradGradGradGradGradGradGradGradGradGradGradGrad

                          Input orientation:                          
 ---------------------------------------------------------------------
 Center     Atomic      Atomic             Coordinates (Angstroms)
 Number     Number       Type             X           Y           Z
 ---------------------------------------------------------------------
      1          8           0        8.576442    7.616942    5.454180
      2          1           0        9.382091    7.509374    5.967696
      3          6           0        6.197319    6.852227    5.147198
      4          5           0        7.582888    6.788666    5.879297
      5          8           0        7.856590    5.950778    6.925886
      6          1           0        7.119094    5.402536    7.198328
      7          6           0        5.132873    6.008347    5.480063
      8          1           0        5.235732    5.264727    6.265357
      9          6           0        3.919562    6.091461    4.803651
     10          1           0        3.104530    5.423412    5.056179
     11          6           0        3.752079    7.024203    3.788088
     12          6           0        4.801183    7.877949    3.459132
     13          6           0        6.016538    7.788217    4.123141
     14          1           0        6.823051    8.454663    3.840046
     15          1           0        2.908506    7.076298    3.281765
     16          8           0        4.666752    8.781769    2.462853
     17          6           0        3.556840    9.659450    2.623536
     18          1           0        3.692668   10.468425    1.905385
     19          1           0        2.602604    9.160609    2.426354
     20          1           0        3.541892   10.070512    3.639974
 ---------------------------------------------------------------------
                    Distance matrix (angstroms):
                    1          2          3          4          5
     1  O    0.000000
     2  H    0.961427   0.000000
     3  C    2.517787   3.353778   0.000000
     4  B    1.361586   1.940197   1.568378   0.000000
     5  O    2.336709   2.382121   2.594132   1.368327   0.000000
     6  H    3.173249   3.327818   2.675520   1.968833   0.958485
     7  C    3.800844   4.532849   1.398563   2.602087   3.084210
     8  H    4.165485   4.724334   2.166814   2.824991   2.788523
     9  C    4.943360   5.762352   2.425895   3.881117   4.474804
    10  H    5.908621   6.677565   3.408100   4.753644   5.133809
    11  C    5.138256   6.056659   2.802848   4.370782   5.276839
    12  C    4.277957   5.235786   2.418857   3.844687   5.006784
    13  C    2.890347   3.847998   1.399090   2.556685   3.823265
    14  H    2.526179   3.459646   2.160553   2.740701   4.106099
    15  H    6.094028   7.022043   3.787657   5.355348   6.247396
    16  O    5.058709   6.011434   3.643004   4.914103   6.173188
    17  C    6.113983   7.052644   4.606680   5.920342   7.124066
    18  H    6.676537   7.591304   5.464386   6.668314   7.934281
    19  H    6.872945   7.824904   5.064938   6.507854   7.625823
    20  H    5.887108   6.788641   4.436257   5.666986   6.810730
                    6          7          8          9         10
     6  H    0.000000
     7  C    2.695277   0.000000
     8  H    2.106295   1.086387   0.000000
     9  C    4.055380   1.391606   2.133631   0.000000
    10  H    4.550381   2.153138   2.455467   1.083669   0.000000
    11  C    5.059282   2.408596   3.381397   1.389037   2.142406
    12  C    5.047967   2.773011   3.859101   2.403440   3.384368
    13  C    4.045230   2.406250   3.400992   2.781975   3.865573
    14  H    4.547657   3.395706   4.310152   3.865684   4.949229
    15  H    5.989157   3.304670   4.195187   2.075638   2.432900
    16  O    6.313314   4.124645   5.210793   3.643540   4.521554
    17  C    7.193031   4.896343   5.949381   4.197024   4.905747
    18  H    8.088194   5.894473   6.961959   5.254449   5.977087
    19  H    7.569249   5.065980   6.070355   4.099462   4.597233
    20  H    6.873737   4.734800   5.732128   4.162886   4.877751
                   11         12         13         14         15
    11  C    0.000000
    12  C    1.392018   0.000000
    13  C    2.413245   1.387821   0.000000
    14  H    3.388184   2.136737   1.083862   0.000000
    15  H    0.985237   2.063088   3.297667   4.187510   0.000000
    16  O    2.383677   1.351864   2.359158   2.579397   2.582766
    17  C    2.887703   2.328166   3.435177   3.687756   2.743406
    18  H    3.925655   3.217686   4.183578   4.194932   3.743776
    19  H    2.782058   2.746925   4.051850   4.506558   2.273688
    20  H    3.057142   2.534926   3.400910   3.662923   3.081365
                   16         17         18         19         20
    16  O    0.000000
    17  C    1.424095   0.000000
    18  H    2.025936   1.090243   0.000000
    19  H    2.098942   1.094664   1.780458   0.000000
    20  H    2.076483   1.096514   1.786020   1.784113   0.000000
 Symmetry turned off by external request.
 Stoichiometry    C7H9BO3
 Framework group  C1[X(C7H9BO3)]
 Deg. of freedom    54
 Full point group                 C1      NOp   1
 Rotational constants (GHZ):           2.2216848           0.6527719           0.5173625
 Standard basis: 6-311+G(d,p) (5D, 7F)
   296 basis functions,   468 primitive gaussians,   307 cartesian basis functions
    40 alpha electrons       40 beta electrons
       nuclear repulsion energy       569.2944575318 Hartrees.
 NAtoms=   20 NActive=   20 NUniq=   20 SFac= 1.00D+00 NAtFMM=   60 NAOKFM=F Big=F
 Integral buffers will be    131072 words long.
 Raffenetti 2 integral format.
 Two-electron integral symmetry is turned off.
 One-electron integrals computed using PRISM.
 NBasis=   296 RedAO= T EigKep=  2.45D-06  NBF=   296
 NBsUse=   296 1.00D-06 EigRej= -1.00D+00 NBFU=   296
 Initial guess from the checkpoint file:  "3-OMe-phboh2-opt-freq.chk"
 B after Tr=     0.330826   -0.398592    0.014184
         Rot=    0.999902    0.007128    0.006067   -0.010377 Ang=   1.60 deg.
 ExpMin= 3.15D-02 ExpMax= 8.59D+03 ExpMxC= 1.30D+03 IAcc=3 IRadAn=         5 AccDes= 0.00D+00
 Harris functional with IExCor= 1009 and IRadAn=       5 diagonalized for initial guess.
 HarFok:  IExCor= 1009 AccDes= 0.00D+00 IRadAn=         5 IDoV= 1 UseB2=F ITyADJ=14
 ICtDFT=  3500011 ScaDFX=  1.000000  1.000000  1.000000  1.000000
 FoFCou: FMM=F IPFlag=           0 FMFlag=      100000 FMFlg1=           0
         NFxFlg=           0 DoJE=T BraDBF=F KetDBF=T FulRan=T
         wScrn=  0.000000 ICntrl=       500 IOpCl=  0 I1Cent=   200000004 NGrid=           0
         NMat0=    1 NMatS0=      1 NMatT0=    0 NMatD0=    1 NMtDS0=    0 NMtDT0=    0
 Symmetry not used in FoFCou.
 Requested convergence on RMS density matrix=1.00D-08 within 128 cycles.
 Requested convergence on MAX density matrix=1.00D-06.
 Requested convergence on             energy=1.00D-06.
 Level shift goal  0.100 maximum shift  0.100.
 No special actions if energy rises.
 Dynamic level shift is on during FON iterations.
 SCF Done:  E(RM062X) =  -522.724932452     A.U. after   15 cycles
            NFock= 15  Conv=0.65D-08     -V/T= 2.0032
 Calling FoFJK, ICntrl=      2127 FMM=F ISym2X=0 I1Cent= 0 IOpClX= 0 NMat=1 NMatS=1 NMatT=0.
 -------------------------------------------------------------------
 Center     Atomic                   Forces (Hartrees/Bohr)
 Number     Number              X              Y              Z
 -------------------------------------------------------------------
      1        8           0.000384581    0.000241114    0.000001315
      2        1           0.000025034   -0.000022285   -0.000077383
      3        6           0.001022493   -0.000028985   -0.000407670
      4        5          -0.000529539   -0.000119569   -0.000138831
      5        8           0.000092438   -0.000150639    0.000356083
      6        1           0.000052851    0.000030340   -0.000074601
      7        6          -0.001052667   -0.000345714   -0.000354545
      8        1          -0.000025836    0.000161397    0.000052383
      9        6           0.001871919   -0.000023510    0.000820566
     10        1           0.000079301   -0.000198284    0.000208809
     11        6           0.073971200   -0.006655052    0.046150952
     12        6           0.002017751   -0.009467405    0.006722672
     13        6           0.000867983   -0.000930185    0.001722744
     14        1          -0.000070681    0.000082837   -0.000010665
     15        1          -0.077772839    0.004261365   -0.044887105
     16        8          -0.003303646    0.013354843   -0.006768169
     17        6           0.001108927    0.002052239   -0.001497735
     18        1          -0.000399411   -0.001319836    0.000374399
     19        1           0.001318219   -0.000409290   -0.000499353
     20        1           0.000341922   -0.000513380   -0.001693868
 -------------------------------------------------------------------
 Cartesian Forces:  Max     0.077772839 RMS     0.016395539

 GradGradGradGradGradGradGradGradGradGradGradGradGradGradGradGradGradGrad
 Berny optimization.
 Using GEDIIS/GDIIS optimizer.
 FormGI is forming the generalized inverse of G from B-inverse, IUseBI=4.
 Internal  Forces:  Max     0.089883069 RMS     0.009893551
 Search for a local minimum.
 Step number   3 out of a maximum of   97
 All quantities printed in internal units (Hartrees-Bohrs-Radians)
 Mixed Optimization -- RFO/linear search
 Update second derivatives using D2CorX and points    2    3
 DE= -4.68D-04 DEPred=-2.38D-02 R= 1.97D-02
 Trust test= 1.97D-02 RLast= 8.50D-01 DXMaxT set to 2.52D-01
 ITU= -1  1  0
 Use linear search instead of GDIIS.
     Eigenvalues ---   -0.03154   0.00005   0.00825   0.00997   0.01213
     Eigenvalues ---    0.01485   0.01522   0.01731   0.02183   0.02268
     Eigenvalues ---    0.02365   0.02550   0.02738   0.03026   0.03931
     Eigenvalues ---    0.08835   0.08918   0.10317   0.10477   0.11103
     Eigenvalues ---    0.11197   0.11641   0.12391   0.13153   0.15320
     Eigenvalues ---    0.15815   0.17174   0.18037   0.18523   0.18874
     Eigenvalues ---    0.19381   0.19473   0.22066   0.22389   0.27734
     Eigenvalues ---    0.29653   0.31437   0.34546   0.35521   0.36498
     Eigenvalues ---    0.36570   0.38532   0.38703   0.38989   0.39635
     Eigenvalues ---    0.40654   0.42120   0.46020   0.47560   0.48586
     Eigenvalues ---    0.51476   0.55248   0.56265   0.66969
 RFO step:  Lambda=-3.21825611D-02 EMin=-3.15432507D-02
 I=     1 Eig=   -3.15D-02 Dot1= -2.60D-03
 I=     1 Stepn= -6.00D-01 RXN=   6.00D-01 EDone=F
 Mixed    1 eigenvectors in step.  Raw Step.Grad=  2.60D-03.
 RFO eigenvector is Hessian eigenvector with negative curvature.
 Taking step of  6.00D-01 in eigenvector direction(s).  Step.Grad=  2.36D-04.
 Quartic linear search produced a step of -0.45012.
 Iteration  1 RMS(Cart)=  0.10482116 RMS(Int)=  0.00965501
 Iteration  2 RMS(Cart)=  0.01333651 RMS(Int)=  0.00016179
 Iteration  3 RMS(Cart)=  0.00012451 RMS(Int)=  0.00013821
 Iteration  4 RMS(Cart)=  0.00000002 RMS(Int)=  0.00013821
 Variable       Old X    -DE/DX   Delta X   Delta X   Delta X     New X
                                 (Linear)    (Quad)   (Total)
    R1        1.81683  -0.00002  -0.00009  -0.00008  -0.00017   1.81666
    R2        2.57302   0.00046   0.00196   0.00174   0.00369   2.57672
    R3        2.96381   0.00006  -0.00496  -0.00426  -0.00923   2.95458
    R4        2.64290  -0.00015   0.00433  -0.00298   0.00139   2.64429
    R5        2.64390  -0.00044  -0.00422   0.00800   0.00379   2.64769
    R6        2.58576   0.00032   0.00163   0.00106   0.00268   2.58844
    R7        1.81127  -0.00008  -0.00010  -0.00016  -0.00026   1.81101
    R8        2.05297  -0.00008   0.00035   0.00072   0.00107   2.05404
    R9        2.62975  -0.00088  -0.00784   0.00197  -0.00584   2.62391
   R10        2.04784   0.00011  -0.00037  -0.00003  -0.00040   2.04743
   R11        2.62490   0.00126   0.00856  -0.00084   0.00771   2.63261
   R12        2.63053   0.00455   0.00239   0.00175   0.00411   2.63464
   R13        1.86183   0.08988   0.18798   0.05006   0.23804   2.09987
   R14        2.62260   0.00214   0.00496  -0.00850  -0.00356   2.61904
   R15        2.55465   0.01632   0.04201   0.05516   0.09716   2.65182
   R16        2.04820   0.00000   0.00041  -0.00010   0.00031   2.04851
   R17        2.69115  -0.00233  -0.00151   0.02192   0.02041   2.71156
   R18        2.06026  -0.00128  -0.01246  -0.01068  -0.02314   2.03712
   R19        2.06862  -0.00087  -0.01342  -0.01890  -0.03232   2.03630
   R20        2.07211  -0.00177  -0.01609  -0.01464  -0.03073   2.04138
    A1        1.95697   0.00007  -0.00139  -0.00058  -0.00196   1.95501
    A2        2.13748   0.00004   0.00400   0.00332   0.00729   2.14477
    A3        2.07479   0.00015   0.00452   0.00400   0.00850   2.08329
    A4        2.07092  -0.00019  -0.00851  -0.00732  -0.01579   2.05512
    A5        2.06491   0.00007   0.00166  -0.00077   0.00089   2.06580
    A6        2.05483  -0.00014  -0.00252  -0.00200  -0.00452   2.05030
    A7        2.16344   0.00007   0.00086   0.00277   0.00363   2.16708
    A8        1.99737  -0.00006  -0.00076   0.00101   0.00025   1.99762
    A9        2.10947  -0.00022  -0.00089  -0.00433  -0.00524   2.10423
   A10        2.10815   0.00038   0.00449   0.01041   0.01496   2.12311
   A11        2.06551  -0.00015  -0.00357  -0.00614  -0.00974   2.05578
   A12        2.10094  -0.00094   0.00821   0.00771   0.01594   2.11688
   A13        2.09510   0.00131   0.00133  -0.00768  -0.00633   2.08876
   A14        2.08708  -0.00037  -0.00951  -0.00011  -0.00961   2.07747
   A15        2.08719  -0.00117  -0.00084   0.00015  -0.00067   2.08652
   A16        2.11119  -0.00071  -0.03331  -0.00029  -0.03348   2.07771
   A17        2.08451   0.00189   0.03426  -0.00030   0.03405   2.11856
   A18        2.10282  -0.00176  -0.00799   0.00491  -0.00306   2.09976
   A19        2.10512   0.00459   0.01614  -0.05064  -0.03439   2.07073
   A20        2.07478  -0.00283  -0.00794   0.04536   0.03754   2.11232
   A21        2.10205   0.00144   0.01157  -0.00070   0.01085   2.11290
   A22        2.10178  -0.00063  -0.00976  -0.00793  -0.01768   2.08410
   A23        2.07935  -0.00081  -0.00181   0.00863   0.00683   2.08618
   A24        1.98930   0.00882  -0.00920  -0.08161  -0.09081   1.89850
   A25        1.86073   0.00000   0.01411   0.02260   0.03674   1.89747
   A26        1.95867  -0.00174  -0.01819  -0.00125  -0.01951   1.93916
   A27        1.92438   0.00037  -0.00222  -0.01371  -0.01595   1.90843
   A28        1.90507  -0.00001   0.00154  -0.00156  -0.00004   1.90504
   A29        1.91148   0.00042   0.00094  -0.00367  -0.00264   1.90884
   A30        1.90279   0.00097   0.00407  -0.00204   0.00191   1.90470
    D1        3.13359   0.00006  -0.00063  -0.00032  -0.00096   3.13264
    D2       -0.00553   0.00006  -0.00111   0.00044  -0.00067  -0.00620
    D3        3.10049   0.00003  -0.00072   0.00038  -0.00033   3.10016
[...]
 77,0.00133888,-0.00015181,0.00048863,-0.00043760,-0.00258345,0.0003820
 7,-0.00066267,-0.06013757,0.01656177,-0.02155545,0.06181480,-0.0003390
 0,0.00055046,-0.00038445,-0.00016597,-0.00004527,0.00011714,0.00339910
 ,-0.01120345,0.00968860,0.00185381,-0.00318752,0.00078882,0.00096365,0
 .00152603,-0.00139816,-0.00125782,0.00103989,0.00021296,0.02029403,-0.
 21001407,0.14531818,-0.02005552,0.21958252,0.00014571,-0.00030279,0.00
 036457,0.00005032,0.00012871,0.00010879,-0.00053983,0.00291714,-0.0025
 9294,-0.00060187,0.00027282,-0.00279770,-0.00045768,-0.00158240,0.0003
 0602,0.00048669,0.00030162,0.00130108,-0.02411554,0.14516651,-0.155727
 07,0.02748160,-0.16090883,0.15882646,-0.00212411,0.00009865,-0.0007899
 4,-0.00016426,-0.00012294,0.00018854,-0.05424549,-0.04473271,0.0134046
 8,-0.00006919,-0.00637744,0.00301902,0.00109268,0.00105942,-0.00025480
 ,-0.00052935,0.00032519,-0.00028926,-0.30574356,0.05060491,-0.11811974
 ,0.00085036,-0.00155324,0.00057709,0.69682407,-0.00016127,0.00059014,-
 0.00068765,-0.00024396,-0.00026338,-0.00032125,-0.00169118,0.03687600,
 -0.02122870,-0.00331614,-0.00005928,0.00307686,0.00020015,0.00075524,-
 0.00053700,-0.00091037,-0.00012143,-0.00025742,-0.00669166,-0.10943191
 ,0.03421519,0.02340986,-0.00159466,0.01088756,0.11231236,0.50618549,-0
 .00012894,-0.00064715,-0.00007018,0.00029407,-0.00006937,-0.00010674,-
 0.01945711,-0.03568435,0.03039636,0.00077392,0.00222740,0.00423690,0.0
 0028875,-0.00012135,0.00026228,0.00043939,-0.00013606,-0.00054640,-0.0
 7384724,0.05283834,-0.12739656,-0.01896253,0.00306783,-0.00534408,0.09
 519151,-0.25138983,0.36082414,-0.00071736,-0.00005882,-0.00017571,-0.0
 0004990,-0.00004721,0.00001914,-0.00407137,0.00090900,-0.00430483,0.00
 043202,-0.00102078,0.00083246,-0.00020738,0.00035767,-0.00031858,-0.00
 002940,-0.00012388,0.00007024,-0.01540530,-0.01851018,0.00818180,0.000
 47910,0.00097176,0.00077978,-0.22614409,-0.13469520,0.04354045,0.23650
 269,0.00003286,-0.00007639,-0.00003985,0.00004499,-0.00000352,-0.00001
 374,0.00037944,0.00331534,0.00319220,0.00023990,0.00026238,0.00006146,
 -0.00007534,0.00000968,-0.00000401,0.00003271,-0.00001133,0.00001269,0
 .00541511,0.00685945,-0.00064716,0.00040992,-0.00110553,-0.00232067,-0
 .13453910,-0.15402770,0.04672381,0.14549911,0.15696921,-0.00020550,-0.
 00007237,-0.00016331,-0.00001922,-0.00004742,-0.00002786,-0.00403813,0
 .00328035,0.00348057,-0.00015472,-0.00035055,0.00047406,0.00001238,0.0
 0009755,-0.00005016,-0.00004376,-0.00001477,0.00001927,-0.01021131,-0.
 00824992,0.00686576,0.00124471,-0.00221029,-0.00217456,0.04340997,0.04
 680746,-0.06015784,-0.04486579,-0.05448011,0.05393513,-0.00114458,-0.0
 0021650,-0.00029338,0.00013684,0.00004805,0.00005867,-0.01212345,-0.01
 615184,0.00983353,0.00217573,-0.00121354,0.00189457,-0.00030189,0.0005
 0369,-0.00045559,0.00008826,-0.00016540,-0.00001413,0.02015258,0.02681
 652,-0.01644195,-0.00429369,0.00030532,-0.00380209,-0.12718003,0.04066
 158,-0.05391978,0.00676003,-0.01906974,0.01575307,0.69994006,-0.000353
 45,0.00003225,-0.00037118,-0.00006983,-0.00004553,0.00017983,-0.023105
 92,-0.04614276,0.02437194,-0.00107733,-0.00280141,0.00125704,0.0009510
 1,-0.00001937,0.00040166,-0.00015810,0.00036738,-0.00029101,0.07244573
 ,0.00880440,0.02210938,-0.00060287,0.00373493,0.00244092,-0.01654685,-
 0.22551174,0.12446977,0.00441033,-0.00995032,0.01163484,0.06717587,0.4
 8620545,-0.00009056,-0.00022697,0.00005567,0.00005382,0.00011587,-0.00
 001657,0.01530214,0.02716633,-0.01986410,0.00189302,0.00117001,-0.0011
 5104,-0.00093351,0.00021106,-0.00043388,0.00020909,-0.00024873,0.00037
 019,-0.05171081,0.00710545,-0.01539447,-0.00323727,0.00282430,0.003922
 97,-0.00976135,0.14285688,-0.17156301,-0.00233865,0.00421791,-0.000498
 04,0.13561890,-0.25771983,0.36699890,0.00159197,0.00019184,0.00067926,
 -0.00004275,0.00004407,-0.00014416,0.02733438,0.07307775,-0.04843911,0
 .00157337,0.00152774,-0.00322238,-0.00025115,0.00001278,0.00019795,-0.
 00004421,-0.00016511,0.00014711,-0.08235967,-0.01898112,-0.01038146,-0
 .00161633,-0.00046748,0.00000480,0.05897789,-0.05322929,0.05976362,0.0
 0173093,0.00107554,-0.00258058,-0.25504636,-0.06222817,-0.01355016,0.6
 7751727,-0.00234514,-0.00037147,-0.00065836,0.00041758,0.00026754,-0.0
 0019191,0.02805588,0.00819347,0.00721976,0.00200905,-0.00033448,0.0065
 1626,-0.00015843,0.00010869,-0.00142853,0.00047258,-0.00024727,0.00056
 036,-0.01835121,-0.00295102,-0.00802114,-0.00048663,0.00021665,-0.0005
 8160,-0.00721333,-0.03570477,0.02560417,0.00063992,0.00045027,0.005638
 41,-0.12249948,-0.16815951,0.03936382,0.08409994,0.50458449,0.00266196
 ,0.00044888,0.00076667,-0.00025453,-0.00028590,-0.00013391,-0.01438605
 ,0.02093114,-0.01541233,-0.00365172,0.00646416,0.00119291,0.00043219,-
 0.00107856,-0.00059699,-0.00051877,0.00025477,-0.00003366,-0.01085467,
 -0.00830719,-0.00311241,-0.00005801,-0.00051917,0.00019310,0.02458623,
 0.01054110,0.00031482,-0.00234407,0.00578288,0.00225264,0.03289143,0.0
 5896815,-0.10022955,0.10387199,-0.23714593,0.37822492,-0.00309585,-0.0
 0092058,-0.00040500,0.00063012,0.00038471,0.00011197,-0.12617662,-0.00
 799567,-0.01695096,0.00174311,0.01857326,-0.01414081,-0.00581571,0.001
 80089,-0.00290173,-0.00009278,-0.00089409,0.00037216,0.05031956,-0.007
 53773,0.02064320,-0.00324411,-0.00443862,0.00006967,-0.03162818,0.0223
 2184,-0.02631945,0.00013366,0.00085556,-0.00034320,-0.04318349,-0.0409
 9443,0.01532759,-0.28524146,0.03508458,-0.09782497,0.67035960,-0.00242
 010,-0.00240352,0.00047031,-0.00021097,-0.00022178,0.00003311,0.036618
 47,-0.23189881,0.14408168,0.00913809,0.00118825,0.00391743,-0.00236699
 ,0.00201003,-0.00107955,-0.00037065,-0.00036447,0.00013621,-0.04639723
 ,-0.03485315,0.01604683,-0.00378634,0.00147280,0.00289877,0.02548213,-
 0.02170193,0.02240706,0.00106733,-0.00056050,-0.00002505,-0.00390783,0
 .03756773,-0.02504576,-0.02483581,-0.10377262,0.01753607,0.11052155,0.
 53169456,0.00063911,0.00110933,-0.00094014,0.00042356,0.00030591,-0.00
 010795,-0.05066685,0.12967482,-0.17480922,-0.00644574,0.00676097,-0.00
 524551,-0.00063583,0.00006075,0.00128259,0.00046526,0.00002493,-0.0001
 2452,0.05014358,0.02870628,0.00014468,-0.00033252,0.00274059,0.0044624
 0,-0.02867210,0.02157376,-0.02903042,-0.00041832,-0.00014703,-0.001199
 90,-0.01329829,-0.03680913,0.03087749,-0.05194877,0.03677515,-0.116657
 22,0.09142568,-0.26845303,0.37012549,-0.00111098,0.00012922,-0.0004317
 1,-0.00004667,-0.00000063,0.00006929,0.00783778,0.00344946,-0.00041095
 ,0.00070789,0.00147610,0.00026847,-0.00000861,-0.00049127,0.00008655,0
 .00004658,-0.00002293,0.00004073,0.00190029,0.00080028,-0.00260827,0.0
 0042800,0.00028102,-0.00024002,-0.00031173,0.00125216,-0.00072814,-0.0
 0007258,0.00007255,0.00019070,-0.00368283,0.00066048,-0.00359180,-0.01
 573388,-0.01904605,0.00755237,-0.22089252,-0.13610601,0.04458453,0.229
 75165,-0.00007741,0.00054919,-0.00050641,0.00019506,0.00017875,-0.0002
 6361,-0.01661302,-0.01059895,0.00355031,-0.00121713,-0.00272391,-0.000
 94746,0.00023729,0.00053797,0.00013840,-0.00010050,0.00004582,-0.00007
 718,0.00083454,0.00026634,0.00603570,-0.00096329,-0.00043864,0.0003627
 4,0.00066518,-0.00034318,-0.00028490,0.00003486,-0.00027988,-0.0004047
 4,0.00043393,0.00214481,0.00280854,0.00456061,0.00673593,0.00088516,-0
 .13689017,-0.15907323,0.04781450,0.14798636,0.16388557,-0.00044990,-0.
 00050646,-0.00001028,-0.00009766,-0.00034205,0.00008192,0.01520104,0.0
 1021489,-0.00174775,0.00214088,0.00000265,-0.00240536,-0.00027868,-0.0
 0033333,0.00063921,0.00013560,-0.00004907,-0.00000623,-0.00253149,0.00
 606775,0.00236641,0.00070353,0.00076512,0.00007988,-0.00023087,-0.0001
 0256,-0.00103170,0.00021270,-0.00040223,-0.00045627,-0.00338701,0.0029
 4659,0.00230812,-0.01059666,-0.00679491,0.00764123,0.04500770,0.048126
 14,-0.05992757,-0.04693807,-0.05676716,0.05426454,-0.00009644,0.000019
 97,-0.00007683,0.00002608,0.00002415,-0.00000978,0.00024139,-0.0006232
 4,0.00091124,-0.00003777,-0.00000419,0.00021532,-0.00007064,0.00008362
 ,-0.00006501,0.00003670,-0.00003213,0.00000639,0.00258810,-0.00042566,
 -0.00113247,-0.00009040,-0.00013385,-0.00003361,0.00015444,-0.00064702
 ,-0.00027151,0.00039099,0.00088536,0.00077603,-0.29510648,0.03079997,-
 0.10883360,-0.01557659,0.00667147,-0.01145481,-0.00202125,-0.00434483,
 0.00070069,-0.00082290,0.00047220,-0.00050059,0.30914428,-0.00004669,0
 .00010301,-0.00003370,0.00001361,0.00000710,-0.00000237,-0.00032586,-0
 .00120651,-0.00003863,0.00012947,-0.00047203,-0.00015667,0.00006025,0.
 00013341,-0.00007893,-0.00012371,0.00003723,0.00000327,-0.00068212,-0.
 00085901,0.00588478,0.00103106,-0.00009728,0.00065177,0.02267300,0.000
 70571,0.00879071,0.00041551,-0.00084164,-0.00237678,0.03170878,-0.0549
 3368,0.02667711,-0.01572205,0.00892257,-0.00890341,-0.00393994,-0.0003
 5042,0.00361077,-0.00080006,0.00007753,-0.00062148,-0.03583085,0.05393
 319,-0.00006349,-0.00002771,0.00006682,0.00000302,-0.00000607,-0.00000
 075,0.00074489,-0.00007585,-0.00080472,0.00008222,-0.00017351,-0.00053
 007,-0.00005046,-0.00010195,0.00006941,0.00010485,-0.00001286,0.000061
 71,-0.00090559,0.00596025,0.00215235,-0.00092918,0.00030179,-0.0001765
 8,-0.01824827,0.00119875,-0.00433614,0.00112799,-0.00223412,-0.0019929
 0,-0.10947252,0.02640838,-0.08956009,0.00571572,-0.00167049,0.00707907
 ,0.00038398,0.00348665,0.00348476,0.00048602,-0.00021107,-0.00007022,0
 .12048957,-0.03490290,0.08974644,-0.00104586,-0.00032305,-0.00021558,0
 .00013180,0.00005269,0.00003308,-0.00783616,-0.00572213,0.00007393,0.0
 0217378,0.00050674,0.00029167,-0.00125968,0.00090901,-0.00087823,0.000
 15396,-0.00032761,0.00021429,0.00518357,0.00231781,0.00027715,0.000314
 79,0.00031684,0.00008844,-0.00803695,0.00034002,-0.00509803,0.00032015
 ,-0.00094954,0.00085228,0.00916178,-0.02511890,0.01945793,-0.10564966,
 0.00734996,-0.02526289,-0.00297059,0.04195608,-0.03555465,0.00187733,0
 .00037650,0.00143197,0.00050866,0.00243342,-0.00084062,0.39731274,0.00
 242264,0.00115291,0.00024577,-0.00027218,-0.00020899,0.00001259,-0.000
 80680,0.00644492,-0.00119676,-0.00394873,-0.00047804,-0.00099998,0.001
 68839,-0.00057092,0.00077252,-0.00072861,0.00049671,-0.00047027,-0.000
 34728,-0.00559077,0.00314809,0.00020047,-0.00031903,-0.00019404,-0.004
 02455,0.00395928,0.00097460,0.00015433,-0.00118268,0.00091288,-0.00372
 500,-0.02998033,0.02855841,-0.02314832,-0.20791297,0.11810560,0.016282
 22,-0.01592122,0.02284480,-0.00004722,-0.00085290,-0.00198664,0.001031
 86,-0.00049007,-0.00132925,-0.03770229,0.32758544,-0.00224273,-0.00089
 381,-0.00014309,0.00026478,0.00015609,-0.00002783,-0.00357478,-0.00291
 701,0.00599827,0.00373680,0.00053867,0.00091287,-0.00170484,0.00070835
 ,-0.00098268,0.00060096,-0.00051347,0.00042290,0.00231111,0.00427007,-
 0.00339002,0.00019939,-0.00025823,-0.00058253,-0.00186449,0.00240508,0
 .00450964,0.00001135,0.00053687,-0.00047607,0.00309714,0.02156808,-0.0
 0691819,-0.00187697,0.12780578,-0.14401324,-0.01575827,0.03136302,-0.0
 2216313,0.00175339,-0.00180423,-0.00138106,0.00024360,-0.00088745,-0.0
 0191713,0.13437379,-0.20990536,0.27570520,0.00090929,0.00022008,0.0002
 3443,-0.00014389,-0.00007094,-0.00002698,-0.00001852,-0.00021954,-0.00
 022189,-0.00159430,0.00021281,-0.00061093,0.00079902,-0.00057577,0.000
 60249,-0.00025115,0.00026852,-0.00022873,0.00090883,-0.00149580,0.0012
 3998,-0.00009096,-0.00000992,0.00012037,-0.00192852,0.00036653,-0.0010
 4208,-0.00006009,-0.00045137,0.00034869,0.00362518,-0.00635362,0.00638
 891,-0.00436761,0.01658277,-0.01262254,0.00291181,-0.00320277,0.002517
 81,-0.00020424,0.00011171,0.00002877,-0.00063488,-0.00120209,0.0008610
 5,-0.22336992,0.02665613,-0.07301249,0.50754414,-0.00022822,-0.0000571
 0,-0.00009635,0.00003767,0.00003673,0.00003004,0.00093053,0.00009552,0
 .00121272,0.00031208,-0.00035520,0.00022519,-0.00005668,0.00007336,-0.
 00007646,0.00006044,-0.00003566,0.00004424,0.00023979,0.00061610,-0.00
 005444,0.00008478,-0.00010865,-0.00015267,0.00092947,0.00047496,0.0002
 3250,-0.00001091,0.00013600,-0.00015915,0.00095815,-0.00179501,0.00090
 427,0.03308503,-0.01581390,0.01915665,-0.00312587,-0.00170950,0.002406
 41,0.00046254,-0.00011689,-0.00021493,0.00121514,-0.00236182,0.0018711
 5,0.00132865,-0.08152330,0.01667989,0.02600702,0.61122703,0.00046552,0
 .00006529,0.00009321,-0.00009417,-0.00001470,0.00002251,-0.00115502,0.
 00090274,0.00021713,-0.00067355,0.00020038,-0.00056719,0.00031504,-0.0
 0025210,0.00025268,-0.00014105,0.00011910,-0.00010490,-0.00003626,-0.0
 0066589,0.00086960,0.00001359,-0.00017819,-0.00017141,-0.00145136,0.00
 004954,-0.00012286,0.00001171,-0.00029983,0.00016881,0.00074665,-0.001
 42552,0.00035434,-0.02537544,0.01380424,-0.02360861,0.00249897,0.00237
 081,0.00170031,-0.00022587,-0.00032822,-0.00041864,-0.00097372,0.00107
 821,-0.00159183,-0.05344620,0.02486089,-0.09664585,-0.04212062,-0.0184
 3695,0.57668678,-0.00005779,-0.00002701,0.00001018,0.00000607,0.000004
 49,-0.00000796,-0.00049175,-0.00025877,0.00005808,0.00009760,0.0000862
 8,-0.00002402,-0.00006824,0.00002800,-0.00003524,0.00000290,-0.0000141
 7,0.00000689,0.00019396,0.00000768,0.00008199,0.00005638,0.00000100,0.
 00002338,0.00044265,0.00025066,-0.00012424,-0.00001429,0.00004086,-0.0
 0004730,-0.00116690,-0.00075565,0.00009371,-0.00487688,-0.00064672,-0.
 00129556,0.00012154,0.00139090,-0.00111947,-0.00001290,-0.00002659,0.0
 0000895,0.00078992,-0.00008396,0.00046465,-0.00417593,0.03417035,-0.02
 765145,-0.05530301,-0.04654008,0.03449768,0.06636681,0.00015315,0.0000
 5519,0.00000909,-0.00001963,-0.00000970,0.00000351,0.00020658,-0.00007
 736,0.00005916,-0.00028905,-0.00001689,-0.00010458,0.00010986,-0.00006
 788,0.00008087,-0.00002626,0.00003322,-0.00002593,0.00007373,-0.000074
 60,0.00003934,0.00002214,-0.00002757,0.00000830,0.00006115,0.00015883,
 0.00006464,-0.00001418,-0.00000174,0.00002164,-0.00026305,0.00007821,0
 .00010733,0.00064214,0.00194830,-0.00075305,-0.00011831,-0.00014545,0.
 00027152,0.00000640,0.00000383,0.00001808,0.00032762,-0.00010194,-0.00
 015368,0.00334987,-0.00524177,0.00524184,-0.03552536,-0.23332900,0.127
 95244,0.03552155,0.24710625,-0.00013247,-0.00006593,-0.00002182,0.0000
 1410,0.00001411,0.00000431,-0.00029119,-0.00008519,-0.00011771,0.00026
 486,0.00002027,0.00004329,-0.00010555,0.00006340,-0.00006268,0.0000205
 8,-0.00002989,0.00001973,0.00002132,0.00002031,-0.00005232,0.00000991,
 0.00000005,-0.00002541,0.00002716,0.00012903,0.00013063,-0.00000422,0.
 00003915,0.00000006,-0.00028678,-0.00005030,0.00027022,-0.00229604,-0.
 00115588,0.00085603,0.00004995,0.00075724,-0.00030940,-0.00001782,0.00
 000871,0.00001458,0.00014572,-0.00029274,-0.00016935,-0.00396669,0.015
 17574,-0.01279209,0.02605080,0.12442416,-0.13891216,-0.02101946,-0.142
 00742,0.14956432,-0.00016118,-0.00002388,-0.00002376,0.00002340,0.0000
 1240,-0.00000252,-0.00019739,-0.00031584,0.00046064,0.00024985,-0.0000
 8719,0.00006043,-0.00011613,0.00009217,-0.00006636,0.00004132,-0.00003
 904,0.00002121,0.00041672,0.00035849,-0.00016810,0.00001701,-0.0000018
 5,-0.00005652,-0.00028578,0.00030960,-0.00011795,0.00001519,0.00004149
 ,-0.00003362,0.00081458,0.00071930,0.00014525,0.00113893,-0.00532203,0
 .00349661,-0.00100518,0.00106908,-0.00046556,0.00019877,-0.00010890,-0
 .00007233,0.00016610,-0.00000047,-0.00006363,-0.02425549,-0.01988386,-
 0.02816594,-0.06594667,-0.04867999,-0.03388581,-0.00041457,-0.00461263
 ,-0.00236574,0.08092865,-0.00004326,0.00000261,-0.00000909,0.00001208,
 0.00000092,-0.00000520,0.00032317,0.00042852,-0.00029401,0.00008688,0.
 00001371,0.00003016,-0.00006327,0.00004579,-0.00004259,0.00002157,-0.0
 0002417,0.00001806,-0.00071733,-0.00008854,-0.00027930,-0.00000165,0.0
 0004317,0.00007802,0.00086527,-0.00067210,0.00024593,-0.00000930,0.000
 06611,0.00001616,-0.00146337,0.00013244,-0.00042471,0.00003193,0.00178
 679,0.00060689,0.00050832,-0.00043359,-0.00005377,0.00000754,0.0000133
 8,0.00003766,0.00031654,-0.00019780,0.00179874,0.00072775,0.01176483,0
 .00646144,-0.05329890,-0.21339870,-0.11546568,-0.00509217,-0.01772406,
 -0.01514034,0.05960470,0.22253071,0.00003026,0.00004729,-0.00000539,0.
 00000158,-0.00000357,-0.00000093,-0.00011111,-0.00058261,0.00053677,-0
 .00010636,-0.00006458,-0.00002939,0.00001063,0.00001334,0.00001032,0.0
 0000082,-0.00000109,-0.00000566,0.00064685,0.00022300,0.00002556,0.000
 07640,-0.00004106,-0.00001730,-0.00003029,0.00063299,-0.00011568,-0.00
 001032,0.00001441,-0.00004918,-0.00020520,-0.00024762,0.00007567,0.000
 45098,-0.00463035,0.00265277,-0.00082617,0.00100244,-0.00074394,0.0001
 6338,-0.00006278,-0.00000548,0.00067374,0.00044119,-0.00154319,-0.0148
 9687,-0.00534816,-0.01158860,-0.03553132,-0.11106695,-0.13196250,0.005
 60598,0.01411849,0.01279405,0.04912562,0.12399750,0.14163554,-0.000126
 49,-0.00004078,-0.00007330,0.00001987,0.00001856,0.00000848,-0.0000037
 3,-0.00064618,0.00019582,0.00017069,-0.00000840,0.00015310,-0.00010728
 ,0.00007047,-0.00010023,0.00003939,-0.00003131,0.00004069,0.00037990,0
 .00044397,-0.00013496,0.00002557,0.00003672,0.00001931,0.00004916,0.00
 016132,-0.00027472,0.00000700,0.00005972,-0.00004470,0.00037467,0.0002
 0245,-0.00044264,0.00094183,-0.00531473,0.00503579,-0.00085165,0.00070
 588,-0.00134214,0.00015155,0.00008877,0.00021212,0.00041069,0.00029271
 ,0.00010979,-0.03853834,0.01202845,0.00925964,-0.16278452,0.03299048,0
 .12102991,-0.00149558,0.00039427,0.00388158,0.00837188,-0.00181651,-0.
 00506858,0.19296540,-0.00009194,-0.00004674,0.00000055,0.00000920,0.00
 000784,-0.00000006,0.00011559,0.00063152,-0.00036859,0.00020723,0.0000
 2258,0.00003405,-0.00006644,0.00003240,-0.00003900,0.00001812,-0.00001
 959,0.00001587,-0.00069365,-0.00010161,-0.00012858,-0.00003500,-0.0000
 2479,-0.00007186,0.00003343,-0.00027358,0.00068624,0.00003062,-0.00002
 721,-0.00001814,0.00006385,0.00027210,-0.00042130,0.00042800,0.0020533
 0,-0.00268825,0.00052248,-0.00052318,0.00078246,-0.00006994,-0.0000115
 5,-0.00005808,0.00019387,-0.00200754,-0.00012625,0.00817816,-0.0011311
 1,-0.00055563,0.03198051,-0.06205498,-0.03433656,-0.01805666,0.0074341
 2,0.01817551,0.01686844,-0.00429002,-0.01844187,-0.03963586,0.06005803
 ,-0.00002214,-0.00001502,0.00000249,-0.00000074,-0.00000095,-0.0000044
 1,-0.00028601,-0.00055295,0.00017635,0.00001439,-0.00000042,0.00004827
 ,0.00000823,-0.00000884,0.00000706,-0.00000037,0.00000594,-0.00000726,
 0.00072910,0.00009066,0.00006866,-0.00004904,0.00007301,0.00004429,-0.
 00069175,0.00015022,-0.00085315,-0.00000713,0.00000736,0.00004979,0.00
 168276,0.00015800,0.00039536,-0.00041971,-0.00100886,0.00262377,-0.000
 42033,-0.00003038,-0.00081880,-0.00000278,0.00005370,0.00006466,-0.000
 81035,0.00115725,0.00003243,-0.01693477,0.00581857,0.01547263,0.127024
 27,-0.03692932,-0.18625942,0.01047323,-0.00495159,-0.01123426,0.012178
 08,-0.00157586,-0.01166346,-0.13246496,0.03755950,0.19185498\\0.000001
 41,-0.00000052,-0.00000384,0.00000169,-0.00000055,-0.00000471,0.000000
 51,0.00000027,-0.00000039,0.00000111,-0.00000008,-0.00000169,0.0000013
 8,0.00000111,-0.00000103,0.00000163,0.00000139,0.00000060,0.00000057,0
 .00000186,0.00000158,0.00000024,0.00000182,0.00000242,-0.00000010,0.00
 000104,0.00000305,-0.00000021,0.00000202,0.00000459,0.00000044,0.00000
 038,0.00000224,-0.00000022,0.00000045,-0.00000086,-0.00000007,-0.00000
 047,-0.00000148,0.00000022,-0.00000130,-0.00000299,-0.00000174,0.00000
 081,0.00000250,-0.00000084,-0.00000285,-0.00000034,-0.00000182,-0.0000
 0118,0.00000012,-0.00000163,-0.00000217,-0.00000125,-0.00000232,-0.000
 00181,0.00000132,-0.00000027,-0.00000023,0.00000018\\\@
 The archive entry for this job was punched.


 KNOWLEDGE IS CHIMERA - FOR BEYOND IT LIES OTHER KNOWLEDGE,
 AND THE INCOMPLETENESS OF WHAT IS KNOWN RENDERS THE KNOWING FALSE.
     -- THE THOMAS COVENANT CHRONICLES
 Job cpu time:       0 days  0 hours 58 minutes 12.2 seconds.
 Elapsed time:       0 days  0 hours  1 minutes 51.7 seconds.
 File lengths (MBytes):  RWF=    169 Int=      0 D2E=      0 Chk=      9 Scr=      1
 Normal termination of Gaussian 16 at Wed Apr 23 16:38:10 2025.
