/home/tahminaafroz
cn015.cluster.local
tahminaafroz
Sun May 11 04:08:49 CDT 2025
 Entering Gaussian System, Link 0=g16
 Initial command:
 /home/apps/g16/l1.exe "/tmp/4-cooch3-ph-opt-freq-thf/Gau-4680.inp" -scrdir="/tmp/4-cooch3-ph-opt-freq-thf/"
 Entering Link 1 = /home/apps/g16/l1.exe PID=      4681.
  
 Copyright (c) 1988-2019, Gaussian, Inc.  All Rights Reserved.
  
 This is part of the Gaussian(R) 16 program.  It is based on
 the Gaussian(R) 09 system (copyright 2009, Gaussian, Inc.),
 the Gaussian(R) 03 system (copyright 2003, Gaussian, Inc.),
 the Gaussian(R) 98 system (copyright 1998, Gaussian, Inc.),
 the Gaussian(R) 94 system (copyright 1995, Gaussian, Inc.),
 the Gaussian 92(TM) system (copyright 1992, Gaussian, Inc.),
 the Gaussian 90(TM) system (copyright 1990, Gaussian, Inc.),
 the Gaussian 88(TM) system (copyright 1988, Gaussian, Inc.),
 the Gaussian 86(TM) system (copyright 1986, Carnegie Mellon
 University), and the Gaussian 82(TM) system (copyright 1983,
 Carnegie Mellon University). Gaussian is a federally registered
 trademark of Gaussian, Inc.
  
 This software contains proprietary and confidential information,
 including trade secrets, belonging to Gaussian, Inc.
  
 This software is provided under written license and may be
 used, copied, transmitted, or stored only in accord with that
 written license.
  
 The following legend is applicable only to US Government
 contracts under FAR:
  
                    RESTRICTED RIGHTS LEGEND
  
 Use, reproduction and disclosure by the US Government is
 subject to restrictions as set forth in subparagraphs (a)
 and (c) of the Commercial Computer Software - Restricted
 Rights clause in FAR 52.227-19.
  
 Gaussian, Inc.
 340 Quinnipiac St., Bldg. 40, Wallingford CT 06492
  
  
 ---------------------------------------------------------------
 Warning -- This program may not be used in any manner that
 competes with the business of Gaussian, Inc. or will provide
 assistance to any competitor of Gaussian, Inc.  The licensee
 of this program is prohibited from giving any competitor of
 Gaussian, Inc. access to this program.  By using this program,
 the user acknowledges that Gaussian, Inc. is engaged in the
 business of creating and licensing software in the field of
 computational chemistry and represents and warrants to the
 licensee that it is not a competitor of Gaussian, Inc. and that
 it will not use this program in any manner prohibited above.
 ---------------------------------------------------------------
  

 Cite this work as:
 Gaussian 16, Revision C.01,
 M. J. Frisch, G. W. Trucks, H. B. Schlegel, G. E. Scuseria, 
 M. A. Robb, J. R. Cheeseman, G. Scalmani, V. Barone, 
 G. A. Petersson, H. Nakatsuji, X. Li, M. Caricato, A. V. Marenich, 
 J. Bloino, B. G. Janesko, R. Gomperts, B. Mennucci, H. P. Hratchian, 
 J. V. Ortiz, A. F. Izmaylov, J. L. Sonnenberg, D. Williams-Young, 
 F. Ding, F. Lipparini, F. Egidi, J. Goings, B. Peng, A. Petrone, 
 T. Henderson, D. Ranasinghe, V. G. Zakrzewski, J. Gao, N. Rega, 
 G. Zheng, W. Liang, M. Hada, M. Ehara, K. Toyota, R. Fukuda, 
 J. Hasegawa, M. Ishida, T. Nakajima, Y. Honda, O. Kitao, H. Nakai, 
 T. Vreven, K. Throssell, J. A. Montgomery, Jr., J. E. Peralta, 
 F. Ogliaro, M. J. Bearpark, J. J. Heyd, E. N. Brothers, K. N. Kudin, 
 V. N. Staroverov, T. A. Keith, R. Kobayashi, J. Normand, 
 K. Raghavachari, A. P. Rendell, J. C. Burant, S. S. Iyengar, 
 J. Tomasi, M. Cossi, J. M. Millam, M. Klene, C. Adamo, R. Cammi, 
 J. W. Ochterski, R. L. Martin, K. Morokuma, O. Farkas, 
 J. B. Foresman, and D. J. Fox, Gaussian, Inc., Wallingford CT, 2019.
 
 ******************************************
 Gaussian 16:  AS64L-G16RevC.01  3-Jul-2019
                11-May-2025 
 ******************************************
 %mem=20GB
 %nprocshared=32
 Will use up to   32 processors via shared memory.
 %chk=4-cooch3-ph-opt-freq-thf.chk
 ----------------------------------------------------------------------
 # opt=(calcfc,tight) freq 6-311+g(d,p) scrf=(smd,solvent=thf) nosymm s
 cf=(qc,fermi,xqc) geom=connectivity int=ultrafine m062x
 ----------------------------------------------------------------------
 1/7=10,10=4,18=20,19=15,26=6,38=1,57=2/1,3;
 2/9=110,12=2,15=1,17=6,18=5,40=1/2;
 3/5=4,6=6,7=111,11=2,25=1,30=1,70=32201,71=2,72=20,74=-55,75=-5,140=1/1,2,3;
 4//1;
 5/5=2,22=13,38=5,53=20/2;
 8/6=4,10=90,11=11/1;
 11/6=1,8=1,9=11,15=111,16=1,31=1/1,2,10;
 10/6=1,13=1,31=1/2;
 6/7=2,8=2,9=2,10=2,28=1/1;
 7/10=1,25=1,30=1/1,2,3,16;
 1/7=10,10=4,18=20,19=15,26=6/3(2);
 2/9=110,15=1/2;
 99//99;
 2/9=110,15=1/2;
 3/5=4,6=6,7=111,11=2,25=1,30=1,70=32205,71=1,72=20,74=-55,75=-5/1,2,3;
 4/5=5,16=3,69=1/1;
 5/5=2,22=13,38=5,53=20/2;
 7/30=1/1,2,3,16;
 1/7=10,18=20,19=15,26=6/3(-5);
 2/9=110,15=1/2;
 6/7=2,8=2,9=2,10=2,19=2,28=1/1;
 99/9=1/99;
 ------------------------
 4-cooch3-ph-opt-freq-thf
 ------------------------
 Symbolic Z-matrix:
 Charge =  0 Multiplicity = 2
 C                     6.24024   7.01237   5.19319 
 C                     5.0853    6.24234   5.3743 
 H                     5.13058   5.27779   5.87152 
 C                     3.84666   6.68057   4.92149 
 H                     2.96325   6.07292   5.07011 
 C                     3.74623   7.91104   4.27241 
 C                     4.88537   8.69222   4.07781 
 H                     4.79396   9.64524   3.57048 
 C                     6.11693   8.24249   4.53317 
 H                     6.99972   8.85264   4.37868 
 C                     2.43975   8.43242   3.7704 
 O                     1.42708   7.59751   4.01116 
 C                     0.13712   8.03264   3.56356 
 H                    -0.55291   7.23944   3.83998 
 H                    -0.13962   8.96519   4.05603 
 H                     0.13891   8.17476   2.48263 
 O                     2.30575   9.49159   3.2088 
 

 GradGradGradGradGradGradGradGradGradGradGradGradGradGradGradGradGradGrad
 Berny optimization.
 Initialization pass.
                           ----------------------------
                           !    Initial Parameters    !
                           ! (Angstroms and Degrees)  !
 --------------------------                            --------------------------
 ! Name  Definition              Value          Derivative Info.                !
 --------------------------------------------------------------------------------
 ! R1    R(1,2)                  1.3999         calculate D2E/DX2 analytically  !
 ! R2    R(1,9)                  1.4014         calculate D2E/DX2 analytically  !
 ! R3    R(2,3)                  1.0861         calculate D2E/DX2 analytically  !
 ! R4    R(2,4)                  1.3897         calculate D2E/DX2 analytically  !
 ! R5    R(4,5)                  1.0825         calculate D2E/DX2 analytically  !
 ! R6    R(4,6)                  1.3948         calculate D2E/DX2 analytically  !
 ! R7    R(6,7)                  1.3949         calculate D2E/DX2 analytically  !
 ! R8    R(6,11)                 1.4936         calculate D2E/DX2 analytically  !
 ! R9    R(7,8)                  1.0835         calculate D2E/DX2 analytically  !
 ! R10   R(7,9)                  1.3879         calculate D2E/DX2 analytically  !
 ! R11   R(9,10)                 1.0842         calculate D2E/DX2 analytically  !
 ! R12   R(11,12)                1.3344         calculate D2E/DX2 analytically  !
 ! R13   R(11,17)                1.2063         calculate D2E/DX2 analytically  !
 ! R14   R(12,13)                1.4331         calculate D2E/DX2 analytically  !
 ! R15   R(13,14)                1.0871         calculate D2E/DX2 analytically  !
 ! R16   R(13,15)                1.0903         calculate D2E/DX2 analytically  !
 ! R17   R(13,16)                1.0902         calculate D2E/DX2 analytically  !
 ! A1    A(2,1,9)              118.1104         calculate D2E/DX2 analytically  !
 ! A2    A(1,2,3)              120.8871         calculate D2E/DX2 analytically  !
 ! A3    A(1,2,4)              121.3144         calculate D2E/DX2 analytically  !
 ! A4    A(3,2,4)              117.7981         calculate D2E/DX2 analytically  !
 ! A5    A(2,4,5)              120.374          calculate D2E/DX2 analytically  !
 ! A6    A(2,4,6)              119.603          calculate D2E/DX2 analytically  !
 ! A7    A(5,4,6)              120.0229         calculate D2E/DX2 analytically  !
 ! A8    A(4,6,7)              120.0111         calculate D2E/DX2 analytically  !
 ! A9    A(4,6,11)             121.8273         calculate D2E/DX2 analytically  !
 ! A10   A(7,6,11)             118.1616         calculate D2E/DX2 analytically  !
 ! A11   A(6,7,8)              119.2754         calculate D2E/DX2 analytically  !
 ! A12   A(6,7,9)              119.828          calculate D2E/DX2 analytically  !
 ! A13   A(8,7,9)              120.8966         calculate D2E/DX2 analytically  !
 ! A14   A(1,9,7)              121.1319         calculate D2E/DX2 analytically  !
 ! A15   A(1,9,10)             119.3041         calculate D2E/DX2 analytically  !
 ! A16   A(7,9,10)             119.5638         calculate D2E/DX2 analytically  !
 ! A17   A(6,11,12)            112.6302         calculate D2E/DX2 analytically  !
 ! A18   A(6,11,17)            124.0663         calculate D2E/DX2 analytically  !
 ! A19   A(12,11,17)           123.3035         calculate D2E/DX2 analytically  !
 ! A20   A(11,12,13)           115.8993         calculate D2E/DX2 analytically  !
 ! A21   A(12,13,14)           105.6882         calculate D2E/DX2 analytically  !
 ! A22   A(12,13,15)           110.3101         calculate D2E/DX2 analytically  !
 ! A23   A(12,13,16)           110.3514         calculate D2E/DX2 analytically  !
 ! A24   A(14,13,15)           110.3727         calculate D2E/DX2 analytically  !
 ! A25   A(14,13,16)           110.3813         calculate D2E/DX2 analytically  !
 ! A26   A(15,13,16)           109.6789         calculate D2E/DX2 analytically  !
 ! D1    D(9,1,2,3)            179.428          calculate D2E/DX2 analytically  !
 ! D2    D(9,1,2,4)             -0.3088         calculate D2E/DX2 analytically  !
 ! D3    D(2,1,9,7)              0.3961         calculate D2E/DX2 analytically  !
 ! D4    D(2,1,9,10)          -179.7405         calculate D2E/DX2 analytically  !
 ! D5    D(1,2,4,5)           -179.9713         calculate D2E/DX2 analytically  !
 ! D6    D(1,2,4,6)              0.0291         calculate D2E/DX2 analytically  !
 ! D7    D(3,2,4,5)              0.284          calculate D2E/DX2 analytically  !
 ! D8    D(3,2,4,6)           -179.7156         calculate D2E/DX2 analytically  !
 ! D9    D(2,4,6,7)              0.1733         calculate D2E/DX2 analytically  !
 ! D10   D(2,4,6,11)          -179.765          calculate D2E/DX2 analytically  !
 ! D11   D(5,4,6,7)           -179.8263         calculate D2E/DX2 analytically  !
 ! D12   D(5,4,6,11)             0.2354         calculate D2E/DX2 analytically  !
 ! D13   D(4,6,7,8)            179.8865         calculate D2E/DX2 analytically  !
 ! D14   D(4,6,7,9)             -0.0876         calculate D2E/DX2 analytically  !
 ! D15   D(11,6,7,8)            -0.173          calculate D2E/DX2 analytically  !
 ! D16   D(11,6,7,9)           179.853          calculate D2E/DX2 analytically  !
 ! D17   D(4,6,11,12)           -0.2283         calculate D2E/DX2 analytically  !
 ! D18   D(4,6,11,17)          179.7146         calculate D2E/DX2 analytically  !
 ! D19   D(7,6,11,12)          179.8322         calculate D2E/DX2 analytically  !
 ! D20   D(7,6,11,17)           -0.2248         calculate D2E/DX2 analytically  !
 ! D21   D(6,7,9,1)             -0.203          calculate D2E/DX2 analytically  !
 ! D22   D(6,7,9,10)           179.9339         calculate D2E/DX2 analytically  !
 ! D23   D(8,7,9,1)            179.8234         calculate D2E/DX2 analytically  !
 ! D24   D(8,7,9,10)            -0.0397         calculate D2E/DX2 analytically  !
 ! D25   D(6,11,12,13)         179.7042         calculate D2E/DX2 analytically  !
 ! D26   D(17,11,12,13)         -0.2392         calculate D2E/DX2 analytically  !
 ! D27   D(11,12,13,14)        179.9749         calculate D2E/DX2 analytically  !
 ! D28   D(11,12,13,15)        -60.7162         calculate D2E/DX2 analytically  !
 ! D29   D(11,12,13,16)         60.6338         calculate D2E/DX2 analytically  !
 --------------------------------------------------------------------------------
 Trust Radius=3.00D-01 FncErr=5.00D-06 GrdErr=5.00D-06 EigMax=2.50D+02 EigMin=1.00D-04
 Number of steps in this run=     82 maximum allowed number of steps=    102.
 GradGradGradGradGradGradGradGradGradGradGradGradGradGradGradGradGradGrad

                          Input orientation:                          
 ---------------------------------------------------------------------
 Center     Atomic      Atomic             Coordinates (Angstroms)
 Number     Number       Type             X           Y           Z
 ---------------------------------------------------------------------
      1          6           0        6.240239    7.012369    5.193187
      2          6           0        5.085304    6.242342    5.374304
      3          1           0        5.130578    5.277790    5.871523
      4          6           0        3.846658    6.680566    4.921492
      5          1           0        2.963245    6.072918    5.070109
      6          6           0        3.746227    7.911035    4.272405
      7          6           0        4.885367    8.692221    4.077807
      8          1           0        4.793955    9.645242    3.570482
      9          6           0        6.116931    8.242486    4.533175
     10          1           0        6.999724    8.852640    4.378679
     11          6           0        2.439747    8.432424    3.770401
     12          8           0        1.427078    7.597514    4.011156
     13          6           0        0.137121    8.032643    3.563561
     14          1           0       -0.552912    7.239439    3.839980
     15          1           0       -0.139620    8.965187    4.056031
     16          1           0        0.138906    8.174764    2.482628
     17          8           0        2.305749    9.491593    3.208804
 ---------------------------------------------------------------------
                    Distance matrix (angstroms):
                    1          2          3          4          5
     1  C    0.000000
     2  C    1.399864   0.000000
     3  H    2.168006   1.086111   0.000000
     4  C    2.431695   1.389720   2.125745   0.000000
     5  H    3.411218   2.150436   2.443732   1.082470   0.000000
     6  C    2.806339   2.406625   3.377512   1.394795   2.151294
     7  C    2.429332   2.778990   3.864697   2.416087   3.397052
     8  H    3.414225   3.862433   4.948004   3.392920   4.285076
     9  C    1.401431   2.402567   3.399043   2.782898   3.865367
    10  H    2.151009   3.386728   4.301377   3.867089   4.949555
    11  C    4.299374   3.790506   4.648333   2.524562   2.744187
    12  O    4.990602   4.132467   4.749526   2.742968   2.409478
    13  C    6.398804   5.564933   6.152277   4.175255   3.754622
    14  H    6.930341   5.927717   6.346439   4.564890   3.903505
    15  H    6.768251   6.037513   6.683404   4.675353   4.361347
    16  H    6.776766   6.046726   6.692821   4.682746   4.369177
    17  O    5.056139   4.793010   5.729386   3.634498   3.947670
                    6          7          8          9         10
     6  C    0.000000
     7  C    1.394905   0.000000
     8  H    2.144272   1.083505   0.000000
     9  C    2.407924   1.387938   2.155172   0.000000
    10  H    3.388681   2.141673   2.479278   1.084196   0.000000
    11  C    1.493568   2.478518   2.655784   3.760264   4.619521
    12  O    2.354782   3.628028   3.965255   4.762690   5.724054
    13  C    3.680067   4.821341   4.928146   6.061544   6.959320
    14  H    4.372714   5.634005   5.869370   6.780371   7.741765
    15  H    4.032104   5.032443   5.003838   6.316201   7.147517
    16  H    4.035545   5.034009   5.001521   6.320294   7.150199
    17  O    2.388386   2.837004   2.519045   4.223664   4.879577
                   11         12         13         14         15
    11  C    0.000000
    12  O    1.334367   0.000000
    13  C    2.346208   1.433062   0.000000
    14  H    3.222431   2.019376   1.087072   0.000000
    15  H    2.649256   2.080165   1.090298   1.787651   0.000000
    16  H    2.649267   2.080626   1.090237   1.787694   1.782678
    17  O    1.206311   2.236821   2.637676   3.693579   2.640971
                   16         17
    16  H    0.000000
    17  O    2.637533   0.000000
 Symmetry turned off by external request.
 Stoichiometry    C8H7O2(2)
 Framework group  C1[X(C8H7O2)]
 Deg. of freedom    45
 Full point group                 C1      NOp   1
 Rotational constants (GHZ):           3.5546494           0.8667748           0.6999463
 Standard basis: 6-311+G(d,p) (5D, 7F)
   262 basis functions,   416 primitive gaussians,   272 cartesian basis functions
    36 alpha electrons       35 beta electrons
       nuclear repulsion energy       478.2433992865 Hartrees.
 NAtoms=   17 NActive=   17 NUniq=   17 SFac= 1.00D+00 NAtFMM=   60 NAOKFM=F Big=F
 Integral buffers will be    131072 words long.
 Raffenetti 2 integral format.
 Two-electron integral symmetry is turned off.
 Force inversion solution in PCM.
 ------------------------------------------------------------------------------
 Polarizable Continuum Model (PCM)
 =================================
 Model                : PCM.
 Atomic radii         : SMD-Coulomb.
 Polarization charges : Total charges.
 Charge compensation  : None.
 Solution method      : Matrix inversion.
 Cavity type          : VdW (van der Waals Surface) (Alpha=1.000).
 Cavity algorithm     : GePol (No added spheres)
                        Default sphere list used, NSphG=   17.
                        Lebedev-Laikov grids with approx.  5.0 points / Ang**2.
                        Smoothing algorithm: York/Karplus (Gamma=1.0000).
                        Polarization charges: spherical gaussians, with
                                              point-specific exponents (IZeta= 3).
                        Self-potential: point-specific (ISelfS= 7).
                        Self-field    : sphere-specific E.n sum rule (ISelfD= 2).
 1st derivatives      : Analytical E(r).r(x)/FMM algorithm (CHGder, D1EAlg=3).
                        Cavity 1st derivative terms included.
 2nd derivatives      : Analytical E(r).r(xy)/FMM algorithm (CHGder, D2EAlg=3).
                        Cavity 2nd derivative terms included.
 Solvent              : TetraHydroFuran, Eps=   7.425700 Eps(inf)=   1.974025
 ------------------------------------------------------------------------------
 Spheres list:
 ISph  on   Nord     Re0    Alpha      Xe            Ye            Ze
    1   C      1    1.8500  1.000      6.240239      7.012369      5.193187
    2   C      2    1.8500  1.000      5.085304      6.242342      5.374304
    3   H      3    1.2000  1.000      5.130578      5.277790      5.871523
    4   C      4    1.8500  1.000      3.846658      6.680566      4.921492
    5   H      5    1.2000  1.000      2.963245      6.072918      5.070109
    6   C      6    1.8500  1.000      3.746227      7.911035      4.272405
    7   C      7    1.8500  1.000      4.885367      8.692221      4.077807
    8   H      8    1.2000  1.000      4.793955      9.645242      3.570482
    9   C      9    1.8500  1.000      6.116931      8.242486      4.533175
   10   H     10    1.2000  1.000      6.999724      8.852640      4.378679
   11   C     11    1.8500  1.000      2.439747      8.432424      3.770401
   12   O     12    2.2940  1.000      1.427078      7.597514      4.011156
   13   C     13    1.8500  1.000      0.137121      8.032643      3.563561
   14   H     14    1.2000  1.000     -0.552912      7.239439      3.839980
   15   H     15    1.2000  1.000     -0.139620      8.965187      4.056031
   16   H     16    1.2000  1.000      0.138906      8.174764      2.482628
   17   O     17    2.2940  1.000      2.305749      9.491593      3.208804
 ------------------------------------------------------------------------------
 ------------------------------------------------------------------------------
 Atomic radii for non-electrostatic terms: SMD-CDS.
 ------------------------------------------------------------------------------
 Nuclear repulsion after PCM non-electrostatic terms =      478.2401781036 Hartrees.
 One-electron integrals computed using PRISM.
 NBasis=   262 RedAO= T EigKep=  2.26D-06  NBF=   262
 NBsUse=   262 1.00D-06 EigRej= -1.00D+00 NBFU=   262
 ExpMin= 4.38D-02 ExpMax= 8.59D+03 ExpMxC= 1.30D+03 IAcc=3 IRadAn=         5 AccDes= 0.00D+00
 Harris functional with IExCor= 1009 and IRadAn=       5 diagonalized for initial guess.
 HarFok:  IExCor= 1009 AccDes= 0.00D+00 IRadAn=         5 IDoV= 1 UseB2=F ITyADJ=14
 ICtDFT=  3500011 ScaDFX=  1.000000  1.000000  1.000000  1.000000
 FoFCou: FMM=F IPFlag=           0 FMFlag=      100000 FMFlg1=           0
         NFxFlg=           0 DoJE=T BraDBF=F KetDBF=T FulRan=T
         wScrn=  0.000000 ICntrl=       500 IOpCl=  0 I1Cent=   200000004 NGrid=           0
         NMat0=    1 NMatS0=      1 NMatT0=    0 NMatD0=    1 NMtDS0=    0 NMtDT0=    0
 Symmetry not used in FoFCou.
 Initial guess <Sx>= 0.0000 <Sy>= 0.0000 <Sz>= 0.5000 <S**2>= 0.7500 S= 0.5000
 Requested convergence on RMS density matrix=1.00D-08 within 128 cycles.
 Requested convergence on MAX density matrix=1.00D-06.
 Requested convergence on             energy=1.00D-06.
 Level shift goal  0.100 maximum shift  0.100.
 No special actions if energy rises.
 Dynamic level shift is on during FON iterations.
 Inv3:  Mode=1 IEnd=     6768012.
 Iteration    1 A*A^-1 deviation from unit magnitude is 4.44D-15 for   1484.
 Iteration    1 A*A^-1 deviation from orthogonality  is 2.04D-15 for    402    126.
 Iteration    1 A^-1*A deviation from unit magnitude is 4.44D-15 for   1484.
 Iteration    1 A^-1*A deviation from orthogonality  is 1.60D-15 for    454     51.
 Error on total polarization charges =  0.03074
 SCF Done:  E(UM062X) =  -459.382722476     A.U. after   18 cycles
            NFock= 18  Conv=0.77D-08     -V/T= 2.0038
 <Sx>= 0.0000 <Sy>= 0.0000 <Sz>= 0.5000 <S**2>= 0.7649 S= 0.5074
 <L.S>=  0.00000000000    
 SMD-CDS (non-electrostatic) energy       (kcal/mol) =      -2.02
 (included in total energy above)
 Annihilation of the first spin contaminant:
 S**2 before annihilation     0.7649,   after     0.7501
 DoSCS=F DFT=T ScalE2(SS,OS)=  1.000000  1.000000
 Range of M.O.s used for correlation:     1   262
 NBasis=   262 NAE=    36 NBE=    35 NFC=     0 NFV=     0
 NROrb=    262 NOA=    36 NOB=    35 NVA=   226 NVB=   227

 **** Warning!!: The largest alpha MO coefficient is  0.16850089D+03


 **** Warning!!: The largest beta MO coefficient is  0.16816890D+03

 Symmetrizing basis deriv contribution to polar:
 IMax=3 JMax=2 DiffMx= 0.00D+00
 G2DrvN: will do    18 centers at a time, making    1 passes.
 Calling FoFCou, ICntrl=  3107 FMM=F I1Cent=   0 AccDes= 0.00D+00.
 NEqPCM:  Using equilibrium solvation (IEInf=0, Eps=   7.4257, EpsInf=   1.9740)
 G2PCM: DoFxE=T DoFxN=T DoGrad=T DoDP/DQ/DG/TGxP=FFFF NFrqRd=   0 IEInf=0 SqF1=F DoCFld=F IF1Alg=4.
 End of G2Drv F.D. properties file   721 does not exist.
 End of G2Drv F.D. properties file   722 does not exist.
 End of G2Drv F.D. properties file   788 does not exist.
          IDoAtm=11111111111111111
 NEqPCM:  Using equilibrium solvation (IEInf=0, Eps=   7.4257, EpsInf=   1.9740)
          Differentiating once with respect to nuclear coordinates.
 Keep R1 and R2 ints in memory in canonical form, NReq=1222332732.
          There are    54 degrees of freedom in the 1st order CPHF.  IDoFFX=6 NUNeed=     0.
     48 vectors produced by pass  0 Test12= 2.98D-14 1.85D-09 XBig12= 3.49D-01 1.19D-01.
 AX will form    48 AO Fock derivatives at one time.
     48 vectors produced by pass  1 Test12= 2.98D-14 1.85D-09 XBig12= 2.81D-02 5.16D-02.
     48 vectors produced by pass  2 Test12= 2.98D-14 1.85D-09 XBig12= 8.46D-04 7.41D-03.
     48 vectors produced by pass  3 Test12= 2.98D-14 1.85D-09 XBig12= 1.44D-05 1.33D-03.
     48 vectors produced by pass  4 Test12= 2.98D-14 1.85D-09 XBig12= 1.99D-07 1.21D-04.
     48 vectors produced by pass  5 Test12= 2.98D-14 1.85D-09 XBig12= 2.91D-09 6.93D-06.
     46 vectors produced by pass  6 Test12= 2.98D-14 1.85D-09 XBig12= 2.75D-11 5.29D-07.
     29 vectors produced by pass  7 Test12= 2.98D-14 1.85D-09 XBig12= 1.66D-13 4.00D-08.
      2 vectors produced by pass  8 Test12= 2.98D-14 1.85D-09 XBig12= 9.89D-16 3.02D-09.
 InvSVY:  IOpt=1 It=  1 EMax= 5.55D-16
 Solved reduced A of dimension   365 with    54 vectors.
 End of Minotr F.D. properties file   721 does not exist.
 End of Minotr F.D. properties file   722 does not exist.
 End of Minotr F.D. properties file   788 does not exist.

 **********************************************************************

            Population analysis using the SCF Density.

 **********************************************************************

 Alpha  occ. eigenvalues --  -19.67382 -19.61861 -10.68145 -10.59138 -10.58560
 Alpha  occ. eigenvalues --  -10.56610 -10.56193 -10.56123 -10.55982 -10.55972
 Alpha  occ. eigenvalues --   -1.24518  -1.14894  -0.98237  -0.88038  -0.86083
 Alpha  occ. eigenvalues --   -0.81904  -0.71618  -0.70229  -0.65359  -0.62622
 Alpha  occ. eigenvalues --   -0.57241  -0.57213  -0.53815  -0.52839  -0.52773
 Alpha  occ. eigenvalues --   -0.50149  -0.48206  -0.47598  -0.44824  -0.43331
 Alpha  occ. eigenvalues --   -0.41399  -0.38099  -0.36705  -0.33477  -0.32944
 Alpha  occ. eigenvalues --   -0.32314
 Alpha virt. eigenvalues --   -0.02797   0.00859   0.01468   0.02943   0.03295
 Alpha virt. eigenvalues --    0.04418   0.04729   0.05142   0.06056   0.06987
 Alpha virt. eigenvalues --    0.07281   0.07525   0.08512   0.09087   0.09265
 Alpha virt. eigenvalues --    0.10466   0.10774   0.11930   0.13379   0.14988
 Alpha virt. eigenvalues --    0.15118   0.15268   0.15978   0.16151   0.16569
 Alpha virt. eigenvalues --    0.17866   0.18447   0.19943   0.20243   0.20383
 Alpha virt. eigenvalues --    0.21329   0.21541   0.22461   0.22836   0.23183
 Alpha virt. eigenvalues --    0.23388   0.24562   0.24957   0.25930   0.26561
 Alpha virt. eigenvalues --    0.26740   0.27496   0.28334   0.28650   0.29662
 Alpha virt. eigenvalues --    0.30930   0.31350   0.32542   0.32803   0.34321
 Alpha virt. eigenvalues --    0.34633   0.35605   0.37012   0.38473   0.41162
 Alpha virt. eigenvalues --    0.42357   0.46125   0.47303   0.48793   0.50947
 Alpha virt. eigenvalues --    0.53323   0.53973   0.55960   0.56138   0.57841
 Alpha virt. eigenvalues --    0.58573   0.59523   0.60185   0.60838   0.61221
 Alpha virt. eigenvalues --    0.63571   0.64475   0.65232   0.66454   0.67660
 Alpha virt. eigenvalues --    0.68231   0.68374   0.69670   0.72338   0.72933
 Alpha virt. eigenvalues --    0.74580   0.76029   0.76755   0.77713   0.79018
 Alpha virt. eigenvalues --    0.81131   0.83668   0.87075   0.88248   0.89785
 Alpha virt. eigenvalues --    0.91087   0.91438   0.94355   0.96058   0.98093
 Alpha virt. eigenvalues --    1.00825   1.03550   1.04368   1.05619   1.07228
 Alpha virt. eigenvalues --    1.07828   1.09042   1.12529   1.13675   1.13955
 Alpha virt. eigenvalues --    1.15508   1.19420   1.22268   1.22684   1.23117
 Alpha virt. eigenvalues --    1.24376   1.32391   1.35014   1.41525   1.42904
 Alpha virt. eigenvalues --    1.44798   1.49769   1.53094   1.53849   1.54484
 Alpha virt. eigenvalues --    1.55414   1.55862   1.57701   1.59352   1.60651
 Alpha virt. eigenvalues --    1.65863   1.67033   1.68699   1.71448   1.73816
 Alpha virt. eigenvalues --    1.74011   1.74551   1.75312   1.75879   1.78397
 Alpha virt. eigenvalues --    1.80750   1.85463   1.87536   1.90632   1.93779
 Alpha virt. eigenvalues --    1.94847   1.95156   1.95378   1.97580   1.99518
 Alpha virt. eigenvalues --    1.99991   2.03985   2.06036   2.08635   2.10324
 Alpha virt. eigenvalues --    2.14744   2.15299   2.23439   2.25250   2.27386
 Alpha virt. eigenvalues --    2.32461   2.35526   2.42758   2.45014   2.47931
 Alpha virt. eigenvalues --    2.51203   2.53555   2.55194   2.55399   2.60521
 Alpha virt. eigenvalues --    2.63832   2.67094   2.70303   2.70656   2.71436
 Alpha virt. eigenvalues --    2.73266   2.73775   2.75980   2.78165   2.78398
 Alpha virt. eigenvalues --    2.83915   2.84209   2.88661   2.90749   2.94388
 Alpha virt. eigenvalues --    2.96289   2.97252   2.98281   3.00569   3.10511
 Alpha virt. eigenvalues --    3.11445   3.13031   3.17107   3.25467   3.26718
 Alpha virt. eigenvalues --    3.29260   3.34694   3.41983   3.44099   3.45589
 Alpha virt. eigenvalues --    3.54123   3.58545   3.64457   3.68529   3.75171
 Alpha virt. eigenvalues --    3.81513   3.83428   3.91384   4.02193   4.11433
 Alpha virt. eigenvalues --    4.15305   4.16602   4.22056   4.39603   4.82710
 Alpha virt. eigenvalues --    5.09524   5.16284   5.34494   5.48710   5.77446
 Alpha virt. eigenvalues --    5.95646  23.63479  23.93706  23.97132  24.00926
 Alpha virt. eigenvalues --   24.01519  24.10833  24.16836  24.22904  50.01508
 Alpha virt. eigenvalues --   50.15349
  Beta  occ. eigenvalues --  -19.67385 -19.61875 -10.68138 -10.58560 -10.58064
  Beta  occ. eigenvalues --  -10.56645 -10.56120 -10.56056 -10.55975 -10.55959
  Beta  occ. eigenvalues --   -1.24532  -1.14925  -0.97596  -0.87132  -0.85696
  Beta  occ. eigenvalues --   -0.81360  -0.70356  -0.69697  -0.65107  -0.62413
  Beta  occ. eigenvalues --   -0.57253  -0.57059  -0.52515  -0.52321  -0.51814
  Beta  occ. eigenvalues --   -0.49735  -0.48187  -0.46778  -0.44220  -0.43265
  Beta  occ. eigenvalues --   -0.40882  -0.38176  -0.36508  -0.32395  -0.31530
  Beta virt. eigenvalues --   -0.06998  -0.01791   0.00821   0.01455   0.03034
  Beta virt. eigenvalues --    0.03328   0.04414   0.04978   0.05142   0.06625
  Beta virt. eigenvalues --    0.06995   0.07337   0.07905   0.08730   0.09285
  Beta virt. eigenvalues --    0.09467   0.10607   0.11084   0.11894   0.13399
  Beta virt. eigenvalues --    0.14736   0.15167   0.15365   0.16089   0.16236
  Beta virt. eigenvalues --    0.16474   0.18000   0.18508   0.20021   0.20424
  Beta virt. eigenvalues --    0.20611   0.21254   0.21420   0.22558   0.23004
  Beta virt. eigenvalues --    0.23323   0.23743   0.24476   0.25159   0.25730
  Beta virt. eigenvalues --    0.26401   0.27076   0.27518   0.28328   0.28729
  Beta virt. eigenvalues --    0.29849   0.30911   0.31476   0.32663   0.33203
  Beta virt. eigenvalues --    0.34330   0.34895   0.35802   0.37466   0.38827
  Beta virt. eigenvalues --    0.41510   0.42578   0.45889   0.47186   0.47305
  Beta virt. eigenvalues --    0.50214   0.52905   0.53998   0.56189   0.56214
  Beta virt. eigenvalues --    0.57755   0.57987   0.59353   0.59544   0.60327
  Beta virt. eigenvalues --    0.61180   0.63622   0.64559   0.64977   0.66751
  Beta virt. eigenvalues --    0.67662   0.68258   0.68268   0.71121   0.72147
  Beta virt. eigenvalues --    0.72961   0.74348   0.75827   0.76767   0.77657
  Beta virt. eigenvalues --    0.79213   0.81160   0.83604   0.85734   0.88616
  Beta virt. eigenvalues --    0.89413   0.91279   0.92085   0.94266   0.95811
  Beta virt. eigenvalues --    0.98462   1.01068   1.03514   1.04840   1.05593
  Beta virt. eigenvalues --    1.07374   1.07750   1.08974   1.12563   1.13833
  Beta virt. eigenvalues --    1.14262   1.15760   1.19687   1.21978   1.23029
  Beta virt. eigenvalues --    1.24324   1.24668   1.32258   1.35003   1.41516
  Beta virt. eigenvalues --    1.43137   1.45011   1.49769   1.53925   1.54851
  Beta virt. eigenvalues --    1.55231   1.55425   1.56082   1.57955   1.59395
  Beta virt. eigenvalues --    1.61023   1.65912   1.67873   1.69104   1.71524
  Beta virt. eigenvalues --    1.74009   1.74027   1.74624   1.75759   1.75901
  Beta virt. eigenvalues --    1.78659   1.80757   1.85938   1.87594   1.90669
  Beta virt. eigenvalues --    1.93995   1.95222   1.95511   1.95947   1.97900
  Beta virt. eigenvalues --    2.00054   2.00391   2.04117   2.06013   2.08609
  Beta virt. eigenvalues --    2.10307   2.14752   2.15371   2.23465   2.25334
  Beta virt. eigenvalues --    2.27609   2.33270   2.35798   2.43162   2.45176
  Beta virt. eigenvalues --    2.48009   2.51544   2.53555   2.55191   2.55277
  Beta virt. eigenvalues --    2.60630   2.63956   2.67123   2.70458   2.71153
  Beta virt. eigenvalues --    2.71543   2.73273   2.74185   2.76133   2.78305
  Beta virt. eigenvalues --    2.78545   2.83900   2.84506   2.88710   2.91070
  Beta virt. eigenvalues --    2.94274   2.96368   2.97293   2.98145   3.02252
  Beta virt. eigenvalues --    3.10544   3.11694   3.13022   3.17345   3.25896
  Beta virt. eigenvalues --    3.27072   3.29256   3.34763   3.42223   3.44061
  Beta virt. eigenvalues --    3.45824   3.54279   3.59348   3.64509   3.68583
  Beta virt. eigenvalues --    3.75453   3.81852   3.83427   3.91398   4.02292
  Beta virt. eigenvalues --    4.11427   4.15470   4.16731   4.22165   4.39452
  Beta virt. eigenvalues --    4.83022   5.09506   5.16226   5.34470   5.48702
  Beta virt. eigenvalues --    5.77419   5.95639  23.63740  23.93698  23.97739
  Beta virt. eigenvalues --   24.00928  24.01530  24.11066  24.16821  24.22974
  Beta virt. eigenvalues --   50.01513  50.15366
          Condensed to atoms (all electrons):
               1          2          3          4          5          6
     1  C    5.332624   0.197771   0.023484   0.134370  -0.009251  -0.551933
     2  C    0.197771   8.093995   0.334866  -3.811529  -0.005295   1.313509
     3  H    0.023484   0.334866   0.455886  -0.011420  -0.005018  -0.005643
     4  C    0.134370  -3.811529  -0.011420  13.727743   0.407942  -1.734950
     5  H   -0.009251  -0.005295  -0.005018   0.407942   0.431357  -0.056830
     6  C   -0.551933   1.313509  -0.005643  -1.734950  -0.056830  15.000013
     7  C    0.370996   0.577305   0.012837  -3.657001  -0.042012  -1.751402
     8  H   -0.006963  -0.008357   0.000045  -0.015416  -0.000071  -0.038446
     9  C    0.121714   0.579425  -0.025334   0.164192  -0.000539   1.176155
    10  H    0.011788  -0.020913  -0.000042   0.013054   0.000033   0.011183
    11  C    0.133232  -0.801377   0.014398   1.008087   0.060249  -6.816364
    12  O   -0.008995   0.050174   0.000076  -0.003625   0.010338  -0.682495
    13  C   -0.002554  -0.038319   0.000217   0.021040  -0.000652  -0.554548
    14  H   -0.000232   0.000047  -0.000001  -0.016879   0.000129   0.035112
    15  H    0.000090  -0.000971   0.000000   0.002357  -0.000018   0.004255
    16  H    0.000086  -0.000960   0.000000   0.002508  -0.000022   0.004170
    17  O   -0.009943   0.088039  -0.000011  -0.111994  -0.000413   0.073305
               7          8          9         10         11         12
     1  C    0.370996  -0.006963   0.121714   0.011788   0.133232  -0.008995
     2  C    0.577305  -0.008357   0.579425  -0.020913  -0.801377   0.050174
     3  H    0.012837   0.000045  -0.025334  -0.000042   0.014398   0.000076
     4  C   -3.657001  -0.015416   0.164192   0.013054   1.008087  -0.003625
     5  H   -0.042012  -0.000071  -0.000539   0.000033   0.060249   0.010338
     6  C   -1.751402  -0.038446   1.176155   0.011183  -6.816364  -0.682495
     7  C   12.298874   0.356296  -2.265499  -0.033546   0.222798  -0.093404
     8  H    0.356296   0.436469  -0.006311  -0.004745   0.072333   0.001470
     9  C   -2.265499  -0.006311   7.098816   0.354336  -0.607237   0.009078
    10  H   -0.033546  -0.004745   0.354336   0.453914   0.007232   0.000053
    11  C    0.222798   0.072333  -0.607237   0.007232  11.936979   0.491991
    12  O   -0.093404   0.001470   0.009078   0.000053   0.491991   8.407422
    13  C   -0.009276   0.001298  -0.018295   0.000029   0.232820   0.253274
    14  H    0.007323  -0.000002   0.001192   0.000000   0.016841  -0.064882
    15  H   -0.004093  -0.000006  -0.001026   0.000000  -0.010727  -0.031245
    16  H   -0.004177  -0.000006  -0.001020   0.000000  -0.010473  -0.031032
    17  O    0.034997   0.005402   0.023927  -0.000057   0.297495  -0.194538
              13         14         15         16         17
     1  C   -0.002554  -0.000232   0.000090   0.000086  -0.009943
     2  C   -0.038319   0.000047  -0.000971  -0.000960   0.088039
     3  H    0.000217  -0.000001   0.000000   0.000000  -0.000011
     4  C    0.021040  -0.016879   0.002357   0.002508  -0.111994
     5  H   -0.000652   0.000129  -0.000018  -0.000022  -0.000413
     6  C   -0.554548   0.035112   0.004255   0.004170   0.073305
     7  C   -0.009276   0.007323  -0.004093  -0.004177   0.034997
     8  H    0.001298  -0.000002  -0.000006  -0.000006   0.005402
     9  C   -0.018295   0.001192  -0.001026  -0.001020   0.023927
    10  H    0.000029   0.000000   0.000000   0.000000  -0.000057
    11  C    0.232820   0.016841  -0.010727  -0.010473   0.297495
    12  O    0.253274  -0.064882  -0.031245  -0.031032  -0.194538
    13  C    5.221119   0.388844   0.424089   0.423727  -0.083669
    14  H    0.388844   0.479886  -0.022153  -0.022211   0.004187
    15  H    0.424089  -0.022153   0.486730  -0.032694  -0.004417
    16  H    0.423727  -0.022211  -0.032694   0.487353  -0.004574
    17  O   -0.083669   0.004187  -0.004417  -0.004574   8.211699
          Atomic-Atomic Spin Densities.
               1          2          3          4          5          6
     1  C    1.145689  -0.235887   0.008494   0.127686   0.004415  -0.131366
     2  C   -0.235887   0.352838  -0.009892  -0.297954  -0.014086   0.132915
     3  H    0.008494  -0.009892   0.021859   0.012255   0.001129  -0.012967
     4  C    0.127686  -0.297954   0.012255   0.481294   0.011354  -0.102719
     5  H    0.004415  -0.014086   0.001129   0.011354   0.002923  -0.000964
     6  C   -0.131366   0.132915  -0.012967  -0.102719  -0.000964   0.274612
     7  C    0.305984  -0.336386   0.010998   0.059066   0.005631  -0.318087
     8  H    0.003286  -0.002584   0.000010   0.001344   0.000025  -0.005999
     9  C   -0.246089   0.300022  -0.012665  -0.151971  -0.003999   0.249437
    10  H    0.010393  -0.012730   0.000119   0.006717   0.000015  -0.021507
    11  C   -0.126168   0.179712  -0.004875  -0.137769  -0.003872  -0.100027
    12  O   -0.004280   0.007630  -0.000116  -0.003345   0.000095   0.001700
    13  C   -0.000174   0.000993  -0.000012  -0.002740   0.000245  -0.002578
    14  H   -0.000022   0.000083   0.000000  -0.000024   0.000000  -0.000429
    15  H   -0.000007   0.000011   0.000000  -0.000114  -0.000001  -0.000162
    16  H   -0.000007   0.000012   0.000000  -0.000108  -0.000001  -0.000150
    17  O   -0.000081   0.000429  -0.000002  -0.002945  -0.000024   0.004765
               7          8          9         10         11         12
     1  C    0.305984   0.003286  -0.246089   0.010393  -0.126168  -0.004280
     2  C   -0.336386  -0.002584   0.300022  -0.012730   0.179712   0.007630
     3  H    0.010998   0.000010  -0.012665   0.000119  -0.004875  -0.000116
     4  C    0.059066   0.001344  -0.151971   0.006717  -0.137769  -0.003345
     5  H    0.005631   0.000025  -0.003999   0.000015  -0.003872   0.000095
     6  C   -0.318087  -0.005999   0.249437  -0.021507  -0.100027   0.001700
     7  C    1.039171   0.015735  -0.573092   0.028073  -0.224916  -0.012693
     8  H    0.015735   0.002911  -0.011266   0.000893  -0.001675   0.000046
     9  C   -0.573092  -0.011266   0.393484  -0.016637   0.148035   0.005584
    10  H    0.028073   0.000893  -0.016637   0.022193  -0.003418  -0.000025
    11  C   -0.224916  -0.001675   0.148035  -0.003418   0.267741   0.003884
    12  O   -0.012693   0.000046   0.005584  -0.000025   0.003884  -0.000001
    13  C    0.001445   0.000050  -0.000011   0.000001   0.001756   0.000234
    14  H   -0.000076   0.000000   0.000030   0.000000   0.000447  -0.000085
    15  H    0.000008   0.000000   0.000005   0.000000   0.000166   0.000014
    16  H    0.000006   0.000000   0.000005   0.000000   0.000157   0.000026
    17  O    0.001579   0.000158  -0.000322  -0.000001  -0.000768  -0.000612
              13         14         15         16         17
     1  C   -0.000174  -0.000022  -0.000007  -0.000007  -0.000081
     2  C    0.000993   0.000083   0.000011   0.000012   0.000429
     3  H   -0.000012   0.000000   0.000000   0.000000  -0.000002
     4  C   -0.002740  -0.000024  -0.000114  -0.000108  -0.002945
     5  H    0.000245   0.000000  -0.000001  -0.000001  -0.000024
     6  C   -0.002578  -0.000429  -0.000162  -0.000150   0.004765
     7  C    0.001445  -0.000076   0.000008   0.000006   0.001579
     8  H    0.000050   0.000000   0.000000   0.000000   0.000158
     9  C   -0.000011   0.000030   0.000005   0.000005  -0.000322
    10  H    0.000001   0.000000   0.000000   0.000000  -0.000001
    11  C    0.001756   0.000447   0.000166   0.000157  -0.000768
    12  O    0.000234  -0.000085   0.000014   0.000026  -0.000612
    13  C    0.001068   0.000037   0.000025   0.000011  -0.000127
    14  H    0.000037   0.000053   0.000001   0.000000  -0.000002
    15  H    0.000025   0.000001  -0.000111   0.000015   0.000053
    16  H    0.000011   0.000000   0.000015  -0.000113   0.000053
    17  O   -0.000127  -0.000002   0.000053   0.000053  -0.009388
 Mulliken charges and spin densities:
               1          2
     1  C    0.263717   0.861866
     2  C   -0.547410   0.065126
     3  H    0.205659   0.014334
     4  C   -0.118480   0.000027
     5  H    0.210073   0.002884
     6  C    0.574907  -0.033528
     7  C   -0.021015   0.002445
     8  H    0.207008   0.002934
     9  C   -0.603575   0.080548
    10  H    0.207680   0.014086
    11  C   -0.248276  -0.001591
    12  O   -0.113660  -0.001943
    13  C   -0.259145   0.000223
    14  H    0.192799   0.000014
    15  H    0.189828  -0.000098
    16  H    0.189325  -0.000096
    17  O   -0.329435  -0.007233
 Sum of Mulliken charges =   0.00000   1.00000
 Mulliken charges and spin densities with hydrogens summed into heavy atoms:
               1          2
     1  C    0.263717   0.861866
     2  C   -0.341751   0.079460
     4  C    0.091593   0.002911
     6  C    0.574907  -0.033528
     7  C    0.185992   0.005379
     9  C   -0.395895   0.094634
    11  C   -0.248276  -0.001591
    12  O   -0.113660  -0.001943
    13  C    0.312807   0.000044
    17  O   -0.329435  -0.007233
 APT charges:
               1
     1  C    1.123317
     2  C   -1.029795
     3  H   -0.162325
     4  C   -0.441375
     5  H   -0.751437
     6  C   -0.615827
     7  C    0.943595
     8  H    1.288820
     9  C   -1.361686
    10  H    1.857701
    11  C   -1.235382
    12  O   -0.465065
    13  C   -0.997027
    14  H   -0.439544
    15  H    1.642421
    16  H   -0.001173
    17  O    0.644782
 Sum of APT charges =   0.00000
 APT charges with hydrogens summed into heavy atoms:
               1
     1  C    1.123317
     2  C   -1.192121
     4  C   -1.192812
     6  C   -0.615827
     7  C    2.232415
     9  C    0.496015
    11  C   -1.235382
    12  O   -0.465065
    13  C    0.204678
    17  O    0.644782
 Electronic spatial extent (au):  <R**2>=          24827.6656
 Charge=              0.0000 electrons
 Dipole moment (field-independent basis, Debye):
    X=             -1.0834    Y=             -1.7576    Z=              0.6967  Tot=              2.1791
 Quadrupole moment (field-independent basis, Debye-Ang):
   XX=            -54.2501   YY=            -86.6247   ZZ=            -54.6484
   XY=            -10.4198   XZ=             -1.8645   YZ=             -2.1174
 Traceless Quadrupole moment (field-independent basis, Debye-Ang):
   XX=             10.9243   YY=            -21.4503   ZZ=             10.5260
   XY=            -10.4198   XZ=             -1.8645   YZ=             -2.1174
 Octapole moment (field-independent basis, Debye-Ang**2):
  XXX=           -579.3414  YYY=          -1727.5469  ZZZ=           -743.6267  XYY=           -297.5079
  XXY=           -407.9220  XXZ=           -230.2708  XZZ=           -216.8442  YZZ=           -467.0845
  YYZ=           -316.4760  XYZ=            -30.9659
 Hexadecapole moment (field-independent basis, Debye-Ang**3):
 XXXX=          -5593.1952 YYYY=         -26016.9813 ZZZZ=          -6753.2292 XXXY=          -4235.8310
 XXXZ=          -2684.0066 YYYX=          -5540.6749 YYYZ=          -6684.0424 ZZZX=          -2956.9846
 ZZZY=          -5941.2366 XXYY=          -4050.5998 XXZZ=          -2070.3659 YYZZ=          -5048.9211
 XXYZ=          -1754.1560 YYXZ=          -1251.7045 ZZXY=          -1793.4611
 N-N= 4.782401781036D+02 E-N=-2.028458635314D+03  KE= 4.576233956306D+02
  Exact polarizability:       0.000       0.000       0.000       0.000       0.000       0.000
 Approx polarizability:     137.203       1.684     126.383      10.808     -26.847      89.206
                          Isotropic Fermi Contact Couplings
        Atom                 a.u.       MegaHertz       Gauss      10(-4) cm-1
     1  C(13)              0.54933     617.55321     220.35834     205.99358
     2  C(13)              0.02259      25.39278       9.06078       8.47012
     3  H(1)               0.00926      41.40477      14.77425      13.81115
     4  C(13)              0.04019      45.18380      16.12271      15.07170
     5  H(1)               0.00181       8.09117       2.88713       2.69892
     6  C(13)             -0.01007     -11.31691      -4.03816      -3.77492
     7  C(13)              0.03935      44.23355      15.78363      14.75472
     8  H(1)               0.00186       8.32826       2.97173       2.77801
     9  C(13)              0.02250      25.29133       9.02458       8.43628
    10  H(1)               0.00933      41.69182      14.87668      13.90689
    11  C(13)              0.00433       4.87328       1.73891       1.62555
    12  O(17)              0.00022      -0.13426      -0.04791      -0.04478
    13  C(13)              0.00006       0.06858       0.02447       0.02287
    14  H(1)               0.00001       0.04663       0.01664       0.01555
    15  H(1)              -0.00006      -0.25578      -0.09127      -0.08532
    16  H(1)              -0.00006      -0.25421      -0.09071      -0.08479
    17  O(17)             -0.00151       0.91507       0.32652       0.30523
 --------------------------------------------------------
       Center         ----  Spin Dipole Couplings  ----
                      3XX-RR        3YY-RR        3ZZ-RR
 --------------------------------------------------------
     1   Atom        0.607105     -0.359786     -0.247318
     2   Atom        0.100241     -0.015653     -0.084588
     3   Atom        0.003007      0.007286     -0.010294
     4   Atom        0.036903     -0.029043     -0.007860
     5   Atom        0.007314     -0.002318     -0.004995
     6   Atom        0.029668      0.007566     -0.037234
     7   Atom        0.023485     -0.019798     -0.003686
     8   Atom       -0.003604      0.005248     -0.001644
     9   Atom        0.001568      0.051883     -0.053451
    10   Atom       -0.009918      0.016400     -0.006482
    11   Atom        0.002335     -0.001942     -0.000393
    12   Atom        0.004536      0.001597     -0.006132
    13   Atom        0.000835     -0.000396     -0.000438
    14   Atom        0.000714     -0.000387     -0.000327
    15   Atom        0.000606     -0.000270     -0.000336
    16   Atom        0.000535     -0.000338     -0.000198
    17   Atom        0.015172      0.006068     -0.021240
 --------------------------------------------------------
                        XY            XZ            YZ
 --------------------------------------------------------
     1   Atom       -0.426151      0.395850     -0.077552
     2   Atom        0.049146      0.013568     -0.036780
     3   Atom        0.016512     -0.005461     -0.007192
     4   Atom       -0.022393      0.019506      0.006771
     5   Atom        0.005416     -0.000482     -0.000440
     6   Atom        0.002239      0.014492     -0.032512
     7   Atom       -0.031707      0.021993      0.000576
     8   Atom       -0.003289      0.001965     -0.005903
     9   Atom       -0.029671      0.035033     -0.087009
    10   Atom        0.006885     -0.002986     -0.014116
    11   Atom       -0.001755      0.001435      0.000420
    12   Atom        0.000434      0.002277     -0.005408
    13   Atom       -0.000313      0.000422     -0.000158
    14   Atom       -0.000116      0.000260     -0.000020
    15   Atom       -0.000361      0.000242     -0.000074
    16   Atom       -0.000254      0.000412     -0.000107
    17   Atom        0.002131      0.007302     -0.019039
 --------------------------------------------------------


 ---------------------------------------------------------------------------------
              Anisotropic Spin Dipole Couplings in Principal Axis System
 ---------------------------------------------------------------------------------

       Atom             a.u.   MegaHertz   Gauss  10(-4) cm-1        Axes

              Baa    -0.5462   -73.296   -26.154   -24.449  0.4282  0.8327 -0.3510
     1 C(13)  Bbb    -0.3595   -48.237   -17.212   -16.090 -0.1600  0.4521  0.8775
              Bcc     0.9057   121.534    43.366    40.539  0.8894 -0.3195  0.3268
 
              Baa    -0.1059   -14.208    -5.070    -4.739 -0.1646  0.4479  0.8788
     2 C(13)  Bbb    -0.0124    -1.664    -0.594    -0.555 -0.3025  0.8251 -0.4772
              Bcc     0.1183    15.871     5.663     5.294  0.9388  0.3444  0.0003
 
              Baa    -0.0129    -6.896    -2.461    -2.300 -0.1507  0.4384  0.8860
     3 H(1)   Bbb    -0.0112    -5.991    -2.138    -1.998  0.7575 -0.5247  0.3885
              Bcc     0.0242    12.887     4.598     4.299  0.6352  0.7297 -0.2531
 
              Baa    -0.0409    -5.492    -1.960    -1.832  0.3422  0.8602 -0.3780
     4 C(13)  Bbb    -0.0079    -1.061    -0.379    -0.354 -0.1582  0.4493  0.8792
              Bcc     0.0488     6.553     2.338     2.186  0.9262 -0.2411  0.2899
 
              Baa    -0.0051    -2.737    -0.977    -0.913 -0.1599  0.4457  0.8808
     5 H(1)   Bbb    -0.0046    -2.476    -0.883    -0.826 -0.3796  0.7959 -0.4717
              Bcc     0.0098     5.213     1.860     1.739  0.9112  0.4097 -0.0419
 
              Baa    -0.0566    -7.589    -2.708    -2.531 -0.1593  0.4509  0.8782
     6 C(13)  Bbb     0.0223     2.998     1.070     1.000  0.4343  0.8309 -0.3478
              Bcc     0.0342     4.591     1.638     1.531  0.8866 -0.3260  0.3282
 
              Baa    -0.0402    -5.393    -1.924    -1.799  0.5085  0.7998 -0.3190
     7 C(13)  Bbb    -0.0074    -0.995    -0.355    -0.332 -0.1606  0.4521  0.8774
              Bcc     0.0476     6.388     2.279     2.131  0.8460 -0.3949  0.3583
 
              Baa    -0.0050    -2.692    -0.961    -0.898 -0.1780  0.4461  0.8771
     8 H(1)   Bbb    -0.0047    -2.503    -0.893    -0.835  0.9445  0.3274  0.0251
              Bcc     0.0097     5.195     1.854     1.733 -0.2760  0.8329 -0.4797
 
              Baa    -0.1051   -14.103    -5.032    -4.704 -0.1611  0.4550  0.8758
     9 C(13)  Bbb    -0.0120    -1.614    -0.576    -0.538  0.9220  0.3860 -0.0309
              Bcc     0.1171    15.717     5.608     5.243 -0.3521  0.8025 -0.4817
 
              Baa    -0.0133    -7.070    -2.523    -2.358 -0.1480  0.4529  0.8792
    10 H(1)   Bbb    -0.0115    -6.136    -2.190    -2.047  0.9661 -0.1238  0.2265
              Bcc     0.0248    13.206     4.712     4.405  0.2114  0.8829 -0.4192
 
              Baa    -0.0029    -0.391    -0.139    -0.130  0.3831  0.8505 -0.3603
    11 C(13)  Bbb    -0.0005    -0.061    -0.022    -0.020 -0.1695  0.4481  0.8777
              Bcc     0.0034     0.452     0.161     0.151  0.9080 -0.2752  0.3159
 
              Baa    -0.0093     0.671     0.239     0.224 -0.1593  0.4448  0.8813
    12 O(17)  Bbb     0.0039    -0.285    -0.102    -0.095  0.5535  0.7795 -0.2934
              Bcc     0.0053    -0.386    -0.138    -0.129  0.8175 -0.4410  0.3704
 
              Baa    -0.0006    -0.080    -0.029    -0.027 -0.1639  0.4406  0.8826
    13 C(13)  Bbb    -0.0004    -0.060    -0.022    -0.020  0.3336  0.8668 -0.3707
              Bcc     0.0010     0.140     0.050     0.047  0.9284 -0.2336  0.2890
 
              Baa    -0.0004    -0.215    -0.077    -0.072  0.1902  0.8871 -0.4205
    14 H(1)   Bbb    -0.0004    -0.206    -0.073    -0.069 -0.1599  0.4506  0.8783
              Bcc     0.0008     0.420     0.150     0.140  0.9686 -0.0998  0.2276
 
              Baa    -0.0004    -0.218    -0.078    -0.073  0.3917  0.7045 -0.5918
    15 H(1)   Bbb    -0.0004    -0.205    -0.073    -0.068  0.0399  0.6296  0.7759
              Bcc     0.0008     0.423     0.151     0.141  0.9192 -0.3275  0.2185
 
              Baa    -0.0004    -0.217    -0.077    -0.072  0.3128  0.9400 -0.1360
    16 H(1)   Bbb    -0.0004    -0.203    -0.073    -0.068 -0.3405  0.2447  0.9078
              Bcc     0.0008     0.420     0.150     0.140  0.8867 -0.2376  0.3967
 
              Baa    -0.0322     2.330     0.831     0.777 -0.1559  0.4470  0.8808
    17 O(17)  Bbb     0.0147    -1.060    -0.378    -0.354  0.6339  0.7291 -0.2578
              Bcc     0.0175    -1.269    -0.453    -0.423  0.7575 -0.5182  0.3970
 

 ---------------------------------------------------------------------------------

 D2PCM: PCM CHGder 2nd derivatives, FixD1E=F FixD2E=F DoIter=F DoCFld=F I1PDM=0
 Calling FoFJK, ICntrl=    100127 FMM=F ISym2X=0 I1Cent= 0 IOpClX= 1 NMat=1 NMatS=1 NMatT=0.
 -------------------------------------------------------------------
 Center     Atomic                   Forces (Hartrees/Bohr)
 Number     Number              X              Y              Z
 -------------------------------------------------------------------
      1        6          -0.046969139    0.015882649   -0.017385790
      2        6           0.021379287   -0.011925029    0.009806060
      3        1           0.001528994    0.000436426    0.000379139
      4        6           0.001176746    0.006761005   -0.003196863
      5        1           0.000953397   -0.000963154    0.000700179
      6        6          -0.001431576    0.000529156   -0.000500665
      7        6          -0.004561322   -0.004236546    0.001323665
      8        1           0.001518404    0.000066660    0.000208245
      9        6           0.025372776   -0.008280529    0.009370930
     10        1           0.000029620    0.001800376   -0.000907480
     11        6           0.000788073   -0.000218033    0.000240614
     12        8           0.000202632   -0.000100372    0.000078974
     13        6          -0.000091996    0.000027083   -0.000027218
     14        1           0.000020014    0.000004117   -0.000000704
     15        1           0.000009503   -0.000019249    0.000007207
     16        1           0.000008645   -0.000010761    0.000011133
     17        8           0.000065941    0.000246201   -0.000107427
 -------------------------------------------------------------------
 Cartesian Forces:  Max     0.046969139 RMS     0.009255538
 FormGI is forming the generalized inverse of G from B-inverse, IUseBI=4.

 GradGradGradGradGradGradGradGradGradGradGradGradGradGradGradGradGradGrad
 Berny optimization.
 Internal  Forces:  Max     0.029108378 RMS     0.005591192
 Search for a local minimum.
 Step number   1 out of a maximum of   82
 All quantities printed in internal units (Hartrees-Bohrs-Radians)
 Mixed Optimization -- RFO/linear search
 Second derivative matrix not updated -- analytic derivatives used.
 ITU=  0
     Eigenvalues ---    0.00301   0.00417   0.01650   0.01878   0.01955
     Eigenvalues ---    0.02159   0.02188   0.02595   0.02696   0.03056
     Eigenvalues ---    0.03259   0.07115   0.08318   0.08476   0.10745
     Eigenvalues ---    0.11040   0.11465   0.12257   0.13304   0.16548
     Eigenvalues ---    0.18892   0.18955   0.19096   0.20628   0.20758
     Eigenvalues ---    0.23614   0.24908   0.25852   0.28472   0.34691
     Eigenvalues ---    0.34955   0.35603   0.35713   0.36028   0.36483
     Eigenvalues ---    0.36855   0.37940   0.38607   0.41788   0.42521
     Eigenvalues ---    0.46228   0.47677   0.49725   0.51547   0.89368
 RFO step:  Lambda=-9.16309049D-03 EMin= 3.00821006D-03
 Linear search not attempted -- first point.
 Iteration  1 RMS(Cart)=  0.02338373 RMS(Int)=  0.00101439
 Iteration  2 RMS(Cart)=  0.00147331 RMS(Int)=  0.00035072
 Iteration  3 RMS(Cart)=  0.00000060 RMS(Int)=  0.00035072
 Variable       Old X    -DE/DX   Delta X   Delta X   Delta X     New X
                                 (Linear)    (Quad)   (Total)
    R1        2.64536  -0.01891   0.00000  -0.05127  -0.05066   2.59470
    R2        2.64832  -0.01847   0.00000  -0.05300  -0.05239   2.59593
    R3        2.05245  -0.00015   0.00000  -0.00436  -0.00436   2.04809
    R4        2.62619   0.00135   0.00000   0.00996   0.00996   2.63615
    R5        2.04557  -0.00014   0.00000   0.00063   0.00063   2.04620
    R6        2.63578   0.00305   0.00000   0.00412   0.00353   2.63931
    R7        2.63599   0.00246   0.00000   0.00306   0.00246   2.63845
    R8        2.82243  -0.00097   0.00000  -0.00248  -0.00248   2.81995
    R9        2.04753  -0.00017   0.00000   0.00041   0.00041   2.04794
   R10        2.62282   0.00083   0.00000   0.01071   0.01070   2.63352
   R11        2.04883   0.00117   0.00000  -0.00073  -0.00073   2.04810
   R12        2.52159  -0.00005   0.00000   0.00066   0.00066   2.52224
   R13        2.27960   0.00026   0.00000   0.00058   0.00058   2.28018
   R14        2.70810   0.00005   0.00000  -0.00010  -0.00010   2.70799
   R15        2.05427  -0.00002   0.00000   0.00000   0.00000   2.05427
   R16        2.06037  -0.00002   0.00000  -0.00004  -0.00004   2.06033
   R17        2.06025  -0.00001   0.00000  -0.00001  -0.00001   2.06024
    A1        2.06141   0.02911   0.00000   0.12691   0.12851   2.18992
    A2        2.10988   0.00590   0.00000   0.02475   0.02448   2.13436
    A3        2.11733  -0.01508   0.00000  -0.07541  -0.07488   2.04245
    A4        2.05596   0.00918   0.00000   0.05068   0.05041   2.10638
    A5        2.10092  -0.00151   0.00000  -0.00670  -0.00636   2.09456
    A6        2.08747  -0.00008   0.00000   0.00575   0.00508   2.09254
    A7        2.09480   0.00159   0.00000   0.00095   0.00129   2.09608
    A8        2.09459   0.00094   0.00000   0.01205   0.01077   2.10536
    A9        2.12629  -0.00010   0.00000  -0.00447  -0.00383   2.12246
   A10        2.06231  -0.00084   0.00000  -0.00758  -0.00694   2.05537
   A11        2.08175   0.00170   0.00000   0.00145   0.00180   2.08354
   A12        2.09139  -0.00027   0.00000   0.00557   0.00487   2.09627
   A13        2.11004  -0.00143   0.00000  -0.00702  -0.00667   2.10337
   A14        2.11415  -0.01462   0.00000  -0.07483  -0.07432   2.03983
   A15        2.08225   0.00899   0.00000   0.04961   0.04935   2.13160
   A16        2.08678   0.00563   0.00000   0.02522   0.02497   2.11175
   A17        1.96577  -0.00024   0.00000   0.00054   0.00054   1.96631
   A18        2.16536   0.00001   0.00000   0.00080   0.00080   2.16616
   A19        2.15205   0.00023   0.00000  -0.00134  -0.00134   2.15071
   A20        2.02282   0.00002   0.00000  -0.00017  -0.00017   2.02266
   A21        1.84461  -0.00001   0.00000  -0.00010  -0.00010   1.84451
   A22        1.92527  -0.00001   0.00000   0.00019   0.00019   1.92547
   A23        1.92599  -0.00001   0.00000   0.00008   0.00008   1.92608
   A24        1.92637   0.00001   0.00000  -0.00005  -0.00005   1.92631
   A25        1.92652   0.00001   0.00000  -0.00010  -0.00010   1.92642
   A26        1.91426   0.00002   0.00000  -0.00003  -0.00003   1.91423
    D1        3.13161   0.00019   0.00000   0.00769   0.00780   3.13941
    D2       -0.00539   0.00007   0.00000   0.00400   0.00408  -0.00131
    D3        0.00691  -0.00012   0.00000  -0.00509  -0.00515   0.00176
    D4       -3.13706  -0.00001   0.00000  -0.00261  -0.00273  -3.13980
    D5       -3.14109  -0.00001   0.00000   0.00004   0.00014  -3.14096
    D6        0.00051  -0.00004   0.00000  -0.00070  -0.00054  -0.00003
    D7        0.00496  -0.00013   0.00000  -0.00349  -0.00347   0.00149
    D8       -3.13663  -0.00016   0.00000  -0.00423  -0.00414  -3.14077
    D9        0.00303  -0.00008   0.00000  -0.00225  -0.00222   0.00081
   D10       -3.13749  -0.00005   0.00000  -0.00178  -0.00182  -3.13931
   D11       -3.13856  -0.00011   0.00000  -0.00298  -0.00289  -3.14145
   D12        0.00411  -0.00008   0.00000  -0.00252  -0.00249   0.00162
   D13        3.13961   0.00006   0.00000   0.00139   0.00127   3.14088
   D14       -0.00153   0.00004   0.00000   0.00126   0.00118  -0.00035
   D15       -0.00302   0.00003   0.00000   0.00094   0.00089  -0.00213
   D16        3.13903   0.00001   0.00000   0.00081   0.00080   3.13982
   D17       -0.00399  -0.00005   0.00000  -0.00203  -0.00199  -0.00598
   D18        3.13661  -0.00002   0.00000  -0.00145  -0.00142   3.13519
   D19        3.13866  -0.00002   0.00000  -0.00158  -0.00162   3.13705
   D20       -0.00392   0.00001   0.00000  -0.00101  -0.00104  -0.00496
   D21       -0.00354   0.00014   0.00000   0.00287   0.00268  -0.00086
   D22        3.14044   0.00003   0.00000   0.00034   0.00025   3.14069
   D23        3.13851   0.00013   0.00000   0.00273   0.00259   3.14110
   D24       -0.00069   0.00001   0.00000   0.00020   0.00016  -0.00053
   D25        3.13643   0.00003   0.00000   0.00094   0.00094   3.13737
   D26       -0.00417   0.00000   0.00000   0.00037   0.00037  -0.00380
   D27        3.14115  -0.00001   0.00000  -0.00055  -0.00055   3.14060
   D28       -1.05970  -0.00001   0.00000  -0.00057  -0.00057  -1.06027
   D29        1.05826   0.00000   0.00000  -0.00042  -0.00042   1.05784
         Item               Value     Threshold  Converged?
 Maximum Force            0.029108     0.000015     NO 
 RMS     Force            0.005591     0.000010     NO 
 Maximum Displacement     0.146447     0.000060     NO 
 RMS     Displacement     0.023250     0.000040     NO 
 Predicted change in Energy=-4.764444D-03
 GradGradGradGradGradGradGradGradGradGradGradGradGradGradGradGradGradGrad

                          Input orientation:                          
 ---------------------------------------------------------------------
 Center     Atomic      Atomic             Coordinates (Angstroms)
 Number     Number       Type             X           Y           Z
 ---------------------------------------------------------------------
      1          6           0        6.162743    7.035789    5.161061
      2          6           0        5.079601    6.221429    5.382205
      3          1           0        5.166800    5.266388    5.887104
      4          6           0        3.842031    6.674631    4.925003
      5          1           0        2.955446    6.071191    5.074303
      6          6           0        3.748841    7.907599    4.275561
      7          6           0        4.884871    8.694616    4.076978
      8          1           0        4.789402    9.647660    3.569980
      9          6           0        6.127848    8.254364    4.527877
     10          1           0        7.019104    8.853224    4.380670
     11          6           0        2.444450    8.430610    3.773720
     12          8           0        1.430067    7.596483    4.011885
     13          6           0        0.141572    8.033881    3.562466
     14          1           0       -0.549887    7.241023    3.836295
     15          1           0       -0.135191    8.965948    4.055780
     16          1           0        0.145537    8.177626    2.481759
     17          8           0        2.311062    9.490711    3.213076
 ---------------------------------------------------------------------
                    Distance matrix (angstroms):
                    1          2          3          4          5
     1  C    0.000000
     2  C    1.373056   0.000000
     3  H    2.156344   1.083804   0.000000
     4  C    2.360479   1.394993   2.159584   0.000000
     5  H    3.350332   2.151605   2.489667   1.082803   0.000000
     6  C    2.714974   2.416351   3.403480   1.396663   2.154032
     7  C    2.357944   2.803246   3.887003   2.426314   3.405832
     8  H    3.352532   3.886828   4.970618   3.401838   4.291563
     9  C    1.373705   2.441623   3.420396   2.806818   3.889596
    10  H    2.155327   3.419223   4.308801   3.890547   4.973343
    11  C    4.206654   3.796277   4.678662   2.522329   2.742168
    12  O    4.902367   4.133720   4.786331   2.738825   2.404585
    13  C    6.309215   5.566018   6.189982   4.171026   3.749092
    14  H    6.845183   5.926259   6.386354   4.560156   3.897247
    15  H    6.679156   6.040351   6.719494   4.671614   4.355347
    16  H    6.684999   6.048494   6.729396   4.678942   4.365082
    17  O    4.965554   4.801888   5.757653   3.633849   3.946202
                    6          7          8          9         10
     6  C    0.000000
     7  C    1.396208   0.000000
     8  H    2.146725   1.083722   0.000000
     9  C    2.417351   1.393601   2.156450   0.000000
    10  H    3.405859   2.161558   2.501982   1.083808   0.000000
    11  C    1.492253   2.473322   2.649816   3.763939   4.634053
    12  O    2.354364   3.625714   3.960775   4.771604   5.740447
    13  C    3.679244   4.816657   4.920027   6.067630   6.974326
    14  H    4.372223   5.630938   5.862665   6.789499   7.757909
    15  H    4.031639   5.027435   4.995233   6.320988   7.162555
    16  H    4.034159   5.027255   4.991063   6.323016   7.162975
    17  O    2.387954   2.829238   2.508821   4.221979   4.892374
                   11         12         13         14         15
    11  C    0.000000
    12  O    1.334714   0.000000
    13  C    2.346331   1.433009   0.000000
    14  H    3.222590   2.019258   1.087070   0.000000
    15  H    2.649659   2.080239   1.090278   1.787599   0.000000
    16  H    2.649182   2.080633   1.090232   1.787627   1.782639
    17  O    1.206618   2.236593   2.636496   3.692496   2.640015
                   16         17
    16  H    0.000000
    17  O    2.636004   0.000000
 Symmetry turned off by external request.
 Stoichiometry    C8H7O2(2)
 Framework group  C1[X(C8H7O2)]
 Deg. of freedom    45
 Full point group                 C1      NOp   1
 Rotational constants (GHZ):           3.5214948           0.8766705           0.7050651
 Standard basis: 6-311+G(d,p) (5D, 7F)
   262 basis functions,   416 primitive gaussians,   272 cartesian basis functions
    36 alpha electrons       35 beta electrons
       nuclear repulsion energy       479.3397695981 Hartrees.
 NAtoms=   17 NActive=   17 NUniq=   17 SFac= 1.00D+00 NAtFMM=   60 NAOKFM=F Big=F
 Integral buffers will be    131072 words long.
 Raffenetti 2 integral format.
 Two-electron integral symmetry is turned off.
 ------------------------------------------------------------------------------
 Polarizable Continuum Model (PCM)
 =================================
 Model                : PCM.
 Atomic radii         : SMD-Coulomb.
 Polarization charges : Total charges.
 Charge compensation  : None.
 Solution method      : Matrix inversion.
 Cavity type          : VdW (van der Waals Surface) (Alpha=1.000).
 Cavity algorithm     : GePol (No added spheres)
                        Default sphere list used, NSphG=   17.
                        Lebedev-Laikov grids with approx.  5.0 points / Ang**2.
                        Smoothing algorithm: York/Karplus (Gamma=1.0000).
                        Polarization charges: spherical gaussians, with
                                              point-specific exponents (IZeta= 3).
                        Self-potential: point-specific (ISelfS= 7).
                        Self-field    : sphere-specific E.n sum rule (ISelfD= 2).
 1st derivatives      : Analytical E(r).r(x)/FMM algorithm (CHGder, D1EAlg=3).
                        Cavity 1st derivative terms included.
 Solvent              : TetraHydroFuran, Eps=   7.425700 Eps(inf)=   1.974025
 ------------------------------------------------------------------------------
 Spheres list:
 ISph  on   Nord     Re0    Alpha      Xe            Ye            Ze
    1   C      1    1.8500  1.000      6.162743      7.035789      5.161061
    2   C      2    1.8500  1.000      5.079601      6.221429      5.382205
    3   H      3    1.2000  1.000      5.166800      5.266388      5.887104
    4   C      4    1.8500  1.000      3.842031      6.674631      4.925003
    5   H      5    1.2000  1.000      2.955446      6.071191      5.074303
    6   C      6    1.8500  1.000      3.748841      7.907599      4.275561
    7   C      7    1.8500  1.000      4.884871      8.694616      4.076978
    8   H      8    1.2000  1.000      4.789402      9.647660      3.569980
    9   C      9    1.8500  1.000      6.127848      8.254364      4.527877
   10   H     10    1.2000  1.000      7.019104      8.853224      4.380670
   11   C     11    1.8500  1.000      2.444450      8.430610      3.773720
   12   O     12    2.2940  1.000      1.430067      7.596483      4.011885
   13   C     13    1.8500  1.000      0.141572      8.033881      3.562466
   14   H     14    1.2000  1.000     -0.549887      7.241023      3.836295
   15   H     15    1.2000  1.000     -0.135191      8.965948      4.055780
   16   H     16    1.2000  1.000      0.145537      8.177626      2.481759
   17   O     17    2.2940  1.000      2.311062      9.490711      3.213076
 ------------------------------------------------------------------------------
 ------------------------------------------------------------------------------
 Atomic radii for non-electrostatic terms: SMD-CDS.
 ------------------------------------------------------------------------------
 Nuclear repulsion after PCM non-electrostatic terms =      479.3364829883 Hartrees.
 One-electron integrals computed using PRISM.
 NBasis=   262 RedAO= T EigKep=  2.08D-06  NBF=   262
 NBsUse=   262 1.00D-06 EigRej= -1.00D+00 NBFU=   262
 Initial guess from the checkpoint file:  "4-cooch3-ph-opt-freq-thf.chk"
 B after Tr=    -0.012612    0.008149   -0.011598
         Rot=    1.000000   -0.000335   -0.000021    0.000171 Ang=  -0.04 deg.
 Initial guess <Sx>= 0.0000 <Sy>= 0.0000 <Sz>= 0.5000 <S**2>= 0.7645 S= 0.5072
 ExpMin= 4.38D-02 ExpMax= 8.59D+03 ExpMxC= 1.30D+03 IAcc=3 IRadAn=         5 AccDes= 0.00D+00
 Harris functional with IExCor= 1009 and IRadAn=       5 diagonalized for initial guess.
 HarFok:  IExCor= 1009 AccDes= 0.00D+00 IRadAn=         5 IDoV= 1 UseB2=F ITyADJ=14
 ICtDFT=  3500011 ScaDFX=  1.000000  1.000000  1.000000  1.000000
 FoFCou: FMM=F IPFlag=           0 FMFlag=      100000 FMFlg1=           0
         NFxFlg=           0 DoJE=T BraDBF=F KetDBF=T FulRan=T
         wScrn=  0.000000 ICntrl=       500 IOpCl=  0 I1Cent=   200000004 NGrid=           0
         NMat0=    1 NMatS0=      1 NMatT0=    0 NMatD0=    1 NMtDS0=    0 NMtDT0=    0
 Symmetry not used in FoFCou.
 Requested convergence on RMS density matrix=1.00D-08 within 128 cycles.
 Requested convergence on MAX density matrix=1.00D-06.
 Requested convergence on             energy=1.00D-06.
 Level shift goal  0.100 maximum shift  0.100.
 No special actions if energy rises.
 Dynamic level shift is on during FON iterations.
 Inv3:  Mode=1 IEnd=     6804108.
 Iteration    1 A*A^-1 deviation from unit magnitude is 5.33D-15 for   1496.
 Iteration    1 A*A^-1 deviation from orthogonality  is 1.70D-15 for   1499   1411.
 Iteration    1 A^-1*A deviation from unit magnitude is 4.66D-15 for   1496.
 Iteration    1 A^-1*A deviation from orthogonality  is 1.57D-15 for    453     51.
 Error on total polarization charges =  0.03068
 SCF Done:  E(UM062X) =  -459.387488535     A.U. after   15 cycles
            NFock= 15  Conv=0.74D-08     -V/T= 2.0036
 <Sx>= 0.0000 <Sy>= 0.0000 <Sz>= 0.5000 <S**2>= 0.7629 S= 0.5065
 <L.S>=  0.00000000000    
 SMD-CDS (non-electrostatic) energy       (kcal/mol) =      -2.06
 (included in total energy above)
 Annihilation of the first spin contaminant:
 S**2 before annihilation     0.7629,   after     0.7501
 D1PCM: PCM CHGder 1st derivatives, ID1Alg=3 FixD1E=F DoIter=F DoCFld=F I1PDM=0.
 Calling FoFJK, ICntrl=      2127 FMM=F ISym2X=0 I1Cent= 0 IOpClX= 1 NMat=1 NMatS=1 NMatT=0.
 -------------------------------------------------------------------
 Center     Atomic                   Forces (Hartrees/Bohr)
 Number     Number              X              Y              Z
 -------------------------------------------------------------------
      1        6          -0.001236803    0.000267803   -0.000460272
      2        6           0.000301649   -0.002091651    0.001058623
      3        1           0.000078976   -0.000087728    0.000134376
      4        6          -0.000555804    0.000137227   -0.000155866
      5        1          -0.000042218   -0.000037110    0.000020469
      6        6          -0.000412346    0.000159568   -0.000138549
      7        6          -0.000441944    0.000344945   -0.000267121
      8        1           0.000024758    0.000050199   -0.000026277
      9        6           0.002259701    0.000989220   -0.000049963
     10        1          -0.000041643    0.000305872   -0.000147629
     11        6           0.000068613   -0.000022841   -0.000005049
     12        8           0.000008403   -0.000012678    0.000011064
     13        6           0.000000721   -0.000001912   -0.000002078
     14        1           0.000001169   -0.000004137    0.000004052
     15        1          -0.000002997   -0.000003820    0.000006420
     16        1          -0.000003100   -0.000000302    0.000005174
     17        8          -0.000007136    0.000007345    0.000012624
 -------------------------------------------------------------------
 Cartesian Forces:  Max     0.002259701 RMS     0.000535085

 GradGradGradGradGradGradGradGradGradGradGradGradGradGradGradGradGradGrad
 Berny optimization.
 Using GEDIIS/GDIIS optimizer.
 FormGI is forming the generalized inverse of G from B-inverse, IUseBI=4.
 Internal  Forces:  Max     0.001548027 RMS     0.000391237
 Search for a local minimum.
 Step number   2 out of a maximum of   82
 All quantities printed in internal units (Hartrees-Bohrs-Radians)
 Mixed Optimization -- En-DIIS/RFO-DIIS
 Update second derivatives using D2CorX and points    1    2
 DE= -4.77D-03 DEPred=-4.76D-03 R= 1.00D+00
 TightC=F SS=  1.41D+00  RLast= 2.00D-01 DXNew= 5.0454D-01 5.9947D-01
 Trust test= 1.00D+00 RLast= 2.00D-01 DXMaxT set to 5.05D-01
 ITU=  1  0
 Use linear search instead of GDIIS.
     Eigenvalues ---    0.00301   0.00417   0.01650   0.01878   0.01953
     Eigenvalues ---    0.02159   0.02188   0.02593   0.02696   0.03052
     Eigenvalues ---    0.03256   0.07115   0.08318   0.08476   0.10743
     Eigenvalues ---    0.11035   0.11463   0.12257   0.13304   0.16546
     Eigenvalues ---    0.18758   0.18955   0.19096   0.20362   0.20632
     Eigenvalues ---    0.23611   0.24900   0.25850   0.28472   0.34691
     Eigenvalues ---    0.34955   0.35618   0.35729   0.36059   0.36491
     Eigenvalues ---    0.36855   0.38002   0.38797   0.41798   0.42952
     Eigenvalues ---    0.46234   0.47674   0.49730   0.51862   0.89369
 RFO step:  Lambda=-2.50569768D-05 EMin= 3.00820982D-03
 Quartic linear search produced a step of  0.04311.
 Iteration  1 RMS(Cart)=  0.00327134 RMS(Int)=  0.00001770
 Iteration  2 RMS(Cart)=  0.00000745 RMS(Int)=  0.00001633
 Iteration  3 RMS(Cart)=  0.00000000 RMS(Int)=  0.00001633
 Variable       Old X    -DE/DX   Delta X   Delta X   Delta X     New X
                                 (Linear)    (Quad)   (Total)
    R1        2.59470   0.00095  -0.00218   0.00394   0.00178   2.59648
    R2        2.59593   0.00104  -0.00226   0.00404   0.00181   2.59773
    R3        2.04809   0.00015  -0.00019   0.00020   0.00002   2.04811
    R4        2.63615   0.00081   0.00043   0.00149   0.00192   2.63807
    R5        2.04620   0.00006   0.00003   0.00018   0.00021   2.04641
    R6        2.63931   0.00080   0.00015   0.00111   0.00123   2.64055
    R7        2.63845   0.00080   0.00011   0.00112   0.00120   2.63965
    R8        2.81995  -0.00008  -0.00011  -0.00007  -0.00018   2.81977
    R9        2.04794   0.00005   0.00002   0.00018   0.00019   2.04813
   R10        2.63352   0.00079   0.00046   0.00161   0.00207   2.63560
   R11        2.04810   0.00015  -0.00003   0.00003   0.00000   2.04810
   R12        2.52224   0.00000   0.00003   0.00007   0.00010   2.52235
   R13        2.28018   0.00000   0.00003   0.00002   0.00004   2.28022
   R14        2.70799   0.00000   0.00000  -0.00002  -0.00003   2.70797
   R15        2.05427   0.00000   0.00000   0.00000   0.00000   2.05427
   R16        2.06033   0.00000   0.00000   0.00001   0.00001   2.06034
   R17        2.06024   0.00000   0.00000  -0.00001  -0.00001   2.06023
    A1        2.18992   0.00155   0.00554   0.00210   0.00771   2.19763
    A2        2.13436   0.00046   0.00106   0.00025   0.00129   2.13565
    A3        2.04245  -0.00107  -0.00323  -0.00201  -0.00521   2.03724
    A4        2.10638   0.00061   0.00217   0.00176   0.00392   2.11029
    A5        2.09456  -0.00005  -0.00027   0.00041   0.00015   2.09471
    A6        2.09254   0.00007   0.00022   0.00030   0.00049   2.09303
    A7        2.09608  -0.00002   0.00006  -0.00071  -0.00064   2.09544
    A8        2.10536   0.00047   0.00046   0.00138   0.00179   2.10715
    A9        2.12246  -0.00025  -0.00016  -0.00076  -0.00090   2.12157
   A10        2.05537  -0.00022  -0.00030  -0.00062  -0.00089   2.05447
   A11        2.08354   0.00000   0.00008  -0.00065  -0.00056   2.08299
   A12        2.09627   0.00007   0.00021   0.00052   0.00070   2.09697
   A13        2.10337  -0.00007  -0.00029   0.00013  -0.00014   2.10323
   A14        2.03983  -0.00108  -0.00320  -0.00230  -0.00548   2.03435
   A15        2.13160   0.00085   0.00213   0.00264   0.00476   2.13636
   A16        2.11175   0.00023   0.00108  -0.00034   0.00072   2.11247
   A17        1.96631  -0.00003   0.00002   0.00005   0.00007   1.96638
   A18        2.16616   0.00002   0.00003   0.00008   0.00011   2.16628
   A19        2.15071   0.00001  -0.00006  -0.00013  -0.00019   2.15053
   A20        2.02266   0.00001  -0.00001  -0.00001  -0.00001   2.02265
   A21        1.84451   0.00000   0.00000  -0.00001  -0.00002   1.84449
   A22        1.92547   0.00000   0.00001   0.00002   0.00003   1.92550
   A23        1.92608   0.00000   0.00000   0.00002   0.00002   1.92610
   A24        1.92631   0.00000   0.00000  -0.00002  -0.00002   1.92629
   A25        1.92642   0.00000   0.00000   0.00000   0.00000   1.92641
   A26        1.91423   0.00000   0.00000   0.00000   0.00000   1.91423
    D1        3.13941   0.00005   0.00034   0.00219   0.00253  -3.14125
    D2       -0.00131   0.00002   0.00018   0.00105   0.00123  -0.00009
    D3        0.00176  -0.00003  -0.00022  -0.00104  -0.00126   0.00049
    D4       -3.13980  -0.00002  -0.00012  -0.00104  -0.00117  -3.14096
    D5       -3.14096   0.00001   0.00001   0.00003   0.00005  -3.14091
    D6       -0.00003   0.00000  -0.00002  -0.00026  -0.00027  -0.00030
    D7        0.00149  -0.00003  -0.00015  -0.00109  -0.00124   0.00025
    D8       -3.14077  -0.00003  -0.00018  -0.00138  -0.00155   3.14087
    D9        0.00081  -0.00001  -0.00010  -0.00046  -0.00055   0.00026
   D10       -3.13931  -0.00001  -0.00008  -0.00035  -0.00043  -3.13973
   D11       -3.14145  -0.00002  -0.00012  -0.00075  -0.00087   3.14087
   D12        0.00162  -0.00002  -0.00011  -0.00063  -0.00074   0.00088
   D13        3.14088   0.00001   0.00005   0.00049   0.00054   3.14142
[...]
   yy         0.746502D+02      0.110620D+02      0.123082D+02
   zx        -0.295293D+01     -0.437579D+00     -0.486872D+00
   zy         0.673157D+00      0.997516D-01      0.110989D+00
   zz         0.138374D+03      0.205049D+02      0.228147D+02

 ----------------------------------------------------------------------
 Unable to Open any file for archive entry.
 1\1\GINC-CN015\Freq\UM062X\6-311+G(d,p)\C8H7O2(2)\TAHMINAAFROZ\11-May-
 2025\0\\#N Geom=AllCheck Guess=TCheck SCRF=Check GenChk UM062X/6-311+G
 (d,p) Freq\\4-cooch3-ph-opt-freq-thf\\0,2\C,6.1596307608,7.0356123339,
 5.158010438\C,5.0785978272,6.2184836132,5.3840076095\H,5.1681112819,5.
 2647619025,5.8910789496\C,3.8406684646,6.6743285432,4.9270455986\H,2.9
 526566642,6.0730537297,5.0773839351\C,3.7489880607,7.9077114103,4.2766
 375169\C,4.8852368554,8.6951070852,4.0759588405\H,4.7883517,9.64794808
 32,3.5686255803\C,6.1303226432,8.2554140362,4.5252789627\H,7.021252212
 3,8.8544668041,4.3766666345\C,2.4446103889,8.4312460592,3.7756040302\O
 ,1.4306277969,7.5955801671,4.0103698343\C,0.1422098095,8.0333427711,3.
 5611318079\H,-0.5486747569,7.2385840808,3.8308808435\H,-0.1362618853,8
 .9630757882,4.0578882324\H,0.1473355249,8.1814888474,2.4810268467\O,2.
 3106336516,9.4929677445,3.2181283393\\Version=AS64L-G16RevC.01\HF=-459
 .3875094\S2=0.762971\S2-1=0.\S2A=0.750073\RMSD=2.299e-09\RMSF=4.029e-0
 6\ZeroPoint=0.1314889\Thermal=0.1401437\ETot=-459.2473657\HTot=-459.24
 64215\GTot=-459.2908929\Dipole=-0.4002366,-0.6957517,0.2811549\DipoleD
 eriv=-0.0227274,0.1137706,-0.0432167,0.1125859,0.1338353,-0.0982945,-0
 .044009,-0.0999249,-0.0561256,-0.3584901,-0.0731039,-0.0041673,0.01144
 7,-0.0305173,-0.051434,-0.0463595,-0.0642192,-0.1067533,0.1332466,-0.0
 026697,-0.0107146,0.0109716,0.0425147,0.08311,-0.0179335,0.0813599,0.1
 564327,0.1409514,0.0138418,0.0447319,-0.2004806,0.0093586,-0.1137561,0
 .1539304,-0.0746308,-0.07616,0.0532493,-0.0691633,0.0143753,-0.0452359
 ,0.1044321,0.0279602,0.000444,0.021835,0.1634617,-0.6293821,0.1740259,
 -0.1923186,0.144252,-0.1708283,0.0854391,-0.1755812,0.0888615,-0.13376
 26,0.2033686,-0.1437457,0.135204,0.0946985,-0.0432179,-0.0359153,0.016
 4098,-0.0759729,-0.1044207,0.1302031,0.031623,-0.0233801,-0.014632,0.0
 562621,0.0576592,-0.0008551,0.0655284,0.1408225,-0.1189135,0.1968997,-
 0.0993322,0.1002662,-0.193564,0.0495268,-0.0486761,0.0667127,-0.174809
 7,0.0447701,-0.0586445,0.0021368,-0.0709288,0.105708,0.0368357,0.00645
 77,0.0380525,0.1833114,2.6440191,-0.0495596,0.4316034,0.3561078,1.7222
 604,-0.5938756,0.2295499,-0.6659979,0.790569,-2.1639978,-0.2647331,-0.
 1945033,-0.4798301,-0.8116993,0.1371377,-0.0853572,0.1769387,-0.467872
 5,1.0125065,-0.0369337,0.1437327,-0.151143,0.3186116,-0.0274405,0.2025
 079,-0.0071531,0.3553797,-0.025448,-0.0381275,-0.0067694,-0.1045157,-0
 .0062871,0.0420822,0.0247514,0.0535242,0.096019,-0.0215237,-0.0208769,
 -0.0389756,0.1015801,-0.0260734,-0.0726844,-0.0149045,-0.0887897,0.028
 73,-0.0263252,0.0000336,0.0572252,0.0537916,0.0966783,0.0199919,-0.056
 1289,0.004417,-0.0889428,-0.9955068,0.2273632,-0.2156315,0.0810655,-1.
 3074737,0.4536575,-0.1442461,0.4794585,-0.705879\Polar=152.242045,0.85
 98667,125.5588051,13.8351764,-26.8914694,88.984728\Quadrupole=8.159388
 6,-16.0437296,7.884341,-7.2304329,-1.2222395,-1.6101981\PG=C01 [X(C8H7
 O2)]\NImag=0\\0.40382518,0.13653649,0.52013036,-0.01077569,-0.20514293
 ,0.17741407,-0.25142441,-0.10561346,0.01830337,0.60340221,-0.13947881,
 -0.18808058,0.04513125,0.04769698,0.62571822,0.03570218,0.05123052,-0.
 07141196,0.06161953,-0.24880902,0.26430752,0.00506747,-0.02051218,0.01
 168618,-0.05456761,0.01737086,-0.01240117,0.05494865,-0.00068609,-0.01
 253328,0.00569375,0.02244093,-0.27449289,0.12678160,-0.01924745,0.2877
 9260,0.00149619,0.00209168,-0.00202324,-0.01502499,0.12591542,-0.10355
 512,0.01559801,-0.13925730,0.09848465,-0.06661974,-0.04975760,0.011334
 99,-0.27966158,0.09523787,-0.08807866,0.00196920,-0.00161603,0.0001819
 9,0.70786308,0.00864499,0.05698411,-0.02133507,0.01897498,-0.13326681,
 0.03996017,0.02537808,-0.00343140,0.00917087,0.07955995,0.57447165,-0.
 01860711,-0.03171986,0.02551208,-0.04887992,0.05351857,-0.09849196,-0.
 01370356,0.00433101,0.00084725,0.06157437,-0.21066262,0.25563468,-0.00
 421904,0.00081480,-0.00248669,-0.01594143,-0.01473638,0.00372132,0.001
 15718,0.00028538,0.00085978,-0.25102447,-0.13603755,0.03224340,0.26534
 297,0.00230187,0.00216653,0.00302670,0.01104053,0.00925403,0.00008953,
 -0.00036749,-0.00041277,-0.00212318,-0.13403393,-0.14521647,0.03011866
 ,0.14356988,0.14718898,-0.00323212,0.00277450,0.00523499,-0.00956001,-
 0.00454673,0.00621322,0.00118820,-0.00200990,-0.00316290,0.03122101,0.
 02980720,-0.04947474,-0.03119367,-0.03630669,0.03929367,-0.01914632,-0
 .02734002,0.01168590,0.02182225,0.02790461,-0.01150233,-0.00418017,0.0
 0123183,-0.00270355,-0.12418025,0.02726079,-0.02536425,0.00584873,-0.0
 2239381,0.01193938,0.64786089,-0.02741989,-0.05779726,0.02181228,0.077
 91103,-0.00290103,0.01836301,0.00064359,0.00276129,0.00244762,-0.02967
 863,-0.26942314,0.10150704,0.00201854,-0.00915636,0.00685872,0.0581056
 0,0.59477450,0.01168311,0.02174953,-0.01498577,-0.03711226,0.00950263,
 -0.00573192,-0.00239424,0.00256411,0.00555291,0.00387558,0.11167892,-0
 .11787303,-0.00061971,0.00249853,0.00214103,0.06153629,-0.22288241,0.2
 6407885,0.03340675,0.08760344,-0.04123202,-0.07662578,-0.01021982,-0.0
 0808412,-0.00134548,-0.00050725,0.00005926,0.04405895,-0.06609505,0.04
 132861,0.00127861,0.00133662,-0.00161469,-0.24641071,-0.06872191,0.002
 23637,0.64984042,0.02947278,-0.01317265,0.01829715,-0.01408088,0.00061
 388,-0.00400891,0.00008061,0.00024068,-0.00023298,-0.01875381,-0.03508
 668,0.01626256,0.00076420,-0.00246627,0.00469679,-0.12626466,-0.182444
 91,0.03884778,0.02398332,0.61711328,-0.01135581,0.02877107,-0.00460526
 ,-0.00607813,-0.00335040,-0.00163774,-0.00024320,-0.00033580,-0.000110
 47,0.01702449,0.00772912,0.00209158,-0.00131286,0.00480530,0.00371068,
 0.03180131,0.04928342,-0.08174807,0.07991382,-0.24264748,0.27530289,-0
 .00385337,0.00255285,-0.00330161,-0.00063019,-0.00061724,0.00042483,0.
 00008809,0.00012691,0.00009451,-0.00403838,-0.00266456,-0.00046950,0.0
 0037127,-0.00123303,0.00061784,0.00776190,-0.02126916,0.01156426,-0.05
 835009,0.02001523,-0.01354439,0.05714529,0.00108684,0.00193957,0.00292
 094,0.00000510,0.00028372,-0.00077006,0.00010113,-0.00021394,-0.000278
 72,-0.00330813,0.00105034,0.00205643,0.00023594,-0.00037120,0.00046014
 ,0.00248022,-0.01043422,0.00796450,0.01848104,-0.27823493,0.12556941,-
 0.02065674,0.28946391,-0.00255221,0.00317114,0.00514980,0.00011599,-0.
 00087999,-0.00074419,0.00010546,-0.00027549,-0.00063119,-0.00014250,0.
 00217619,0.00505161,-0.00013567,0.00019712,0.00031940,-0.00067541,0.00
 367880,0.00220111,-0.01273806,0.12585880,-0.10744913,0.01606440,-0.138
 72442,0.10124728,-0.10269164,-0.02262673,0.00241151,0.04705329,-0.0242
 2559,0.02015769,-0.00358795,-0.00200134,-0.00069641,-0.02070692,0.0339
 3054,-0.02077997,0.00054207,0.00029727,0.00016646,-0.05575198,-0.03310
 561,0.00600571,-0.29005869,0.09012242,-0.08737899,0.00047302,-0.001859
 73,0.00002846,0.67558822,0.01124645,-0.29291310,0.12635408,-0.05900532
 ,-0.03148908,0.00781698,-0.00394289,0.00086641,0.00200149,0.03036218,-
 0.03853212,0.02405129,0.00095042,-0.00054334,-0.00017465,0.01664859,0.
 05176671,-0.02072341,0.01438266,-0.12858787,0.03706384,0.02381593,-0.0
 0201658,0.00816462,0.10149396,0.57804476,-0.01502088,0.12027311,-0.116
 22877,0.03798968,0.01409881,0.00388089,0.00029054,0.00234037,0.0049444
 9,-0.01889913,0.02470743,-0.01837419,-0.00017514,-0.00028711,-0.001085
 06,-0.01956046,-0.02973249,0.01729550,-0.04846066,0.05069459,-0.096187
 67,-0.01313544,0.00354966,0.00132936,0.04656126,-0.21504038,0.24385713
 ,0.00582386,-0.00011731,0.00132176,0.00116573,0.00169823,-0.00177298,0
 .00026563,0.00018879,-0.00001326,-0.00016224,0.00045611,-0.00021601,-0
 .00007384,-0.00000515,0.00014297,-0.00258101,0.00241375,-0.00303429,-0
 .01707267,-0.01662065,0.00450176,0.00129319,0.00038383,0.00083687,-0.2
 4943467,-0.13079906,0.02905636,0.26158432,-0.01995433,-0.01305109,0.00
 250447,-0.00020951,-0.00242149,0.00436687,-0.00079652,-0.00035345,-0.0
 0006585,0.00101264,-0.00060634,0.00036220,-0.00002218,-0.00010867,-0.0
 0038551,0.00185209,0.00171175,0.00326338,0.01034760,0.01002205,-0.0004
 6497,-0.00029070,-0.00051759,-0.00206524,-0.13582270,-0.13833559,0.028
 31902,0.14330028,0.14326936,0.01150209,0.00602861,-0.00224493,-0.00079
 189,0.00474201,0.00356156,0.00049408,0.00010916,-0.00017000,-0.0005116
 4,0.00025147,-0.00046978,0.00014981,-0.00037992,-0.00062770,-0.0027407
 7,0.00336913,0.00520424,-0.00937361,-0.00531186,0.00658963,0.00117514,
 -0.00194787,-0.00322230,0.03168270,0.02924436,-0.04509698,-0.03114130,
 -0.03572305,0.03639453,0.00168498,-0.00291738,0.00212646,0.00832358,-0
 .00262284,0.00144101,0.00107795,-0.00067034,0.00050749,0.00218653,0.01
 633553,-0.00781823,-0.00036493,-0.00206650,0.00168388,-0.18195497,0.03
 195639,-0.03458073,-0.03525599,0.00224691,-0.00782266,-0.00079247,0.00
 129208,-0.00006988,0.00110776,-0.00586041,0.00193595,0.00018093,0.0003
 1734,-0.00014912,0.60402401,-0.00241151,-0.00413543,0.00077270,-0.0011
 7486,-0.00297433,0.00545375,0.00096156,-0.00000913,0.00027916,0.025552
 29,-0.00664134,0.00757841,0.00003446,-0.00199457,-0.00101336,0.0251110
 0,-0.10380593,0.01683097,-0.00471406,0.01552648,-0.00800707,-0.0022356
 5,-0.00301723,-0.00087972,-0.00804402,0.00162466,0.00140013,-0.0012258
 9,0.00050065,-0.00042570,-0.02608480,0.82880901,0.00187253,0.00065885,
 -0.00181457,0.00064092,0.00522717,0.00551563,-0.00033956,-0.00000986,0
 .00015156,-0.01264657,0.00594933,-0.00605208,0.00064244,-0.00142371,-0
 .00317140,-0.03109809,0.01814864,-0.09460404,-0.00410153,-0.00675619,0
 .00429402,0.00168723,-0.00028403,-0.00351203,0.00303339,0.00179132,0.0
 0679279,0.00063919,-0.00014341,0.00029888,0.08263605,-0.31093486,0.391
 11300,-0.00185445,-0.00060448,-0.00002263,-0.00114770,-0.00021829,-0.0
 0000460,-0.00026930,0.00025294,-0.00018928,-0.00430383,-0.00216782,0.0
 0020955,-0.00304973,0.00060698,-0.00083826,-0.04995684,-0.02526979,0.0
 0155672,-0.00071484,0.00725009,-0.00401245,0.00123181,-0.00006498,0.00
 021290,-0.00368598,0.00044750,-0.00082732,-0.00084028,0.00028552,-0.00
 027839,-0.22019495,-0.08016567,0.01256102,0.53236794,0.00019838,0.0005
 4270,-0.00024666,-0.00061634,0.00063939,-0.00071444,-0.00015809,0.0000
 5803,-0.00003603,0.00157151,-0.00413896,0.00267029,0.00238192,0.000472
 98,0.00035145,-0.00060023,0.01163573,-0.00037763,0.00230484,-0.0002366
 3,0.00109095,0.00098135,0.00035451,0.00001625,0.00035924,0.00096458,-0
 .00053902,0.00008977,-0.00008686,-0.00001379,-0.06775911,-0.16376194,0
 .03559405,0.06821421,0.33388456,-0.00045164,-0.00040161,0.00012140,0.0
 0021698,-0.00064259,-0.00015429,0.00002483,0.00003655,0.00002237,-0.00
 168418,0.00194334,-0.00090086,-0.00177630,0.00004378,0.00009519,-0.010
 79577,-0.00484930,0.01151521,-0.00143715,0.00198646,-0.00023634,-0.000
 28090,-0.00015533,0.00010125,-0.00082780,-0.00048838,-0.00009270,-0.00
 017114,0.00002169,-0.00018794,0.00639641,0.03338190,-0.08382084,0.0474
 7797,-0.11542102,0.14464785,0.00063853,0.00016857,0.00003358,0.0004558
 5,0.00018872,-0.00003407,0.00008297,-0.00007691,0.00005409,0.00079280,
 -0.00015252,0.00027946,-0.00015922,0.00096961,-0.00049194,0.00371891,-
 0.00216713,0.00081381,-0.00083526,-0.00045117,-0.00002059,-0.00028093,
 -0.00004970,-0.00004158,0.00065732,-0.00055331,0.00045381,0.00010868,0
 .00001694,0.00003100,-0.06726887,-0.01822371,-0.00319174,-0.17464661,0
 .03250525,-0.03580111,0.49740232,0.00006696,0.00001944,-0.00001879,-0.
 00011722,0.00025062,-0.00007585,-0.00002996,0.00002079,-0.00001334,0.0
 0025072,-0.00058097,0.00020441,0.00018750,0.00020634,-0.00019079,-0.00
 395172,-0.00222748,0.00313152,-0.00084870,0.00094048,-0.00041806,0.000
 10601,0.00002550,0.00006964,-0.00033536,-0.00028023,-0.00005729,-0.000
 11544,0.00001934,-0.00007769,-0.02084328,0.01523430,-0.01072665,0.0550
 0946,-0.10307926,0.02859973,0.05564107,0.60985973,0.00009836,0.0000181
 3,-0.00002656,0.00008446,-0.00001749,0.00017032,0.00002883,-0.00002170
 ,0.00002169,0.00010052,0.00012063,-0.00032431,-0.00008486,-0.00006209,
 -0.00022231,0.00166370,0.00344890,0.00404008,0.00015144,-0.00032920,0.
 00062178,-0.00012762,0.00004468,0.00008862,0.00034621,-0.00013170,-0.0
 0016760,0.00009239,-0.00005236,-0.00004698,-0.00202787,-0.01029960,0.0
 0613866,-0.04678274,0.02455762,-0.08657844,-0.04604395,0.00513598,0.58
 955003,-0.00006265,-0.00001208,-0.00000768,-0.00004625,0.00004615,-0.0
 0002367,-0.00002185,0.00001364,-0.00001215,-0.00002306,-0.00013368,0.0
 0006279,-0.00001170,-0.00000603,-0.00000801,-0.00092480,-0.00122004,0.
 00041252,-0.00022854,0.00038071,-0.00022987,0.00003933,-0.00000447,0.0
 0000488,-0.00017293,-0.00004043,-0.00000559,-0.00005015,0.00001611,-0.
 00001813,-0.00159524,0.00625372,-0.00347416,-0.03565479,-0.02374141,0.
 00532482,-0.15179843,-0.12415496,0.04380720,0.17995604,-0.00001716,0.0
 0002257,-0.00000890,-0.00002778,-0.00002820,-0.00001081,-0.00000027,0.
 00000282,0.00000196,-0.00001343,0.00004458,-0.00002822,-0.00002742,-0.
 00003166,0.00003410,0.00026266,0.00052271,-0.00011740,0.00008253,-0.00
 008609,0.00004941,0.00000912,0.00001828,0.00000153,0.00004006,0.000031
 33,-0.00001963,0.00000924,-0.00000491,0.00000504,0.00297219,-0.0020273
 6,0.00169459,0.01378963,0.01116665,-0.00305585,-0.13718496,-0.21101503
 ,0.05361889,0.13839645,0.21741384,-0.00000570,-0.00000775,0.00001444,0
 .00001261,0.00000135,-0.00003839,-0.00000480,0.00000458,0.00000351,0.0
 0000393,-0.00004740,0.00002397,0.00000472,0.00003577,0.00002341,-0.000
 34023,-0.00037958,0.00033737,-0.00007797,0.00010229,-0.00008772,-0.000
 00041,-0.00000042,0.00001862,-0.00004872,-0.00003326,-0.00001272,-0.00
 001424,0.00000627,-0.00000408,-0.00176857,0.00231953,-0.00119757,-0.01
 333584,-0.00981548,0.00256319,0.05027020,0.05596585,-0.07168329,-0.044
 65768,-0.05956434,0.06833796,-0.00015105,-0.00007548,0.00002004,0.0000
 0780,-0.00007079,-0.00001655,-0.00001087,0.00001207,-0.00000901,-0.000
 09226,0.00000834,0.00005627,0.00002461,-0.00013117,0.00012916,-0.00044
 680,-0.00065163,-0.00095662,0.00020435,0.00012788,-0.00012932,0.000018
 42,-0.00002340,-0.00000391,-0.00017471,0.00013091,-0.00002173,-0.00002
 642,0.00001230,0.00000754,0.00424186,0.00790830,-0.00156323,-0.0256985
 2,0.02986746,0.01156507,-0.06256707,0.04588331,0.02625183,0.00755260,-
 0.01606381,-0.01048001,0.07565687,0.00002370,0.00002318,0.00000869,0.0
 0004991,0.00001175,0.00001647,0.00000718,-0.00000772,0.00000030,-0.000
 01413,0.00001855,0.00005518,-0.00002386,0.00007737,-0.00007955,0.00039
 501,-0.00006275,-0.00037426,-0.00005046,-0.00004616,0.00009535,-0.0000
 1949,0.00000782,0.00000088,0.00007559,-0.00001959,-0.00001203,0.000012
 72,-0.00000313,0.00000340,-0.00360959,-0.00176305,0.00109575,0.0113792
 2,-0.00590413,0.00086353,0.05393701,-0.24944477,-0.11080881,0.00522068
 ,-0.01602228,-0.01127623,-0.06444264,0.26646914,-0.00004398,0.00001369
 ,-0.00001637,-0.00004958,-0.00000258,-0.00002025,-0.00000995,0.0000059
 6,-0.00000447,-0.00004910,-0.00001147,-0.00000441,0.00000665,-0.000038
 47,0.00005315,-0.00005074,-0.00006307,-0.00049954,0.00003287,0.0000161
 9,-0.00006397,0.00002399,0.00000047,-0.00000225,-0.00003082,0.00003474
 ,0.00001266,-0.00001018,0.00000381,0.00000356,0.00129873,-0.00011260,0
 .00093756,-0.00736120,0.01416629,0.00768192,0.03186404,-0.11318689,-0.
 11437952,-0.00287068,0.00832272,0.00497218,-0.02833740,0.11823611,0.11
 377429,-0.00014644,-0.00006784,-0.00000006,-0.00002078,-0.00002592,0.0
 0006247,-0.00001218,0.00001265,-0.00000789,-0.00006976,-0.00005616,-0.
 00006683,0.00003562,-0.00017503,0.00003878,-0.00074839,0.00041299,0.00
 099979,0.00015503,0.00020163,0.00003131,0.00001607,-0.00000730,0.00002
 363,-0.00013854,0.00006235,-0.00013558,-0.00002065,-0.00000334,-0.0000
 2240,0.00436989,0.00574457,-0.00390772,-0.01532342,0.00573204,-0.03882
 362,-0.05023419,-0.00250372,0.01861019,0.00177046,-0.00047621,0.019425
 20,0.00145612,-0.00257091,0.00685104,0.05899872,0.00002939,-0.00001740
 ,0.00000079,0.00007338,-0.00000789,0.00000930,0.00000945,-0.00000473,0
 .00000768,0.00002851,-0.00002502,-0.00003755,-0.00002606,0.00008993,-0
 .00001453,0.00019684,-0.00002961,0.00011975,-0.00000111,-0.00008803,-0
 .00004266,-0.00002508,-0.00000377,-0.00000889,0.00003372,0.00001247,0.
 00003870,0.00001074,-0.00000035,0.00000590,-0.00252467,-0.00006783,-0.
 00064975,0.00613529,-0.00223125,0.01271935,-0.00158364,-0.05530094,0.0
 3237407,0.00011515,-0.00102473,0.02312339,0.00025693,0.00524862,-0.027
 22765,-0.00363026,0.05295368,-0.00003841,-0.00004021,0.00002223,-0.000
 01222,-0.00001315,0.00002437,-0.00000196,0.00000332,-0.00000534,0.0000
 0360,0.00002255,0.00001485,0.00002725,-0.00009702,0.00003105,-0.000294
 29,-0.00036515,-0.00019872,0.00006224,0.00010614,0.00001178,0.00000440
 ,-0.00000695,0.00001206,-0.00008294,0.00000903,-0.00004606,-0.00001115
 ,0.00000252,-0.00000515,0.00310557,0.00416444,-0.00094720,-0.01109245,
 0.00274316,-0.00602091,0.00858503,0.03302375,-0.32080293,0.00100707,-0
 .00038171,-0.00421682,0.00174736,0.00255150,-0.01236545,-0.00397529,-0
 .04010111,0.34305757,-0.00027764,0.00196841,-0.00109742,-0.00216498,0.
 00207226,-0.00121088,-0.00066173,0.00024027,-0.00019478,-0.00598808,-0
 .00324198,0.00015093,0.00024331,0.00028938,-0.00018898,-0.00073045,0.0
 3604189,-0.02198632,-0.00204606,0.00152539,-0.00114440,-0.00049296,0.0
 0190824,-0.00103335,0.00098233,0.00066048,-0.00004565,-0.00016042,-0.0
 0006155,-0.00001510,-0.11977007,0.07271427,-0.04339017,0.00374148,-0.0
 5133080,0.02104355,0.00393320,-0.00424467,0.00383193,0.00127194,-0.001
 75083,0.00101749,0.00000507,-0.00036996,-0.00126367,-0.00008755,0.0009
 0143,0.00096620,0.12220261,0.00035992,-0.00012767,0.00022956,0.0026525
 2,-0.00110932,0.00030087,0.00050239,-0.00028330,0.00009120,0.00360001,
 0.00438004,-0.00026778,-0.00036959,0.00084515,-0.00026120,0.01910122,-
 0.02489000,0.02632348,-0.00736369,-0.00400663,0.00080858,0.00140423,0.
 00166580,-0.00050123,0.00166828,-0.00059341,0.00026611,0.00032005,-0.0
 0003369,0.00012082,0.07983849,-0.57149695,0.26076876,-0.05487980,-0.08
 028011,0.04541773,0.01701588,-0.00464787,0.00240405,-0.00112950,0.0010
 1749,-0.00043458,-0.00274861,0.00141715,-0.00015727,-0.00264955,0.0004
 9685,-0.00162113,-0.05732223,0.67764647,-0.00027092,0.00053152,-0.0001
 1158,-0.00147452,0.00012474,-0.00188768,-0.00031769,0.00003965,-0.0003
 6570,-0.00330870,-0.00146067,0.00278934,0.00012955,-0.00009721,0.00062
 831,-0.01350069,0.02935443,0.00327478,0.00333521,0.00241786,-0.0004959
 8,-0.00079672,-0.00039843,0.00004199,-0.00054773,0.00006002,-0.0008210
 9,-0.00020676,0.00005017,0.00002344,-0.04689446,0.25949193,-0.22012237
 ,0.02272700,0.04597399,0.01124395,-0.00676004,-0.00136554,-0.00639923,
 0.00068835,-0.00054139,0.00094594,0.00174050,-0.00037627,-0.00007909,0
 .00089698,-0.00031681,0.00143466,0.04456063,-0.33348797,0.20990030\\-0
 .00001227,0.00000607,-0.00000276,0.00000622,0.00000404,0.00000091,-0.0
 0000270,-0.00000217,0.00000274,-0.00000188,-0.00000050,0.00000050,-0.0
 0000245,0.,-0.00000086,-0.00000101,0.00000001,0.00000036,0.00000160,-0
 .00000034,0.00000225,0.00000174,-0.00000058,0.00000240,0.00000119,-0.0
 0001530,0.00001160,0.00000122,-0.00000170,0.00000542,0.00000137,0.0000
 0047,-0.00000099,-0.00000002,0.00000106,-0.00000252,0.00000113,0.00000
 187,-0.00000425,0.00000026,0.00000220,-0.00000534,0.00000086,0.0000018
 9,-0.00000437,0.00000259,0.00000211,-0.00000414,0.00000212,0.00000086,
 -0.00000095\\\@
 The archive entry for this job was punched.


 THE HURRIEDER I GO, THE BEHINDER I GET.
 Job cpu time:       0 days  1 hours 19 minutes 47.1 seconds.
 Elapsed time:       0 days  0 hours  2 minutes 35.5 seconds.
 File lengths (MBytes):  RWF=    261 Int=      0 D2E=      0 Chk=     17 Scr=      1
 Normal termination of Gaussian 16 at Sun May 11 04:15:06 2025.
