/home/tahminaafroz
cn013.cluster.local
tahminaafroz
Mon Jun  2 13:34:49 CDT 2025
 Entering Gaussian System, Link 0=g16
 Initial command:
 /home/apps/g16/l1.exe "/tmp/3-Me-ph-anion-opt-freq-thf-5-non-tight/Gau-688951.inp" -scrdir="/tmp/3-Me-ph-anion-opt-freq-thf-5-non-tight/"
 Entering Link 1 = /home/apps/g16/l1.exe PID=    688952.
  
 Copyright (c) 1988-2019, Gaussian, Inc.  All Rights Reserved.
  
 This is part of the Gaussian(R) 16 program.  It is based on
 the Gaussian(R) 09 system (copyright 2009, Gaussian, Inc.),
 the Gaussian(R) 03 system (copyright 2003, Gaussian, Inc.),
 the Gaussian(R) 98 system (copyright 1998, Gaussian, Inc.),
 the Gaussian(R) 94 system (copyright 1995, Gaussian, Inc.),
 the Gaussian 92(TM) system (copyright 1992, Gaussian, Inc.),
 the Gaussian 90(TM) system (copyright 1990, Gaussian, Inc.),
 the Gaussian 88(TM) system (copyright 1988, Gaussian, Inc.),
 the Gaussian 86(TM) system (copyright 1986, Carnegie Mellon
 University), and the Gaussian 82(TM) system (copyright 1983,
 Carnegie Mellon University). Gaussian is a federally registered
 trademark of Gaussian, Inc.
  
 This software contains proprietary and confidential information,
 including trade secrets, belonging to Gaussian, Inc.
  
 This software is provided under written license and may be
 used, copied, transmitted, or stored only in accord with that
 written license.
  
 The following legend is applicable only to US Government
 contracts under FAR:
  
                    RESTRICTED RIGHTS LEGEND
  
 Use, reproduction and disclosure by the US Government is
 subject to restrictions as set forth in subparagraphs (a)
 and (c) of the Commercial Computer Software - Restricted
 Rights clause in FAR 52.227-19.
  
 Gaussian, Inc.
 340 Quinnipiac St., Bldg. 40, Wallingford CT 06492
  
  
 ---------------------------------------------------------------
 Warning -- This program may not be used in any manner that
 competes with the business of Gaussian, Inc. or will provide
 assistance to any competitor of Gaussian, Inc.  The licensee
 of this program is prohibited from giving any competitor of
 Gaussian, Inc. access to this program.  By using this program,
 the user acknowledges that Gaussian, Inc. is engaged in the
 business of creating and licensing software in the field of
 computational chemistry and represents and warrants to the
 licensee that it is not a competitor of Gaussian, Inc. and that
 it will not use this program in any manner prohibited above.
 ---------------------------------------------------------------
  

 Cite this work as:
 Gaussian 16, Revision C.01,
 M. J. Frisch, G. W. Trucks, H. B. Schlegel, G. E. Scuseria, 
 M. A. Robb, J. R. Cheeseman, G. Scalmani, V. Barone, 
 G. A. Petersson, H. Nakatsuji, X. Li, M. Caricato, A. V. Marenich, 
 J. Bloino, B. G. Janesko, R. Gomperts, B. Mennucci, H. P. Hratchian, 
 J. V. Ortiz, A. F. Izmaylov, J. L. Sonnenberg, D. Williams-Young, 
 F. Ding, F. Lipparini, F. Egidi, J. Goings, B. Peng, A. Petrone, 
 T. Henderson, D. Ranasinghe, V. G. Zakrzewski, J. Gao, N. Rega, 
 G. Zheng, W. Liang, M. Hada, M. Ehara, K. Toyota, R. Fukuda, 
 J. Hasegawa, M. Ishida, T. Nakajima, Y. Honda, O. Kitao, H. Nakai, 
 T. Vreven, K. Throssell, J. A. Montgomery, Jr., J. E. Peralta, 
 F. Ogliaro, M. J. Bearpark, J. J. Heyd, E. N. Brothers, K. N. Kudin, 
 V. N. Staroverov, T. A. Keith, R. Kobayashi, J. Normand, 
 K. Raghavachari, A. P. Rendell, J. C. Burant, S. S. Iyengar, 
 J. Tomasi, M. Cossi, J. M. Millam, M. Klene, C. Adamo, R. Cammi, 
 J. W. Ochterski, R. L. Martin, K. Morokuma, O. Farkas, 
 J. B. Foresman, and D. J. Fox, Gaussian, Inc., Wallingford CT, 2019.
 
 ******************************************
 Gaussian 16:  AS64L-G16RevC.01  3-Jul-2019
                 2-Jun-2025 
 ******************************************
 %mem=20GB
 %nprocshared=32
 Will use up to   32 processors via shared memory.
 %chk=3-Me-ph-anion-opt-freq-thf-5-non-tight.chk
 ----------------------------------------------------------------------
 # opt=calcfc freq 6-311+g(d,p) scrf=(smd,solvent=thf) nosymm scf=(qc,f
 ermi,xqc) geom=connectivity int=ultrafine m062x
 ----------------------------------------------------------------------
 1/10=4,18=20,19=15,26=6,38=1,57=2/1,3;
 2/9=110,12=2,15=1,17=6,18=5,40=1/2;
 3/5=4,6=6,7=111,11=2,25=1,30=1,70=32201,71=2,72=20,74=-55,75=-5,140=1/1,2,3;
 4//1;
 5/5=2,22=13,38=5,53=20/2;
 8/6=4,10=90,11=11/1;
 11/6=1,8=1,9=11,15=111,16=1,31=1/1,2,10;
 10/6=1,13=1,31=1/2;
 6/7=2,8=2,9=2,10=2,28=1/1;
 7/10=1,25=1,30=1/1,2,3,16;
 1/10=4,18=20,19=15,26=6/3(2);
 2/9=110,15=1/2;
 99//99;
 2/9=110,15=1/2;
 3/5=4,6=6,7=111,11=2,25=1,30=1,70=32205,71=1,72=20,74=-55,75=-5/1,2,3;
 4/5=5,16=3,69=1/1;
 5/5=2,22=13,38=5,53=20/2;
 7/30=1/1,2,3,16;
 1/18=20,19=15,26=6/3(-5);
 2/9=110,15=1/2;
 6/7=2,8=2,9=2,10=2,19=2,28=1/1;
 99/9=1/99;
 --------------------------------------
 3-Me-ph-anion-opt-freq-thf-5-non-tight
 --------------------------------------
 Symbolic Z-matrix:
 Charge = -1 Multiplicity = 1
 C                     6.26816   7.03949   5.31918 
 C                     5.13549   6.19142   5.31618 
 H                     5.1742    5.24071   5.85098 
 C                     3.93828   6.48621   4.65487 
 H                     3.106     5.78622   4.68576 
 C                     3.80545   7.67967   3.94826 
 C                     4.87801   8.57389   3.90857 
 C                     6.05999   8.22935   4.58278 
 H                     6.87121   8.95903   4.51195 
 H                     2.87949   7.91574   3.42997 
 C                     4.74858   9.88823   3.17613 
 H                     5.72958   10.28819   2.90961 
 H                     4.16343   9.77923   2.2592 
 H                     4.24566   10.63716   3.79679 
 

 GradGradGradGradGradGradGradGradGradGradGradGradGradGradGradGradGradGrad
 Berny optimization.
 Initialization pass.
                           ----------------------------
                           !    Initial Parameters    !
                           ! (Angstroms and Degrees)  !
 --------------------------                            --------------------------
 ! Name  Definition              Value          Derivative Info.                !
 --------------------------------------------------------------------------------
 ! R1    R(1,2)                  1.415          calculate D2E/DX2 analytically  !
 ! R2    R(1,8)                  1.4147         calculate D2E/DX2 analytically  !
 ! R3    R(2,3)                  1.0915         calculate D2E/DX2 analytically  !
 ! R4    R(2,4)                  1.3991         calculate D2E/DX2 analytically  !
 ! R5    R(4,5)                  1.088          calculate D2E/DX2 analytically  !
 ! R6    R(4,6)                  1.3933         calculate D2E/DX2 analytically  !
 ! R7    R(6,7)                  1.397          calculate D2E/DX2 analytically  !
 ! R8    R(6,10)                 1.0871         calculate D2E/DX2 analytically  !
 ! R9    R(7,8)                  1.4037         calculate D2E/DX2 analytically  !
 ! R10   R(7,11)                 1.5102         calculate D2E/DX2 analytically  !
 ! R11   R(8,9)                  1.0934         calculate D2E/DX2 analytically  !
 ! R12   R(11,12)                1.0924         calculate D2E/DX2 analytically  !
 ! R13   R(11,13)                1.0932         calculate D2E/DX2 analytically  !
 ! R14   R(11,14)                1.095          calculate D2E/DX2 analytically  !
 ! A1    A(2,1,8)              112.6566         calculate D2E/DX2 analytically  !
 ! A2    A(1,2,3)              119.5132         calculate D2E/DX2 analytically  !
 ! A3    A(1,2,4)              124.0334         calculate D2E/DX2 analytically  !
 ! A4    A(3,2,4)              116.4527         calculate D2E/DX2 analytically  !
 ! A5    A(2,4,5)              120.3719         calculate D2E/DX2 analytically  !
 ! A6    A(2,4,6)              120.117          calculate D2E/DX2 analytically  !
 ! A7    A(5,4,6)              119.5109         calculate D2E/DX2 analytically  !
 ! A8    A(4,6,7)              119.3079         calculate D2E/DX2 analytically  !
 ! A9    A(4,6,10)             120.5981         calculate D2E/DX2 analytically  !
 ! A10   A(7,6,10)             120.0938         calculate D2E/DX2 analytically  !
 ! A11   A(6,7,8)              118.4075         calculate D2E/DX2 analytically  !
 ! A12   A(6,7,11)             120.3356         calculate D2E/DX2 analytically  !
 ! A13   A(8,7,11)             121.2474         calculate D2E/DX2 analytically  !
 ! A14   A(1,8,7)              125.4762         calculate D2E/DX2 analytically  !
 ! A15   A(1,8,9)              119.067          calculate D2E/DX2 analytically  !
 ! A16   A(7,8,9)              115.4563         calculate D2E/DX2 analytically  !
 ! A17   A(7,11,12)            111.1006         calculate D2E/DX2 analytically  !
 ! A18   A(7,11,13)            111.463          calculate D2E/DX2 analytically  !
 ! A19   A(7,11,14)            111.0821         calculate D2E/DX2 analytically  !
 ! A20   A(12,11,13)           108.2132         calculate D2E/DX2 analytically  !
 ! A21   A(12,11,14)           107.4766         calculate D2E/DX2 analytically  !
 ! A22   A(13,11,14)           107.324          calculate D2E/DX2 analytically  !
 ! D1    D(8,1,2,3)            179.9501         calculate D2E/DX2 analytically  !
 ! D2    D(8,1,2,4)              0.2772         calculate D2E/DX2 analytically  !
 ! D3    D(2,1,8,7)              0.051          calculate D2E/DX2 analytically  !
 ! D4    D(2,1,8,9)           -179.6976         calculate D2E/DX2 analytically  !
 ! D5    D(1,2,4,5)            179.5305         calculate D2E/DX2 analytically  !
 ! D6    D(1,2,4,6)             -0.3166         calculate D2E/DX2 analytically  !
 ! D7    D(3,2,4,5)             -0.1515         calculate D2E/DX2 analytically  !
 ! D8    D(3,2,4,6)           -179.9986         calculate D2E/DX2 analytically  !
 ! D9    D(2,4,6,7)              0.0095         calculate D2E/DX2 analytically  !
 ! D10   D(2,4,6,10)           179.8784         calculate D2E/DX2 analytically  !
 ! D11   D(5,4,6,7)           -179.8389         calculate D2E/DX2 analytically  !
 ! D12   D(5,4,6,10)             0.03           calculate D2E/DX2 analytically  !
 ! D13   D(4,6,7,8)              0.2921         calculate D2E/DX2 analytically  !
 ! D14   D(4,6,7,11)          -178.5985         calculate D2E/DX2 analytically  !
 ! D15   D(10,6,7,8)          -179.5774         calculate D2E/DX2 analytically  !
 ! D16   D(10,6,7,11)            1.532          calculate D2E/DX2 analytically  !
 ! D17   D(6,7,8,1)             -0.3334         calculate D2E/DX2 analytically  !
 ! D18   D(6,7,8,9)            179.4232         calculate D2E/DX2 analytically  !
 ! D19   D(11,7,8,1)           178.5466         calculate D2E/DX2 analytically  !
 ! D20   D(11,7,8,9)            -1.6967         calculate D2E/DX2 analytically  !
 ! D21   D(6,7,11,12)         -158.45           calculate D2E/DX2 analytically  !
 ! D22   D(6,7,11,13)          -37.6732         calculate D2E/DX2 analytically  !
 ! D23   D(6,7,11,14)           81.9625         calculate D2E/DX2 analytically  !
 ! D24   D(8,7,11,12)           22.6914         calculate D2E/DX2 analytically  !
 ! D25   D(8,7,11,13)          143.4682         calculate D2E/DX2 analytically  !
 ! D26   D(8,7,11,14)          -96.8961         calculate D2E/DX2 analytically  !
 --------------------------------------------------------------------------------
 Trust Radius=3.00D-01 FncErr=5.00D-06 GrdErr=5.00D-06 EigMax=2.50D+02 EigMin=1.00D-04
 Number of steps in this run=     72 maximum allowed number of steps=    100.
 GradGradGradGradGradGradGradGradGradGradGradGradGradGradGradGradGradGrad

                          Input orientation:                          
 ---------------------------------------------------------------------
 Center     Atomic      Atomic             Coordinates (Angstroms)
 Number     Number       Type             X           Y           Z
 ---------------------------------------------------------------------
      1          6           0        6.268158    7.039493    5.319178
      2          6           0        5.135488    6.191415    5.316183
      3          1           0        5.174196    5.240710    5.850978
      4          6           0        3.938280    6.486210    4.654869
      5          1           0        3.105996    5.786217    4.685764
      6          6           0        3.805445    7.679670    3.948263
      7          6           0        4.878008    8.573889    3.908574
      8          6           0        6.059989    8.229351    4.582782
      9          1           0        6.871214    8.959033    4.511950
     10          1           0        2.879490    7.915740    3.429973
     11          6           0        4.748581    9.888228    3.176126
     12          1           0        5.729577   10.288185    2.909607
     13          1           0        4.163426    9.779228    2.259199
     14          1           0        4.245661   10.637165    3.796790
 ---------------------------------------------------------------------
                    Distance matrix (angstroms):
                    1          2          3          4          5
     1  C    0.000000
     2  C    1.414986   0.000000
     3  H    2.171448   1.091487   0.000000
     4  C    2.485108   1.399124   2.123543   0.000000
     5  H    3.459940   2.163435   2.435724   1.087953   0.000000
     6  C    2.890362   2.419736   3.382651   1.393300   2.149023
     7  C    2.505333   2.779180   3.869204   2.407997   3.393400
     8  C    1.414700   2.354944   3.365253   2.746887   3.834786
     9  H    2.167932   3.364409   4.301022   3.838930   4.926849
    10  H    3.977433   3.408902   4.275830   2.159852   2.482576
    11  C    3.875187   4.289052   5.379164   3.796972   4.669431
    12  H    4.080454   4.788327   5.868315   4.550791   5.505055
    13  H    4.615140   4.812739   5.875430   4.078467   4.790669
    14  H    4.399023   4.781740   5.848384   4.249848   5.061700
                    6          7          8          9         10
     6  C    0.000000
     7  C    1.396995   0.000000
     8  C    2.405771   1.403689   0.000000
     9  H    3.369488   2.117845   1.093407   0.000000
    10  H    1.087082   2.157845   3.397484   4.265325   0.000000
    11  C    2.522584   1.510205   2.539753   2.674584   2.729221
    12  H    3.403739   2.159147   2.673478   2.374338   3.744632
    13  H    2.718314   2.164234   3.376108   3.616590   2.547899
    14  H    2.993912   2.160895   3.115628   3.197047   3.067105
                   11         12         13         14
    11  C    0.000000
    12  H    1.092406   0.000000
    13  H    1.093180   1.770564   0.000000
    14  H    1.095016   1.763771   1.762670   0.000000
 Symmetry turned off by external request.
 Stoichiometry    C7H7(1-)
 Framework group  C1[X(C7H7)]
 Deg. of freedom    36
 Full point group                 C1      NOp   1
 Rotational constants (GHZ):           5.6965476           2.5696589           1.7905453
 Standard basis: 6-311+G(d,p) (5D, 7F)
   196 basis functions,   308 primitive gaussians,   203 cartesian basis functions
    25 alpha electrons       25 beta electrons
       nuclear repulsion energy       258.0227996870 Hartrees.
 NAtoms=   14 NActive=   14 NUniq=   14 SFac= 1.00D+00 NAtFMM=   60 NAOKFM=F Big=F
 Integral buffers will be    131072 words long.
 Raffenetti 2 integral format.
 Two-electron integral symmetry is turned off.
 Force inversion solution in PCM.
 ------------------------------------------------------------------------------
 Polarizable Continuum Model (PCM)
 =================================
 Model                : PCM.
 Atomic radii         : SMD-Coulomb.
 Polarization charges : Total charges.
 Charge compensation  : None.
 Solution method      : Matrix inversion.
 Cavity type          : VdW (van der Waals Surface) (Alpha=1.000).
 Cavity algorithm     : GePol (No added spheres)
                        Default sphere list used, NSphG=   14.
                        Lebedev-Laikov grids with approx.  5.0 points / Ang**2.
                        Smoothing algorithm: York/Karplus (Gamma=1.0000).
                        Polarization charges: spherical gaussians, with
                                              point-specific exponents (IZeta= 3).
                        Self-potential: point-specific (ISelfS= 7).
                        Self-field    : sphere-specific E.n sum rule (ISelfD= 2).
 1st derivatives      : Analytical E(r).r(x)/FMM algorithm (CHGder, D1EAlg=3).
                        Cavity 1st derivative terms included.
 2nd derivatives      : Analytical E(r).r(xy)/FMM algorithm (CHGder, D2EAlg=3).
                        Cavity 2nd derivative terms included.
 Solvent              : TetraHydroFuran, Eps=   7.425700 Eps(inf)=   1.974025
 ------------------------------------------------------------------------------
 Spheres list:
 ISph  on   Nord     Re0    Alpha      Xe            Ye            Ze
    1   C      1    1.8500  1.000      6.268158      7.039493      5.319178
    2   C      2    1.8500  1.000      5.135488      6.191415      5.316183
    3   H      3    1.2000  1.000      5.174196      5.240710      5.850978
    4   C      4    1.8500  1.000      3.938280      6.486210      4.654869
    5   H      5    1.2000  1.000      3.105996      5.786217      4.685764
    6   C      6    1.8500  1.000      3.805445      7.679670      3.948263
    7   C      7    1.8500  1.000      4.878008      8.573889      3.908574
    8   C      8    1.8500  1.000      6.059989      8.229351      4.582782
    9   H      9    1.2000  1.000      6.871214      8.959033      4.511950
   10   H     10    1.2000  1.000      2.879490      7.915740      3.429973
   11   C     11    1.8500  1.000      4.748581      9.888228      3.176126
   12   H     12    1.2000  1.000      5.729577     10.288185      2.909607
   13   H     13    1.2000  1.000      4.163426      9.779228      2.259199
   14   H     14    1.2000  1.000      4.245661     10.637165      3.796790
 ------------------------------------------------------------------------------
 ------------------------------------------------------------------------------
 Atomic radii for non-electrostatic terms: SMD-CDS.
 ------------------------------------------------------------------------------
 Nuclear repulsion after PCM non-electrostatic terms =      258.0199336355 Hartrees.
 One-electron integrals computed using PRISM.
 NBasis=   196 RedAO= T EigKep=  3.87D-06  NBF=   196
 NBsUse=   196 1.00D-06 EigRej= -1.00D+00 NBFU=   196
 ExpMin= 4.38D-02 ExpMax= 4.56D+03 ExpMxC= 6.82D+02 IAcc=3 IRadAn=         5 AccDes= 0.00D+00
 Harris functional with IExCor= 1009 and IRadAn=       5 diagonalized for initial guess.
 HarFok:  IExCor= 1009 AccDes= 0.00D+00 IRadAn=         5 IDoV= 1 UseB2=F ITyADJ=14
 ICtDFT=  3500011 ScaDFX=  1.000000  1.000000  1.000000  1.000000
 FoFCou: FMM=F IPFlag=           0 FMFlag=      100000 FMFlg1=           0
         NFxFlg=           0 DoJE=T BraDBF=F KetDBF=T FulRan=T
         wScrn=  0.000000 ICntrl=       500 IOpCl=  0 I1Cent=   200000004 NGrid=           0
         NMat0=    1 NMatS0=      1 NMatT0=    0 NMatD0=    1 NMtDS0=    0 NMtDT0=    0
 Symmetry not used in FoFCou.
 Requested convergence on RMS density matrix=1.00D-08 within 128 cycles.
 Requested convergence on MAX density matrix=1.00D-06.
 Requested convergence on             energy=1.00D-06.
 Level shift goal  0.100 maximum shift  0.100.
 No special actions if energy rises.
 Dynamic level shift is on during FON iterations.
 Inv3:  Mode=1 IEnd=     4029843.
 Iteration    1 A*A^-1 deviation from unit magnitude is 4.44D-15 for   1136.
 Iteration    1 A*A^-1 deviation from orthogonality  is 3.05D-15 for   1146    926.
 Iteration    1 A^-1*A deviation from unit magnitude is 4.66D-15 for   1136.
 Iteration    1 A^-1*A deviation from orthogonality  is 2.11D-15 for   1155    974.
 Error on total polarization charges =  0.06506
 SCF Done:  E(RM062X) =  -270.948904027     A.U. after   14 cycles
            NFock= 14  Conv=0.89D-08     -V/T= 2.0044
 SMD-CDS (non-electrostatic) energy       (kcal/mol) =      -1.80
 (included in total energy above)
 DoSCS=F DFT=T ScalE2(SS,OS)=  1.000000  1.000000
 Range of M.O.s used for correlation:     1   196
 NBasis=   196 NAE=    25 NBE=    25 NFC=     0 NFV=     0
 NROrb=    196 NOA=    25 NOB=    25 NVA=   171 NVB=   171

 **** Warning!!: The largest alpha MO coefficient is  0.17918408D+03

 Symmetrizing basis deriv contribution to polar:
 IMax=3 JMax=2 DiffMx= 0.00D+00
 G2DrvN: will do    15 centers at a time, making    1 passes.
 Calling FoFCou, ICntrl=  3107 FMM=F I1Cent=   0 AccDes= 0.00D+00.
 NEqPCM:  Using equilibrium solvation (IEInf=0, Eps=   7.4257, EpsInf=   1.9740)
 G2PCM: DoFxE=T DoFxN=T DoGrad=T DoDP/DQ/DG/TGxP=FFFF NFrqRd=   0 IEInf=0 SqF1=F DoCFld=F IF1Alg=4.
 End of G2Drv F.D. properties file   721 does not exist.
 End of G2Drv F.D. properties file   722 does not exist.
 End of G2Drv F.D. properties file   788 does not exist.
          IDoAtm=11111111111111
 NEqPCM:  Using equilibrium solvation (IEInf=0, Eps=   7.4257, EpsInf=   1.9740)
          Differentiating once with respect to nuclear coordinates.
 Keep R1 ints in memory in canonical form, NReq=219272806.
          There are    45 degrees of freedom in the 1st order CPHF.  IDoFFX=6 NUNeed=     0.
     39 vectors produced by pass  0 Test12= 9.50D-15 2.22D-09 XBig12= 9.30D-02 7.33D-02.
 AX will form    39 AO Fock derivatives at one time.
     39 vectors produced by pass  1 Test12= 9.50D-15 2.22D-09 XBig12= 9.85D-03 2.29D-02.
     39 vectors produced by pass  2 Test12= 9.50D-15 2.22D-09 XBig12= 2.36D-04 4.13D-03.
     39 vectors produced by pass  3 Test12= 9.50D-15 2.22D-09 XBig12= 1.77D-06 2.57D-04.
     39 vectors produced by pass  4 Test12= 9.50D-15 2.22D-09 XBig12= 1.19D-08 1.88D-05.
     39 vectors produced by pass  5 Test12= 9.50D-15 2.22D-09 XBig12= 7.01D-11 1.31D-06.
     31 vectors produced by pass  6 Test12= 9.50D-15 2.22D-09 XBig12= 3.75D-13 1.06D-07.
      5 vectors produced by pass  7 Test12= 9.50D-15 2.22D-09 XBig12= 1.64D-15 5.00D-09.
 InvSVY:  IOpt=1 It=  1 EMax= 2.00D-15
 Solved reduced A of dimension   270 with    39 vectors.
 End of Minotr F.D. properties file   721 does not exist.
 End of Minotr F.D. properties file   722 does not exist.
 End of Minotr F.D. properties file   788 does not exist.

 **********************************************************************

            Population analysis using the SCF Density.

 **********************************************************************

 Alpha  occ. eigenvalues --  -10.50826 -10.50275 -10.49974 -10.49727 -10.48429
 Alpha  occ. eigenvalues --  -10.48360 -10.44680  -0.90894  -0.82243  -0.77599
 Alpha  occ. eigenvalues --   -0.73203  -0.62798  -0.60175  -0.53074  -0.47626
 Alpha  occ. eigenvalues --   -0.46006  -0.45698  -0.42326  -0.40744  -0.39355
 Alpha  occ. eigenvalues --   -0.37791  -0.33594  -0.25692  -0.24720  -0.19318
 Alpha virt. eigenvalues --    0.03766   0.04894   0.05512   0.05990   0.06146
 Alpha virt. eigenvalues --    0.07152   0.07994   0.08226   0.09416   0.10570
 Alpha virt. eigenvalues --    0.10627   0.10833   0.12069   0.13028   0.14944
 Alpha virt. eigenvalues --    0.16140   0.16576   0.16977   0.17890   0.18369
 Alpha virt. eigenvalues --    0.18648   0.20434   0.21031   0.21227   0.22524
 Alpha virt. eigenvalues --    0.23289   0.24325   0.24916   0.25405   0.26146
 Alpha virt. eigenvalues --    0.26612   0.27249   0.27497   0.27984   0.28694
 Alpha virt. eigenvalues --    0.29860   0.30580   0.31722   0.35928   0.39827
 Alpha virt. eigenvalues --    0.40403   0.42156   0.42748   0.48064   0.51291
 Alpha virt. eigenvalues --    0.53560   0.55459   0.57483   0.60720   0.61810
 Alpha virt. eigenvalues --    0.62607   0.63959   0.64660   0.65371   0.66515
 Alpha virt. eigenvalues --    0.66838   0.69467   0.70995   0.71678   0.72086
 Alpha virt. eigenvalues --    0.73566   0.75832   0.76668   0.77583   0.78651
 Alpha virt. eigenvalues --    0.81919   0.82380   0.84027   0.86495   0.89200
 Alpha virt. eigenvalues --    0.90168   0.92896   0.93935   0.95605   0.96152
 Alpha virt. eigenvalues --    1.00219   1.03421   1.04452   1.06266   1.11003
 Alpha virt. eigenvalues --    1.11826   1.15124   1.20779   1.24856   1.25061
 Alpha virt. eigenvalues --    1.28226   1.42588   1.45050   1.47692   1.54923
 Alpha virt. eigenvalues --    1.56631   1.58593   1.60355   1.61479   1.63779
 Alpha virt. eigenvalues --    1.65133   1.67580   1.67874   1.71629   1.75244
 Alpha virt. eigenvalues --    1.75976   1.77125   1.79283   1.80398   1.83067
 Alpha virt. eigenvalues --    1.87728   1.90956   1.93749   1.98121   1.98816
 Alpha virt. eigenvalues --    2.00064   2.00358   2.02016   2.07483   2.08839
 Alpha virt. eigenvalues --    2.09813   2.11485   2.12506   2.21716   2.26599
 Alpha virt. eigenvalues --    2.27829   2.36804   2.40253   2.43442   2.45855
 Alpha virt. eigenvalues --    2.48847   2.50992   2.55134   2.58483   2.60074
 Alpha virt. eigenvalues --    2.62716   2.65245   2.69718   2.72546   2.75907
 Alpha virt. eigenvalues --    2.76638   2.77966   2.80606   2.80885   2.82288
 Alpha virt. eigenvalues --    2.89418   2.91424   2.92862   2.94889   2.96892
 Alpha virt. eigenvalues --    3.01733   3.03717   3.18830   3.19244   3.25806
 Alpha virt. eigenvalues --    3.30674   3.45843   3.47591   3.59340   3.60800
 Alpha virt. eigenvalues --    3.73927   3.86298   3.87613   3.89828   4.08271
 Alpha virt. eigenvalues --    4.19836   4.21720   4.40007   4.84013  23.68608
 Alpha virt. eigenvalues --   24.02401  24.05573  24.08244  24.17986  24.19673
 Alpha virt. eigenvalues --   24.27268
          Condensed to atoms (all electrons):
               1          2          3          4          5          6
     1  C    9.088059  -1.373884  -0.136156   1.065856  -0.028821  -0.960857
     2  C   -1.373884   6.528807   0.503807  -0.457346   0.050228   0.687288
     3  H   -0.136156   0.503807   0.550464  -0.094710  -0.004439  -0.004106
     4  C    1.065856  -0.457346  -0.094710   6.198512   0.323381  -0.407510
     5  H   -0.028821   0.050228  -0.004439   0.323381   0.504233  -0.002105
     6  C   -0.960857   0.687288  -0.004106  -0.407510  -0.002105   7.535680
     7  C    1.154394  -1.107618   0.000538   0.773231  -0.007132  -0.742986
     8  C   -1.705106   1.161270   0.039398  -1.078060   0.003433  -0.057496
     9  H   -0.097442   0.055267   0.000073  -0.027248   0.000121   0.007553
    10  H    0.010272  -0.026783  -0.000269   0.038161  -0.005820   0.285882
    11  C   -0.058325   0.048286   0.001443  -0.185948   0.007298   0.147371
    12  H    0.025516   0.000787   0.000002  -0.002888   0.000012  -0.118283
    13  H    0.001431   0.000585  -0.000004   0.031394  -0.000005   0.162509
    14  H    0.003689  -0.004683   0.000000   0.003226   0.000002  -0.051513
               7          8          9         10         11         12
     1  C    1.154394  -1.705106  -0.097442   0.010272  -0.058325   0.025516
     2  C   -1.107618   1.161270   0.055267  -0.026783   0.048286   0.000787
     3  H    0.000538   0.039398   0.000073  -0.000269   0.001443   0.000002
     4  C    0.773231  -1.078060  -0.027248   0.038161  -0.185948  -0.002888
     5  H   -0.007132   0.003433   0.000121  -0.005820   0.007298   0.000012
     6  C   -0.742986  -0.057496   0.007553   0.285882   0.147371  -0.118283
     7  C    7.617502  -1.413263  -0.131633   0.040116  -0.766208  -0.187353
     8  C   -1.413263   8.909058   0.454804  -0.022307   0.145017   0.203692
     9  H   -0.131633   0.454804   0.555793  -0.000311   0.040912   0.001985
    10  H    0.040116  -0.022307  -0.000311   0.494075   0.023265   0.000284
    11  C   -0.766208   0.145017   0.040912   0.023265   6.131936   0.445841
    12  H   -0.187353   0.203692   0.001985   0.000284   0.445841   0.513549
    13  H   -0.122530  -0.140165   0.000170  -0.000519   0.430784  -0.029870
    14  H    0.091455  -0.033592   0.000188   0.000192   0.348689  -0.024747
              13         14
     1  C    0.001431   0.003689
     2  C    0.000585  -0.004683
     3  H   -0.000004   0.000000
     4  C    0.031394   0.003226
     5  H   -0.000005   0.000002
     6  C    0.162509  -0.051513
     7  C   -0.122530   0.091455
     8  C   -0.140165  -0.033592
     9  H    0.000170   0.000188
    10  H   -0.000519   0.000192
    11  C    0.430784   0.348689
    12  H   -0.029870  -0.024747
    13  H    0.527663  -0.030030
    14  H   -0.030030   0.502613
 Mulliken charges:
               1
     1  C   -0.988626
     2  C   -0.066011
     3  H    0.143960
     4  C   -0.180052
     5  H    0.159613
     6  C   -0.481427
     7  C    0.801489
     8  C   -0.466683
     9  H    0.139768
    10  H    0.163759
    11  C   -0.760359
    12  H    0.171471
    13  H    0.168588
    14  H    0.194510
 Sum of Mulliken charges =  -1.00000
 Mulliken charges with hydrogens summed into heavy atoms:
               1
     1  C   -0.988626
     2  C    0.077949
     4  C   -0.020439
     6  C   -0.317668
     7  C    0.801489
     8  C   -0.326915
    11  C   -0.225790
 APT charges:
               1
     1  C   -2.255863
     2  C    0.987751
     3  H    0.028693
     4  C    0.099100
     5  H   -0.802753
     6  C   -0.401958
     7  C    1.417747
     8  C   -0.834853
     9  H    1.693030
    10  H   -0.266991
    11  C   -2.628601
    12  H    1.273074
    13  H   -0.508239
    14  H    1.199863
 Sum of APT charges =  -1.00000
 APT charges with hydrogens summed into heavy atoms:
               1
     1  C   -2.255863
     2  C    1.016444
     4  C   -0.703653
     6  C   -0.668949
     7  C    1.417747
     8  C    0.858177
    11  C   -0.663904
 Electronic spatial extent (au):  <R**2>=          19369.7915
 Charge=             -1.0000 electrons
 Dipole moment (field-independent basis, Debye):
    X=            -30.4957    Y=            -33.4062    Z=            -25.8721  Tot=             52.1088
 Quadrupole moment (field-independent basis, Debye-Ang):
   XX=           -243.7141   YY=           -278.2983   ZZ=           -189.3369
   XY=           -210.5674   XZ=           -164.9896   YZ=           -181.6781
 Traceless Quadrupole moment (field-independent basis, Debye-Ang):
   XX=             -6.5976   YY=            -41.1819   ZZ=             47.7795
   XY=           -210.5674   XZ=           -164.9896   YZ=           -181.6781
 Octapole moment (field-independent basis, Debye-Ang**2):
  XXX=          -2000.9607  YYY=          -2683.3701  ZZZ=          -1420.8493  XYY=          -1685.0473
  XXY=          -1713.6686  XXZ=          -1282.0116  XZZ=          -1147.7652  YZZ=          -1369.7978
  YYZ=          -1479.5677  XYZ=          -1148.1870
 Hexadecapole moment (field-independent basis, Debye-Ang**3):
 XXXX=         -16101.4040 YYYY=         -28304.4964 ZZZZ=         -10302.9448 XXXY=         -14302.4329
 XXXZ=         -10315.2144 YYYX=         -15403.7968 YYYZ=         -13569.0024 ZZZX=          -8312.9964
 ZZZY=         -10360.5301 XXYY=         -13381.3485 XXZZ=          -8183.2420 YYZZ=         -10961.4483
 XXYZ=          -8990.5742 YYXZ=          -9037.0617 ZZXY=          -8210.7373
 N-N= 2.580199336355D+02 E-N=-1.153763542771D+03  KE= 2.697573818642D+02
  Exact polarizability:       0.000       0.000       0.000       0.000       0.000       0.000
 Approx polarizability:     124.340       5.304     118.850      15.978     -19.125      95.463
 D2PCM: PCM CHGder 2nd derivatives, FixD1E=F FixD2E=F DoIter=F DoCFld=F I1PDM=0
 Calling FoFJK, ICntrl=    100127 FMM=F ISym2X=0 I1Cent= 0 IOpClX= 0 NMat=1 NMatS=1 NMatT=0.
 -------------------------------------------------------------------
 Center     Atomic                   Forces (Hartrees/Bohr)
 Number     Number              X              Y              Z
 -------------------------------------------------------------------
      1        6           0.000005865    0.000001455   -0.000006969
      2        6           0.000010129   -0.000002568   -0.000007378
      3        1           0.000014167   -0.000004717   -0.000010922
      4        6           0.000006281   -0.000005777   -0.000003713
      5        1           0.000010015   -0.000007865   -0.000004621
      6        6           0.000001000   -0.000002307    0.000000629
      7        6          -0.000002961    0.000001243    0.000001376
      8        6           0.000000838    0.000003139   -0.000001821
      9        1          -0.000002933    0.000006510   -0.000001184
     10        1          -0.000000994   -0.000004548    0.000003637
     11        6          -0.000008795    0.000003609    0.000007301
     12        1          -0.000011160    0.000008051    0.000005979
     13        1          -0.000010854    0.000004498    0.000007170
     14        1          -0.000010599   -0.000000723    0.000010517
 -------------------------------------------------------------------
 Cartesian Forces:  Max     0.000014167 RMS     0.000006479
 FormGI is forming the generalized inverse of G from B-inverse, IUseBI=4.

 GradGradGradGradGradGradGradGradGradGradGradGradGradGradGradGradGradGrad
 Berny optimization.
 Internal  Forces:  Max     0.000000501 RMS     0.000000144
 Search for a local minimum.
 Step number   1 out of a maximum of   72
 All quantities printed in internal units (Hartrees-Bohrs-Radians)
 Mixed Optimization -- En-DIIS/RFO-DIIS
 Second derivative matrix not updated -- analytic derivatives used.
 ITU=  0
     Eigenvalues ---    0.00010   0.01526   0.01706   0.01936   0.02435
     Eigenvalues ---    0.02736   0.03021   0.03223   0.03672   0.05628
     Eigenvalues ---    0.05764   0.10669   0.11721   0.11893   0.12299
     Eigenvalues ---    0.12749   0.13859   0.14277   0.18278   0.19017
     Eigenvalues ---    0.19562   0.20985   0.26163   0.31706   0.33420
     Eigenvalues ---    0.33557   0.33934   0.34166   0.34777   0.35267
     Eigenvalues ---    0.35599   0.38864   0.39912   0.45505   0.45601
     Eigenvalues ---    0.49660
 RFO step:  Lambda= 0.00000000D+00 EMin= 1.02388551D-04
 Linear search not attempted -- first point.
 Iteration  1 RMS(Cart)=  0.00003325 RMS(Int)=  0.00000000
 Iteration  2 RMS(Cart)=  0.00000000 RMS(Int)=  0.00000000
 Variable       Old X    -DE/DX   Delta X   Delta X   Delta X     New X
                                 (Linear)    (Quad)   (Total)
    R1        2.67394   0.00000   0.00000   0.00000   0.00000   2.67394
    R2        2.67340   0.00000   0.00000   0.00000   0.00000   2.67339
    R3        2.06261   0.00000   0.00000   0.00000   0.00000   2.06261
    R4        2.64396   0.00000   0.00000   0.00000   0.00000   2.64396
    R5        2.05593   0.00000   0.00000   0.00000   0.00000   2.05593
    R6        2.63295   0.00000   0.00000   0.00000   0.00000   2.63296
    R7        2.63994   0.00000   0.00000   0.00000   0.00000   2.63994
    R8        2.05429   0.00000   0.00000   0.00000   0.00000   2.05429
    R9        2.65259   0.00000   0.00000   0.00000   0.00000   2.65259
   R10        2.85387   0.00000   0.00000   0.00000   0.00000   2.85387
   R11        2.06624   0.00000   0.00000   0.00000   0.00000   2.06624
   R12        2.06435   0.00000   0.00000   0.00000   0.00000   2.06435
   R13        2.06581   0.00000   0.00000   0.00000   0.00000   2.06581
   R14        2.06928   0.00000   0.00000   0.00000   0.00000   2.06928
    A1        1.96623   0.00000   0.00000   0.00000   0.00000   1.96623
    A2        2.08590   0.00000   0.00000   0.00000   0.00000   2.08590
    A3        2.16479   0.00000   0.00000   0.00000   0.00000   2.16479
    A4        2.03248   0.00000   0.00000   0.00000   0.00000   2.03248
    A5        2.10089   0.00000   0.00000   0.00000   0.00000   2.10089
    A6        2.09644   0.00000   0.00000   0.00000   0.00000   2.09644
    A7        2.08586   0.00000   0.00000   0.00000   0.00000   2.08586
    A8        2.08232   0.00000   0.00000   0.00000   0.00000   2.08232
    A9        2.10483   0.00000   0.00000   0.00000   0.00000   2.10483
   A10        2.09603   0.00000   0.00000   0.00000   0.00000   2.09603
   A11        2.06660   0.00000   0.00000   0.00000   0.00000   2.06660
   A12        2.10025   0.00000   0.00000   0.00000   0.00000   2.10025
   A13        2.11617   0.00000   0.00000   0.00000   0.00000   2.11616
   A14        2.18997   0.00000   0.00000   0.00000   0.00000   2.18997
   A15        2.07811   0.00000   0.00000   0.00000   0.00000   2.07811
   A16        2.01509   0.00000   0.00000   0.00000   0.00000   2.01509
   A17        1.93907   0.00000   0.00000   0.00000   0.00000   1.93907
   A18        1.94540   0.00000   0.00000   0.00000   0.00000   1.94540
   A19        1.93875   0.00000   0.00000   0.00000   0.00000   1.93875
   A20        1.88868   0.00000   0.00000   0.00000   0.00000   1.88868
   A21        1.87582   0.00000   0.00000   0.00000   0.00000   1.87582
   A22        1.87316   0.00000   0.00000   0.00000   0.00000   1.87316
    D1        3.14072   0.00000   0.00000   0.00000   0.00000   3.14072
    D2        0.00484   0.00000   0.00000   0.00000   0.00000   0.00484
    D3        0.00089   0.00000   0.00000   0.00000   0.00000   0.00089
    D4       -3.13632   0.00000   0.00000   0.00000   0.00000  -3.13632
    D5        3.13340   0.00000   0.00000   0.00000   0.00000   3.13340
    D6       -0.00553   0.00000   0.00000   0.00000   0.00000  -0.00553
    D7       -0.00264   0.00000   0.00000   0.00000   0.00000  -0.00265
    D8       -3.14157   0.00000   0.00000   0.00000   0.00000  -3.14157
    D9        0.00017   0.00000   0.00000   0.00000   0.00000   0.00017
   D10        3.13947   0.00000   0.00000   0.00000   0.00000   3.13947
   D11       -3.13878   0.00000   0.00000   0.00000   0.00000  -3.13878
   D12        0.00052   0.00000   0.00000   0.00000   0.00000   0.00052
   D13        0.00510   0.00000   0.00000   0.00000   0.00000   0.00510
   D14       -3.11713   0.00000   0.00000   0.00000   0.00000  -3.11713
   D15       -3.13422   0.00000   0.00000   0.00000   0.00000  -3.13422
   D16        0.02674   0.00000   0.00000   0.00001   0.00001   0.02674
   D17       -0.00582   0.00000   0.00000   0.00000   0.00000  -0.00582
   D18        3.13153   0.00000   0.00000   0.00000   0.00000   3.13153
   D19        3.11623   0.00000   0.00000   0.00000   0.00000   3.11622
   D20       -0.02961   0.00000   0.00000   0.00000   0.00000  -0.02962
   D21       -2.76547   0.00000   0.00000   0.00008   0.00008  -2.76539
   D22       -0.65752   0.00000   0.00000   0.00008   0.00008  -0.65744
   D23        1.43052   0.00000   0.00000   0.00008   0.00008   1.43060
   D24        0.39604   0.00000   0.00000   0.00009   0.00009   0.39613
   D25        2.50399   0.00000   0.00000   0.00009   0.00009   2.50408
   D26       -1.69116   0.00000   0.00000   0.00009   0.00009  -1.69107
         Item               Value     Threshold  Converged?
 Maximum Force            0.000001     0.000450     YES
 RMS     Force            0.000000     0.000300     YES
 Maximum Displacement     0.000126     0.001800     YES
 RMS     Displacement     0.000033     0.001200     YES
 Predicted change in Energy=-4.473364D-12
 Optimization completed.
    -- Stationary point found.
                           ----------------------------
                           !   Optimized Parameters   !
                           ! (Angstroms and Degrees)  !
 --------------------------                            --------------------------
 ! Name  Definition              Value          Derivative Info.                !
 --------------------------------------------------------------------------------
 ! R1    R(1,2)                  1.415          -DE/DX =    0.0                 !
 ! R2    R(1,8)                  1.4147         -DE/DX =    0.0                 !
 ! R3    R(2,3)                  1.0915         -DE/DX =    0.0                 !
 ! R4    R(2,4)                  1.3991         -DE/DX =    0.0                 !
 ! R5    R(4,5)                  1.088          -DE/DX =    0.0                 !
 ! R6    R(4,6)                  1.3933         -DE/DX =    0.0                 !
 ! R7    R(6,7)                  1.397          -DE/DX =    0.0                 !
 ! R8    R(6,10)                 1.0871         -DE/DX =    0.0                 !
 ! R9    R(7,8)                  1.4037         -DE/DX =    0.0                 !
 ! R10   R(7,11)                 1.5102         -DE/DX =    0.0                 !
 ! R11   R(8,9)                  1.0934         -DE/DX =    0.0                 !
 ! R12   R(11,12)                1.0924         -DE/DX =    0.0                 !
 ! R13   R(11,13)                1.0932         -DE/DX =    0.0                 !
 ! R14   R(11,14)                1.095          -DE/DX =    0.0                 !
 ! A1    A(2,1,8)              112.6566         -DE/DX =    0.0                 !
 ! A2    A(1,2,3)              119.5132         -DE/DX =    0.0                 !
 ! A3    A(1,2,4)              124.0334         -DE/DX =    0.0                 !
 ! A4    A(3,2,4)              116.4527         -DE/DX =    0.0                 !
 ! A5    A(2,4,5)              120.3719         -DE/DX =    0.0                 !
 ! A6    A(2,4,6)              120.117          -DE/DX =    0.0                 !
 ! A7    A(5,4,6)              119.5109         -DE/DX =    0.0                 !
 ! A8    A(4,6,7)              119.3079         -DE/DX =    0.0                 !
 ! A9    A(4,6,10)             120.5981         -DE/DX =    0.0                 !
 ! A10   A(7,6,10)             120.0938         -DE/DX =    0.0                 !
 ! A11   A(6,7,8)              118.4075         -DE/DX =    0.0                 !
 ! A12   A(6,7,11)             120.3356         -DE/DX =    0.0                 !
 ! A13   A(8,7,11)             121.2474         -DE/DX =    0.0                 !
 ! A14   A(1,8,7)              125.4762         -DE/DX =    0.0                 !
 ! A15   A(1,8,9)              119.067          -DE/DX =    0.0                 !
 ! A16   A(7,8,9)              115.4563         -DE/DX =    0.0                 !
 ! A17   A(7,11,12)            111.1006         -DE/DX =    0.0                 !
 ! A18   A(7,11,13)            111.463          -DE/DX =    0.0                 !
 ! A19   A(7,11,14)            111.0821         -DE/DX =    0.0                 !
 ! A20   A(12,11,13)           108.2132         -DE/DX =    0.0                 !
 ! A21   A(12,11,14)           107.4766         -DE/DX =    0.0                 !
 ! A22   A(13,11,14)           107.324          -DE/DX =    0.0                 !
 ! D1    D(8,1,2,3)            179.9501         -DE/DX =    0.0                 !
 ! D2    D(8,1,2,4)              0.2772         -DE/DX =    0.0                 !
 ! D3    D(2,1,8,7)              0.051          -DE/DX =    0.0                 !
 ! D4    D(2,1,8,9)           -179.6976         -DE/DX =    0.0                 !
 ! D5    D(1,2,4,5)            179.5305         -DE/DX =    0.0                 !
 ! D6    D(1,2,4,6)             -0.3166         -DE/DX =    0.0                 !
 ! D7    D(3,2,4,5)             -0.1515         -DE/DX =    0.0                 !
 ! D8    D(3,2,4,6)           -179.9986         -DE/DX =    0.0                 !
 ! D9    D(2,4,6,7)              0.0095         -DE/DX =    0.0                 !
 ! D10   D(2,4,6,10)           179.8784         -DE/DX =    0.0                 !
 ! D11   D(5,4,6,7)           -179.8389         -DE/DX =    0.0                 !
 ! D12   D(5,4,6,10)             0.03           -DE/DX =    0.0                 !
 ! D13   D(4,6,7,8)              0.2921         -DE/DX =    0.0                 !
 ! D14   D(4,6,7,11)          -178.5985         -DE/DX =    0.0                 !
 ! D15   D(10,6,7,8)          -179.5774         -DE/DX =    0.0                 !
 ! D16   D(10,6,7,11)            1.532          -DE/DX =    0.0                 !
 ! D17   D(6,7,8,1)             -0.3334         -DE/DX =    0.0                 !
 ! D18   D(6,7,8,9)            179.4232         -DE/DX =    0.0                 !
 ! D19   D(11,7,8,1)           178.5466         -DE/DX =    0.0                 !
 ! D20   D(11,7,8,9)            -1.6967         -DE/DX =    0.0                 !
 ! D21   D(6,7,11,12)         -158.45           -DE/DX =    0.0                 !
 ! D22   D(6,7,11,13)          -37.6732         -DE/DX =    0.0                 !
 ! D23   D(6,7,11,14)           81.9625         -DE/DX =    0.0                 !
 ! D24   D(8,7,11,12)           22.6914         -DE/DX =    0.0                 !
 ! D25   D(8,7,11,13)          143.4682         -DE/DX =    0.0                 !
 ! D26   D(8,7,11,14)          -96.8961         -DE/DX =    0.0                 !
 --------------------------------------------------------------------------------
 GradGradGradGradGradGradGradGradGradGradGradGradGradGradGradGradGradGrad

                          Input orientation:                          
 ---------------------------------------------------------------------
 Center     Atomic      Atomic             Coordinates (Angstroms)
 Number     Number       Type             X           Y           Z
 ---------------------------------------------------------------------
      1          6           0        6.268158    7.039493    5.319178
      2          6           0        5.135488    6.191415    5.316183
      3          1           0        5.174196    5.240710    5.850978
      4          6           0        3.938280    6.486210    4.654869
      5          1           0        3.105996    5.786217    4.685764
      6          6           0        3.805445    7.679670    3.948263
      7          6           0        4.878008    8.573889    3.908574
      8          6           0        6.059989    8.229351    4.582782
      9          1           0        6.871214    8.959033    4.511950
     10          1           0        2.879490    7.915740    3.429973
     11          6           0        4.748581    9.888228    3.176126
     12          1           0        5.729577   10.288185    2.909607
     13          1           0        4.163426    9.779228    2.259199
     14          1           0        4.245661   10.637165    3.796790
 ---------------------------------------------------------------------
                    Distance matrix (angstroms):
                    1          2          3          4          5
     1  C    0.000000
     2  C    1.414986   0.000000
     3  H    2.171448   1.091487   0.000000
     4  C    2.485108   1.399124   2.123543   0.000000
     5  H    3.459940   2.163435   2.435724   1.087953   0.000000
     6  C    2.890362   2.419736   3.382651   1.393300   2.149023
     7  C    2.505333   2.779180   3.869204   2.407997   3.393400
     8  C    1.414700   2.354944   3.365253   2.746887   3.834786
     9  H    2.167932   3.364409   4.301022   3.838930   4.926849
    10  H    3.977433   3.408902   4.275830   2.159852   2.482576
    11  C    3.875187   4.289052   5.379164   3.796972   4.669431
    12  H    4.080454   4.788327   5.868315   4.550791   5.505055
    13  H    4.615140   4.812739   5.875430   4.078467   4.790669
    14  H    4.399023   4.781740   5.848384   4.249848   5.061700
                    6          7          8          9         10
     6  C    0.000000
     7  C    1.396995   0.000000
     8  C    2.405771   1.403689   0.000000
     9  H    3.369488   2.117845   1.093407   0.000000
    10  H    1.087082   2.157845   3.397484   4.265325   0.000000
    11  C    2.522584   1.510205   2.539753   2.674584   2.729221
    12  H    3.403739   2.159147   2.673478   2.374338   3.744632
    13  H    2.718314   2.164234   3.376108   3.616590   2.547899
    14  H    2.993912   2.160895   3.115628   3.197047   3.067105
                   11         12         13         14
    11  C    0.000000
    12  H    1.092406   0.000000
    13  H    1.093180   1.770564   0.000000
    14  H    1.095016   1.763771   1.762670   0.000000
 Symmetry turned off by external request.
 Stoichiometry    C7H7(1-)
 Framework group  C1[X(C7H7)]
 Deg. of freedom    36
 Full point group                 C1      NOp   1
 Rotational constants (GHZ):           5.6965476           2.5696589           1.7905453
 Unable to Open any file for archive entry.
 1\1\GINC-CN013\FOpt\RM062X\6-311+G(d,p)\C7H7(1-)\TAHMINAAFROZ\02-Jun-2
 025\0\\# opt=calcfc freq 6-311+g(d,p) scrf=(smd,solvent=thf) nosymm sc
 f=(qc,fermi,xqc) geom=connectivity int=ultrafine m062x\\3-Me-ph-anion-
 opt-freq-thf-5-non-tight\\-1,1\C,6.268158,7.039493,5.319178\C,5.135488
 ,6.191415,5.316183\H,5.174196,5.24071,5.850978\C,3.93828,6.48621,4.654
 869\H,3.105996,5.786217,4.685764\C,3.805445,7.67967,3.948263\C,4.87800
 8,8.573889,3.908574\C,6.059989,8.229351,4.582782\H,6.871214,8.959033,4
 .51195\H,2.87949,7.91574,3.429973\C,4.748581,9.888228,3.176126\H,5.729
 577,10.288185,2.909607\H,4.163426,9.779228,2.259199\H,4.245661,10.6371
 65,3.79679\\Version=AS64L-G16RevC.01\HF=-270.948904\RMSD=8.939e-09\RMS
 F=6.479e-06\Dipole=-2.6968711,1.6329411,-1.9689853\Polar=0.,0.,0.,0.,0
 .,0.\Quadrupole=-4.9051639,-30.6177323,35.5228962,-156.5517002,-122.66
 57416,-135.07322\PG=C01 [X(C7H7)]\\@
 The archive entry for this job was punched.


 Make no judgements where you have no compassion.
                               -- Anne McCaffrey
 Job cpu time:       0 days  0 hours 25 minutes 45.7 seconds.
 Elapsed time:       0 days  0 hours  0 minutes 51.2 seconds.
 File lengths (MBytes):  RWF=     79 Int=      0 D2E=      0 Chk=      8 Scr=      1
 Normal termination of Gaussian 16 at Mon Jun  2 13:35:41 2025.
 Link1:  Proceeding to internal job step number  2.
 ----------------------------------------------------------------------
 #N Geom=AllCheck Guess=TCheck SCRF=Check GenChk RM062X/6-311+G(d,p) Fr
 eq
 ----------------------------------------------------------------------
 1/10=4,29=7,30=1,38=1,40=1/1,3;
 2/12=2,15=1,40=1/2;
 3/5=4,6=6,7=111,11=2,14=-4,25=1,30=1,70=2,71=2,74=-55,75=-5,116=1,140=1/1,2,3;
 4/5=101/1;
 5/5=2,22=13,38=6,98=1/2;
 8/6=4,10=90,11=11/1;
 11/6=1,8=1,9=11,15=111,16=1,31=1/1,2,10;
 10/6=1,31=1/2;
 6/7=2,8=2,9=2,10=2,28=1/1;
 7/8=1,10=1,25=1,30=1/1,2,3,16;
 1/10=4,30=1/3;
 99//99;
 Structure from the checkpoint file:  "3-Me-ph-anion-opt-freq-thf-5-non-tight.chk"
 --------------------------------------
 3-Me-ph-anion-opt-freq-thf-5-non-tight
 --------------------------------------
 Charge = -1 Multiplicity = 1
 Redundant internal coordinates found in file.  (old form).
 C,0,6.268158,7.039493,5.319178
 C,0,5.135488,6.191415,5.316183
 H,0,5.174196,5.24071,5.850978
 C,0,3.93828,6.48621,4.654869
 H,0,3.105996,5.786217,4.685764
 C,0,3.805445,7.67967,3.948263
 C,0,4.878008,8.573889,3.908574
 C,0,6.059989,8.229351,4.582782
 H,0,6.871214,8.959033,4.51195
 H,0,2.87949,7.91574,3.429973
 C,0,4.748581,9.888228,3.176126
 H,0,5.729577,10.288185,2.909607
 H,0,4.163426,9.779228,2.259199
 H,0,4.245661,10.637165,3.79679
 Recover connectivity data from disk.

 GradGradGradGradGradGradGradGradGradGradGradGradGradGradGradGradGradGrad
 Berny optimization.
 Initialization pass.
                           ----------------------------
                           !    Initial Parameters    !
                           ! (Angstroms and Degrees)  !
 --------------------------                            --------------------------
 ! Name  Definition              Value          Derivative Info.                !
 --------------------------------------------------------------------------------
 ! R1    R(1,2)                  1.415          calculate D2E/DX2 analytically  !
 ! R2    R(1,8)                  1.4147         calculate D2E/DX2 analytically  !
 ! R3    R(2,3)                  1.0915         calculate D2E/DX2 analytically  !
 ! R4    R(2,4)                  1.3991         calculate D2E/DX2 analytically  !
 ! R5    R(4,5)                  1.088          calculate D2E/DX2 analytically  !
 ! R6    R(4,6)                  1.3933         calculate D2E/DX2 analytically  !
 ! R7    R(6,7)                  1.397          calculate D2E/DX2 analytically  !
 ! R8    R(6,10)                 1.0871         calculate D2E/DX2 analytically  !
 ! R9    R(7,8)                  1.4037         calculate D2E/DX2 analytically  !
 ! R10   R(7,11)                 1.5102         calculate D2E/DX2 analytically  !
 ! R11   R(8,9)                  1.0934         calculate D2E/DX2 analytically  !
 ! R12   R(11,12)                1.0924         calculate D2E/DX2 analytically  !
 ! R13   R(11,13)                1.0932         calculate D2E/DX2 analytically  !
 ! R14   R(11,14)                1.095          calculate D2E/DX2 analytically  !
 ! A1    A(2,1,8)              112.6566         calculate D2E/DX2 analytically  !
 ! A2    A(1,2,3)              119.5132         calculate D2E/DX2 analytically  !
 ! A3    A(1,2,4)              124.0334         calculate D2E/DX2 analytically  !
 ! A4    A(3,2,4)              116.4527         calculate D2E/DX2 analytically  !
 ! A5    A(2,4,5)              120.3719         calculate D2E/DX2 analytically  !
 ! A6    A(2,4,6)              120.117          calculate D2E/DX2 analytically  !
 ! A7    A(5,4,6)              119.5109         calculate D2E/DX2 analytically  !
 ! A8    A(4,6,7)              119.3079         calculate D2E/DX2 analytically  !
 ! A9    A(4,6,10)             120.5981         calculate D2E/DX2 analytically  !
 ! A10   A(7,6,10)             120.0938         calculate D2E/DX2 analytically  !
 ! A11   A(6,7,8)              118.4075         calculate D2E/DX2 analytically  !
 ! A12   A(6,7,11)             120.3356         calculate D2E/DX2 analytically  !
 ! A13   A(8,7,11)             121.2474         calculate D2E/DX2 analytically  !
 ! A14   A(1,8,7)              125.4762         calculate D2E/DX2 analytically  !
 ! A15   A(1,8,9)              119.067          calculate D2E/DX2 analytically  !
 ! A16   A(7,8,9)              115.4563         calculate D2E/DX2 analytically  !
 ! A17   A(7,11,12)            111.1006         calculate D2E/DX2 analytically  !
 ! A18   A(7,11,13)            111.463          calculate D2E/DX2 analytically  !
 ! A19   A(7,11,14)            111.0821         calculate D2E/DX2 analytically  !
 ! A20   A(12,11,13)           108.2132         calculate D2E/DX2 analytically  !
 ! A21   A(12,11,14)           107.4766         calculate D2E/DX2 analytically  !
 ! A22   A(13,11,14)           107.324          calculate D2E/DX2 analytically  !
 ! D1    D(8,1,2,3)            179.9501         calculate D2E/DX2 analytically  !
 ! D2    D(8,1,2,4)              0.2772         calculate D2E/DX2 analytically  !
 ! D3    D(2,1,8,7)              0.051          calculate D2E/DX2 analytically  !
 ! D4    D(2,1,8,9)           -179.6976         calculate D2E/DX2 analytically  !
 ! D5    D(1,2,4,5)            179.5305         calculate D2E/DX2 analytically  !
 ! D6    D(1,2,4,6)             -0.3166         calculate D2E/DX2 analytically  !
 ! D7    D(3,2,4,5)             -0.1515         calculate D2E/DX2 analytically  !
 ! D8    D(3,2,4,6)           -179.9986         calculate D2E/DX2 analytically  !
 ! D9    D(2,4,6,7)              0.0095         calculate D2E/DX2 analytically  !
 ! D10   D(2,4,6,10)           179.8784         calculate D2E/DX2 analytically  !
 ! D11   D(5,4,6,7)           -179.8389         calculate D2E/DX2 analytically  !
 ! D12   D(5,4,6,10)             0.03           calculate D2E/DX2 analytically  !
 ! D13   D(4,6,7,8)              0.2921         calculate D2E/DX2 analytically  !
 ! D14   D(4,6,7,11)          -178.5985         calculate D2E/DX2 analytically  !
 ! D15   D(10,6,7,8)          -179.5774         calculate D2E/DX2 analytically  !
 ! D16   D(10,6,7,11)            1.532          calculate D2E/DX2 analytically  !
 ! D17   D(6,7,8,1)             -0.3334         calculate D2E/DX2 analytically  !
 ! D18   D(6,7,8,9)            179.4232         calculate D2E/DX2 analytically  !
 ! D19   D(11,7,8,1)           178.5466         calculate D2E/DX2 analytically  !
 ! D20   D(11,7,8,9)            -1.6967         calculate D2E/DX2 analytically  !
 ! D21   D(6,7,11,12)         -158.45           calculate D2E/DX2 analytically  !
 ! D22   D(6,7,11,13)          -37.6732         calculate D2E/DX2 analytically  !
 ! D23   D(6,7,11,14)           81.9625         calculate D2E/DX2 analytically  !
 ! D24   D(8,7,11,12)           22.6914         calculate D2E/DX2 analytically  !
 ! D25   D(8,7,11,13)          143.4682         calculate D2E/DX2 analytically  !
 ! D26   D(8,7,11,14)          -96.8961         calculate D2E/DX2 analytically  !
 --------------------------------------------------------------------------------
 Trust Radius=3.00D-01 FncErr=1.00D-07 GrdErr=1.00D-07 EigMax=2.50D+02 EigMin=1.00D-04
 Number of steps in this run=      2 maximum allowed number of steps=      2.
 GradGradGradGradGradGradGradGradGradGradGradGradGradGradGradGradGradGrad

                          Input orientation:                          
 ---------------------------------------------------------------------
 Center     Atomic      Atomic             Coordinates (Angstroms)
 Number     Number       Type             X           Y           Z
 ---------------------------------------------------------------------
      1          6           0        6.268158    7.039493    5.319178
      2          6           0        5.135488    6.191415    5.316183
      3          1           0        5.174196    5.240710    5.850978
      4          6           0        3.938280    6.486210    4.654869
      5          1           0        3.105996    5.786217    4.685764
      6          6           0        3.805445    7.679670    3.948263
      7          6           0        4.878008    8.573889    3.908574
      8          6           0        6.059989    8.229351    4.582782
      9          1           0        6.871214    8.959033    4.511950
     10          1           0        2.879490    7.915740    3.429973
     11          6           0        4.748581    9.888228    3.176126
     12          1           0        5.729577   10.288185    2.909607
     13          1           0        4.163426    9.779228    2.259199
     14          1           0        4.245661   10.637165    3.796790
 ---------------------------------------------------------------------
                    Distance matrix (angstroms):
                    1          2          3          4          5
     1  C    0.000000
     2  C    1.414986   0.000000
     3  H    2.171448   1.091487   0.000000
     4  C    2.485108   1.399124   2.123543   0.000000
     5  H    3.459940   2.163435   2.435724   1.087953   0.000000
     6  C    2.890362   2.419736   3.382651   1.393300   2.149023
     7  C    2.505333   2.779180   3.869204   2.407997   3.393400
     8  C    1.414700   2.354944   3.365253   2.746887   3.834786
     9  H    2.167932   3.364409   4.301022   3.838930   4.926849
    10  H    3.977433   3.408902   4.275830   2.159852   2.482576
    11  C    3.875187   4.289052   5.379164   3.796972   4.669431
    12  H    4.080454   4.788327   5.868315   4.550791   5.505055
    13  H    4.615140   4.812739   5.875430   4.078467   4.790669
    14  H    4.399023   4.781740   5.848384   4.249848   5.061700
                    6          7          8          9         10
     6  C    0.000000
     7  C    1.396995   0.000000
     8  C    2.405771   1.403689   0.000000
     9  H    3.369488   2.117845   1.093407   0.000000
    10  H    1.087082   2.157845   3.397484   4.265325   0.000000
    11  C    2.522584   1.510205   2.539753   2.674584   2.729221
    12  H    3.403739   2.159147   2.673478   2.374338   3.744632
    13  H    2.718314   2.164234   3.376108   3.616590   2.547899
    14  H    2.993912   2.160895   3.115628   3.197047   3.067105
                   11         12         13         14
    11  C    0.000000
    12  H    1.092406   0.000000
    13  H    1.093180   1.770564   0.000000
    14  H    1.095016   1.763771   1.762670   0.000000
 Symmetry turned off by external request.
 Stoichiometry    C7H7(1-)
 Framework group  C1[X(C7H7)]
 Deg. of freedom    36
 Full point group                 C1      NOp   1
 Rotational constants (GHZ):           5.6965476           2.5696589           1.7905453
 Standard basis: 6-311+G(d,p) (5D, 7F)
   196 basis functions,   308 primitive gaussians,   203 cartesian basis functions
    25 alpha electrons       25 beta electrons
       nuclear repulsion energy       258.0227996870 Hartrees.
 NAtoms=   14 NActive=   14 NUniq=   14 SFac= 1.00D+00 NAtFMM=   60 NAOKFM=F Big=F
 Integral buffers will be    131072 words long.
 Raffenetti 2 integral format.
 Two-electron integral symmetry is turned off.
 Force inversion solution in PCM.
 ------------------------------------------------------------------------------
 Polarizable Continuum Model (PCM)
 =================================
 Model                : PCM.
 Atomic radii         : SMD-Coulomb.
 Polarization charges : Total charges.
 Charge compensation  : None.
 Solution method      : Matrix inversion.
 Cavity type          : VdW (van der Waals Surface) (Alpha=1.000).
 Cavity algorithm     : GePol (No added spheres)
                        Default sphere list used, NSphG=   14.
                        Lebedev-Laikov grids with approx.  5.0 points / Ang**2.
                        Smoothing algorithm: York/Karplus (Gamma=1.0000).
                        Polarization charges: spherical gaussians, with
                                              point-specific exponents (IZeta= 3).
                        Self-potential: point-specific (ISelfS= 7).
                        Self-field    : sphere-specific E.n sum rule (ISelfD= 2).
 1st derivatives      : Analytical E(r).r(x)/FMM algorithm (CHGder, D1EAlg=3).
                        Cavity 1st derivative terms included.
 2nd derivatives      : Analytical E(r).r(xy)/FMM algorithm (CHGder, D2EAlg=3).
                        Cavity 2nd derivative terms included.
 Solvent              : TetraHydroFuran, Eps=   7.425700 Eps(inf)=   1.974025
 ------------------------------------------------------------------------------
 Spheres list:
 ISph  on   Nord     Re0    Alpha      Xe            Ye            Ze
    1   C      1    1.8500  1.000      6.268158      7.039493      5.319178
    2   C      2    1.8500  1.000      5.135488      6.191415      5.316183
    3   H      3    1.2000  1.000      5.174196      5.240710      5.850978
    4   C      4    1.8500  1.000      3.938280      6.486210      4.654869
    5   H      5    1.2000  1.000      3.105996      5.786217      4.685764
    6   C      6    1.8500  1.000      3.805445      7.679670      3.948263
    7   C      7    1.8500  1.000      4.878008      8.573889      3.908574
    8   C      8    1.8500  1.000      6.059989      8.229351      4.582782
    9   H      9    1.2000  1.000      6.871214      8.959033      4.511950
   10   H     10    1.2000  1.000      2.879490      7.915740      3.429973
   11   C     11    1.8500  1.000      4.748581      9.888228      3.176126
   12   H     12    1.2000  1.000      5.729577     10.288185      2.909607
   13   H     13    1.2000  1.000      4.163426      9.779228      2.259199
   14   H     14    1.2000  1.000      4.245661     10.637165      3.796790
 ------------------------------------------------------------------------------
 ------------------------------------------------------------------------------
 Atomic radii for non-electrostatic terms: SMD-CDS.
 ------------------------------------------------------------------------------
 Nuclear repulsion after PCM non-electrostatic terms =      258.0199336355 Hartrees.
 One-electron integrals computed using PRISM.
 NBasis=   196 RedAO= T EigKep=  3.87D-06  NBF=   196
 NBsUse=   196 1.00D-06 EigRej= -1.00D+00 NBFU=   196
 Initial guess from the checkpoint file:  "3-Me-ph-anion-opt-freq-thf-5-non-tight.chk"
 B after Tr=     0.000000    0.000000    0.000000
         Rot=    1.000000    0.000000    0.000000    0.000000 Ang=   0.00 deg.
 Requested convergence on RMS density matrix=1.00D-08 within 128 cycles.
 Requested convergence on MAX density matrix=1.00D-06.
 Requested convergence on             energy=1.00D-06.
 Level shift goal  0.100 maximum shift  0.100.
 No special actions if energy rises.
 Dynamic level shift is on during FON iterations.
 Inv3:  Mode=1 IEnd=     4029843.
 Iteration    1 A*A^-1 deviation from unit magnitude is 4.66D-15 for   1136.
 Iteration    1 A*A^-1 deviation from orthogonality  is 3.36D-15 for   1146    926.
 Iteration    1 A^-1*A deviation from unit magnitude is 4.66D-15 for   1136.
 Iteration    1 A^-1*A deviation from orthogonality  is 1.92D-15 for   1133    776.
 Error on total polarization charges =  0.06506
 SCF Done:  E(RM062X) =  -270.948904027     A.U. after    1 cycles
            NFock=  1  Conv=0.19D-08     -V/T= 2.0044
 SMD-CDS (non-electrostatic) energy       (kcal/mol) =      -1.80
 (included in total energy above)
 DoSCS=F DFT=T ScalE2(SS,OS)=  1.000000  1.000000
 Range of M.O.s used for correlation:     1   196
 NBasis=   196 NAE=    25 NBE=    25 NFC=     0 NFV=     0
 NROrb=    196 NOA=    25 NOB=    25 NVA=   171 NVB=   171

 **** Warning!!: The largest alpha MO coefficient is  0.17918408D+03

 Symmetrizing basis deriv contribution to polar:
 IMax=3 JMax=2 DiffMx= 0.00D+00
 G2DrvN: will do    15 centers at a time, making    1 passes.
 Calling FoFCou, ICntrl=  3107 FMM=F I1Cent=   0 AccDes= 0.00D+00.
 NEqPCM:  Using equilibrium solvation (IEInf=0, Eps=   7.4257, EpsInf=   1.9740)
 G2PCM: DoFxE=T DoFxN=T DoGrad=T DoDP/DQ/DG/TGxP=FFFF NFrqRd=   0 IEInf=0 SqF1=F DoCFld=F IF1Alg=4.
 End of G2Drv F.D. properties file   721 does not exist.
 End of G2Drv F.D. properties file   722 does not exist.
 End of G2Drv F.D. properties file   788 does not exist.
          IDoAtm=11111111111111
 NEqPCM:  Using equilibrium solvation (IEInf=0, Eps=   7.4257, EpsInf=   1.9740)
          Differentiating once with respect to electric field.
                with respect to dipole field.
          Differentiating once with respect to nuclear coordinates.
 Keep R1 ints in memory in canonical form, NReq=219272806.
          There are    45 degrees of freedom in the 1st order CPHF.  IDoFFX=6 NUNeed=     3.
     42 vectors produced by pass  0 Test12= 9.50D-15 2.22D-09 XBig12= 7.22D+01 3.70D+00.
 AX will form    42 AO Fock derivatives at one time.
     42 vectors produced by pass  1 Test12= 9.50D-15 2.22D-09 XBig12= 9.01D+00 9.73D-01.
     42 vectors produced by pass  2 Test12= 9.50D-15 2.22D-09 XBig12= 1.32D-01 7.47D-02.
     42 vectors produced by pass  3 Test12= 9.50D-15 2.22D-09 XBig12= 7.97D-04 4.62D-03.
     42 vectors produced by pass  4 Test12= 9.50D-15 2.22D-09 XBig12= 3.81D-06 2.54D-04.
     42 vectors produced by pass  5 Test12= 9.50D-15 2.22D-09 XBig12= 1.60D-08 1.96D-05.
     32 vectors produced by pass  6 Test12= 9.50D-15 2.22D-09 XBig12= 6.89D-11 1.10D-06.
      6 vectors produced by pass  7 Test12= 9.50D-15 2.22D-09 XBig12= 2.59D-13 6.36D-08.
      3 vectors produced by pass  8 Test12= 9.50D-15 2.22D-09 XBig12= 1.05D-15 3.45D-09.
 InvSVY:  IOpt=1 It=  1 EMax= 3.55D-15
 Solved reduced A of dimension   293 with    45 vectors.
 Isotropic polarizability for W=    0.000000      128.90 Bohr**3.
 End of Minotr F.D. properties file   721 does not exist.
 End of Minotr F.D. properties file   722 does not exist.
 End of Minotr F.D. properties file   788 does not exist.

 **********************************************************************

            Population analysis using the SCF Density.

 **********************************************************************

 Alpha  occ. eigenvalues --  -10.50826 -10.50275 -10.49974 -10.49727 -10.48429
 Alpha  occ. eigenvalues --  -10.48360 -10.44680  -0.90894  -0.82243  -0.77599
 Alpha  occ. eigenvalues --   -0.73203  -0.62798  -0.60175  -0.53074  -0.47626
 Alpha  occ. eigenvalues --   -0.46006  -0.45698  -0.42326  -0.40744  -0.39355
 Alpha  occ. eigenvalues --   -0.37791  -0.33594  -0.25692  -0.24720  -0.19318
 Alpha virt. eigenvalues --    0.03766   0.04894   0.05512   0.05990   0.06146
 Alpha virt. eigenvalues --    0.07152   0.07994   0.08226   0.09416   0.10570
 Alpha virt. eigenvalues --    0.10627   0.10833   0.12069   0.13028   0.14944
 Alpha virt. eigenvalues --    0.16140   0.16576   0.16977   0.17890   0.18369
 Alpha virt. eigenvalues --    0.18648   0.20434   0.21031   0.21227   0.22524
 Alpha virt. eigenvalues --    0.23289   0.24325   0.24916   0.25405   0.26146
 Alpha virt. eigenvalues --    0.26612   0.27249   0.27497   0.27984   0.28694
 Alpha virt. eigenvalues --    0.29860   0.30580   0.31722   0.35928   0.39827
 Alpha virt. eigenvalues --    0.40403   0.42156   0.42748   0.48064   0.51291
 Alpha virt. eigenvalues --    0.53560   0.55459   0.57483   0.60720   0.61810
 Alpha virt. eigenvalues --    0.62607   0.63959   0.64660   0.65371   0.66515
 Alpha virt. eigenvalues --    0.66838   0.69467   0.70995   0.71678   0.72086
 Alpha virt. eigenvalues --    0.73566   0.75832   0.76668   0.77583   0.78651
 Alpha virt. eigenvalues --    0.81919   0.82380   0.84027   0.86495   0.89200
 Alpha virt. eigenvalues --    0.90168   0.92896   0.93935   0.95605   0.96152
 Alpha virt. eigenvalues --    1.00219   1.03421   1.04452   1.06266   1.11003
 Alpha virt. eigenvalues --    1.11826   1.15124   1.20779   1.24856   1.25061
 Alpha virt. eigenvalues --    1.28226   1.42588   1.45050   1.47692   1.54923
 Alpha virt. eigenvalues --    1.56631   1.58593   1.60355   1.61479   1.63779
 Alpha virt. eigenvalues --    1.65133   1.67580   1.67874   1.71629   1.75244
 Alpha virt. eigenvalues --    1.75976   1.77125   1.79283   1.80398   1.83067
 Alpha virt. eigenvalues --    1.87728   1.90956   1.93749   1.98121   1.98816
 Alpha virt. eigenvalues --    2.00064   2.00358   2.02016   2.07483   2.08839
 Alpha virt. eigenvalues --    2.09813   2.11485   2.12506   2.21716   2.26599
 Alpha virt. eigenvalues --    2.27829   2.36804   2.40253   2.43442   2.45855
 Alpha virt. eigenvalues --    2.48847   2.50992   2.55134   2.58483   2.60074
 Alpha virt. eigenvalues --    2.62716   2.65245   2.69718   2.72546   2.75907
 Alpha virt. eigenvalues --    2.76638   2.77966   2.80606   2.80885   2.82288
 Alpha virt. eigenvalues --    2.89418   2.91424   2.92862   2.94889   2.96892
 Alpha virt. eigenvalues --    3.01733   3.03717   3.18830   3.19244   3.25806
 Alpha virt. eigenvalues --    3.30674   3.45843   3.47591   3.59340   3.60800
 Alpha virt. eigenvalues --    3.73927   3.86298   3.87613   3.89828   4.08271
 Alpha virt. eigenvalues --    4.19836   4.21720   4.40007   4.84013  23.68608
 Alpha virt. eigenvalues --   24.02401  24.05573  24.08244  24.17986  24.19673
 Alpha virt. eigenvalues --   24.27268
          Condensed to atoms (all electrons):
               1          2          3          4          5          6
     1  C    9.088059  -1.373885  -0.136156   1.065856  -0.028821  -0.960857
     2  C   -1.373885   6.528808   0.503807  -0.457346   0.050228   0.687288
     3  H   -0.136156   0.503807   0.550464  -0.094710  -0.004439  -0.004106
     4  C    1.065856  -0.457346  -0.094710   6.198512   0.323381  -0.407510
     5  H   -0.028821   0.050228  -0.004439   0.323381   0.504233  -0.002105
     6  C   -0.960857   0.687288  -0.004106  -0.407510  -0.002105   7.535680
     7  C    1.154394  -1.107618   0.000538   0.773231  -0.007132  -0.742986
     8  C   -1.705106   1.161270   0.039398  -1.078060   0.003433  -0.057496
     9  H   -0.097442   0.055267   0.000073  -0.027248   0.000121   0.007553
    10  H    0.010272  -0.026783  -0.000269   0.038161  -0.005820   0.285882
    11  C   -0.058325   0.048286   0.001443  -0.185948   0.007298   0.147371
    12  H    0.025516   0.000787   0.000002  -0.002888   0.000012  -0.118283
    13  H    0.001431   0.000585  -0.000004   0.031394  -0.000005   0.162509
    14  H    0.003689  -0.004683   0.000000   0.003226   0.000002  -0.051513
               7          8          9         10         11         12
     1  C    1.154394  -1.705106  -0.097442   0.010272  -0.058325   0.025516
     2  C   -1.107618   1.161270   0.055267  -0.026783   0.048286   0.000787
     3  H    0.000538   0.039398   0.000073  -0.000269   0.001443   0.000002
     4  C    0.773231  -1.078060  -0.027248   0.038161  -0.185948  -0.002888
     5  H   -0.007132   0.003433   0.000121  -0.005820   0.007298   0.000012
     6  C   -0.742986  -0.057496   0.007553   0.285882   0.147371  -0.118283
     7  C    7.617502  -1.413264  -0.131633   0.040116  -0.766208  -0.187353
     8  C   -1.413264   8.909058   0.454804  -0.022307   0.145017   0.203692
     9  H   -0.131633   0.454804   0.555793  -0.000311   0.040912   0.001985
    10  H    0.040116  -0.022307  -0.000311   0.494075   0.023265   0.000284
    11  C   -0.766208   0.145017   0.040912   0.023265   6.131936   0.445841
    12  H   -0.187353   0.203692   0.001985   0.000284   0.445841   0.513549
    13  H   -0.122530  -0.140165   0.000170  -0.000519   0.430784  -0.029870
    14  H    0.091455  -0.033592   0.000188   0.000192   0.348689  -0.024747
              13         14
     1  C    0.001431   0.003689
     2  C    0.000585  -0.004683
     3  H   -0.000004   0.000000
     4  C    0.031394   0.003226
     5  H   -0.000005   0.000002
     6  C    0.162509  -0.051513
     7  C   -0.122530   0.091455
     8  C   -0.140165  -0.033592
     9  H    0.000170   0.000188
    10  H   -0.000519   0.000192
    11  C    0.430784   0.348689
    12  H   -0.029870  -0.024747
    13  H    0.527663  -0.030030
    14  H   -0.030030   0.502613
 Mulliken charges:
               1
     1  C   -0.988626
     2  C   -0.066011
     3  H    0.143960
     4  C   -0.180052
     5  H    0.159613
     6  C   -0.481427
     7  C    0.801489
     8  C   -0.466683
     9  H    0.139768
    10  H    0.163759
    11  C   -0.760359
    12  H    0.171471
    13  H    0.168588
    14  H    0.194510
 Sum of Mulliken charges =  -1.00000
 Mulliken charges with hydrogens summed into heavy atoms:
               1
     1  C   -0.988626
     2  C    0.077949
     4  C   -0.020439
     6  C   -0.317668
     7  C    0.801489
     8  C   -0.326915
    11  C   -0.225790
 APT charges:
               1
     1  C   -0.591430
     2  C   -0.100422
     3  H   -0.040523
     4  C    0.017747
     5  H   -0.005760
     6  C   -0.257986
     7  C    0.138951
     8  C   -0.101073
     9  H   -0.045359
    10  H    0.022299
    11  C    0.035720
    12  H   -0.012843
    13  H   -0.027791
    14  H   -0.031530
 Sum of APT charges =  -1.00000
 APT charges with hydrogens summed into heavy atoms:
               1
     1  C   -0.591430
     2  C   -0.140945
     4  C    0.011987
     6  C   -0.235687
     7  C    0.138951
     8  C   -0.146431
    11  C   -0.036445
 Electronic spatial extent (au):  <R**2>=          19369.7915
 Charge=             -1.0000 electrons
 Dipole moment (field-independent basis, Debye):
    X=            -30.4957    Y=            -33.4062    Z=            -25.8721  Tot=             52.1088
 Quadrupole moment (field-independent basis, Debye-Ang):
   XX=           -243.7141   YY=           -278.2983   ZZ=           -189.3369
   XY=           -210.5674   XZ=           -164.9896   YZ=           -181.6781
 Traceless Quadrupole moment (field-independent basis, Debye-Ang):
   XX=             -6.5976   YY=            -41.1819   ZZ=             47.7795
   XY=           -210.5674   XZ=           -164.9896   YZ=           -181.6781
 Octapole moment (field-independent basis, Debye-Ang**2):
  XXX=          -2000.9607  YYY=          -2683.3701  ZZZ=          -1420.8493  XYY=          -1685.0473
  XXY=          -1713.6686  XXZ=          -1282.0116  XZZ=          -1147.7652  YZZ=          -1369.7978
  YYZ=          -1479.5677  XYZ=          -1148.1870
 Hexadecapole moment (field-independent basis, Debye-Ang**3):
 XXXX=         -16101.4040 YYYY=         -28304.4965 ZZZZ=         -10302.9448 XXXY=         -14302.4329
 XXXZ=         -10315.2144 YYYX=         -15403.7968 YYYZ=         -13569.0024 ZZZX=          -8312.9964
 ZZZY=         -10360.5301 XXYY=         -13381.3485 XXZZ=          -8183.2420 YYZZ=         -10961.4483
 XXYZ=          -8990.5742 YYXZ=          -9037.0617 ZZXY=          -8210.7373
 N-N= 2.580199336355D+02 E-N=-1.153763542741D+03  KE= 2.697573818449D+02
  Exact polarizability:     144.011       2.659     134.816      22.815     -25.159     107.883
 Approx polarizability:     124.340       5.304     118.850      15.978     -19.125      95.463
 D2PCM: PCM CHGder 2nd derivatives, FixD1E=F FixD2E=F DoIter=F DoCFld=F I1PDM=0
 Calling FoFJK, ICntrl=    100127 FMM=F ISym2X=0 I1Cent= 0 IOpClX= 0 NMat=1 NMatS=1 NMatT=0.
 Full mass-weighted force constant matrix:
 Low frequencies ---  -12.0243    0.0002    0.0007    0.0009   15.3042   22.2953
 Low frequencies ---   55.7039  205.4735  345.8759
 Diagonal vibrational polarizability:
      201.0633039      45.9767104      70.3957380
 Harmonic frequencies (cm**-1), IR intensities (KM/Mole), Raman scattering
 activities (A**4/AMU), depolarization ratios for plane and unpolarized
 incident light, reduced masses (AMU), force constants (mDyne/A),
 and normal coordinates:
                      1                      2                      3
                      A                      A                      A
 Frequencies --      8.3765               205.3879               345.8705
 Red. masses --      1.0408                 2.9281                 2.5630
 Frc consts  --      0.0000                 0.0728                 0.1806
 IR Inten    --      0.7941                 1.4774                 5.2786
  Atom  AN      X      Y      Z        X      Y      Z        X      Y      Z
     1   6    -0.01   0.02   0.02    -0.01   0.01   0.02     0.01   0.09  -0.03
     2   6     0.00   0.00   0.01    -0.07   0.09   0.16     0.06   0.02   0.01
     3   1     0.00   0.01   0.01    -0.16   0.22   0.39     0.13   0.04   0.04
     4   6     0.01  -0.01  -0.02     0.00   0.00   0.00     0.03  -0.07   0.04
     5   1     0.02  -0.02  -0.03    -0.02   0.03   0.04     0.09  -0.14   0.09
     6   6     0.01  -0.02  -0.03     0.06  -0.08  -0.15    -0.12  -0.08   0.00
     7   6     0.00  -0.01  -0.01     0.05  -0.06  -0.12    -0.15  -0.04  -0.04
     8   6    -0.01   0.01   0.01     0.07  -0.09  -0.16    -0.12   0.02  -0.07
     9   1    -0.01   0.02   0.02     0.10  -0.13  -0.24    -0.18   0.07  -0.14
    10   1     0.02  -0.03  -0.05     0.08  -0.09  -0.18    -0.17  -0.17   0.05
    11   6     0.00   0.00   0.01    -0.07   0.08   0.18     0.22   0.05   0.06
    12   1    -0.02  -0.27  -0.48    -0.12   0.27   0.28     0.39  -0.20   0.32
    13   1    -0.47   0.13   0.30    -0.08   0.27   0.16     0.38   0.35  -0.08
    14   1     0.52   0.17   0.23    -0.14  -0.14   0.39     0.32   0.12   0.06
                      4                      5                      6
                      A                      A                      A
 Frequencies --    401.4975               463.0819               528.8387
 Red. masses --      3.1775                 3.0946                 5.0757
 Frc consts  --      0.3018                 0.3910                 0.8364
 IR Inten    --     20.9686                 0.0548                 0.6583
  Atom  AN      X      Y      Z        X      Y      Z        X      Y      Z
     1   6    -0.08   0.10   0.19     0.07  -0.10  -0.17    -0.13  -0.10   0.03
     2   6    -0.01   0.00   0.02    -0.06   0.07   0.16     0.02  -0.27   0.13
     3   1    -0.02   0.01   0.03    -0.13   0.16   0.33     0.05  -0.26   0.14
     4   6     0.08  -0.10  -0.19     0.04  -0.05  -0.07     0.11  -0.08   0.10
     5   1     0.18  -0.24  -0.46     0.13  -0.16  -0.30    -0.02   0.07   0.03
     6   6    -0.06   0.10   0.18     0.03  -0.03  -0.05     0.14  -0.03   0.07
[...]
 ! A19   A(7,11,14)            111.0821         -DE/DX =    0.0                 !
 ! A20   A(12,11,13)           108.2132         -DE/DX =    0.0                 !
 ! A21   A(12,11,14)           107.4766         -DE/DX =    0.0                 !
 ! A22   A(13,11,14)           107.324          -DE/DX =    0.0                 !
 ! D1    D(8,1,2,3)            179.9501         -DE/DX =    0.0                 !
 ! D2    D(8,1,2,4)              0.2772         -DE/DX =    0.0                 !
 ! D3    D(2,1,8,7)              0.051          -DE/DX =    0.0                 !
 ! D4    D(2,1,8,9)           -179.6976         -DE/DX =    0.0                 !
 ! D5    D(1,2,4,5)            179.5305         -DE/DX =    0.0                 !
 ! D6    D(1,2,4,6)             -0.3166         -DE/DX =    0.0                 !
 ! D7    D(3,2,4,5)             -0.1515         -DE/DX =    0.0                 !
 ! D8    D(3,2,4,6)           -179.9986         -DE/DX =    0.0                 !
 ! D9    D(2,4,6,7)              0.0095         -DE/DX =    0.0                 !
 ! D10   D(2,4,6,10)           179.8784         -DE/DX =    0.0                 !
 ! D11   D(5,4,6,7)           -179.8389         -DE/DX =    0.0                 !
 ! D12   D(5,4,6,10)             0.03           -DE/DX =    0.0                 !
 ! D13   D(4,6,7,8)              0.2921         -DE/DX =    0.0                 !
 ! D14   D(4,6,7,11)          -178.5985         -DE/DX =    0.0                 !
 ! D15   D(10,6,7,8)          -179.5774         -DE/DX =    0.0                 !
 ! D16   D(10,6,7,11)            1.532          -DE/DX =    0.0                 !
 ! D17   D(6,7,8,1)             -0.3334         -DE/DX =    0.0                 !
 ! D18   D(6,7,8,9)            179.4232         -DE/DX =    0.0                 !
 ! D19   D(11,7,8,1)           178.5466         -DE/DX =    0.0                 !
 ! D20   D(11,7,8,9)            -1.6967         -DE/DX =    0.0                 !
 ! D21   D(6,7,11,12)         -158.45           -DE/DX =    0.0                 !
 ! D22   D(6,7,11,13)          -37.6732         -DE/DX =    0.0                 !
 ! D23   D(6,7,11,14)           81.9625         -DE/DX =    0.0                 !
 ! D24   D(8,7,11,12)           22.6914         -DE/DX =    0.0                 !
 ! D25   D(8,7,11,13)          143.4682         -DE/DX =    0.0                 !
 ! D26   D(8,7,11,14)          -96.8961         -DE/DX =    0.0                 !
 --------------------------------------------------------------------------------
 GradGradGradGradGradGradGradGradGradGradGradGradGradGradGradGradGradGrad


 ----------------------------------------------------------------------

 Electric dipole moment (input orientation):
 (Debye = 10**-18 statcoulomb cm , SI units = C m)
                  (au)            (Debye)         (10**-30 SI)
   Tot        0.205012D+02      0.521088D+02      0.173816D+03
   x         -0.119979D+02     -0.304957D+02     -0.101723D+03
   y         -0.131430D+02     -0.334062D+02     -0.111431D+03
   z         -0.101789D+02     -0.258721D+02     -0.863002D+02

 Dipole polarizability, Alpha (input orientation).
 (esu units = cm**3 , SI units = C**2 m**2 J**-1)
 Alpha(0;0):
               (au)            (10**-24 esu)      (10**-40 SI)
   iso        0.128903D+03      0.191015D+02      0.212532D+02
   aniso      0.673753D+02      0.998399D+01      0.111087D+02
   xx         0.144011D+03      0.213402D+02      0.237441D+02
   yx         0.265851D+01      0.393950D+00      0.438329D+00
   yy         0.134816D+03      0.199777D+02      0.222282D+02
   zx         0.228154D+02      0.338090D+01      0.376176D+01
   zy        -0.251595D+02     -0.372825D+01     -0.414824D+01
   zz         0.107883D+03      0.159865D+02      0.177874D+02

 ----------------------------------------------------------------------

 Dipole orientation:
     6         -0.08350127         -0.23563318        -20.45102966
     6         -1.32896629          0.38661400        -18.16814476
     1         -1.41359070          2.35601591        -17.56096976
     6         -2.48188178         -1.38583738        -16.58077894
     1         -3.39725083         -0.78320687        -14.84129742
     6         -2.45942174         -3.94073310        -17.21674612
     6         -1.27620159         -4.70641506        -19.44900746
     6         -0.13616868         -2.85737208        -20.97136874
     1          0.77861412         -3.55905835        -22.68605707
     1         -3.34740933         -5.33090685        -15.99241472
     6         -1.27746440         -7.45669715        -20.21093931
     1          0.25734287         -7.86305356        -21.53032378
     1         -1.06448025         -8.69534822        -18.57144076
     1         -3.05156737         -7.96964424        -21.14440661

 Electric dipole moment (dipole orientation):
 (Debye = 10**-18 statcoulomb cm , SI units = C m)
                  (au)            (Debye)         (10**-30 SI)
   Tot        0.205012D+02      0.521088D+02      0.173816D+03
   x          0.000000D+00      0.000000D+00      0.000000D+00
   y          0.000000D+00      0.000000D+00      0.000000D+00
   z          0.205012D+02      0.521088D+02      0.173816D+03

 Dipole polarizability, Alpha (dipole orientation).
 (esu units = cm**3 , SI units = C**2 m**2 J**-1)
 Alpha(0;0):
               (au)            (10**-24 esu)      (10**-40 SI)
   iso        0.128903D+03      0.191015D+02      0.212532D+02
   aniso      0.673753D+02      0.998399D+01      0.111087D+02
   xx         0.102055D+03      0.151230D+02      0.168267D+02
   yx         0.115235D+02      0.170760D+01      0.189996D+01
   yy         0.154091D+03      0.228339D+02      0.254062D+02
   zx        -0.263920D+02     -0.391089D+01     -0.435145D+01
   zy        -0.219544D+01     -0.325331D+00     -0.361980D+00
   zz         0.130563D+03      0.193474D+02      0.215269D+02

 ----------------------------------------------------------------------
 Unable to Open any file for archive entry.
 1\1\GINC-CN013\Freq\RM062X\6-311+G(d,p)\C7H7(1-)\TAHMINAAFROZ\02-Jun-2
 025\0\\#N Geom=AllCheck Guess=TCheck SCRF=Check GenChk RM062X/6-311+G(
 d,p) Freq\\3-Me-ph-anion-opt-freq-thf-5-non-tight\\-1,1\C,6.268158,7.0
 39493,5.319178\C,5.135488,6.191415,5.316183\H,5.174196,5.24071,5.85097
 8\C,3.93828,6.48621,4.654869\H,3.105996,5.786217,4.685764\C,3.805445,7
 .67967,3.948263\C,4.878008,8.573889,3.908574\C,6.059989,8.229351,4.582
 782\H,6.871214,8.959033,4.51195\H,2.87949,7.91574,3.429973\C,4.748581,
 9.888228,3.176126\H,5.729577,10.288185,2.909607\H,4.163426,9.779228,2.
 259199\H,4.245661,10.637165,3.79679\\Version=AS64L-G16RevC.01\HF=-270.
 948904\RMSD=1.900e-09\RMSF=6.479e-06\ZeroPoint=0.1143936\Thermal=0.120
 6328\ETot=-270.8282713\HTot=-270.8273271\GTot=-270.8664652\Dipole=-2.6
 968711,1.6329411,-1.9689853\DipoleDeriv=-0.3719041,-0.0887107,0.221084
 2,-0.070309,-0.7165598,-0.0746197,0.2248266,-0.0846491,-0.6858258,-0.2
 319159,0.1356892,-0.0750679,0.1775116,0.1199741,-0.1227421,-0.0964157,
 -0.1418236,-0.1893234,0.0561675,-0.0228114,-0.012731,-0.0717113,-0.209
 1885,0.149045,0.0162617,0.1670705,0.0314509,-0.0429998,-0.0698077,0.08
 20958,-0.059676,0.1026168,-0.1440172,0.0718432,-0.1514755,-0.006377,-0
 .1257295,-0.1684995,-0.0318884,-0.1711859,-0.0268355,0.0360477,-0.0368
 767,0.0378307,0.1352862,-0.1254378,-0.0788071,0.100827,0.04349,-0.3789
 753,0.0607054,0.0389703,0.0040675,-0.2695451,0.1118964,0.0625167,0.007
 679,0.0274521,0.3147159,-0.1216615,0.0270891,-0.0352064,-0.0097601,-0.
 1387349,0.3147738,-0.1282115,0.1761658,0.0429408,-0.0780207,-0.0720137
 ,-0.0285875,-0.2074242,-0.0699378,-0.2014271,0.0380638,-0.1530157,-0.1
 406517,0.0724139,0.0129777,0.062212,0.0745136,-0.0994889,0.0398623,-0.
 1367753,0.0464807,0.0879764,0.0693901,-0.1443119,0.069427,0.0784104,0.
 0772403,0.1062352,-0.0717388,0.0252925,-0.087194,0.1101244,-0.0036097,
 0.013341,0.1171134,-0.1072258,-0.1275723,0.0801963,-0.0307913,0.010752
 6,0.0499,0.0174874,0.0653045,0.0579432,0.0145107,0.0004717,-0.1271139,
 -0.0289945,0.0172621,-0.0138565,-0.1230958,0.0737687,-0.115145,0.05355
 97,0.0980868,0.0535807,0.089291,-0.1368337,0.007291,0.0668674,-0.05127
 96,-0.0113171\Polar=144.0105654,2.6585081,134.8162009,22.815424,-25.15
 94672,107.8825123\Quadrupole=-4.9051638,-30.6177326,35.5228964,-156.55
 17003,-122.6657417,-135.0732198\PG=C01 [X(C7H7)]\NImag=0\\0.34714514,0
 .09584604,0.41329296,0.06226574,-0.14653703,0.17665894,-0.21810722,-0.
 08701829,-0.02042631,0.54405716,-0.10534110,-0.16239172,0.01505250,0.0
 6030467,0.56980436,-0.01046107,0.02285861,-0.07183602,0.13583956,-0.20
 958684,0.31296007,0.00063556,-0.02120961,0.01318772,-0.05312021,0.0093
 5140,-0.01088922,0.05716697,-0.00186713,-0.01490566,0.00562838,0.01370
 082,-0.24537456,0.11874991,-0.00678407,0.26430164,0.00303487,-0.002310
 37,-0.00065512,-0.01343812,0.11683789,-0.10767498,0.01625944,-0.133011
 93,0.10517478,-0.04429456,-0.04389265,-0.00287157,-0.25792630,0.058701
 63,-0.11207469,0.00037528,-0.00212639,-0.00036595,0.62377300,0.0008298
 9,0.04926597,-0.01541124,-0.00674907,-0.12364922,0.02767143,0.02487816
 ,-0.00524067,0.01540319,0.11465807,0.58840024,-0.02746087,-0.03350277,
 0.02782860,-0.07646272,0.05478521,-0.13069920,-0.01498862,0.00403955,-
 0.00464008,0.14193746,-0.19725999,0.30618800,-0.00344538,0.00091083,-0
 .00456259,-0.01418548,-0.01999375,0.00310358,0.00046373,0.00099748,0.0
 0126216,-0.21526949,-0.13785092,0.00031776,0.22466881,0.00001570,0.002
 12048,0.00230665,0.00622550,0.00750315,0.00087833,0.00015523,-0.000206
 34,-0.00189425,-0.13645126,-0.16719698,0.01316276,0.15054948,0.1729150
 4,-0.00421440,0.00266927,0.00313106,-0.01099213,-0.01018068,0.00528523
 ,0.00171330,-0.00155708,-0.00225615,-0.00056885,0.01260415,-0.04480602
 ,0.00182429,-0.01694190,0.03539942,-0.01032201,-0.02366864,0.01224955,
 0.02345462,0.02739005,-0.00897195,-0.00315673,0.00104707,-0.00513942,-
 0.12019899,0.03747081,-0.04459445,0.00501423,-0.02240952,0.01290225,0.
 64542835,-0.02491036,-0.05544083,0.01590220,0.07630320,0.00437808,0.03
 446261,-0.00051268,0.00303511,0.00224802,-0.02117056,-0.27128121,0.104
 43939,0.00368391,-0.01220957,0.00979754,0.06353663,0.56562900,0.012958
 18,0.01660404,-0.01201678,-0.03659553,0.01418720,-0.01355406,-0.004244
 78,0.00295320,0.00425237,-0.01191819,0.12846780,-0.13833366,-0.0011993
 6,-0.00111578,0.00326026,0.18145163,-0.20991669,0.32160581,0.02802148,
 0.07150524,-0.03624950,-0.06905443,-0.01084231,-0.01847545,-0.00144618
 ,-0.00048450,0.00013785,0.04236972,-0.05870814,0.04715358,0.00287205,0
 .00098366,-0.00275109,-0.23700138,-0.07579763,-0.03035621,0.60196977,0
 .02652301,0.00877548,0.01680684,-0.01775987,-0.00469473,-0.01063812,-0
 .00052533,0.00024987,-0.00073154,-0.01220194,-0.04121967,0.02030774,-0
 .00001600,-0.00155495,0.00570853,-0.13779559,-0.19241825,0.01018559,0.
 08612882,0.55430454,-0.01003089,0.03551279,-0.00394239,-0.01481446,-0.
 00665737,-0.01225438,0.00006079,-0.00078761,-0.00044784,0.02077922,0.0
 0140220,0.01421243,-0.00230740,0.00578906,0.00425618,0.00497501,0.0360
 5319,-0.08631553,0.13015965,-0.16752626,0.31656253,-0.10236813,0.00608
 960,-0.02417265,0.03693748,-0.01911245,0.02574127,-0.00101109,-0.00491
 546,-0.00206878,-0.02562275,0.02798654,-0.02211464,-0.00013063,0.00084
 330,-0.00035042,-0.05248643,-0.04344301,-0.00145333,-0.24456466,0.0594
 2549,-0.10427924,0.58701106,0.02414051,-0.22380977,0.10349829,-0.04192
 057,-0.03909696,0.00290030,-0.00587127,-0.00002167,0.00327528,0.021979
 50,-0.03004979,0.02049474,0.00114195,-0.00013679,0.00048503,0.00337546
 ,0.04593316,-0.01917041,-0.00983454,-0.12139098,0.02362305,0.10889893,
 0.53846715,-0.03524570,0.09502958,-0.11686686,0.03955064,0.01277332,0.
 00780090,-0.00149538,0.00365674,0.00774394,-0.01925982,0.02375643,-0.0
 3013965,-0.00061428,0.00027551,-0.00068005,-0.02790993,-0.03899755,0.0
 1977402,-0.06426983,0.05260263,-0.12722619,0.12357980,-0.17389021,0.28
 421152,0.00647459,0.00324410,0.00201343,0.00349882,-0.00065882,-0.0024
 8339,0.00002773,0.00011206,-0.00007015,0.00008036,0.00109208,-0.000037
 22,-0.00020128,0.00011593,0.00063815,-0.00278324,0.00185064,-0.0049765
 4,-0.02025320,-0.02110282,0.00142071,-0.19823511,-0.12502697,0.0038986
 3,0.21180527,-0.01561487,-0.01870229,0.00194046,-0.00157511,-0.0023439
 4,0.00660277,-0.00104249,-0.00085791,0.00005942,0.00074868,-0.00072040
 ,0.00005135,0.00010722,-0.00040962,-0.00082341,0.00042833,0.00268984,0
 .00263298,0.00417737,0.00354883,0.00248862,-0.13026902,-0.15685694,0.0
 1265795,0.14069168,0.17292773,0.01226878,0.01001146,-0.00352216,-0.001
 94724,0.00682967,0.00614917,0.00057551,0.00054754,-0.00002064,0.000087
 28,0.00023180,-0.00137029,0.00068817,-0.00078956,-0.00124748,-0.004479
 93,0.00295934,0.00363424,-0.01290940,-0.00707574,0.00346514,0.00744776
 ,0.01466028,-0.04378955,-0.00164429,-0.02440708,0.03824788,-0.00039598
 ,0.00020621,0.00124290,0.00311978,-0.00044488,-0.00177945,-0.00014398,
 -0.00009834,-0.00018364,0.00063907,-0.00151051,0.00008228,0.00014247,0
 .00121885,0.00121258,-0.25446461,0.04650809,-0.11823858,-0.01630756,0.
 00797196,-0.01270989,-0.00081603,-0.00534963,-0.00050372,-0.00123819,0
 .00015819,-0.00067796,0.26879092,0.00043374,-0.00109529,-0.00116566,-0
 .00215797,-0.00270096,0.00483273,0.00117484,-0.00038797,0.00095073,0.0
 2449230,-0.00085690,0.01199900,0.00026547,0.00007625,-0.00225996,0.046
 44989,-0.06587944,0.03720166,-0.01619289,0.00781638,-0.00918877,-0.004
 18180,-0.00091673,0.00272548,-0.00106704,0.00027109,-0.00045712,-0.049
 71789,0.06348908,0.00105385,-0.00128251,-0.00241960,-0.00079309,0.0055
 6890,0.00444532,-0.00086033,0.00038301,-0.00022184,-0.01418973,0.00123
 286,-0.00387461,0.00171401,-0.00185099,-0.00254488,-0.11859442,0.03703
 381,-0.10412489,0.00069750,0.00153905,0.00267145,-0.00089106,0.0022159
 3,0.00560277,-0.00008990,0.00002549,0.00028239,0.13024248,-0.04265203,
 0.10199679,-0.00327186,-0.00021317,-0.00281942,-0.00036631,0.00049849,
 -0.00016361,0.00011825,0.00034071,0.00055771,-0.00286617,-0.00441702,-
 0.00304263,0.00007958,-0.00126225,0.00061497,0.00612173,-0.02312657,0.
 01250001,-0.08680327,0.00600637,-0.00983225,0.00091075,0.02402086,-0.0
 1388083,0.00035405,0.00163903,-0.00023720,0.00034446,0.00046455,0.0021
 1169,0.57693920,-0.00118379,0.00398036,0.00117145,0.00046361,-0.000958
 95,0.00081807,0.00034994,-0.00042628,-0.00078660,-0.00380141,0.0030619
 6,0.00084073,0.00024367,-0.00028844,0.00034491,0.00048118,-0.02221300,
 0.01347814,0.00628284,-0.18417770,0.06147250,0.00301330,-0.00889413,0.
 00898676,-0.00025796,-0.00002888,-0.00268312,0.00155668,0.00023678,-0.
 00141602,0.01757884,0.50075593,-0.00341276,0.00222560,0.00377490,-0.00
 070324,-0.00046153,-0.00044285,0.00060804,-0.00064329,-0.00117726,-0.0
 0144297,0.00107612,0.00544939,-0.00030529,-0.00003573,0.00041938,0.000
 41693,0.00516661,0.00092245,-0.01033925,0.06417407,-0.10704207,-0.0037
 5203,0.01820618,-0.00567960,0.00213428,-0.00097366,-0.00186498,0.00028
 061,-0.00181675,-0.00160921,0.00636194,0.02060813,0.53757768,0.0004743
 3,-0.00083074,0.00015847,0.00038668,0.00018884,0.00002749,0.00001093,0
 .00002052,0.00008093,-0.00023678,0.00039896,-0.00024659,-0.00003149,-0
 .00002252,0.00006202,0.00054691,0.00015520,0.00027465,0.00365288,0.000
 91534,-0.00161923,0.00007655,0.00186425,-0.00143255,0.00020880,0.00030
 565,0.00061052,0.00013092,0.00017806,-0.00002938,-0.26710597,-0.088371
 57,0.05871641,0.28778109,0.00022894,-0.00009360,-0.00031084,-0.0000929
 7,0.00000211,0.00006868,0.00005491,0.00001921,0.00011219,-0.00095413,-
 0.00093009,-0.00051283,0.00003387,-0.00049090,0.00014592,0.00181247,-0
 .00372800,0.00377324,-0.02698232,-0.01159907,0.00603574,-0.00145881,0.
 00109815,-0.00157211,0.00070772,0.00051451,0.00032412,0.00003961,0.000
 13453,0.00011778,-0.08540605,-0.07869478,0.02350316,0.09451065,0.08765
 424,0.00017736,-0.00017106,-0.00004098,-0.00027521,0.00015620,-0.00022
 593,-0.00003771,0.00000485,-0.00001662,0.00050045,0.00013214,0.0008226
 4,0.00001472,0.00017542,-0.00015358,-0.00114003,0.00247779,-0.00107767
 ,0.01389921,0.00379924,-0.00393724,0.00092530,0.00010822,0.00089411,-0
 .00056359,-0.00001524,-0.00009822,0.00022102,-0.00008910,-0.00007659,0
 .05740816,0.02387776,-0.06309172,-0.06374941,-0.02830950,0.06318783,-0
 .00022127,0.00016310,0.00010094,0.00010928,-0.00014761,0.00017817,0.00
 010111,-0.00002719,-0.00016297,-0.00017501,0.00072100,0.00033826,0.000
 02483,0.00002063,-0.00004941,0.00028064,-0.00128595,0.00098477,-0.0030
 0574,0.00078406,-0.00164840,0.00042284,0.00111355,-0.00102786,0.000418
 06,0.00000800,-0.00009734,0.00033353,-0.00021197,-0.00041892,-0.123224
 44,-0.01761871,-0.11982587,-0.01347052,-0.00257746,-0.02454225,0.12941
 061,0.00114392,-0.00086778,-0.00006613,0.00027827,-0.00007928,0.000163
 81,-0.00012666,0.00004609,0.00013244,0.00026529,0.00007063,-0.00041074
 ,-0.00000802,-0.00000719,-0.00007353,0.00106011,0.00104809,-0.00021088
 ,0.01703788,0.00270757,0.02532316,-0.00128113,-0.00374462,0.00189538,0
 .00001621,0.00009888,0.00016406,-0.00049652,0.00016069,-0.00023361,-0.
 01858207,-0.04815285,-0.02559220,-0.00456717,-0.00230452,-0.00955477,0
 .01778988,0.05370312,-0.00091137,-0.00044285,0.00028495,0.00062181,0.0
 0028727,0.00019235,0.00014209,-0.00003106,-0.00016682,-0.00045322,0.00
 080320,0.00009113,0.00003713,0.00003545,-0.00003903,-0.00078242,-0.001
 14507,0.00147805,-0.00780452,-0.00201881,-0.01123446,0.00122187,0.0027
 4199,-0.00095473,-0.00003076,-0.00020102,0.00000708,0.00067722,0.00001
 086,-0.00025798,-0.11996586,-0.02430860,-0.23466252,0.00451413,0.00072
 425,0.00851192,0.13283424,0.02565807,0.25226001,-0.00032469,-0.0011320
 3,-0.00011672,0.00119613,0.00010584,0.00040876,-0.00002138,0.00008443,
 0.00009608,-0.00064738,0.00120015,-0.00088159,-0.00000195,0.00001726,-
 0.00004123,-0.00043310,-0.00179092,0.00081328,-0.00044949,0.00164650,-
 0.00015364,-0.00012383,0.00146797,-0.00138919,-0.00015667,0.00023734,0
 .00031533,-0.00013481,0.00007071,0.00004731,-0.10123000,0.08126337,0.0
 7126321,-0.01242434,0.02008358,0.01716199,0.00899608,-0.01252998,-0.01
 010034,0.10575542,-0.00024450,-0.00012832,0.00118413,-0.00000219,-0.00
 039737,0.00021771,0.00010763,-0.00023087,-0.00028447,-0.00024715,0.000
 34612,0.00156587,-0.00006519,-0.00011415,0.00008121,0.00082176,0.00045
 702,0.00092992,0.01272652,-0.02034731,-0.01354029,-0.00159547,-0.00058
 007,0.00010009,0.00028319,-0.00013089,-0.00031566,-0.00004182,-0.00034
 751,-0.00068169,0.08245825,-0.16420002,-0.10543670,-0.00474548,0.00841
 821,0.00740806,0.00126866,-0.00267883,-0.00211368,-0.09072421,0.179933
 98,-0.00002173,-0.00066477,-0.00037854,0.00043605,0.00040826,-0.000145
 62,-0.00003082,0.00006780,0.00010627,-0.00015942,-0.00011010,-0.000728
 67,0.00002709,0.00000503,-0.00002435,-0.00038283,-0.00048117,0.0004953
 8,-0.00889255,0.01286679,0.01123238,0.00016615,0.00085134,-0.00069063,
 -0.00020935,-0.00003863,0.00012742,0.00013414,-0.00009107,0.00013088,0
 .07038734,-0.10240411,-0.13257362,0.00263253,-0.00409980,-0.00469795,0
 .01333663,-0.01719505,-0.01550996,-0.07742324,0.11088549,0.14265701\\-
 0.00000587,-0.00000146,0.00000697,-0.00001012,0.00000257,0.00000738,-0
 .00001417,0.00000472,0.00001092,-0.00000628,0.00000577,0.00000371,-0.0
 0001002,0.00000786,0.00000462,-0.00000100,0.00000232,-0.00000063,0.000
 00296,-0.00000124,-0.00000138,-0.00000084,-0.00000314,0.00000182,0.000
 00293,-0.00000651,0.00000118,0.00000099,0.00000455,-0.00000364,0.00000
 879,-0.00000361,-0.00000730,0.00001116,-0.00000805,-0.00000598,0.00001
 085,-0.00000450,-0.00000717,0.00001060,0.00000072,-0.00001052\\\@
 The archive entry for this job was punched.


 WOMEN HOLD UP HALF THE SKY. -- MAO TSE TUNG
 Job cpu time:       0 days  0 hours 24 minutes 13.6 seconds.
 Elapsed time:       0 days  0 hours  0 minutes 47.9 seconds.
 File lengths (MBytes):  RWF=     81 Int=      0 D2E=      0 Chk=      8 Scr=      1
 Normal termination of Gaussian 16 at Mon Jun  2 13:36:29 2025.
