/home/tahminaafroz
cn017.cluster.local
Tue Apr 22 20:46:47 CDT 2025
 Entering Gaussian System, Link 0=g16
 Initial command:
 /home/apps/g16/l1.exe "/tmp/3-Me-phboh2-opt-freq/Gau-373343.inp" -scrdir="/tmp/3-Me-phboh2-opt-freq/"
 Entering Link 1 = /home/apps/g16/l1.exe PID=    373344.
  
 Copyright (c) 1988-2019, Gaussian, Inc.  All Rights Reserved.
  
 This is part of the Gaussian(R) 16 program.  It is based on
 the Gaussian(R) 09 system (copyright 2009, Gaussian, Inc.),
 the Gaussian(R) 03 system (copyright 2003, Gaussian, Inc.),
 the Gaussian(R) 98 system (copyright 1998, Gaussian, Inc.),
 the Gaussian(R) 94 system (copyright 1995, Gaussian, Inc.),
 the Gaussian 92(TM) system (copyright 1992, Gaussian, Inc.),
 the Gaussian 90(TM) system (copyright 1990, Gaussian, Inc.),
 the Gaussian 88(TM) system (copyright 1988, Gaussian, Inc.),
 the Gaussian 86(TM) system (copyright 1986, Carnegie Mellon
 University), and the Gaussian 82(TM) system (copyright 1983,
 Carnegie Mellon University). Gaussian is a federally registered
 trademark of Gaussian, Inc.
  
 This software contains proprietary and confidential information,
 including trade secrets, belonging to Gaussian, Inc.
  
 This software is provided under written license and may be
 used, copied, transmitted, or stored only in accord with that
 written license.
  
 The following legend is applicable only to US Government
 contracts under FAR:
  
                    RESTRICTED RIGHTS LEGEND
  
 Use, reproduction and disclosure by the US Government is
 subject to restrictions as set forth in subparagraphs (a)
 and (c) of the Commercial Computer Software - Restricted
 Rights clause in FAR 52.227-19.
  
 Gaussian, Inc.
 340 Quinnipiac St., Bldg. 40, Wallingford CT 06492
  
  
 ---------------------------------------------------------------
 Warning -- This program may not be used in any manner that
 competes with the business of Gaussian, Inc. or will provide
 assistance to any competitor of Gaussian, Inc.  The licensee
 of this program is prohibited from giving any competitor of
 Gaussian, Inc. access to this program.  By using this program,
 the user acknowledges that Gaussian, Inc. is engaged in the
 business of creating and licensing software in the field of
 computational chemistry and represents and warrants to the
 licensee that it is not a competitor of Gaussian, Inc. and that
 it will not use this program in any manner prohibited above.
 ---------------------------------------------------------------
  

 Cite this work as:
 Gaussian 16, Revision C.01,
 M. J. Frisch, G. W. Trucks, H. B. Schlegel, G. E. Scuseria, 
 M. A. Robb, J. R. Cheeseman, G. Scalmani, V. Barone, 
 G. A. Petersson, H. Nakatsuji, X. Li, M. Caricato, A. V. Marenich, 
 J. Bloino, B. G. Janesko, R. Gomperts, B. Mennucci, H. P. Hratchian, 
 J. V. Ortiz, A. F. Izmaylov, J. L. Sonnenberg, D. Williams-Young, 
 F. Ding, F. Lipparini, F. Egidi, J. Goings, B. Peng, A. Petrone, 
 T. Henderson, D. Ranasinghe, V. G. Zakrzewski, J. Gao, N. Rega, 
 G. Zheng, W. Liang, M. Hada, M. Ehara, K. Toyota, R. Fukuda, 
 J. Hasegawa, M. Ishida, T. Nakajima, Y. Honda, O. Kitao, H. Nakai, 
 T. Vreven, K. Throssell, J. A. Montgomery, Jr., J. E. Peralta, 
 F. Ogliaro, M. J. Bearpark, J. J. Heyd, E. N. Brothers, K. N. Kudin, 
 V. N. Staroverov, T. A. Keith, R. Kobayashi, J. Normand, 
 K. Raghavachari, A. P. Rendell, J. C. Burant, S. S. Iyengar, 
 J. Tomasi, M. Cossi, J. M. Millam, M. Klene, C. Adamo, R. Cammi, 
 J. W. Ochterski, R. L. Martin, K. Morokuma, O. Farkas, 
 J. B. Foresman, and D. J. Fox, Gaussian, Inc., Wallingford CT, 2019.
 
 ******************************************
 Gaussian 16:  AS64L-G16RevC.01  3-Jul-2019
                22-Apr-2025 
 ******************************************
 %mem=20GB
 %nprocshared=32
 Will use up to   32 processors via shared memory.
 %chk=3-Me-phboh2-opt-freq.chk
 ----------------------------------------------------------------------
 # opt=(calcfc,tight) freq 6-311+g(d,p) nosymm scf=(qc,fermi,xqc) geom=
 connectivity int=ultrafine m062x
 ----------------------------------------------------------------------
 1/7=10,10=4,18=20,19=15,26=4,38=1,57=2/1,3;
 2/9=110,12=2,15=1,17=6,18=5,40=1/2;
 3/5=4,6=6,7=111,11=2,25=1,30=1,71=2,74=-55,75=-5,140=1/1,2,3;
 4//1;
 5/5=2,22=13,38=5/2;
 8/6=4,10=90,11=11/1;
 11/6=1,8=1,9=11,15=111,16=1,31=1/1,2,10;
 10/6=1,13=1,31=1/2;
 6/7=2,8=2,9=2,10=2,28=1/1;
 7/10=1,25=1,30=1/1,2,3,16;
 1/7=10,10=4,18=20,19=15,26=4/3(2);
 2/9=110,15=1/2;
 99//99;
 2/9=110,15=1/2;
 3/5=4,6=6,7=111,11=2,25=1,30=1,71=1,74=-55,75=-5/1,2,3;
 4/5=5,16=3,69=1/1;
 5/5=2,22=13,38=5/2;
 7/30=1/1,2,3,16;
 1/7=10,18=20,19=15,26=4/3(-5);
 2/9=110,15=1/2;
 6/7=2,8=2,9=2,10=2,19=2,28=1/1;
 99/9=1/99;
 --------------------
 3-Me-phboh2-opt-freq
 --------------------
 Symbolic Z-matrix:
 Charge =  0 Multiplicity = 1
 O                     8.69919   7.4512    5.54335 
 H                     9.50873   7.13099   5.95119 
 C                     6.25061   6.9964    5.17743 
 B                     7.64701   6.61396   5.76968 
 O                     7.88538   5.48481   6.50782 
 H                     7.11269   4.93653   6.65196 
 C                     5.11878   6.18793   5.3174 
 H                     5.17541   5.24329   5.85286 
 C                     3.89081   6.55966   4.78262 
 H                     3.02788   5.91417   4.90925 
 C                     3.7533    7.75869   4.08318 
 C                     4.8782    8.57416   3.94017 
 C                     6.10288   8.19902   4.47485 
 H                     6.96648   8.8438    4.35487 
 H                     2.81582   8.04      3.65087 
 C                     4.74998   9.90687   3.17922 
 H                     5.02232   10.71455   3.82605 
 H                     5.39967   9.89613   2.3291 
 H                     3.73887   10.03592   2.85378 
 

 GradGradGradGradGradGradGradGradGradGradGradGradGradGradGradGradGradGrad
 Berny optimization.
 Initialization pass.
                           ----------------------------
                           !    Initial Parameters    !
                           ! (Angstroms and Degrees)  !
 --------------------------                            --------------------------
 ! Name  Definition              Value          Derivative Info.                !
 --------------------------------------------------------------------------------
 ! R1    R(1,2)                  0.9614         calculate D2E/DX2 analytically  !
 ! R2    R(1,4)                  1.3636         calculate D2E/DX2 analytically  !
 ! R3    R(3,4)                  1.5643         calculate D2E/DX2 analytically  !
 ! R4    R(3,7)                  1.3979         calculate D2E/DX2 analytically  !
 ! R5    R(3,13)                 1.4006         calculate D2E/DX2 analytically  !
 ! R6    R(4,5)                  1.3699         calculate D2E/DX2 analytically  !
 ! R7    R(5,6)                  0.9584         calculate D2E/DX2 analytically  !
 ! R8    R(7,8)                  1.0873         calculate D2E/DX2 analytically  !
 ! R9    R(7,9)                  1.39           calculate D2E/DX2 analytically  !
 ! R10   R(9,10)                 1.0851         calculate D2E/DX2 analytically  !
 ! R11   R(9,11)                 1.3949         calculate D2E/DX2 analytically  !
 ! R12   R(11,12)                1.3967         calculate D2E/DX2 analytically  !
 ! R13   R(11,15)                1.07           calculate D2E/DX2 analytically  !
 ! R14   R(12,13)                1.388          calculate D2E/DX2 analytically  !
 ! R15   R(12,16)                1.54           calculate D2E/DX2 analytically  !
 ! R16   R(13,14)                1.0844         calculate D2E/DX2 analytically  !
 ! R17   R(16,17)                1.07           calculate D2E/DX2 analytically  !
 ! R18   R(16,18)                1.07           calculate D2E/DX2 analytically  !
 ! R19   R(16,19)                1.07           calculate D2E/DX2 analytically  !
 ! A1    A(2,1,4)              112.0147         calculate D2E/DX2 analytically  !
 ! A2    A(4,3,7)              122.9187         calculate D2E/DX2 analytically  !
 ! A3    A(4,3,13)             119.6037         calculate D2E/DX2 analytically  !
 ! A4    A(7,3,13)             117.4774         calculate D2E/DX2 analytically  !
 ! A5    A(1,4,3)              118.4163         calculate D2E/DX2 analytically  !
 ! A6    A(1,4,5)              117.4688         calculate D2E/DX2 analytically  !
 ! A7    A(3,4,5)              124.1148         calculate D2E/DX2 analytically  !
 ! A8    A(4,5,6)              114.3498         calculate D2E/DX2 analytically  !
 ! A9    A(3,7,8)              120.636          calculate D2E/DX2 analytically  !
 ! A10   A(3,7,9)              121.4718         calculate D2E/DX2 analytically  !
 ! A11   A(8,7,9)              117.8922         calculate D2E/DX2 analytically  !
 ! A12   A(7,9,10)             119.9072         calculate D2E/DX2 analytically  !
 ! A13   A(7,9,11)             120.6554         calculate D2E/DX2 analytically  !
 ! A14   A(10,9,11)            119.4374         calculate D2E/DX2 analytically  !
 ! A15   A(9,11,12)            118.2816         calculate D2E/DX2 analytically  !
 ! A16   A(9,11,15)            120.9933         calculate D2E/DX2 analytically  !
 ! A17   A(12,11,15)           120.7156         calculate D2E/DX2 analytically  !
 ! A18   A(11,12,13)           120.8894         calculate D2E/DX2 analytically  !
 ! A19   A(11,12,16)           119.2614         calculate D2E/DX2 analytically  !
 ! A20   A(13,12,16)           119.8491         calculate D2E/DX2 analytically  !
 ! A21   A(3,13,12)            121.2238         calculate D2E/DX2 analytically  !
 ! A22   A(3,13,14)            118.8189         calculate D2E/DX2 analytically  !
 ! A23   A(12,13,14)           119.9569         calculate D2E/DX2 analytically  !
 ! A24   A(12,16,17)           109.4712         calculate D2E/DX2 analytically  !
 ! A25   A(12,16,18)           109.4712         calculate D2E/DX2 analytically  !
 ! A26   A(12,16,19)           109.4712         calculate D2E/DX2 analytically  !
 ! A27   A(17,16,18)           109.4713         calculate D2E/DX2 analytically  !
 ! A28   A(17,16,19)           109.4712         calculate D2E/DX2 analytically  !
 ! A29   A(18,16,19)           109.4712         calculate D2E/DX2 analytically  !
 ! D1    D(2,1,4,3)            179.6965         calculate D2E/DX2 analytically  !
 ! D2    D(2,1,4,5)             -0.2543         calculate D2E/DX2 analytically  !
 ! D3    D(7,3,4,1)            178.0187         calculate D2E/DX2 analytically  !
 ! D4    D(7,3,4,5)             -2.0341         calculate D2E/DX2 analytically  !
 ! D5    D(13,3,4,1)            -2.1529         calculate D2E/DX2 analytically  !
 ! D6    D(13,3,4,5)           177.7943         calculate D2E/DX2 analytically  !
 ! D7    D(4,3,7,8)             -0.1869         calculate D2E/DX2 analytically  !
 ! D8    D(4,3,7,9)            179.767          calculate D2E/DX2 analytically  !
 ! D9    D(13,3,7,8)           179.9813         calculate D2E/DX2 analytically  !
 ! D10   D(13,3,7,9)            -0.0648         calculate D2E/DX2 analytically  !
 ! D11   D(4,3,13,12)         -179.7283         calculate D2E/DX2 analytically  !
 ! D12   D(4,3,13,14)            0.0498         calculate D2E/DX2 analytically  !
 ! D13   D(7,3,13,12)            0.1093         calculate D2E/DX2 analytically  !
 ! D14   D(7,3,13,14)          179.8874         calculate D2E/DX2 analytically  !
 ! D15   D(1,4,5,6)            179.0236         calculate D2E/DX2 analytically  !
 ! D16   D(3,4,5,6)             -0.9242         calculate D2E/DX2 analytically  !
 ! D17   D(3,7,9,10)          -179.796          calculate D2E/DX2 analytically  !
 ! D18   D(3,7,9,11)             0.1315         calculate D2E/DX2 analytically  !
 ! D19   D(8,7,9,10)             0.1592         calculate D2E/DX2 analytically  !
 ! D20   D(8,7,9,11)          -179.9134         calculate D2E/DX2 analytically  !
 ! D21   D(7,9,11,12)           -0.2337         calculate D2E/DX2 analytically  !
 ! D22   D(7,9,11,15)          178.6471         calculate D2E/DX2 analytically  !
 ! D23   D(10,9,11,12)         179.6941         calculate D2E/DX2 analytically  !
 ! D24   D(10,9,11,15)          -1.4252         calculate D2E/DX2 analytically  !
 ! D25   D(9,11,12,13)           0.2787         calculate D2E/DX2 analytically  !
 ! D26   D(9,11,12,16)        -179.6459         calculate D2E/DX2 analytically  !
 ! D27   D(15,11,12,13)       -178.6053         calculate D2E/DX2 analytically  !
 ! D28   D(15,11,12,16)          1.4702         calculate D2E/DX2 analytically  !
 ! D29   D(11,12,13,3)          -0.2217         calculate D2E/DX2 analytically  !
 ! D30   D(11,12,13,14)       -179.9973         calculate D2E/DX2 analytically  !
 ! D31   D(16,12,13,3)         179.7024         calculate D2E/DX2 analytically  !
 ! D32   D(16,12,13,14)         -0.0731         calculate D2E/DX2 analytically  !
 ! D33   D(11,12,16,17)        120.7761         calculate D2E/DX2 analytically  !
 ! D34   D(11,12,16,18)       -119.2239         calculate D2E/DX2 analytically  !
 ! D35   D(11,12,16,19)          0.7761         calculate D2E/DX2 analytically  !
 ! D36   D(13,12,16,17)        -59.1493         calculate D2E/DX2 analytically  !
 ! D37   D(13,12,16,18)         60.8507         calculate D2E/DX2 analytically  !
 ! D38   D(13,12,16,19)       -179.1493         calculate D2E/DX2 analytically  !
 --------------------------------------------------------------------------------
 Trust Radius=3.00D-01 FncErr=1.00D-07 GrdErr=1.00D-06 EigMax=2.50D+02 EigMin=1.00D-04
 Number of steps in this run=     96 maximum allowed number of steps=    114.
 GradGradGradGradGradGradGradGradGradGradGradGradGradGradGradGradGradGrad

                          Input orientation:                          
 ---------------------------------------------------------------------
 Center     Atomic      Atomic             Coordinates (Angstroms)
 Number     Number       Type             X           Y           Z
 ---------------------------------------------------------------------
      1          8           0        8.699194    7.451204    5.543347
      2          1           0        9.508728    7.130989    5.951190
      3          6           0        6.250609    6.996402    5.177434
      4          5           0        7.647008    6.613959    5.769676
      5          8           0        7.885381    5.484812    6.507818
      6          1           0        7.112687    4.936526    6.651956
      7          6           0        5.118783    6.187926    5.317396
      8          1           0        5.175405    5.243293    5.852864
      9          6           0        3.890807    6.559656    4.782621
     10          1           0        3.027877    5.914169    4.909250
     11          6           0        3.753302    7.758692    4.083176
     12          6           0        4.878201    8.574164    3.940166
     13          6           0        6.102877    8.199016    4.474850
     14          1           0        6.966475    8.843805    4.354867
     15          1           0        2.815818    8.039997    3.650867
     16          6           0        4.749982    9.906874    3.179216
     17          1           0        5.022316   10.714548    3.826053
     18          1           0        5.399669    9.896125    2.329104
     19          1           0        3.738875   10.035922    2.853781
 ---------------------------------------------------------------------
                    Distance matrix (angstroms):
                    1          2          3          4          5
     1  O    0.000000
     2  H    0.961363   0.000000
     3  C    2.517202   3.351440   0.000000
     4  B    1.363561   1.940688   1.564271   0.000000
     5  O    2.336492   2.378022   2.593705   1.369908   0.000000
     6  H    3.173267   3.323816   2.675908   1.969187   0.958358
     7  C    3.803455   4.534609   1.397946   2.603456   3.092820
     8  H    4.169863   4.727658   2.164639   2.827449   2.798440
     9  C    4.949156   5.766542   2.432137   3.884105   4.481988
    10  H    5.910025   6.675906   3.410154   4.750412   5.131775
    11  C    5.166091   6.083454   2.831083   4.394956   5.303159
    12  C    4.293159   5.250595   2.429747   3.854323   5.017974
    13  C    2.905473   3.862652   1.400618   2.563849   3.831081
    14  H    2.520741   3.456159   2.145222   2.727091   4.094193
    15  H    6.208242   7.135322   3.900934   5.464735   6.355439
    16  C    5.216867   6.167255   3.836092   5.093774   6.361206
    17  H    5.207489   6.122581   4.142408   5.242281   6.537518
    18  H    5.214966   6.135948   4.152768   5.259343   6.565067
    19  H    6.206392   7.164062   4.576774   5.956994   7.159477
                    6          7          8          9         10
     6  H    0.000000
     7  C    2.706050   0.000000
     8  H    2.117951   1.087319   0.000000
     9  C    4.063185   1.389997   2.128009   0.000000
    10  H    4.547360   2.147886   2.439746   1.085051   0.000000
    11  C    5.084164   2.419740   3.388422   1.394926   2.147302
    12  C    5.057583   2.765642   3.852460   2.396439   3.382070
    13  C    4.050105   2.392239   3.390490   2.770465   3.855497
    14  H    4.534846   3.375518   4.291342   3.854873   4.939905
    15  H    6.091072   3.392806   4.270597   2.151251   2.479444
    16  C    6.507431   4.305624   5.392436   3.809587   4.679781
    17  H    6.763203   4.766939   5.836611   4.411174   5.309871
    18  H    6.798464   4.770695   5.840893   4.407770   5.304576
    19  H    7.198096   4.772905   5.833302   3.978434   4.660399
                   11         12         13         14         15
    11  C    0.000000
    12  C    1.396726   0.000000
    13  C    2.422353   1.387968   0.000000
    14  H    3.402318   2.146060   1.084412   0.000000
    15  H    1.070000   2.149989   3.392491   4.285986   0.000000
    16  C    2.534798   1.540000   2.534910   2.724906   2.729226
    17  H    3.227009   2.148263   2.813618   2.749378   3.471677
    18  H    3.218061   2.148263   2.824696   2.768750   3.445077
    19  H    2.587933   2.148263   3.404496   3.753906   2.339037
                   16         17         18         19
    16  C    0.000000
    17  H    1.070000   0.000000
    18  H    1.070000   1.747303   0.000000
    19  H    1.070000   1.747303   1.747303   0.000000
 Symmetry turned off by external request.
 Stoichiometry    C7H9BO2
 Framework group  C1[X(C7H9BO2)]
 Deg. of freedom    51
 Full point group                 C1      NOp   1
 Rotational constants (GHZ):           2.5015854           0.8844094           0.6561141
 Standard basis: 6-311+G(d,p) (5D, 7F)
   274 basis functions,   432 primitive gaussians,   284 cartesian basis functions
    36 alpha electrons       36 beta electrons
       nuclear repulsion energy       475.7913212924 Hartrees.
 NAtoms=   19 NActive=   19 NUniq=   19 SFac= 1.00D+00 NAtFMM=   60 NAOKFM=F Big=F
 Integral buffers will be    131072 words long.
 Raffenetti 2 integral format.
 Two-electron integral symmetry is turned off.
 One-electron integrals computed using PRISM.
 NBasis=   274 RedAO= T EigKep=  1.70D-06  NBF=   274
 NBsUse=   274 1.00D-06 EigRej= -1.00D+00 NBFU=   274
 ExpMin= 3.15D-02 ExpMax= 8.59D+03 ExpMxC= 1.30D+03 IAcc=3 IRadAn=         5 AccDes= 0.00D+00
 Harris functional with IExCor= 1009 and IRadAn=       5 diagonalized for initial guess.
 HarFok:  IExCor= 1009 AccDes= 0.00D+00 IRadAn=         5 IDoV= 1 UseB2=F ITyADJ=14
 ICtDFT=  3500011 ScaDFX=  1.000000  1.000000  1.000000  1.000000
 FoFCou: FMM=F IPFlag=           0 FMFlag=      100000 FMFlg1=           0
         NFxFlg=           0 DoJE=T BraDBF=F KetDBF=T FulRan=T
         wScrn=  0.000000 ICntrl=       500 IOpCl=  0 I1Cent=   200000004 NGrid=           0
         NMat0=    1 NMatS0=      1 NMatT0=    0 NMatD0=    1 NMtDS0=    0 NMtDT0=    0
 Symmetry not used in FoFCou.
 Requested convergence on RMS density matrix=1.00D-08 within 128 cycles.
 Requested convergence on MAX density matrix=1.00D-06.
 Requested convergence on             energy=1.00D-06.
 Level shift goal  0.100 maximum shift  0.100.
 No special actions if energy rises.
 Dynamic level shift is on during FON iterations.
 SCF Done:  E(RM062X) =  -447.529108803     A.U. after   14 cycles
            NFock= 14  Conv=0.42D-08     -V/T= 2.0036
 DoSCS=F DFT=T ScalE2(SS,OS)=  1.000000  1.000000
 Range of M.O.s used for correlation:     1   274
 NBasis=   274 NAE=    36 NBE=    36 NFC=     0 NFV=     0
 NROrb=    274 NOA=    36 NOB=    36 NVA=   238 NVB=   238

 **** Warning!!: The largest alpha MO coefficient is  0.20981092D+03

 Symmetrizing basis deriv contribution to polar:
 IMax=3 JMax=2 DiffMx= 0.00D+00
 G2DrvN: will do    20 centers at a time, making    1 passes.
 Calling FoFCou, ICntrl=  3107 FMM=F I1Cent=   0 AccDes= 0.00D+00.
 End of G2Drv F.D. properties file   721 does not exist.
 End of G2Drv F.D. properties file   722 does not exist.
 End of G2Drv F.D. properties file   788 does not exist.
          IDoAtm=1111111111111111111
          Differentiating once with respect to nuclear coordinates.
 Keep R1 ints in memory in canonical form, NReq=745413662.
          There are    60 degrees of freedom in the 1st order CPHF.  IDoFFX=6 NUNeed=     0.
     54 vectors produced by pass  0 Test12= 1.43D-14 1.67D-09 XBig12= 1.58D-01 1.08D-01.
 AX will form    54 AO Fock derivatives at one time.
     54 vectors produced by pass  1 Test12= 1.43D-14 1.67D-09 XBig12= 1.16D-02 3.30D-02.
     54 vectors produced by pass  2 Test12= 1.43D-14 1.67D-09 XBig12= 3.60D-04 2.63D-03.
     54 vectors produced by pass  3 Test12= 1.43D-14 1.67D-09 XBig12= 2.32D-06 2.34D-04.
     54 vectors produced by pass  4 Test12= 1.43D-14 1.67D-09 XBig12= 1.47D-08 1.58D-05.
     54 vectors produced by pass  5 Test12= 1.43D-14 1.67D-09 XBig12= 6.52D-11 1.12D-06.
     47 vectors produced by pass  6 Test12= 1.43D-14 1.67D-09 XBig12= 2.30D-13 8.16D-08.
      7 vectors produced by pass  7 Test12= 1.43D-14 1.67D-09 XBig12= 9.47D-16 3.19D-09.
 InvSVY:  IOpt=1 It=  1 EMax= 5.55D-16
 Solved reduced A of dimension   378 with    60 vectors.
 End of Minotr F.D. properties file   721 does not exist.
 End of Minotr F.D. properties file   722 does not exist.
 End of Minotr F.D. properties file   788 does not exist.

 **********************************************************************

            Population analysis using the SCF Density.

 **********************************************************************

 Alpha  occ. eigenvalues --  -19.63827 -19.63051 -10.55231 -10.54865 -10.54624
 Alpha  occ. eigenvalues --  -10.54506 -10.53993 -10.52967 -10.52765  -7.08354
 Alpha  occ. eigenvalues --   -1.16858  -1.13139  -0.96460  -0.87074  -0.84514
 Alpha  occ. eigenvalues --   -0.78032  -0.69629  -0.67777  -0.64894  -0.62085
 Alpha  occ. eigenvalues --   -0.58697  -0.53910  -0.52172  -0.49894  -0.49519
 Alpha  occ. eigenvalues --   -0.47804  -0.47295  -0.45573  -0.45418  -0.45122
 Alpha  occ. eigenvalues --   -0.42642  -0.40488  -0.39300  -0.38026  -0.31023
 Alpha  occ. eigenvalues --   -0.30070
 Alpha virt. eigenvalues --   -0.00463  -0.00276   0.01545   0.01776   0.01824
 Alpha virt. eigenvalues --    0.03296   0.03362   0.03780   0.05055   0.05885
 Alpha virt. eigenvalues --    0.06497   0.06855   0.08655   0.08952   0.10219
 Alpha virt. eigenvalues --    0.11271   0.11771   0.12497   0.12701   0.12998
 Alpha virt. eigenvalues --    0.13494   0.14627   0.15322   0.16375   0.16403
 Alpha virt. eigenvalues --    0.17072   0.17532   0.18381   0.18937   0.19491
 Alpha virt. eigenvalues --    0.19791   0.21200   0.21676   0.22300   0.22648
 Alpha virt. eigenvalues --    0.23306   0.23582   0.23933   0.24338   0.24493
 Alpha virt. eigenvalues --    0.25388   0.25600   0.25830   0.26985   0.28194
 Alpha virt. eigenvalues --    0.28384   0.28955   0.29651   0.30521   0.32162
 Alpha virt. eigenvalues --    0.34026   0.34311   0.35901   0.36268   0.36899
 Alpha virt. eigenvalues --    0.39824   0.41052   0.44195   0.44653   0.46051
 Alpha virt. eigenvalues --    0.48852   0.49443   0.49804   0.50507   0.52336
 Alpha virt. eigenvalues --    0.52812   0.55904   0.56760   0.58121   0.58779
 Alpha virt. eigenvalues --    0.60976   0.61630   0.62002   0.62337   0.63532
 Alpha virt. eigenvalues --    0.64721   0.66150   0.68130   0.68412   0.69260
 Alpha virt. eigenvalues --    0.70174   0.70311   0.71988   0.72607   0.73658
 Alpha virt. eigenvalues --    0.75417   0.75899   0.78301   0.79498   0.82792
 Alpha virt. eigenvalues --    0.85499   0.86015   0.86963   0.88835   0.91140
 Alpha virt. eigenvalues --    0.91648   0.94581   0.95657   0.95797   0.97529
 Alpha virt. eigenvalues --    1.00432   1.01951   1.02563   1.05821   1.06498
 Alpha virt. eigenvalues --    1.08183   1.10294   1.10675   1.11818   1.12692
 Alpha virt. eigenvalues --    1.13025   1.14941   1.17955   1.20015   1.20679
 Alpha virt. eigenvalues --    1.28310   1.33413   1.34220   1.36173   1.37834
 Alpha virt. eigenvalues --    1.42873   1.44182   1.45707   1.48445   1.50259
 Alpha virt. eigenvalues --    1.51019   1.51852   1.53357   1.57830   1.58967
 Alpha virt. eigenvalues --    1.59452   1.61916   1.62157   1.63280   1.63843
 Alpha virt. eigenvalues --    1.66155   1.68677   1.70084   1.71187   1.74985
 Alpha virt. eigenvalues --    1.76815   1.78005   1.79362   1.80985   1.84985
 Alpha virt. eigenvalues --    1.85932   1.88317   1.90244   1.94253   1.94841
 Alpha virt. eigenvalues --    1.96187   1.97804   1.98035   2.01052   2.03919
 Alpha virt. eigenvalues --    2.05896   2.09787   2.10083   2.13867   2.15398
 Alpha virt. eigenvalues --    2.17247   2.20457   2.21240   2.24363   2.29113
 Alpha virt. eigenvalues --    2.35719   2.41270   2.41614   2.44248   2.45716
 Alpha virt. eigenvalues --    2.53301   2.54283   2.55781   2.57145   2.60909
 Alpha virt. eigenvalues --    2.62376   2.64881   2.65879   2.66066   2.68263
 Alpha virt. eigenvalues --    2.69419   2.72413   2.74109   2.74700   2.76774
 Alpha virt. eigenvalues --    2.77974   2.80921   2.85084   2.87705   2.88793
 Alpha virt. eigenvalues --    2.89734   2.95082   2.96571   2.99305   3.01228
 Alpha virt. eigenvalues --    3.07458   3.11383   3.15500   3.23225   3.24185
 Alpha virt. eigenvalues --    3.26638   3.29021   3.32618   3.40504   3.44689
 Alpha virt. eigenvalues --    3.47037   3.53753   3.57365   3.60983   3.64071
 Alpha virt. eigenvalues --    3.66837   3.72079   3.89316   3.90924   3.93759
 Alpha virt. eigenvalues --    3.95763   4.06286   4.09816   4.19920   4.23006
 Alpha virt. eigenvalues --    4.34922   4.87104   5.08272   5.09385   5.40387
 Alpha virt. eigenvalues --    5.50604   5.69140   5.76876  14.80147  23.68947
 Alpha virt. eigenvalues --   23.99961  24.05747  24.09225  24.15820  24.18943
 Alpha virt. eigenvalues --   24.26667  50.00896  50.05714
          Condensed to atoms (all electrons):
               1          2          3          4          5          6
     1  O    7.751106   0.269996   0.014506   0.446802  -0.127958   0.019682
     2  H    0.269996   0.457269   0.060331  -0.003434  -0.036325   0.003360
     3  C    0.014506   0.060331   9.770267   0.284642  -0.182479  -0.012160
     4  B    0.446802  -0.003434   0.284642   3.355951   0.362925   0.016301
     5  O   -0.127958  -0.036325  -0.182479   0.362925   7.978145   0.252070
     6  H    0.019682   0.003360  -0.012160   0.016301   0.252070   0.434132
     7  C    0.055215  -0.002486  -1.243456   0.081367  -0.019308  -0.021953
     8  H    0.002019  -0.000058   0.026633   0.012743  -0.007253   0.012046
     9  C    0.061708   0.005650   0.439698   0.095805  -0.026103   0.069430
    10  H   -0.000044  -0.000001  -0.010457  -0.000341   0.000377  -0.000078
    11  C   -0.020935  -0.002688  -1.175850   0.021031   0.010845  -0.005097
    12  C    0.009762  -0.036810  -0.337800  -0.061955   0.111689  -0.028350
    13  C   -0.123184  -0.016560  -0.606174  -0.043460   0.017619   0.010819
    14  H    0.005042  -0.000538   0.084191  -0.008474   0.002330  -0.000116
    15  H    0.000010   0.000000   0.007762  -0.000304   0.000003  -0.000002
    16  C   -0.004296  -0.000531  -0.889485  -0.020814   0.000334  -0.000078
    17  H    0.000074   0.000002   0.022152  -0.000056  -0.000005   0.000000
    18  H    0.000036   0.000002   0.023722  -0.000202  -0.000003   0.000000
    19  H   -0.000004   0.000000   0.009457   0.000196   0.000003   0.000000
               7          8          9         10         11         12
     1  O    0.055215   0.002019   0.061708  -0.000044  -0.020935   0.009762
     2  H   -0.002486  -0.000058   0.005650  -0.000001  -0.002688  -0.036810
     3  C   -1.243456   0.026633   0.439698  -0.010457  -1.175850  -0.337800
     4  B    0.081367   0.012743   0.095805  -0.000341   0.021031  -0.061955
     5  O   -0.019308  -0.007253  -0.026103   0.000377   0.010845   0.111689
     6  H   -0.021953   0.012046   0.069430  -0.000078  -0.005097  -0.028350
     7  C   10.197252   0.297008  -1.545425   0.057001   0.640978   0.233162
     8  H    0.297008   0.555034   0.048768  -0.007643  -0.036637   0.005675
     9  C   -1.545425   0.048768   7.809950   0.293981  -0.546550  -0.145682
    10  H    0.057001  -0.007643   0.293981   0.511798   0.034350   0.001898
    11  C    0.640978  -0.036637  -0.546550   0.034350   9.139114  -0.187931
    12  C    0.233162   0.005675  -0.145682   0.001898  -0.187931  12.300258
    13  C   -2.962130  -0.025791  -0.152088  -0.035270  -2.087773  -5.695272
    14  H   -0.002027  -0.000128  -0.007659   0.000066   0.012588   0.055373
    15  H   -0.028320  -0.000292   0.051927  -0.006260   0.239047   0.064490
    16  C    0.361480  -0.001046  -0.362244   0.006876   0.728934  -0.761302
    17  H   -0.008442   0.000001   0.006247   0.000006  -0.078813   0.014742
    18  H   -0.008057   0.000002   0.006479   0.000005  -0.076339   0.029211
    19  H    0.008395  -0.000004   0.028805   0.000013   0.164639  -0.161475
              13         14         15         16         17         18
     1  O   -0.123184   0.005042   0.000010  -0.004296   0.000074   0.000036
     2  H   -0.016560  -0.000538   0.000000  -0.000531   0.000002   0.000002
     3  C   -0.606174   0.084191   0.007762  -0.889485   0.022152   0.023722
     4  B   -0.043460  -0.008474  -0.000304  -0.020814  -0.000056  -0.000202
     5  O    0.017619   0.002330   0.000003   0.000334  -0.000005  -0.000003
     6  H    0.010819  -0.000116  -0.000002  -0.000078   0.000000   0.000000
     7  C   -2.962130  -0.002027  -0.028320   0.361480  -0.008442  -0.008057
     8  H   -0.025791  -0.000128  -0.000292  -0.001046   0.000001   0.000002
     9  C   -0.152088  -0.007659   0.051927  -0.362244   0.006247   0.006479
    10  H   -0.035270   0.000066  -0.006260   0.006876   0.000006   0.000005
    11  C   -2.087773   0.012588   0.239047   0.728934  -0.078813  -0.076339
    12  C   -5.695272   0.055373   0.064490  -0.761302   0.014742   0.029211
    13  C   18.004819   0.187384  -0.011967  -0.298209   0.042070   0.018116
    14  H    0.187384   0.475688  -0.000215   0.018391  -0.000365  -0.000243
    15  H   -0.011967  -0.000215   0.505659   0.023185   0.000298   0.000305
    16  C   -0.298209   0.018391   0.023185   6.686051   0.364849   0.369184
    17  H    0.042070  -0.000365   0.000298   0.364849   0.506493  -0.030131
    18  H    0.018116  -0.000243   0.000305   0.369184  -0.030131   0.504380
    19  H   -0.115366   0.000279   0.000543   0.435634  -0.024489  -0.023910
              19
     1  O   -0.000004
     2  H    0.000000
     3  C    0.009457
     4  B    0.000196
     5  O    0.000003
     6  H    0.000000
     7  C    0.008395
     8  H   -0.000004
     9  C    0.028805
    10  H    0.000013
    11  C    0.164639
    12  C   -0.161475
    13  C   -0.115366
    14  H    0.000279
    15  H    0.000543
    16  C    0.435634
    17  H   -0.024489
    18  H   -0.023910
    19  H    0.517414
 Mulliken charges:
               1
     1  O   -0.359537
     2  H    0.302820
     3  C   -0.285499
     4  B    0.461278
     5  O   -0.336905
     6  H    0.249994
     7  C   -0.090254
     8  H    0.118923
     9  C   -0.132698
    10  H    0.153724
    11  C   -0.772914
    12  C    0.590318
    13  C   -0.107582
    14  H    0.178434
    15  H    0.154131
    16  C   -0.656913
    17  H    0.185367
    18  H    0.187444
    19  H    0.159868
 Sum of Mulliken charges =   0.00000
 Mulliken charges with hydrogens summed into heavy atoms:
               1
     1  O   -0.056717
     3  C   -0.285499
     4  B    0.461278
     5  O   -0.086911
     7  C    0.028669
     9  C    0.021026
    11  C   -0.618783
    12  C    0.590318
    13  C    0.070852
    16  C   -0.124233
 APT charges:
               1
     1  O   -0.399544
     2  H    2.024750
     3  C   -0.889220
     4  B   -0.406482
     5  O    1.265157
     6  H   -1.186955
     7  C   -0.476653
     8  H   -0.159594
     9  C    0.307055
    10  H   -0.748353
    11  C   -1.972595
    12  C    0.681098
    13  C    0.864217
    14  H    1.835976
    15  H   -0.203403
    16  C   -2.304818
    17  H    1.776864
    18  H    0.304962
    19  H   -0.312463
 Sum of APT charges =   0.00000
 APT charges with hydrogens summed into heavy atoms:
               1
     1  O    1.625206
     3  C   -0.889220
     4  B   -0.406482
     5  O    0.078203
     7  C   -0.636247
     9  C   -0.441298
    11  C   -2.175998
    12  C    0.681098
    13  C    2.700192
    16  C   -0.535455
 Electronic spatial extent (au):  <R**2>=          30960.1372
 Charge=              0.0000 electrons
 Dipole moment (field-independent basis, Debye):
    X=             -1.0176    Y=             -0.5171    Z=              0.0972  Tot=              1.1456
 Quadrupole moment (field-independent basis, Debye-Ang):
   XX=            -66.5102   YY=            -62.5725   ZZ=            -58.8627
   XY=             -9.6851   XZ=             -2.5110   YZ=             -6.0281
 Traceless Quadrupole moment (field-independent basis, Debye-Ang):
   XX=             -3.8617   YY=              0.0759   ZZ=              3.7858
   XY=             -9.6851   XZ=             -2.5110   YZ=             -6.0281
 Octapole moment (field-independent basis, Debye-Ang**2):
  XXX=          -1053.0702  YYY=          -1314.3645  ZZZ=           -861.6489  XYY=           -417.5635
  XXY=           -499.8679  XXZ=           -297.2467  XZZ=           -350.6512  YZZ=           -488.8976
  YYZ=           -356.6495  XYZ=            -46.8329
 Hexadecapole moment (field-independent basis, Debye-Ang**3):
 XXXX=         -12689.5180 YYYY=         -19857.6337 ZZZZ=          -8792.4056 XXXY=          -7675.6379
 XXXZ=          -5041.7290 YYYX=          -8005.1278 YYYZ=          -6747.5858 ZZZX=          -5247.3501
 ZZZY=          -6525.7542 XXYY=          -6054.4948 XXZZ=          -3618.5538 YYZZ=          -5442.7502
 XXYZ=          -2223.1753 YYXZ=          -2212.7476 ZZXY=          -2767.8920
 N-N= 4.757913212924D+02 E-N=-1.996235050364D+03  KE= 4.459157379053D+02
  Exact polarizability:       0.000       0.000       0.000       0.000       0.000       0.000
 Approx polarizability:     138.506       5.530     125.358      13.129     -24.903      95.411
 Calling FoFJK, ICntrl=    100127 FMM=F ISym2X=0 I1Cent= 0 IOpClX= 0 NMat=1 NMatS=1 NMatT=0.
 -------------------------------------------------------------------
 Center     Atomic                   Forces (Hartrees/Bohr)
 Number     Number              X              Y              Z
 -------------------------------------------------------------------
      1        8          -0.000369559   -0.000079164   -0.000038290
      2        1           0.000031140   -0.000031787    0.000029885
      3        6          -0.001628132    0.002383509   -0.001814194
      4        5           0.001358090   -0.000625122    0.000541782
      5        8          -0.000141317    0.000493572   -0.000268208
      6        1          -0.000116791   -0.000065208   -0.000011899
      7        6          -0.001054326   -0.001506976    0.001152713
      8        1          -0.000056140    0.000113421   -0.000182980
      9        6          -0.005389183   -0.000273147   -0.001294521
     10        1           0.000874268   -0.000413818    0.000081596
     11        6           0.021800472   -0.009322566    0.009789941
     12        6          -0.009552336    0.021679492   -0.014281762
     13        6           0.000159307   -0.006081494    0.003932348
     14        1           0.000321002    0.000852320   -0.000473504
     15        1          -0.008647323    0.003135455   -0.003005811
     16        6           0.002314050   -0.029024483    0.016096021
     17        1           0.003848088    0.012608214    0.007122439
     18        1           0.008705494    0.002231516   -0.012086708
     19        1          -0.012456804    0.003926266   -0.005288848
 -------------------------------------------------------------------
 Cartesian Forces:  Max     0.029024483 RMS     0.007698625
 FormGI is forming the generalized inverse of G from B-inverse, IUseBI=4.

 GradGradGradGradGradGradGradGradGradGradGradGradGradGradGradGradGradGrad
 Berny optimization.
 Internal  Forces:  Max     0.014865285 RMS     0.003701303
 Search for a local minimum.
 Step number   1 out of a maximum of   96
 All quantities printed in internal units (Hartrees-Bohrs-Radians)
 Mixed Optimization -- RFO/linear search
 Second derivative matrix not updated -- analytic derivatives used.
 ITU=  0
     Eigenvalues ---   -0.00021   0.00050   0.01050   0.01218   0.01487
     Eigenvalues ---    0.01650   0.01739   0.01960   0.02210   0.02426
     Eigenvalues ---    0.02629   0.02683   0.02818   0.03951   0.05797
     Eigenvalues ---    0.05909   0.10386   0.11070   0.11266   0.11722
     Eigenvalues ---    0.12091   0.12413   0.12534   0.14444   0.14718
     Eigenvalues ---    0.15894   0.17798   0.18568   0.18839   0.19244
     Eigenvalues ---    0.19359   0.20366   0.27600   0.29162   0.29525
     Eigenvalues ---    0.35386   0.36086   0.36386   0.38834   0.38926
     Eigenvalues ---    0.38972   0.39437   0.39495   0.42116   0.42612
     Eigenvalues ---    0.47123   0.47984   0.48851   0.51755   0.55216
     Eigenvalues ---    0.56267
 RFO step:  Lambda=-4.57565187D-03 EMin=-2.06607566D-04
 Linear search not attempted -- first point.
 Iteration  1 RMS(Cart)=  0.07095714 RMS(Int)=  0.02971731
 Iteration  2 RMS(Cart)=  0.03936133 RMS(Int)=  0.00196368
 Iteration  3 RMS(Cart)=  0.00202868 RMS(Int)=  0.00015077
 Iteration  4 RMS(Cart)=  0.00000420 RMS(Int)=  0.00015073
 Iteration  5 RMS(Cart)=  0.00000000 RMS(Int)=  0.00015073
 Variable       Old X    -DE/DX   Delta X   Delta X   Delta X     New X
                                 (Linear)    (Quad)   (Total)
    R1        1.81671   0.00005   0.00000   0.00008   0.00008   1.81680
    R2        2.57676  -0.00032   0.00000  -0.00061  -0.00061   2.57615
    R3        2.95604   0.00085   0.00000   0.00427   0.00427   2.96031
    R4        2.64173   0.00071   0.00000   0.00363   0.00352   2.64526
    R5        2.64678  -0.00022   0.00000  -0.00581  -0.00587   2.64092
    R6        2.58875  -0.00055   0.00000  -0.00113  -0.00113   2.58762
    R7        1.81103   0.00013   0.00000   0.00012   0.00012   1.81116
    R8        2.05474  -0.00019   0.00000  -0.00086  -0.00086   2.05387
    R9        2.62671  -0.00190   0.00000  -0.00345  -0.00349   2.62322
   R10        2.05045  -0.00044   0.00000  -0.00248  -0.00248   2.04797
   R11        2.63603  -0.00132   0.00000  -0.00518  -0.00512   2.63091
   R12        2.63943  -0.00129   0.00000  -0.00487  -0.00477   2.63466
   R13        2.02201   0.00961   0.00000   0.02695   0.02695   2.04896
   R14        2.62288   0.00292   0.00000   0.01369   0.01373   2.63661
   R15        2.91018  -0.01197   0.00000  -0.06538  -0.06538   2.84480
   R16        2.04924   0.00081   0.00000   0.00324   0.00324   2.05248
   R17        2.02201   0.01480   0.00000   0.03811   0.03811   2.06012
   R18        2.02201   0.01487   0.00000   0.04073   0.04073   2.06274
   R19        2.02201   0.01386   0.00000   0.03647   0.03647   2.05847
    A1        1.95503  -0.00003   0.00000  -0.00012  -0.00012   1.95491
    A2        2.14534  -0.00116   0.00000  -0.00555  -0.00547   2.13986
    A3        2.08748  -0.00093   0.00000  -0.00538  -0.00530   2.08218
    A4        2.05037   0.00209   0.00000   0.01093   0.01077   2.06114
    A5        2.06675  -0.00008   0.00000   0.00091   0.00091   2.06767
    A6        2.05022   0.00026   0.00000   0.00073   0.00073   2.05095
    A7        2.16621  -0.00019   0.00000  -0.00164  -0.00164   2.16457
    A8        1.99578  -0.00005   0.00000  -0.00018  -0.00018   1.99560
    A9        2.10550   0.00107   0.00000   0.00364   0.00371   2.10920
   A10        2.12008  -0.00200   0.00000  -0.01148  -0.01162   2.10847
   A11        2.05761   0.00093   0.00000   0.00784   0.00791   2.06552
   A12        2.09278   0.00032   0.00000   0.00573   0.00571   2.09849
   A13        2.10583  -0.00230   0.00000  -0.01328  -0.01325   2.09258
   A14        2.08458   0.00198   0.00000   0.00755   0.00754   2.09211
   A15        2.06440   0.00843   0.00000   0.04405   0.04418   2.10858
   A16        2.11173  -0.00411   0.00000  -0.02212  -0.02225   2.08948
   A17        2.10688  -0.00432   0.00000  -0.02163  -0.02177   2.08512
   A18        2.10992  -0.00838   0.00000  -0.04518  -0.04507   2.06485
   A19        2.08150   0.00675   0.00000   0.03486   0.03472   2.11622
   A20        2.09176   0.00164   0.00000   0.01034   0.01021   2.10197
   A21        2.11576   0.00217   0.00000   0.01499   0.01498   2.13074
   A22        2.07378  -0.00045   0.00000  -0.00440  -0.00440   2.06939
   A23        2.09364  -0.00172   0.00000  -0.01059  -0.01058   2.08306
   A24        1.91063   0.00210   0.00000   0.02762   0.02723   1.93786
   A25        1.91063   0.00226   0.00000   0.01811   0.01788   1.92852
   A26        1.91063   0.00292   0.00000   0.03088   0.03042   1.94106
   A27        1.91063  -0.00271   0.00000  -0.03358  -0.03373   1.87690
   A28        1.91063  -0.00227   0.00000  -0.01787  -0.01845   1.89218
   A29        1.91063  -0.00230   0.00000  -0.02516  -0.02544   1.88519
    D1        3.13630  -0.00002   0.00000  -0.00149  -0.00149   3.13481
    D2       -0.00444   0.00001   0.00000  -0.00139  -0.00139  -0.00583
    D3        3.10701  -0.00002   0.00000  -0.00446  -0.00443   3.10258
    D4       -0.03550  -0.00005   0.00000  -0.00456  -0.00453  -0.04003
    D5       -0.03758   0.00003   0.00000  -0.00479  -0.00483  -0.04240
    D6        3.10310   0.00000   0.00000  -0.00489  -0.00493   3.09817
    D7       -0.00326  -0.00002   0.00000  -0.00203  -0.00203  -0.00530
    D8        3.13753   0.00010   0.00000  -0.00156  -0.00168   3.13585
    D9        3.14127  -0.00007   0.00000  -0.00169  -0.00162   3.13965
   D10       -0.00113   0.00005   0.00000  -0.00122  -0.00126  -0.00239
   D11       -3.13685  -0.00008   0.00000  -0.00125  -0.00135  -3.13820
   D12        0.00087   0.00003   0.00000   0.00085   0.00075   0.00162
   D13        0.00191  -0.00004   0.00000  -0.00159  -0.00176   0.00015
   D14        3.13963   0.00007   0.00000   0.00051   0.00035   3.13998
   D15        3.12455   0.00000   0.00000  -0.00288  -0.00288   3.12167
   D16       -0.01613   0.00003   0.00000  -0.00278  -0.00278  -0.01891
   D17       -3.13803  -0.00008   0.00000   0.00117   0.00131  -3.13672
   D18        0.00229  -0.00008   0.00000  -0.00098  -0.00084   0.00146
   D19        0.00278   0.00004   0.00000   0.00162   0.00166   0.00443
   D20       -3.14008   0.00003   0.00000  -0.00052  -0.00049  -3.14057
   D21       -0.00408   0.00007   0.00000   0.00571   0.00585   0.00177
   D22        3.11798   0.00048   0.00000   0.02284   0.02287   3.14085
   D23        3.13625   0.00006   0.00000   0.00357   0.00372   3.13997
   D24       -0.02487   0.00047   0.00000   0.02071   0.02074  -0.00414
   D25        0.00486  -0.00007   0.00000  -0.00864  -0.00877  -0.00391
   D26       -3.13541  -0.00010   0.00000  -0.02814  -0.02814   3.11963
   D27       -3.11725  -0.00049   0.00000  -0.02571  -0.02575   3.14019
   D28        0.02566  -0.00052   0.00000  -0.04521  -0.04512  -0.01946
   D29       -0.00387   0.00007   0.00000   0.00676   0.00683   0.00296
   D30       -3.14155  -0.00004   0.00000   0.00462   0.00469  -3.13686
   D31        3.13640   0.00010   0.00000   0.02639   0.02605  -3.12074
   D32       -0.00128  -0.00001   0.00000   0.02425   0.02391   0.02264
   D33        2.10794   0.00031   0.00000   0.32351   0.32393   2.43187
   D34       -2.08085  -0.00033   0.00000   0.31039   0.31058  -1.77027
   D35        0.01354   0.00002   0.00000   0.30957   0.30970   0.32324
   D36       -1.03235   0.00029   0.00000   0.30427   0.30419  -0.72816
   D37        1.06205  -0.00035   0.00000   0.29114   0.29085   1.35289
   D38       -3.12675   0.00000   0.00000   0.29032   0.28996  -2.83678
         Item               Value     Threshold  Converged?
 Maximum Force            0.014865     0.000015     NO 
 RMS     Force            0.003701     0.000010     NO 
 Maximum Displacement     0.525552     0.000060     NO 
 RMS     Displacement     0.107090     0.000040     NO 
 Predicted change in Energy=-2.402259D-03
 GradGradGradGradGradGradGradGradGradGradGradGradGradGradGradGradGradGrad

                          Input orientation:                          
 ---------------------------------------------------------------------
 Center     Atomic      Atomic             Coordinates (Angstroms)
 Number     Number       Type             X           Y           Z
 ---------------------------------------------------------------------
      1          8           0        8.679891    7.480822    5.580237
      2          1           0        9.488562    7.167841    5.995444
      3          6           0        6.239538    6.997060    5.181449
      4          5           0        7.636612    6.627879    5.786347
      5          8           0        7.880399    5.495089    6.515979
      6          1           0        7.112354    4.937098    6.647609
      7          6           0        5.121651    6.163081    5.300942
      8          1           0        5.189005    5.212164    5.822949
      9          6           0        3.899025    6.530558    4.755868
     10          1           0        3.038420    5.879817    4.857774
     11          6           0        3.776637    7.741177    4.079342
     12          6           0        4.870360    8.594219    3.938297
     13          6           0        6.088686    8.205765    4.496380
     14          1           0        6.950739    8.859466    4.400421
     15          1           0        2.820477    8.025029    3.654126
     16          6           0        4.756198    9.892414    3.184705
     17          1           0        5.300426   10.688820    3.692662
     18          1           0        5.179228    9.791633    2.183518
     19          1           0        3.715785   10.198147    3.081583
 ---------------------------------------------------------------------
                    Distance matrix (angstroms):
                    1          2          3          4          5
     1  O    0.000000
     2  H    0.961407   0.000000
     3  C    2.519600   3.353791   0.000000
     4  B    1.363241   1.940361   1.566529   0.000000
     5  O    2.336223   2.378076   2.594092   1.369309   0.000000
     6  H    3.172852   3.323838   2.674860   1.968593   0.958422
     7  C    3.804671   4.534511   1.399811   2.603206   3.087591
     8  H    4.170372   4.726586   2.168177   2.827785   2.793553
     9  C    4.943609   5.760695   2.424200   3.878262   4.474542
    10  H    5.908584   6.675151   3.405900   4.750286   5.132487
    11  C    5.134430   6.051963   2.798970   4.364941   5.274749
    12  C    4.295131   5.253018   2.443562   3.864444   5.030843
    13  C    2.900799   3.857932   1.397513   2.559260   3.825804
    14  H    2.506510   3.441837   2.141114   2.714995   4.081530
    15  H    6.191834   7.118982   3.883222   5.449179   6.339843
    16  C    5.191312   6.141565   3.817114   5.071737   6.339912
    17  H    5.027422   5.936378   4.089928   5.131523   6.449978
    18  H    5.397425   6.323403   4.233378   5.387806   6.672844
    19  H    6.186233   7.141310   4.585382   5.952768   7.159458
                    6          7          8          9         10
     6  H    0.000000
     7  C    2.698044   0.000000
     8  H    2.110686   1.086863   0.000000
     9  C    4.055031   1.388150   2.130933   0.000000
    10  H    4.548535   2.148602   2.449968   1.083739   0.000000
    11  C    5.058247   2.406607   3.380955   1.392216   2.148391
    12  C    5.073602   2.798282   3.884810   2.422935   3.401385
    13  C    4.044733   2.398965   3.395711   2.769163   3.852890
    14  H    4.523378   3.380384   4.293030   3.855271   4.939000
    15  H    6.075892   3.387367   4.269184   2.147218   2.469453
    16  C    6.488323   4.303480   5.390028   3.808593   4.674490
    17  H    6.715438   4.806333   5.877440   4.515028   5.440650
    18  H    6.872525   4.784145   5.849538   4.346323   5.199713
    19  H    7.206376   4.814953   5.877542   4.035842   4.718225
                   11         12         13         14         15
    11  C    0.000000
    12  C    1.394204   0.000000
    13  C    2.394855   1.395231   0.000000
    14  H    3.380619   2.147531   1.086126   0.000000
    15  H    1.084261   2.146335   3.379829   4.279288   0.000000
    16  C    2.527397   1.505405   2.518095   2.713108   2.730294
    17  H    3.340666   2.152358   2.726331   2.563394   3.639700
    18  H    3.125025   2.146730   2.948123   2.986946   3.293523
    19  H    2.652532   2.153970   3.406156   3.741167   2.419055
                   16         17         18         19
    16  C    0.000000
    17  H    1.090168   0.000000
    18  H    1.091553   1.759873   0.000000
    19  H    1.089297   1.767842   1.764495   0.000000
 Symmetry turned off by external request.
 Stoichiometry    C7H9BO2
 Framework group  C1[X(C7H9BO2)]
 Deg. of freedom    51
 Full point group                 C1      NOp   1
 Rotational constants (GHZ):           2.4908703           0.8896653           0.6582868
 Standard basis: 6-311+G(d,p) (5D, 7F)
   274 basis functions,   432 primitive gaussians,   284 cartesian basis functions
    36 alpha electrons       36 beta electrons
       nuclear repulsion energy       476.0934054468 Hartrees.
 NAtoms=   19 NActive=   19 NUniq=   19 SFac= 1.00D+00 NAtFMM=   60 NAOKFM=F Big=F
 Integral buffers will be    131072 words long.
 Raffenetti 2 integral format.
 Two-electron integral symmetry is turned off.
 One-electron integrals computed using PRISM.
 NBasis=   274 RedAO= T EigKep=  1.89D-06  NBF=   274
 NBsUse=   274 1.00D-06 EigRej= -1.00D+00 NBFU=   274
 Initial guess from the checkpoint file:  "3-Me-phboh2-opt-freq.chk"
 B after Tr=     0.173827   -0.035269   -0.151385
         Rot=    0.999982   -0.002282    0.004270   -0.003536 Ang=  -0.69 deg.
 ExpMin= 3.15D-02 ExpMax= 8.59D+03 ExpMxC= 1.30D+03 IAcc=3 IRadAn=         5 AccDes= 0.00D+00
 Harris functional with IExCor= 1009 and IRadAn=       5 diagonalized for initial guess.
 HarFok:  IExCor= 1009 AccDes= 0.00D+00 IRadAn=         5 IDoV= 1 UseB2=F ITyADJ=14
 ICtDFT=  3500011 ScaDFX=  1.000000  1.000000  1.000000  1.000000
 FoFCou: FMM=F IPFlag=           0 FMFlag=      100000 FMFlg1=           0
         NFxFlg=           0 DoJE=T BraDBF=F KetDBF=T FulRan=T
         wScrn=  0.000000 ICntrl=       500 IOpCl=  0 I1Cent=   200000004 NGrid=           0
         NMat0=    1 NMatS0=      1 NMatT0=    0 NMatD0=    1 NMtDS0=    0 NMtDT0=    0
 Symmetry not used in FoFCou.
 Requested convergence on RMS density matrix=1.00D-08 within 128 cycles.
 Requested convergence on MAX density matrix=1.00D-06.
 Requested convergence on             energy=1.00D-06.
 Level shift goal  0.100 maximum shift  0.100.
 No special actions if energy rises.
 Dynamic level shift is on during FON iterations.
 SCF Done:  E(RM062X) =  -447.531481294     A.U. after   13 cycles
            NFock= 13  Conv=0.25D-08     -V/T= 2.0037
 Calling FoFJK, ICntrl=      2127 FMM=F ISym2X=0 I1Cent= 0 IOpClX= 0 NMat=1 NMatS=1 NMatT=0.
 -------------------------------------------------------------------
 Center     Atomic                   Forces (Hartrees/Bohr)
 Number     Number              X              Y              Z
 -------------------------------------------------------------------
      1        8          -0.000005975   -0.000009462   -0.000002167
      2        1          -0.000002531   -0.000006017    0.000003704
      3        6          -0.000125789   -0.000343213    0.000202045
      4        5           0.000025762   -0.000024737   -0.000005594
      5        8          -0.000004271    0.000003219    0.000013326
      6        1          -0.000006905   -0.000004024    0.000001579
      7        6           0.000430189   -0.000034340    0.000205378
      8        1           0.000012474   -0.000009368   -0.000031393
      9        6          -0.000535230    0.000343608   -0.000206005
     10        1           0.000015206   -0.000045956   -0.000071876
     11        6           0.000698389   -0.000610149    0.000235649
     12        6           0.000735550   -0.000497783    0.000446796
     13        6          -0.000041958    0.000152857    0.000004632
     14        1          -0.000043259   -0.000042027    0.000001538
     15        1          -0.000644758    0.000256791   -0.000098697
     16        6          -0.000233910   -0.000220961    0.000307697
     17        1           0.000365941    0.000589785    0.000432747
     18        1           0.000250691    0.000050798   -0.001170668
     19        1          -0.000889619    0.000450980   -0.000268693
 -------------------------------------------------------------------
 Cartesian Forces:  Max     0.001170668 RMS     0.000341685

 GradGradGradGradGradGradGradGradGradGradGradGradGradGradGradGradGradGrad
 Berny optimization.
 Using GEDIIS/GDIIS optimizer.
 FormGI is forming the generalized inverse of G from B-inverse, IUseBI=4.
 Internal  Forces:  Max     0.001166300 RMS     0.000269001
 Search for a local minimum.
 Step number   2 out of a maximum of   96
 All quantities printed in internal units (Hartrees-Bohrs-Radians)
 Mixed Optimization -- En-DIIS/RFO-DIIS
 Update second derivatives using D2CorX and points    1    2
 DE= -2.37D-03 DEPred=-2.40D-03 R= 9.88D-01
 TightC=F SS=  1.41D+00  RLast= 7.65D-01 DXNew= 5.0454D-01 2.2959D+00
 Trust test= 9.88D-01 RLast= 7.65D-01 DXMaxT set to 5.05D-01
 ITU=  1  0
 Use linear search instead of GDIIS.
     Eigenvalues ---   -0.00022   0.00050   0.01050   0.01217   0.01487
     Eigenvalues ---    0.01652   0.01739   0.01958   0.02210   0.02426
     Eigenvalues ---    0.02629   0.02682   0.02817   0.03951   0.05794
     Eigenvalues ---    0.05917   0.10386   0.11071   0.11266   0.11718
     Eigenvalues ---    0.12106   0.12436   0.12516   0.14471   0.14710
     Eigenvalues ---    0.15893   0.17875   0.18363   0.18846   0.19295
     Eigenvalues ---    0.19495   0.20649   0.27608   0.29292   0.29663
     Eigenvalues ---    0.35387   0.36083   0.36386   0.37432   0.38852
     Eigenvalues ---    0.38933   0.38976   0.39438   0.42113   0.42596
     Eigenvalues ---    0.47120   0.47989   0.48853   0.51771   0.55216
     Eigenvalues ---    0.56267
 RFO step:  Lambda=-2.21828446D-04 EMin=-2.15400085D-04
 I=     1 Eig=   -2.15D-04 Dot1= -2.15D-05
 I=     1 Stepn= -6.00D-01 RXN=   6.00D-01 EDone=F
 Mixed    1 eigenvectors in step.  Raw Step.Grad=  2.15D-05.
 RFO eigenvector is Hessian eigenvector with negative curvature.
 Taking step of  6.00D-01 in eigenvector direction(s).  Step.Grad=  3.22D-07.
 Quartic linear search produced a step of  0.02813.
 Iteration  1 RMS(Cart)=  0.07006243 RMS(Int)=  0.01600064
 Iteration  2 RMS(Cart)=  0.02069159 RMS(Int)=  0.00054323
 Iteration  3 RMS(Cart)=  0.00057704 RMS(Int)=  0.00000885
 Iteration  4 RMS(Cart)=  0.00000039 RMS(Int)=  0.00000884
 Variable       Old X    -DE/DX   Delta X   Delta X   Delta X     New X
                                 (Linear)    (Quad)   (Total)
    R1        1.81680   0.00000   0.00000   0.00000   0.00000   1.81680
    R2        2.57615  -0.00001  -0.00002   0.00001  -0.00001   2.57614
    R3        2.96031   0.00002   0.00012  -0.00006   0.00006   2.96037
    R4        2.64526  -0.00012   0.00010  -0.00016  -0.00007   2.64519
    R5        2.64092   0.00040  -0.00016   0.00016  -0.00001   2.64091
    R6        2.58762   0.00000  -0.00003   0.00003  -0.00001   2.58761
    R7        1.81116   0.00000   0.00000   0.00000   0.00000   1.81116
    R8        2.05387  -0.00001  -0.00002   0.00002  -0.00001   2.05387
    R9        2.62322   0.00037  -0.00010   0.00012   0.00002   2.62324
   R10        2.04797   0.00001  -0.00007   0.00004  -0.00003   2.04794
   R11        2.63091  -0.00026  -0.00014   0.00000  -0.00014   2.63077
   R12        2.63466   0.00021  -0.00013   0.00014   0.00001   2.63467
   R13        2.04896   0.00067   0.00076  -0.00047   0.00029   2.04925
   R14        2.63661   0.00009   0.00039  -0.00031   0.00008   2.63669
   R15        2.84480   0.00114  -0.00184   0.00103  -0.00081   2.84399
   R16        2.05248  -0.00006   0.00009  -0.00008   0.00001   2.05249
   R17        2.06012   0.00081   0.00107  -0.00167  -0.00060   2.05952
   R18        2.06274   0.00117   0.00115   0.00030   0.00145   2.06418
   R19        2.05847   0.00100   0.00103  -0.00062   0.00040   2.05887
    A1        1.95491  -0.00001   0.00000   0.00009   0.00009   1.95499
    A2        2.13986  -0.00005  -0.00015   0.00012  -0.00003   2.13983
    A3        2.08218   0.00001  -0.00015   0.00005  -0.00010   2.08208
    A4        2.06114   0.00004   0.00030  -0.00018   0.00012   2.06126
    A5        2.06767   0.00001   0.00003  -0.00006  -0.00004   2.06763
    A6        2.05095   0.00000   0.00002   0.00004   0.00006   2.05100
    A7        2.16457  -0.00001  -0.00005   0.00003  -0.00002   2.16455
    A8        1.99560   0.00000   0.00000  -0.00007  -0.00008   1.99552
    A9        2.10920   0.00001   0.00010  -0.00005   0.00006   2.10926
   A10        2.10847  -0.00004  -0.00033   0.00018  -0.00015   2.10831
   A11        2.06552   0.00003   0.00022  -0.00014   0.00009   2.06560
   A12        2.09849   0.00002   0.00016  -0.00011   0.00005   2.09854
   A13        2.09258  -0.00005  -0.00037   0.00023  -0.00014   2.09244
   A14        2.09211   0.00003   0.00021  -0.00013   0.00008   2.09219
   A15        2.10858   0.00023   0.00124  -0.00073   0.00052   2.10911
   A16        2.08948  -0.00013  -0.00063   0.00040  -0.00024   2.08924
   A17        2.08512  -0.00011  -0.00061   0.00033  -0.00029   2.08483
   A18        2.06485  -0.00017  -0.00127   0.00070  -0.00058   2.06427
   A19        2.11622  -0.00044   0.00098  -0.00089   0.00005   2.11627
   A20        2.10197   0.00062   0.00029  -0.00004   0.00021   2.10218
   A21        2.13074  -0.00001   0.00042  -0.00022   0.00021   2.13095
   A22        2.06939   0.00000  -0.00012   0.00002  -0.00011   2.06928
   A23        2.08306   0.00001  -0.00030   0.00020  -0.00010   2.08296
   A24        1.93786  -0.00013   0.00077   0.00322   0.00397   1.94183
   A25        1.92852   0.00027   0.00050  -0.00408  -0.00358   1.92494
   A26        1.94106   0.00028   0.00086  -0.00054   0.00029   1.94135
   A27        1.87690  -0.00002  -0.00095  -0.00022  -0.00117   1.87573
   A28        1.89218  -0.00011  -0.00052   0.00343   0.00288   1.89506
   A29        1.88519  -0.00031  -0.00072  -0.00180  -0.00252   1.88267
    D1        3.13481   0.00000  -0.00004  -0.00065  -0.00069   3.13412
    D2       -0.00583   0.00000  -0.00004  -0.00103  -0.00107  -0.00690
    D3        3.10258  -0.00001  -0.00012  -0.00075  -0.00088   3.10171
    D4       -0.04003  -0.00002  -0.00013  -0.00035  -0.00048  -0.04050
    D5       -0.04240   0.00000  -0.00014  -0.00296  -0.00310  -0.04550
    D6        3.09817  -0.00001  -0.00014  -0.00255  -0.00269   3.09548
    D7       -0.00530  -0.00002  -0.00006  -0.00021  -0.00027  -0.00557
    D8        3.13585   0.00000  -0.00005  -0.00277  -0.00282   3.13303
    D9        3.13965  -0.00003  -0.00005   0.00196   0.00192   3.14157
   D10       -0.00239  -0.00001  -0.00004  -0.00059  -0.00063  -0.00302
   D11       -3.13820   0.00000  -0.00004   0.00043   0.00039  -3.13781
   D12        0.00162  -0.00001   0.00002  -0.00043  -0.00041   0.00121
   D13        0.00015   0.00001  -0.00005  -0.00167  -0.00173  -0.00158
   D14        3.13998   0.00000   0.00001  -0.00253  -0.00253   3.13745
   D15        3.12167  -0.00001  -0.00008  -0.00188  -0.00196   3.11971
   D16       -0.01891   0.00000  -0.00008  -0.00228  -0.00236  -0.02127
   D17       -3.13672  -0.00001   0.00004   0.00351   0.00356  -3.13317
   D18        0.00146   0.00000  -0.00002   0.00082   0.00080   0.00226
   D19        0.00443   0.00000   0.00005   0.00102   0.00107   0.00550
   D20       -3.14057   0.00002  -0.00001  -0.00167  -0.00168   3.14093
   D21        0.00177   0.00001   0.00016   0.00120   0.00137   0.00314
   D22        3.14085   0.00009   0.00064   0.00216   0.00280  -3.13953
   D23        3.13997   0.00003   0.00010  -0.00149  -0.00138   3.13859
   D24       -0.00414   0.00011   0.00058  -0.00052   0.00006  -0.00407
   D25       -0.00391  -0.00001  -0.00025  -0.00334  -0.00360  -0.00751
   D26        3.11963   0.00003  -0.00079  -0.01723  -0.01802   3.10161
   D27        3.14019  -0.00009  -0.00072  -0.00431  -0.00503   3.13516
   D28       -0.01946  -0.00005  -0.00127  -0.01819  -0.01946  -0.03891
   D29        0.00296   0.00000   0.00019   0.00362   0.00381   0.00677
   D30       -3.13686   0.00001   0.00013   0.00448   0.00461  -3.13224
   D31       -3.12074  -0.00003   0.00073   0.01740   0.01812  -3.10262
   D32        0.02264  -0.00002   0.00067   0.01826   0.01892   0.04156
   D33        2.43187  -0.00004   0.00911   0.25377   0.26290   2.69476
   D34       -1.77027   0.00003   0.00874   0.25291   0.26165  -1.50862
   D35        0.32324   0.00000   0.00871   0.24759   0.25631   0.57955
   D36       -0.72816   0.00000   0.00856   0.23959   0.24815  -0.48001
   D37        1.35289   0.00007   0.00818   0.23874   0.24691   1.59980
   D38       -2.83678   0.00004   0.00816   0.23342   0.24156  -2.59522
         Item               Value     Threshold  Converged?
 Maximum Force            0.001166     0.000015     NO 
 RMS     Force            0.000269     0.000010     NO 
 Maximum Displacement     0.430246     0.000060     NO 
 RMS     Displacement     0.088478     0.000040     NO 
 Predicted change in Energy=-6.465255D-05
 GradGradGradGradGradGradGradGradGradGradGradGradGradGradGradGradGradGrad

                          Input orientation:                          
 ---------------------------------------------------------------------
 Center     Atomic      Atomic             Coordinates (Angstroms)
 Number     Number       Type             X           Y           Z
 ---------------------------------------------------------------------
      1          8           0        8.670238    7.500132    5.615631
      2          1           0        9.476733    7.190873    6.037804
      3          6           0        6.238860    6.998954    5.184851
      4          5           0        7.632155    6.636486    5.802468
      5          8           0        7.877548    5.499276    6.524642
      6          1           0        7.112480    4.934491    6.644086
      7          6           0        5.127285    6.153950    5.283497
      8          1           0        5.197210    5.198631    5.797053
      9          6           0        3.906959    6.517328    4.730552
     10          1           0        3.050209    5.859605    4.819051
     11          6           0        3.781201    7.734287    4.066281
     12          6           0        4.869176    8.597476    3.943659
     13          6           0        6.084451    8.213954    4.511821
     14          1           0        6.941114    8.877124    4.434245
     15          1           0        2.826009    8.016037    3.637116
     16          6           0        4.757287    9.891736    3.183839
     17          1           0        5.483713   10.622485    3.538923
     18          1           0        4.951552    9.725544    2.121859
     19          1           0        3.759813   10.319711    3.278252
 ---------------------------------------------------------------------
                    Distance matrix (angstroms):
                    1          2          3          4          5
     1  O    0.000000
     2  H    0.961408   0.000000
     3  C    2.519593   3.353830   0.000000
     4  B    1.363235   1.940411   1.566558   0.000000
     5  O    2.336254   2.378214   2.594104   1.369306   0.000000
     6  H    3.172829   3.323932   2.674806   1.968545   0.958425
     7  C    3.804607   4.534521   1.399772   2.603180   3.087553
     8  H    4.170341   4.726659   2.168177   2.827793   2.793561
     9  C    4.943490   5.760637   2.424070   3.878181   4.474457
    10  H    5.908519   6.675166   3.405793   4.750251   5.132453
    11  C    5.134004   6.051552   2.798572   4.364558   5.274360
    12  C    4.295082   5.252957   2.443740   3.864545   5.030966
    13  C    2.900730   3.857835   1.397510   2.559211   3.825718
    14  H    2.506322   3.441541   2.141049   2.714780   4.081241
    15  H    6.191583   7.118731   3.882975   5.448941   6.339554
    16  C    5.190816   6.141086   3.816712   5.071365   6.339613
    17  H    4.920950   5.827913   4.050839   5.062374   6.394703
    18  H    5.566644   6.498957   4.298066   5.502254   6.768109
    19  H    6.125817   7.077282   4.561602   5.910401   7.122596
                    6          7          8          9         10
     6  H    0.000000
     7  C    2.698014   0.000000
     8  H    2.110803   1.086860   0.000000
     9  C    4.054916   1.388160   2.130994   0.000000
    10  H    4.548476   2.148626   2.450100   1.083722   0.000000
    11  C    5.057802   2.406455   3.380860   1.392143   2.148359
    12  C    5.073675   2.798679   3.885206   2.423236   3.401601
    13  C    4.044536   2.399013   3.395761   2.769088   3.852787
    14  H    4.522954   3.380367   4.292989   3.855195   4.938890
    15  H    6.075494   3.387302   4.269158   2.147134   2.469299
    16  C    6.488029   4.303081   5.389588   3.808150   4.673983
    17  H    6.681930   4.810237   5.882128   4.556143   5.499608
    18  H    6.933566   4.773167   5.836124   4.264868   5.082857
    19  H    7.181211   4.821260   5.885230   4.072952   4.771807
                   11         12         13         14         15
    11  C    0.000000
    12  C    1.394209   0.000000
    13  C    2.394483   1.395275   0.000000
    14  H    3.380314   2.147511   1.086133   0.000000
    15  H    1.084416   2.146292   3.379604   4.279132   0.000000
    16  C    2.527060   1.504976   2.517907   2.713310   2.730117
    17  H    3.393868   2.154560   2.666165   2.443748   3.723788
    18  H    3.019205   2.144360   3.046356   3.166276   3.120312
    19  H    2.702935   2.153960   3.370437   3.679409   2.511510
                   16         17         18         19
    16  C    0.000000
    17  H    1.089850   0.000000
    18  H    1.092319   1.759480   0.000000
    19  H    1.089509   1.769591   1.763667   0.000000
 Symmetry turned off by external request.
 Stoichiometry    C7H9BO2
 Framework group  C1[X(C7H9BO2)]
 Deg. of freedom    51
 Full point group                 C1      NOp   1
 Rotational constants (GHZ):           2.4911729           0.8896892           0.6583260
 Standard basis: 6-311+G(d,p) (5D, 7F)
   274 basis functions,   432 primitive gaussians,   284 cartesian basis functions
    36 alpha electrons       36 beta electrons
       nuclear repulsion energy       476.1039714889 Hartrees.
 NAtoms=   19 NActive=   19 NUniq=   19 SFac= 1.00D+00 NAtFMM=   60 NAOKFM=F Big=F
 Integral buffers will be    131072 words long.
 Raffenetti 2 integral format.
 Two-electron integral symmetry is turned off.
 One-electron integrals computed using PRISM.
 NBasis=   274 RedAO= T EigKep=  2.01D-06  NBF=   274
 NBsUse=   274 1.00D-06 EigRej= -1.00D+00 NBFU=   274
 Initial guess from the checkpoint file:  "3-Me-phboh2-opt-freq.chk"
 B after Tr=     0.137358   -0.017035   -0.130450
         Rot=    0.999988   -0.001940    0.003660   -0.002515 Ang=  -0.56 deg.
 ExpMin= 3.15D-02 ExpMax= 8.59D+03 ExpMxC= 1.30D+03 IAcc=3 IRadAn=         5 AccDes= 0.00D+00
 Harris functional with IExCor= 1009 and IRadAn=       5 diagonalized for initial guess.
 HarFok:  IExCor= 1009 AccDes= 0.00D+00 IRadAn=         5 IDoV= 1 UseB2=F ITyADJ=14
 ICtDFT=  3500011 ScaDFX=  1.000000  1.000000  1.000000  1.000000
 FoFCou: FMM=F IPFlag=           0 FMFlag=      100000 FMFlg1=           0
         NFxFlg=           0 DoJE=T BraDBF=F KetDBF=T FulRan=T
         wScrn=  0.000000 ICntrl=       500 IOpCl=  0 I1Cent=   200000004 NGrid=           0
         NMat0=    1 NMatS0=      1 NMatT0=    0 NMatD0=    1 NMtDS0=    0 NMtDT0=    0
 Symmetry not used in FoFCou.
 Requested convergence on RMS density matrix=1.00D-08 within 128 cycles.
 Requested convergence on MAX density matrix=1.00D-06.
 Requested convergence on             energy=1.00D-06.
 Level shift goal  0.100 maximum shift  0.100.
 No special actions if energy rises.
 Dynamic level shift is on during FON iterations.
 SCF Done:  E(RM062X) =  -447.531471192     A.U. after   12 cycles
            NFock= 12  Conv=0.58D-08     -V/T= 2.0037
 Calling FoFJK, ICntrl=      2127 FMM=F ISym2X=0 I1Cent= 0 IOpClX= 0 NMat=1 NMatS=1 NMatT=0.
 -------------------------------------------------------------------
 Center     Atomic                   Forces (Hartrees/Bohr)
 Number     Number              X              Y              Z
 -------------------------------------------------------------------
      1        8          -0.000011080    0.000000187    0.000012036
      2        1          -0.000005113   -0.000006898    0.000003564
      3        6          -0.000420685   -0.000968268    0.000770171
      4        5          -0.000000981   -0.000066769   -0.000065091
      5        8           0.000006344    0.000001437    0.000047259
      6        1          -0.000006981   -0.000011007   -0.000007968
      7        6           0.001228686    0.000119644    0.000389527
      8        1           0.000038603   -0.000050747   -0.000103467
      9        6          -0.001001004    0.001129717   -0.000401265
     10        1           0.000012637   -0.000056786   -0.000142007
     11        6           0.000025731   -0.000940058    0.000397101
     12        6           0.002918495   -0.000577408    0.000437292
     13        6          -0.000443335    0.000552841   -0.000314018
     14        1          -0.000126785   -0.000233800   -0.000116015
     15        1          -0.000653111    0.000173827   -0.000276183
     16        6          -0.000484809   -0.000153091   -0.000182564
     17        1           0.000191091    0.000323072    0.000651828
     18        1          -0.000274958    0.000039683   -0.000952764
     19        1          -0.000992744    0.000724423   -0.000147437
 -------------------------------------------------------------------
 Cartesian Forces:  Max     0.002918495 RMS     0.000600431

 GradGradGradGradGradGradGradGradGradGradGradGradGradGradGradGradGradGrad
 Berny optimization.
 Using GEDIIS/GDIIS optimizer.
 FormGI is forming the generalized inverse of G from B-inverse, IUseBI=4.
 Internal  Forces:  Max     0.001736541 RMS     0.000418228
 Search for a local minimum.
 Step number   3 out of a maximum of   96
 All quantities printed in internal units (Hartrees-Bohrs-Radians)
 Mixed Optimization -- En-DIIS/RFO-DIIS
 Swapping is turned off.
 Update second derivatives using D2CorX and points    2    3
 ITU=  0  1  0
     Eigenvalues ---    0.00013   0.00050   0.01050   0.01218   0.01487
     Eigenvalues ---    0.01734   0.01807   0.02006   0.02232   0.02477
     Eigenvalues ---    0.02634   0.02697   0.02836   0.03951   0.05809
     Eigenvalues ---    0.06047   0.10388   0.11098   0.11267   0.11736
     Eigenvalues ---    0.12128   0.12493   0.12571   0.14556   0.14847
     Eigenvalues ---    0.15903   0.18010   0.18838   0.18884   0.19408
     Eigenvalues ---    0.19590   0.24066   0.28570   0.29310   0.29691
     Eigenvalues ---    0.35387   0.36084   0.36441   0.38054   0.38866
     Eigenvalues ---    0.38940   0.39125   0.39654   0.42207   0.42596
     Eigenvalues ---    0.47129   0.48141   0.48895   0.51790   0.55216
     Eigenvalues ---    0.56267
 En-DIIS/RFO-DIIS/Sim-DIIS IScMMF=       -3 using points:     3    2
 RFO step:  Lambda=-7.11493292D-05.
 DidBck=T Rises=T En-DIIS coefs:    0.43632    0.56368
 Iteration  1 RMS(Cart)=  0.04180925 RMS(Int)=  0.00192296
 Iteration  2 RMS(Cart)=  0.00200599 RMS(Int)=  0.00000667
 Iteration  3 RMS(Cart)=  0.00000379 RMS(Int)=  0.00000598
 Iteration  4 RMS(Cart)=  0.00000000 RMS(Int)=  0.00000598
 Variable       Old X    -DE/DX   Delta X   Delta X   Delta X     New X
                                 (Linear)    (Quad)   (Total)
    R1        1.81680   0.00000   0.00000   0.00001   0.00001   1.81681
    R2        2.57614  -0.00001   0.00001  -0.00007  -0.00006   2.57608
    R3        2.96037   0.00000  -0.00003   0.00007   0.00004   2.96041
    R4        2.64519  -0.00059   0.00004  -0.00135  -0.00131   2.64388
    R5        2.64091   0.00096   0.00000   0.00200   0.00200   2.64291
    R6        2.58761   0.00003   0.00000   0.00001   0.00002   2.58763
    R7        1.81116   0.00001   0.00000   0.00003   0.00003   1.81119
    R8        2.05387   0.00000   0.00000  -0.00003  -0.00002   2.05384
    R9        2.62324   0.00090  -0.00001   0.00189   0.00188   2.62512
   R10        2.04794   0.00001   0.00002  -0.00001   0.00000   2.04794
   R11        2.63077  -0.00082   0.00008  -0.00185  -0.00177   2.62899
   R12        2.63467   0.00061  -0.00001   0.00165   0.00164   2.63632
   R13        2.04925   0.00073  -0.00016   0.00194   0.00178   2.05103
   R14        2.63669  -0.00024  -0.00005  -0.00108  -0.00113   2.63556
   R15        2.84399   0.00124   0.00046   0.00365   0.00410   2.84810
   R16        2.05249  -0.00023  -0.00001  -0.00031  -0.00032   2.05217
   R17        2.05952   0.00055   0.00034   0.00201   0.00235   2.06187
   R18        2.06418   0.00087  -0.00082   0.00317   0.00236   2.06654
   R19        2.05887   0.00118  -0.00023   0.00293   0.00270   2.06158
    A1        1.95499  -0.00001  -0.00005   0.00001  -0.00003   1.95496
    A2        2.13983  -0.00007   0.00002  -0.00041  -0.00040   2.13943
    A3        2.08208   0.00010   0.00005  -0.00020  -0.00015   2.08193
    A4        2.06126  -0.00003  -0.00007   0.00062   0.00055   2.06181
    A5        2.06763   0.00000   0.00002   0.00009   0.00011   2.06774
    A6        2.05100  -0.00001  -0.00003   0.00008   0.00005   2.05105
    A7        2.16455   0.00001   0.00001  -0.00017  -0.00016   2.16439
    A8        1.99552   0.00000   0.00004  -0.00008  -0.00004   1.99548
    A9        2.10926  -0.00001  -0.00003   0.00007   0.00004   2.10930
   A10        2.10831  -0.00001   0.00009  -0.00019  -0.00011   2.10821
   A11        2.06560   0.00002  -0.00005   0.00012   0.00007   2.06568
   A12        2.09854   0.00001  -0.00003   0.00005   0.00002   2.09855
   A13        2.09244   0.00003   0.00008  -0.00067  -0.00059   2.09186
   A14        2.09219  -0.00004  -0.00004   0.00063   0.00058   2.09277
   A15        2.10911   0.00015  -0.00030   0.00130   0.00100   2.11011
   A16        2.08924  -0.00010   0.00013  -0.00053  -0.00039   2.08885
   A17        2.08483  -0.00005   0.00016  -0.00077  -0.00061   2.08422
   A18        2.06427  -0.00008   0.00033  -0.00069  -0.00036   2.06391
   A19        2.11627  -0.00165  -0.00003  -0.00430  -0.00433   2.11194
   A20        2.10218   0.00174  -0.00012   0.00508   0.00496   2.10714
   A21        2.13095  -0.00006  -0.00012  -0.00037  -0.00049   2.13046
   A22        2.06928   0.00001   0.00006  -0.00031  -0.00025   2.06903
   A23        2.08296   0.00006   0.00006   0.00068   0.00074   2.08370
   A24        1.94183  -0.00053  -0.00224  -0.00093  -0.00317   1.93866
   A25        1.92494   0.00042   0.00202   0.00265   0.00467   1.92960
   A26        1.94135   0.00043  -0.00016   0.00086   0.00069   1.94204
   A27        1.87573   0.00030   0.00066   0.00126   0.00192   1.87766
   A28        1.89506  -0.00017  -0.00162  -0.00088  -0.00250   1.89256
   A29        1.88267  -0.00046   0.00142  -0.00306  -0.00163   1.88103
    D1        3.13412  -0.00001   0.00039  -0.00402  -0.00363   3.13048
    D2       -0.00690   0.00001   0.00060  -0.00245  -0.00185  -0.00875
    D3        3.10171  -0.00002   0.00050  -0.02293  -0.02244   3.07927
    D4       -0.04050  -0.00005   0.00027  -0.02461  -0.02434  -0.06485
    D5       -0.04550   0.00004   0.00174  -0.02290  -0.02115  -0.06665
    D6        3.09548   0.00001   0.00152  -0.02458  -0.02306   3.07242
    D7       -0.00557  -0.00004   0.00015  -0.00474  -0.00459  -0.01016
    D8        3.13303   0.00002   0.00159  -0.00220  -0.00061   3.13242
    D9        3.14157  -0.00010  -0.00108  -0.00478  -0.00586   3.13571
   D10       -0.00302  -0.00004   0.00035  -0.00223  -0.00188  -0.00489
   D11       -3.13781   0.00001  -0.00022   0.00252   0.00231  -3.13551
   D12        0.00121  -0.00001   0.00023   0.00183   0.00205   0.00327
   D13       -0.00158   0.00006   0.00097   0.00256   0.00353   0.00195
   D14        3.13745   0.00004   0.00142   0.00186   0.00328   3.14073
   D15        3.11971   0.00000   0.00110  -0.00857  -0.00747   3.11224
   D16       -0.02127   0.00002   0.00133  -0.00691  -0.00558  -0.02685
   D17       -3.13317  -0.00006  -0.00200  -0.00154  -0.00355  -3.13672
   D18        0.00226   0.00002  -0.00045   0.00038  -0.00007   0.00219
   D19        0.00550   0.00000  -0.00060   0.00094   0.00033   0.00584
   D20        3.14093   0.00008   0.00095   0.00287   0.00382  -3.13844
   D21        0.00314  -0.00002  -0.00077   0.00126   0.00048   0.00362
   D22       -3.13953   0.00006  -0.00158   0.00444   0.00285  -3.13667
   D23        3.13859   0.00006   0.00078   0.00318   0.00395  -3.14064
   D24       -0.00407   0.00014  -0.00003   0.00636   0.00632   0.00225
   D25       -0.00751   0.00005   0.00203  -0.00096   0.00107  -0.00643
   D26        3.10161   0.00029   0.01016   0.00210   0.01223   3.11383
   D27        3.13516  -0.00003   0.00284  -0.00414  -0.00129   3.13387
   D28       -0.03891   0.00021   0.01097  -0.00108   0.00986  -0.02905
   D29        0.00677  -0.00007  -0.00215  -0.00099  -0.00314   0.00363
   D30       -3.13224  -0.00005  -0.00260  -0.00029  -0.00288  -3.13513
   D31       -3.10262  -0.00025  -0.01021  -0.00384  -0.01408  -3.11670
   D32        0.04156  -0.00023  -0.01067  -0.00314  -0.01383   0.02773
   D33        2.69476  -0.00032  -0.14819   0.02975  -0.11845   2.57632
   D34       -1.50862  -0.00002  -0.14749   0.03245  -0.11504  -1.62365
   D35        0.57955  -0.00004  -0.14448   0.03092  -0.11356   0.46600
   D36       -0.48001  -0.00011  -0.13988   0.03275  -0.10712  -0.58713
   D37        1.59980   0.00020  -0.13918   0.03546  -0.10371   1.49609
   D38       -2.59522   0.00018  -0.13616   0.03393  -0.10223  -2.69745
         Item               Value     Threshold  Converged?
 Maximum Force            0.001737     0.000015     NO 
 RMS     Force            0.000418     0.000010     NO 
 Maximum Displacement     0.175375     0.000060     NO 
 RMS     Displacement     0.041849     0.000040     NO 
 Predicted change in Energy=-3.675626D-05
 GradGradGradGradGradGradGradGradGradGradGradGradGradGradGradGradGradGrad

[...]
 917,0.00755320,0.00929203,-0.00148180,0.02513356,-0.07863738,0.0155998
 6,0.08137040,0.49221988,0.03082816,0.03844199,-0.06455437,-0.01504370,
 -0.01041370,0.00523260,-0.04741119,0.01541755,-0.08680736,0.06603250,-
 0.18596496,0.28133804,0.00536096,-0.03453002,0.01875073,0.00408238,0.0
 0241037,0.00076810,0.00213769,0.02080925,-0.01717867,-0.09326613,0.021
 50676,-0.02659019,0.45641576,-0.02200288,-0.04177914,0.02731433,0.0045
 5059,-0.00143344,0.00010642,0.00453233,-0.00544646,0.01511262,0.053578
 81,-0.23523775,0.13248259,0.21026550,0.47431807,0.01133666,0.02381117,
 0.00129108,-0.00063374,-0.00060973,-0.00324793,-0.00684282,0.01989965,
 0.00280346,-0.04685816,0.12432793,-0.13450182,-0.02040299,-0.22362544,
 0.16367461,0.00247294,0.00198798,-0.00217861,0.00017195,0.00040351,0.0
 0003716,-0.00147475,0.00113883,-0.00026579,0.00402664,0.00174366,0.000
 54570,-0.36903996,-0.25310436,0.06606691,0.36560798,0.00043456,-0.0011
 7620,0.00457208,0.00064945,-0.00041816,-0.00002739,0.00042168,0.000822
 16,-0.00220970,-0.02559910,-0.01813880,0.00332894,-0.22269437,-0.19038
 394,0.05596720,0.24735647,0.20766362,-0.00142264,0.00485543,0.00282469
 ,-0.00006338,-0.00005978,-0.00080509,-0.00005912,-0.00192989,-0.001409
 30,0.01790124,0.00983651,-0.00357783,0.04705475,0.04874506,-0.02830176
 ,-0.06258438,-0.06128020,0.03050798,-0.00095993,0.00091440,-0.00123205
 ,-0.00066830,-0.00028489,0.00007847,-0.24786160,-0.07945337,-0.0176063
 9,-0.01874917,-0.00852631,-0.00195186,0.00032146,-0.00316668,0.0022634
 2,0.00108921,0.00037709,0.00026811,0.62923399,0.00488844,-0.00019175,0
 .00194898,0.00065090,0.00043792,0.00006003,-0.12868753,-0.18504748,0.0
 2405352,-0.00105383,0.01186548,-0.00579018,-0.00001312,-0.00508646,0.0
 0224140,0.00369214,0.00069327,0.00134521,0.05266137,0.61273992,-0.0030
 3304,0.00080945,-0.00046034,-0.00056934,-0.00017240,0.00031025,0.00803
 947,0.03889424,-0.07961258,-0.00594890,-0.00785155,0.00376233,0.000571
 16,0.00097795,-0.00096939,-0.00158499,-0.00017749,-0.00065459,0.125030
 64,-0.22712989,0.29028673,0.00029229,0.00035965,-0.00018081,-0.0000453
 0,-0.00008119,-0.00003788,0.00704897,-0.01992795,0.01214882,0.00003754
 ,-0.00087376,0.00136116,-0.00010535,0.00075895,-0.00004494,-0.00206061
 ,0.00010106,-0.00172771,-0.05874800,0.01158265,-0.01271615,0.05933044,
 -0.00020343,0.00070686,-0.00038967,-0.00018035,-0.00005512,0.00008045,
 0.00271761,-0.01275061,0.00784820,0.00178688,-0.00333335,0.00095279,0.
 00106586,0.00205739,-0.00108978,-0.00158458,0.00092585,-0.00043987,0.0
 1512288,-0.26611764,0.12125018,-0.01438664,0.28116805,0.00026807,-0.00
 012421,0.00030552,0.00002035,0.00012671,0.00013988,0.00073782,0.000884
 65,0.00066273,0.00001958,-0.00004257,-0.00299882,-0.00044803,-0.001170
 98,-0.00015009,-0.00072801,0.00039948,0.00092579,-0.01479543,0.1195605
 0,-0.10188505,0.01852657,-0.13487032,0.09869063,-0.00215560,0.00043303
 ,-0.00066578,-0.00013436,-0.00012523,0.00014318,-0.05340962,-0.0418571
 2,0.00181948,-0.00000984,-0.00695749,0.00164986,0.00110819,0.00112962,
 -0.00033677,-0.00061226,0.00038599,-0.00018454,-0.28999949,0.07354983,
 -0.10707135,0.00229985,-0.00201776,0.00063816,0.68671123,0.00032625,0.
 00082570,-0.00066085,-0.00042534,-0.00014252,-0.00016149,0.00638564,0.
 05099475,-0.01913271,-0.00440077,-0.00013855,0.00207739,0.00029735,0.0
 0060048,-0.00019287,-0.00079853,-0.00024570,-0.00072161,0.00733223,-0.
 12955162,0.03633040,0.02593199,-0.00489017,0.01264593,0.10030413,0.600
 35064,-0.00092043,-0.00054531,-0.00032443,0.00028320,-0.00022802,-0.00
 028348,-0.02291060,-0.03351204,0.02102889,0.00034590,0.00117059,0.0056
 8992,0.00011793,-0.00002755,-0.00001028,0.00059079,-0.00018768,-0.0002
 6703,-0.07286957,0.05652064,-0.11497018,-0.01378605,0.00389862,-0.0023
 3218,0.11688683,-0.20727960,0.27717750,-0.00070951,0.00001123,-0.00016
 094,-0.00004807,-0.00003773,0.00002967,-0.00345189,0.00180947,-0.00429
 400,0.00039655,-0.00115714,0.00062255,-0.00017819,0.00038812,-0.000274
 06,-0.00003498,-0.00012873,0.00005890,-0.01573455,-0.01864264,0.003730
 27,0.00045891,0.00079465,0.00097896,-0.23465538,-0.13946066,0.01148972
 ,0.24552410,0.00010369,-0.00005374,-0.00001719,0.00004453,0.00000186,-
 0.00001767,0.00135672,0.00209515,0.00312679,0.00026642,0.00037084,0.00
 006254,-0.00007366,-0.00001323,-0.00001989,0.00003976,0.00000007,0.000
 03000,0.00815201,0.00873967,-0.00026506,0.00013723,-0.00021266,-0.0019
 4166,-0.13939560,-0.16130375,0.02058202,0.15077993,0.16564725,-0.00021
 645,-0.00003813,-0.00018676,-0.00003338,-0.00003829,-0.00003300,-0.003
 93461,0.00335533,0.00439753,-0.00011174,-0.00036674,0.00045852,-0.0000
 2900,0.00014105,-0.00007278,-0.00003245,-0.00003521,0.00001518,-0.0102
 3096,-0.00855124,0.00460672,0.00130927,-0.00169659,-0.00279276,0.01155
 589,0.02048919,-0.04474593,-0.01029561,-0.02546561,0.03592413,-0.00133
 793,-0.00008284,-0.00022319,0.00017255,-0.00000621,-0.00002488,-0.0145
 9455,-0.02360282,0.00976154,0.00176045,-0.00188074,0.00173428,-0.00015
 053,0.00033681,-0.00026101,0.00019267,-0.00005892,0.00012211,0.0281539
 8,0.03073367,-0.00949661,-0.00421245,0.00126817,-0.00423138,-0.1289322
 9,0.04187440,-0.04176812,0.00597480,-0.02316411,0.01274964,0.68326425,
 -0.00072267,0.00016685,-0.00028008,0.00001650,-0.00012219,0.00003976,-
 0.02679315,-0.05750485,0.01805704,-0.00130791,-0.00333767,0.00077467,0
 .00097314,-0.00018743,0.00040012,-0.00006861,0.00044829,-0.00010630,0.
 08315705,0.00119081,0.02838601,0.00018520,0.00274872,0.00243348,-0.024
 98658,-0.28325950,0.10499640,0.00367944,-0.01132399,0.00895528,0.03780
 373,0.58247585,0.00000943,-0.00018144,-0.00009925,0.00003322,0.0001055
 1,0.00004666,0.01103398,0.01813741,-0.01281346,0.00140063,0.00068211,-
 0.00064588,-0.00050387,0.00022911,-0.00021522,-0.00003509,-0.00012876,
 0.00026206,-0.03542857,0.01269256,-0.01005184,-0.00360755,0.00264890,0
 .00476224,-0.00780795,0.12611620,-0.12987934,-0.00118893,0.00059800,0.
 00286572,0.14469926,-0.21696710,0.29448349,0.00092492,-0.00022855,0.00
 026177,-0.00000728,0.00020845,-0.00001327,0.02662702,0.07724586,-0.034
 72191,0.00332700,0.00163960,-0.00159310,-0.00074360,0.00087485,-0.0001
 6575,-0.00012088,-0.00039444,0.00003904,-0.07916216,-0.01444205,-0.014
 75587,-0.00131805,-0.00025293,-0.00005752,0.05123763,-0.06417609,0.046
 73947,0.00206523,0.00083383,-0.00236386,-0.24600380,-0.06483928,-0.018
 71414,0.64171836,-0.00079157,0.00070547,-0.00053953,0.00020855,0.00013
 374,-0.00006847,0.02941534,0.00429764,0.01206847,-0.00095650,-0.003331
 76,0.00474550,0.00137843,-0.00013947,-0.00009357,-0.00000272,0.0001187
 1,-0.00004781,-0.01562690,-0.00334381,-0.00642119,-0.00023514,0.000190
 65,-0.00069161,-0.01289057,-0.03715185,0.01868457,0.00052252,-0.002254
 20,0.00511039,-0.13443297,-0.18948400,0.02141735,0.05785399,0.56242735
 ,0.00067122,-0.00039525,0.00038419,-0.00010203,-0.00009770,-0.00006470
 ,-0.01060344,0.02682710,-0.00731627,-0.00072343,0.00562819,0.00358251,
 -0.00032675,-0.00061406,-0.00138876,-0.00011071,0.00001507,0.00019524,
 -0.01407697,-0.00682175,-0.00799117,-0.00005850,-0.00055901,-0.0004550
 2,0.02121539,0.00257670,0.01112877,-0.00205041,0.00550043,0.00439303,0
 .01558563,0.04273216,-0.08636928,0.11280328,-0.18542570,0.30955929,-0.
 00291656,-0.00079842,-0.00025284,0.00061920,0.00022276,0.00003815,-0.1
 2346170,-0.01377467,-0.01056756,0.00301912,0.02064348,-0.01062880,-0.0
 0539665,0.00190682,-0.00357143,-0.00025634,-0.00071920,0.00047901,0.04
 733384,-0.01571210,0.02077578,-0.00338447,-0.00448594,-0.00110833,-0.0
 2815815,0.02884782,-0.02141755,0.00011411,0.00107296,-0.00016511,-0.05
 402329,-0.04301838,0.00247953,-0.27751022,0.07385333,-0.10144412,0.677
 53255,-0.00247987,-0.00273746,0.00060751,-0.00038803,-0.00036479,0.000
 01295,0.03798049,-0.26289010,0.11439297,0.01037908,-0.00086829,0.00463
 560,-0.00225358,0.00198348,-0.00105705,-0.00041638,-0.00049619,0.00007
 129,-0.06199272,-0.03975068,0.00438916,-0.00381590,0.00085288,0.002292
 37,0.03111459,-0.03622010,0.02490250,0.00108294,-0.00065174,0.00010960
 ,0.00461056,0.05547958,-0.02221278,0.00348213,-0.13255869,0.03281373,0
 .09392358,0.59006453,0.00066696,0.00102797,-0.00073341,0.00041314,0.00
 012973,-0.00013967,-0.03732326,0.09887972,-0.12639455,-0.00539547,0.00
 801805,-0.00376168,-0.00094180,0.00037346,0.00087021,0.00001960,-0.000
 06314,0.00008737,0.04394573,0.01849198,0.01012360,-0.00143993,0.002022
 78,0.00612385,-0.02230008,0.02364762,-0.02555791,-0.00023961,0.0002085
 2,-0.00097782,-0.02115162,-0.03688937,0.01997162,-0.06670903,0.0543062
 3,-0.11930470,0.11723359,-0.20045519,0.28447845,-0.00117469,0.00054467
 ,-0.00059954,-0.00003099,-0.00000734,0.00004752,0.00596971,0.00229302,
 0.00006027,0.00032074,0.00117587,0.00035921,0.00004591,-0.00045021,0.0
 0015221,0.00002334,0.00000120,0.00002465,0.00204136,0.00074918,-0.0020
 9639,0.00030643,0.00025471,-0.00012907,-0.00016253,0.00110392,-0.00032
 669,-0.00010972,0.00006516,0.00029529,-0.00308750,0.00141174,-0.003936
 60,-0.01618194,-0.01758056,0.00231778,-0.23200119,-0.13734838,0.010967
 10,0.24395128,0.00042932,0.00078356,-0.00040363,0.00021163,0.00034270,
 -0.00018811,-0.02122875,-0.01302379,0.00130552,-0.00211460,-0.00252852
 ,-0.00069888,0.00041136,0.00065447,-0.00000317,-0.00014192,0.00005595,
 -0.00012862,0.00091105,-0.00246244,0.00541414,-0.00116872,-0.00074806,
 0.00015078,0.00070584,-0.00039081,-0.00007134,0.00004466,-0.00020890,-
 0.00047156,0.00160331,0.00173684,0.00327250,0.00729996,0.00713398,0.00
 110322,-0.13711369,-0.15839305,0.01791100,0.14825139,0.16602346,-0.000
 39039,-0.00031681,-0.00008242,-0.00005556,-0.00025630,-0.00012457,0.01
 197296,0.00847865,0.00130451,0.00209469,0.00023841,-0.00239590,-0.0003
 7197,-0.00010574,0.00046184,0.00007841,-0.00007332,0.00002582,-0.00222
 349,0.00533673,0.00405286,0.00060490,0.00062012,0.00020266,-0.00012680
 ,0.00001994,-0.00097426,0.00029467,-0.00046527,-0.00081142,-0.00380412
 ,0.00333645,0.00423991,-0.01023087,-0.00720125,0.00569382,0.01055233,0
 .01782017,-0.04627459,-0.00871350,-0.02524726,0.03755552,-0.00014443,0
 .00003434,-0.00008662,0.00003201,0.00002520,-0.00000133,0.00017839,-0.
 00057819,0.00076887,-0.00000266,-0.00001455,0.00029672,-0.00007562,0.0
 0010085,-0.00011208,0.00003431,-0.00004015,0.00003161,0.00245446,-0.00
 043438,-0.00130540,-0.00008936,-0.00010005,0.00002078,0.00132320,-0.00
 155872,-0.00010063,0.00027132,0.00088135,0.00089807,-0.27393567,0.0612
 3009,-0.10226974,-0.01706654,0.00907894,-0.01117972,-0.00204686,-0.004
 61506,-0.00031959,-0.00091480,0.00044772,-0.00049262,0.28896547,0.0000
 6538,0.00014020,-0.00001221,0.00000403,0.00000923,-0.00000531,-0.00039
 001,-0.00110492,-0.00026075,0.00002373,-0.00043375,-0.00024964,0.00009
 034,0.00016775,-0.00001910,-0.00014493,0.00003612,-0.00007745,-0.00101
 928,-0.00301262,0.00516497,0.00127918,-0.00042378,0.00061604,0.0252508
 9,-0.00199863,0.01090969,0.00019935,-0.00012452,-0.00204432,0.06146701
 ,-0.07393735,0.03618355,-0.01659979,0.00826950,-0.00699454,-0.00448466
 ,-0.00080995,0.00269598,-0.00083927,0.00041136,-0.00052872,-0.06496067
 ,0.07241634,-0.00006730,-0.00000514,0.00008070,0.00000625,0.00000585,-
 0.00000274,0.00063574,-0.00042099,-0.00098083,0.00028848,-0.00028009,-
 0.00072874,-0.00010072,0.00000050,0.00003017,0.00006825,-0.00000638,0.
 00007399,-0.00102414,0.00534268,0.00461324,-0.00068701,0.00019754,-0.0
 0026724,-0.01381512,0.00270229,-0.00160272,0.00127737,-0.00183839,-0.0
 0291696,-0.10205503,0.03628913,-0.08853285,0.00200298,0.00025796,0.005
 25248,-0.00065115,0.00271154,0.00548365,0.00022283,-0.00012000,-0.0000
 6733,0.11270493,-0.04337687,0.08211327,-0.00021375,-0.00019173,-0.0000
 3282,0.00001306,0.00001989,-0.00000335,-0.00348851,-0.00074647,-0.0042
 0783,0.00066063,0.00086360,-0.00017676,-0.00049572,0.00027883,-0.00029
 131,-0.00002866,-0.00009318,0.00005303,-0.00053355,0.00015065,0.000005
 49,0.00010960,0.00017250,0.00027625,-0.00399643,-0.00286314,-0.0003703
 1,0.00015683,-0.00118423,0.00053797,0.00595798,-0.02274080,0.01345830,
 -0.08831565,0.00777784,-0.00949974,0.00065209,0.02591970,-0.01610244,0
 .00039991,0.00179562,0.00127280,0.00074919,-0.00065426,0.00052003,0.58
 748857,-0.00018002,-0.00013003,-0.00005085,0.00001726,0.00003486,0.000
 01689,-0.00094578,0.00249518,0.00164560,0.00024920,0.00007142,0.000207
 88,-0.00006774,0.00000973,-0.00012628,0.00001744,-0.00001742,0.0000191
 4,0.00075224,-0.00053574,-0.00005835,0.00013511,-0.00015664,-0.0002736
 1,-0.00341171,0.00234134,0.00091678,0.00013415,-0.00032494,0.00033493,
 -0.00059735,-0.02188597,0.01394133,0.00896624,-0.18892634,0.06619493,0
 .00356263,-0.00928524,0.00886929,-0.00116127,0.00055400,-0.00201312,0.
 00180815,0.00068598,-0.00112613,0.01283709,0.51931693,-0.00016169,-0.0
 0014650,0.00000051,0.00000415,0.00003180,0.00003493,-0.00227810,0.0012
 0561,0.00616096,0.00033466,0.00032122,-0.00006224,-0.00015616,-0.00008
 027,-0.00014616,0.00008812,-0.00004287,0.00005289,-0.00044860,0.000925
 29,-0.00138917,0.00029801,-0.00048484,-0.00083108,-0.00180486,0.000036
 37,0.00634796,-0.00002063,-0.00029878,0.00011359,0.00114059,0.00626842
 ,0.00168323,-0.00959416,0.06200724,-0.10755092,-0.00378572,0.01524777,
 -0.00381203,0.00144626,-0.00163131,-0.00271813,0.00071407,-0.00180913,
 -0.00235570,0.00475110,0.02852707,0.52781353,0.00009347,0.00003021,0.0
 0003875,-0.00001281,-0.00000811,-0.00000618,0.00016310,-0.00012735,0.0
 0070359,-0.00019551,0.00001006,-0.00011377,0.00006738,-0.00007286,0.00
 008036,-0.00000392,0.00001839,-0.00002138,0.00007496,0.00016559,-0.000
 03944,0.00005706,-0.00007682,-0.00006108,0.00015849,-0.00002681,-0.000
 13517,-0.00000395,0.00000805,0.00002571,0.00036639,0.00000190,-0.00068
 471,0.00167353,0.00260921,0.00252232,0.00047164,0.00177718,-0.00056558
 ,0.00022972,-0.00019013,-0.00035496,0.00035099,0.00025764,0.00004324,-
 0.18512461,-0.12471714,-0.05675500,0.19698868,0.00017128,0.00016093,-0
 .00003577,-0.00000107,-0.00000443,0.00000582,0.00008691,-0.00008394,0.
 00038590,-0.00035457,-0.00018917,-0.00002778,0.00008429,0.00005632,-0.
 00000458,-0.00004026,0.00001714,-0.00002770,0.00050303,0.00002312,0.00
 006601,0.00011536,-0.00000560,-0.00003203,-0.00158818,0.00033983,0.000
 12830,0.00003995,-0.00036072,0.00017679,0.00197940,-0.00438411,0.00289
 127,-0.02020962,-0.01782985,-0.00859101,-0.00215391,0.00175518,-0.0008
 3790,0.00123694,-0.00009691,0.00012540,0.00005030,-0.00008271,-0.00021
 175,-0.12239059,-0.16033987,-0.05088613,0.13568643,0.17453370,0.000062
 09,-0.00000167,-0.00002979,-0.00001415,-0.00000499,0.00001141,0.000060
 18,-0.00026464,-0.00001948,-0.00007538,-0.00001451,-0.00003049,0.00003
 328,-0.00002382,0.00002874,-0.00000155,0.00001292,-0.00000213,0.000291
 73,-0.00001075,0.00016913,-0.00002610,-0.00000061,-0.00000170,0.000606
 36,0.00069665,-0.00035380,0.00001430,0.00017836,-0.00020855,-0.0011597
 3,0.00282760,-0.00091151,0.01389432,0.01253071,0.00384942,0.00086985,-
 0.00001417,0.00033505,-0.00032098,-0.00017385,0.00020647,-0.00004008,0
 .00005755,-0.00004966,-0.05823717,-0.05345832,-0.06871090,0.06324256,0
 .05309139,0.07328409,-0.00007883,-0.00001279,0.00004565,0.00000394,0.0
 0000326,-0.00000990,-0.00064164,-0.00069679,0.00085549,0.00007644,-0.0
 0001326,-0.00007262,-0.00002142,-0.00001743,0.00001227,0.00000858,0.00
 000213,0.00000206,0.00111485,0.00023432,0.00024360,0.00002129,-0.00001
 342,-0.00004790,-0.00069488,0.00081545,-0.00083995,-0.00001857,0.00000
 967,0.00002246,0.00004280,-0.00186504,0.00051740,0.00021274,-0.0003549
 5,-0.00368516,-0.00072321,0.00185065,-0.00064996,0.00002871,-0.0001725
 7,-0.00037958,-0.00019700,-0.00001121,0.00014195,-0.04775347,0.0036706
 1,0.02616205,0.00301531,-0.00295193,-0.02376510,0.04772746,0.00016919,
 0.00007416,0.00000504,-0.00001259,-0.00001710,-0.00000201,0.00027395,-
 0.00088372,-0.00092983,-0.00028993,-0.00011024,-0.00000964,0.00013767,
 -0.00002871,0.00009160,-0.00005564,0.00004394,-0.00004234,0.00035260,-
 0.00034088,0.00043593,-0.00003750,0.00006379,0.00010427,0.00033128,-0.
 00029127,-0.00119534,-0.00004670,-0.00003098,0.00005841,0.00079069,-0.
 00059664,0.00009943,-0.00273059,0.00334033,0.03097168,-0.00071161,-0.0
 0097207,-0.00006744,0.00010092,0.00026848,0.00039825,-0.00049790,0.000
 23822,0.00025843,0.00335556,-0.05094039,-0.04047191,0.00366514,-0.0035
 7990,-0.02032338,-0.00506707,0.05665091,-0.00019559,-0.00003996,0.0000
 2104,0.00002212,0.00000997,-0.00000974,-0.00044371,0.00061546,0.000519
 22,0.00032674,0.00002438,0.00005354,-0.00012905,0.00007795,-0.00008839
 ,0.00003320,-0.00004153,0.00002881,0.00032644,-0.00006844,0.00000836,0
 .00005720,-0.00004733,-0.00015826,-0.00048532,0.00106326,0.00019680,0.
 00000862,0.00006883,-0.00003643,-0.00120466,-0.00047848,0.00071138,0.0
 0076963,0.00109231,-0.01440695,0.00081232,0.00095132,0.00018824,0.0001
 3185,-0.00019189,-0.00052866,0.00030309,-0.00013688,-0.00055308,0.0266
 2913,-0.04388794,-0.30313293,0.00118696,-0.00142846,-0.00832147,-0.028
 54139,0.04344579,0.32984391,-0.00009027,0.00002422,-0.00005690,0.00001
 822,0.00000535,0.00000647,-0.00025046,-0.00037584,-0.00006905,0.000145
 88,-0.00008270,0.00015186,-0.00006657,0.00011235,-0.00011679,0.0000047
 5,-0.00001993,0.00002863,0.00059864,-0.00007309,0.00022107,0.00000122,
 0.00011867,0.00012023,0.00008223,0.00049089,-0.00100875,-0.00001703,0.
 00006628,0.00001887,0.00039213,-0.00211638,0.00054540,-0.00135631,0.00
 017375,-0.00125463,0.00013609,0.00118902,-0.00010776,0.00034625,0.0000
 1851,0.00027312,0.00011360,0.00046651,0.00048842,-0.26623752,0.0989309
 1,0.04006593,-0.01836991,0.00973625,0.00456555,-0.00212309,0.00027253,
 0.00039242,0.28667215,0.00017500,0.00007513,0.00001808,-0.00001745,-0.
 00001686,0.00000574,0.00075343,0.00068670,0.00092950,-0.00032068,-0.00
 019427,0.00002732,0.00020216,-0.00011163,0.00010238,-0.00002186,0.0000
 5130,-0.00004107,-0.00016579,-0.00024905,-0.00004253,-0.00005958,-0.00
 002057,-0.00006721,0.00002503,0.00013172,0.00033679,-0.00001279,0.0000
 0855,-0.00002329,0.00135821,0.00177677,0.00047485,0.02546843,-0.011597
 40,-0.00486420,-0.00106081,-0.00413730,0.00173071,0.00019832,-0.000112
 32,-0.00016633,-0.00085726,-0.00044647,-0.00038019,0.09769312,-0.09296
 686,-0.01871905,-0.01901055,0.01007098,0.00489554,0.00459037,-0.002887
 92,-0.00102834,-0.10893729,0.09993951,-0.00008143,-0.00002831,-0.00000
 283,0.00000435,0.00000900,-0.00000423,-0.00044526,0.00036547,-0.001080
 78,0.00020105,0.00010579,-0.00005233,-0.00011675,0.00008682,-0.0000675
 2,-0.00000655,-0.00002202,0.00001792,-0.00031650,-0.00014727,0.0000510
 9,0.00000669,0.00005845,0.00005890,0.00008344,-0.00025279,-0.00026830,
 0.00001917,-0.00002598,0.00000798,-0.00041269,-0.00077519,0.00049232,-
 0.01759100,0.00826841,0.00080902,0.00035206,0.00278070,-0.00070569,0.0
 0009780,0.00017249,0.00023388,0.00016968,-0.00011286,0.00041035,0.0414
 1763,-0.01967926,-0.05149834,-0.00910621,0.00521224,0.00075515,0.02998
 861,-0.01282694,-0.00433540,-0.04426407,0.01681128,0.05517882\\0.00000
 097,0.00000148,-0.00000304,0.00000152,0.00000200,-0.00000366,0.0000006
 5,0.00000047,-0.00000017,0.00000144,0.00000126,-0.00000140,0.00000256,
 0.00000188,-0.00000094,0.00000290,0.00000172,0.00000026,0.00000109,0.0
 0000024,0.00000146,0.00000180,0.00000055,0.00000201,0.00000028,-0.0000
 0051,0.00000254,0.00000063,-0.00000072,0.00000383,-0.00000062,-0.00000
 105,0.00000189,-0.00000120,-0.00000071,0.00000016,-0.00000036,0.000000
 04,-0.00000084,-0.00000064,0.00000021,-0.00000214,-0.00000125,-0.00000
 154,0.00000268,-0.00000218,-0.00000127,-0.00000057,-0.00000209,-0.0000
 0075,-0.00000177,-0.00000331,-0.00000185,-0.00000050,-0.00000219,-0.00
 000146,0.00000020\\\@
 The archive entry for this job was punched.


 IF OTHER PEOPLE ARE GOING TO TALK, CONVERSATION IS SIMPLY IMPOSSIBLE.

                                               -- WHISTLER'S PRINCIPLE
 Job cpu time:       0 days  0 hours 52 minutes 25.1 seconds.
 Elapsed time:       0 days  0 hours  1 minutes 40.4 seconds.
 File lengths (MBytes):  RWF=    136 Int=      0 D2E=      0 Chk=      8 Scr=      1
 Normal termination of Gaussian 16 at Tue Apr 22 20:52:02 2025.
