/home/tahminaafroz
cn011.cluster.local
tahminaafroz
Wed Apr 30 05:24:39 CDT 2025
 Entering Gaussian System, Link 0=g16
 Initial command:
 /home/apps/g16/l1.exe "/tmp/3-Me-phboh2-opt-freq-thf/Gau-358329.inp" -scrdir="/tmp/3-Me-phboh2-opt-freq-thf/"
 Entering Link 1 = /home/apps/g16/l1.exe PID=    358330.
  
 Copyright (c) 1988-2019, Gaussian, Inc.  All Rights Reserved.
  
 This is part of the Gaussian(R) 16 program.  It is based on
 the Gaussian(R) 09 system (copyright 2009, Gaussian, Inc.),
 the Gaussian(R) 03 system (copyright 2003, Gaussian, Inc.),
 the Gaussian(R) 98 system (copyright 1998, Gaussian, Inc.),
 the Gaussian(R) 94 system (copyright 1995, Gaussian, Inc.),
 the Gaussian 92(TM) system (copyright 1992, Gaussian, Inc.),
 the Gaussian 90(TM) system (copyright 1990, Gaussian, Inc.),
 the Gaussian 88(TM) system (copyright 1988, Gaussian, Inc.),
 the Gaussian 86(TM) system (copyright 1986, Carnegie Mellon
 University), and the Gaussian 82(TM) system (copyright 1983,
 Carnegie Mellon University). Gaussian is a federally registered
 trademark of Gaussian, Inc.
  
 This software contains proprietary and confidential information,
 including trade secrets, belonging to Gaussian, Inc.
  
 This software is provided under written license and may be
 used, copied, transmitted, or stored only in accord with that
 written license.
  
 The following legend is applicable only to US Government
 contracts under FAR:
  
                    RESTRICTED RIGHTS LEGEND
  
 Use, reproduction and disclosure by the US Government is
 subject to restrictions as set forth in subparagraphs (a)
 and (c) of the Commercial Computer Software - Restricted
 Rights clause in FAR 52.227-19.
  
 Gaussian, Inc.
 340 Quinnipiac St., Bldg. 40, Wallingford CT 06492
  
  
 ---------------------------------------------------------------
 Warning -- This program may not be used in any manner that
 competes with the business of Gaussian, Inc. or will provide
 assistance to any competitor of Gaussian, Inc.  The licensee
 of this program is prohibited from giving any competitor of
 Gaussian, Inc. access to this program.  By using this program,
 the user acknowledges that Gaussian, Inc. is engaged in the
 business of creating and licensing software in the field of
 computational chemistry and represents and warrants to the
 licensee that it is not a competitor of Gaussian, Inc. and that
 it will not use this program in any manner prohibited above.
 ---------------------------------------------------------------
  

 Cite this work as:
 Gaussian 16, Revision C.01,
 M. J. Frisch, G. W. Trucks, H. B. Schlegel, G. E. Scuseria, 
 M. A. Robb, J. R. Cheeseman, G. Scalmani, V. Barone, 
 G. A. Petersson, H. Nakatsuji, X. Li, M. Caricato, A. V. Marenich, 
 J. Bloino, B. G. Janesko, R. Gomperts, B. Mennucci, H. P. Hratchian, 
 J. V. Ortiz, A. F. Izmaylov, J. L. Sonnenberg, D. Williams-Young, 
 F. Ding, F. Lipparini, F. Egidi, J. Goings, B. Peng, A. Petrone, 
 T. Henderson, D. Ranasinghe, V. G. Zakrzewski, J. Gao, N. Rega, 
 G. Zheng, W. Liang, M. Hada, M. Ehara, K. Toyota, R. Fukuda, 
 J. Hasegawa, M. Ishida, T. Nakajima, Y. Honda, O. Kitao, H. Nakai, 
 T. Vreven, K. Throssell, J. A. Montgomery, Jr., J. E. Peralta, 
 F. Ogliaro, M. J. Bearpark, J. J. Heyd, E. N. Brothers, K. N. Kudin, 
 V. N. Staroverov, T. A. Keith, R. Kobayashi, J. Normand, 
 K. Raghavachari, A. P. Rendell, J. C. Burant, S. S. Iyengar, 
 J. Tomasi, M. Cossi, J. M. Millam, M. Klene, C. Adamo, R. Cammi, 
 J. W. Ochterski, R. L. Martin, K. Morokuma, O. Farkas, 
 J. B. Foresman, and D. J. Fox, Gaussian, Inc., Wallingford CT, 2019.
 
 ******************************************
 Gaussian 16:  AS64L-G16RevC.01  3-Jul-2019
                30-Apr-2025 
 ******************************************
 %mem=20GB
 %nprocshared=32
 Will use up to   32 processors via shared memory.
 %chk=3-Me-phboh2-opt-freq-thf.chk
 ----------------------------------------------------------------------
 # opt=(calcfc,tight) freq 6-311+g(d,p) scrf=(smd,solvent=thf) nosymm s
 cf=(qc,fermi,xqc) geom=connectivity int=ultrafine m062x
 ----------------------------------------------------------------------
 1/7=10,10=4,18=20,19=15,26=6,38=1,57=2/1,3;
 2/9=110,12=2,15=1,17=6,18=5,40=1/2;
 3/5=4,6=6,7=111,11=2,25=1,30=1,70=32201,71=2,72=20,74=-55,75=-5,140=1/1,2,3;
 4//1;
 5/5=2,22=13,38=5,53=20/2;
 8/6=4,10=90,11=11/1;
 11/6=1,8=1,9=11,15=111,16=1,31=1/1,2,10;
 10/6=1,13=1,31=1/2;
 6/7=2,8=2,9=2,10=2,28=1/1;
 7/10=1,25=1,30=1/1,2,3,16;
 1/7=10,10=4,18=20,19=15,26=6/3(2);
 2/9=110,15=1/2;
 99//99;
 2/9=110,15=1/2;
 3/5=4,6=6,7=111,11=2,25=1,30=1,70=32205,71=1,72=20,74=-55,75=-5/1,2,3;
 4/5=5,16=3,69=1/1;
 5/5=2,22=13,38=5,53=20/2;
 7/30=1/1,2,3,16;
 1/7=10,18=20,19=15,26=6/3(-5);
 2/9=110,15=1/2;
 6/7=2,8=2,9=2,10=2,19=2,28=1/1;
 99/9=1/99;
 ------------------------
 3-Me-phboh2-opt-freq-thf
 ------------------------
 Symbolic Z-matrix:
 Charge =  0 Multiplicity = 1
 O                     8.68065   7.47996   5.5969 
 H                     9.4829    7.17525   6.03033 
 C                     6.24305   6.99548   5.18223 
 B                     7.63282   6.63396   5.80813 
 O                     7.86489   5.51525   6.56294 
 H                     7.09084   4.96853   6.70639 
 C                     5.13417   6.14903   5.2723 
 H                     5.2042    5.19064   5.78009 
 C                     3.91457   6.51138   4.71168 
 H                     3.06005   5.84946   4.79006 
 C                     3.79123   7.72791   4.05072 
 C                     4.87967   8.59513   3.9361 
 C                     6.09157   8.21245   4.50726 
 H                     6.94883   8.87459   4.43324 
 H                     2.83692   8.01059   3.61739 
 C                     4.74731   9.89847   3.19125 
 H                     5.51562   10.60767   3.50129 
 H                     4.85484   9.73929   2.11476 
 H                     3.76988   10.35302   3.36257 
 

 GradGradGradGradGradGradGradGradGradGradGradGradGradGradGradGradGradGrad
 Berny optimization.
 Initialization pass.
                           ----------------------------
                           !    Initial Parameters    !
                           ! (Angstroms and Degrees)  !
 --------------------------                            --------------------------
 ! Name  Definition              Value          Derivative Info.                !
 --------------------------------------------------------------------------------
 ! R1    R(1,2)                  0.9614         calculate D2E/DX2 analytically  !
 ! R2    R(1,4)                  1.3632         calculate D2E/DX2 analytically  !
 ! R3    R(3,4)                  1.5665         calculate D2E/DX2 analytically  !
 ! R4    R(3,7)                  1.3979         calculate D2E/DX2 analytically  !
 ! R5    R(3,13)                 1.3998         calculate D2E/DX2 analytically  !
 ! R6    R(4,5)                  1.3694         calculate D2E/DX2 analytically  !
 ! R7    R(5,6)                  0.9585         calculate D2E/DX2 analytically  !
 ! R8    R(7,8)                  1.0869         calculate D2E/DX2 analytically  !
 ! R9    R(7,9)                  1.3903         calculate D2E/DX2 analytically  !
 ! R10   R(9,10)                 1.0837         calculate D2E/DX2 analytically  !
 ! R11   R(9,11)                 1.39           calculate D2E/DX2 analytically  !
 ! R12   R(11,12)                1.3964         calculate D2E/DX2 analytically  !
 ! R13   R(11,15)                1.0855         calculate D2E/DX2 analytically  !
 ! R14   R(12,13)                1.3933         calculate D2E/DX2 analytically  !
 ! R15   R(12,16)                1.507          calculate D2E/DX2 analytically  !
 ! R16   R(13,14)                1.0857         calculate D2E/DX2 analytically  !
 ! R17   R(16,17)                1.0906         calculate D2E/DX2 analytically  !
 ! R18   R(16,18)                1.0935         calculate D2E/DX2 analytically  !
 ! R19   R(16,19)                1.0915         calculate D2E/DX2 analytically  !
 ! A1    A(2,1,4)              112.0154         calculate D2E/DX2 analytically  !
 ! A2    A(4,3,7)              122.5652         calculate D2E/DX2 analytically  !
 ! A3    A(4,3,13)             119.2945         calculate D2E/DX2 analytically  !
 ! A4    A(7,3,13)             118.14           calculate D2E/DX2 analytically  !
 ! A5    A(1,4,3)              118.4771         calculate D2E/DX2 analytically  !
 ! A6    A(1,4,5)              117.5269         calculate D2E/DX2 analytically  !
 ! A7    A(3,4,5)              123.9959         calculate D2E/DX2 analytically  !
 ! A8    A(4,5,6)              114.3087         calculate D2E/DX2 analytically  !
 ! A9    A(3,7,8)              120.8583         calculate D2E/DX2 analytically  !
 ! A10   A(3,7,9)              120.7994         calculate D2E/DX2 analytically  !
 ! A11   A(8,7,9)              118.3422         calculate D2E/DX2 analytically  !
 ! A12   A(7,9,10)             120.2202         calculate D2E/DX2 analytically  !
 ! A13   A(7,9,11)             119.8472         calculate D2E/DX2 analytically  !
 ! A14   A(10,9,11)            119.9325         calculate D2E/DX2 analytically  !
 ! A15   A(9,11,12)            120.8915         calculate D2E/DX2 analytically  !
 ! A16   A(9,11,15)            119.7191         calculate D2E/DX2 analytically  !
 ! A17   A(12,11,15)           119.3894         calculate D2E/DX2 analytically  !
 ! A18   A(11,12,13)           118.278          calculate D2E/DX2 analytically  !
 ! A19   A(11,12,16)           120.6124         calculate D2E/DX2 analytically  !
 ! A20   A(13,12,16)           121.1005         calculate D2E/DX2 analytically  !
 ! A21   A(3,13,12)            122.0429         calculate D2E/DX2 analytically  !
 ! A22   A(3,13,14)            118.5296         calculate D2E/DX2 analytically  !
 ! A23   A(12,13,14)           119.4273         calculate D2E/DX2 analytically  !
 ! A24   A(12,16,17)           111.1014         calculate D2E/DX2 analytically  !
 ! A25   A(12,16,18)           110.6129         calculate D2E/DX2 analytically  !
 ! A26   A(12,16,19)           111.1769         calculate D2E/DX2 analytically  !
 ! A27   A(17,16,18)           107.7729         calculate D2E/DX2 analytically  !
 ! A28   A(17,16,19)           108.3868         calculate D2E/DX2 analytically  !
 ! A29   A(18,16,19)           107.6505         calculate D2E/DX2 analytically  !
 ! D1    D(2,1,4,3)            179.282          calculate D2E/DX2 analytically  !
 ! D2    D(2,1,4,5)             -0.5643         calculate D2E/DX2 analytically  !
 ! D3    D(7,3,4,1)            175.8222         calculate D2E/DX2 analytically  !
 ! D4    D(7,3,4,5)             -4.3422         calculate D2E/DX2 analytically  !
 ! D5    D(13,3,4,1)            -4.3741         calculate D2E/DX2 analytically  !
 ! D6    D(13,3,4,5)           175.4615         calculate D2E/DX2 analytically  !
 ! D7    D(4,3,7,8)             -0.6347         calculate D2E/DX2 analytically  !
 ! D8    D(4,3,7,9)            179.5051         calculate D2E/DX2 analytically  !
 ! D9    D(13,3,7,8)           179.5594         calculate D2E/DX2 analytically  !
 ! D10   D(13,3,7,9)            -0.3007         calculate D2E/DX2 analytically  !
 ! D11   D(4,3,13,12)         -179.6103         calculate D2E/DX2 analytically  !
 ! D12   D(4,3,13,14)            0.2071         calculate D2E/DX2 analytically  !
 ! D13   D(7,3,13,12)            0.2021         calculate D2E/DX2 analytically  !
 ! D14   D(7,3,13,14)         -179.9805         calculate D2E/DX2 analytically  !
 ! D15   D(1,4,5,6)            178.079          calculate D2E/DX2 analytically  !
 ! D16   D(3,4,5,6)             -1.7581         calculate D2E/DX2 analytically  !
 ! D17   D(3,7,9,10)          -179.7874         calculate D2E/DX2 analytically  !
 ! D18   D(3,7,9,11)             0.0991         calculate D2E/DX2 analytically  !
 ! D19   D(8,7,9,10)             0.349          calculate D2E/DX2 analytically  !
 ! D20   D(8,7,9,11)          -179.7645         calculate D2E/DX2 analytically  !
 ! D21   D(7,9,11,12)            0.2135         calculate D2E/DX2 analytically  !
 ! D22   D(7,9,11,15)         -179.7441         calculate D2E/DX2 analytically  !
 ! D23   D(10,9,11,12)        -179.8997         calculate D2E/DX2 analytically  !
 ! D24   D(10,9,11,15)           0.1427         calculate D2E/DX2 analytically  !
 ! D25   D(9,11,12,13)          -0.308          calculate D2E/DX2 analytically  !
 ! D26   D(9,11,12,16)         178.6081         calculate D2E/DX2 analytically  !
 ! D27   D(15,11,12,13)        179.6498         calculate D2E/DX2 analytically  !
 ! D28   D(15,11,12,16)         -1.4341         calculate D2E/DX2 analytically  !
 ! D29   D(11,12,13,3)           0.0977         calculate D2E/DX2 analytically  !
 ! D30   D(11,12,13,14)       -179.7181         calculate D2E/DX2 analytically  !
 ! D31   D(16,12,13,3)        -178.8129         calculate D2E/DX2 analytically  !
 ! D32   D(16,12,13,14)          1.3714         calculate D2E/DX2 analytically  !
 ! D33   D(11,12,16,17)        158.3571         calculate D2E/DX2 analytically  !
 ! D34   D(11,12,16,18)        -81.9922         calculate D2E/DX2 analytically  !
 ! D35   D(11,12,16,19)         37.5541         calculate D2E/DX2 analytically  !
 ! D36   D(13,12,16,17)        -22.7577         calculate D2E/DX2 analytically  !
 ! D37   D(13,12,16,18)         96.8931         calculate D2E/DX2 analytically  !
 ! D38   D(13,12,16,19)       -143.5607         calculate D2E/DX2 analytically  !
 --------------------------------------------------------------------------------
 Trust Radius=3.00D-01 FncErr=5.00D-06 GrdErr=5.00D-06 EigMax=2.50D+02 EigMin=1.00D-04
 Number of steps in this run=     96 maximum allowed number of steps=    114.
 GradGradGradGradGradGradGradGradGradGradGradGradGradGradGradGradGradGrad

                          Input orientation:                          
 ---------------------------------------------------------------------
 Center     Atomic      Atomic             Coordinates (Angstroms)
 Number     Number       Type             X           Y           Z
 ---------------------------------------------------------------------
      1          8           0        8.680650    7.479959    5.596898
      2          1           0        9.482899    7.175251    6.030333
      3          6           0        6.243053    6.995482    5.182227
      4          5           0        7.632824    6.633965    5.808132
      5          8           0        7.864885    5.515248    6.562944
      6          1           0        7.090838    4.968526    6.706391
      7          6           0        5.134165    6.149031    5.272303
      8          1           0        5.204204    5.190638    5.780089
      9          6           0        3.914570    6.511384    4.711682
     10          1           0        3.060045    5.849462    4.790056
     11          6           0        3.791226    7.727910    4.050724
     12          6           0        4.879666    8.595132    3.936101
     13          6           0        6.091565    8.212453    4.507256
     14          1           0        6.948831    8.874593    4.433239
     15          1           0        2.836924    8.010593    3.617391
     16          6           0        4.747305    9.898466    3.191246
     17          1           0        5.515625   10.607672    3.501288
     18          1           0        4.854835    9.739293    2.114759
     19          1           0        3.769882   10.353023    3.362574
 ---------------------------------------------------------------------
                    Distance matrix (angstroms):
                    1          2          3          4          5
     1  O    0.000000
     2  H    0.961414   0.000000
     3  C    2.519633   3.353834   0.000000
     4  B    1.363182   1.940397   1.566498   0.000000
     5  O    2.336409   2.378498   2.593802   1.369351   0.000000
     6  H    3.172660   3.323950   2.674017   1.968325   0.958452
     7  C    3.801879   4.532022   1.397936   2.601071   3.086141
     8  H    4.166560   4.723192   2.166589   2.825274   2.792393
     9  C    4.943406   5.760716   2.424375   3.878484   4.474868
    10  H    5.907683   6.674508   3.405686   4.749972   5.132379
    11  C    5.134063   6.051399   2.797893   4.363837   5.272743
    12  C    4.295269   5.252773   2.443468   3.864008   5.029664
    13  C    2.902969   3.859624   1.399840   2.561129   3.826935
    14  H    2.509642   3.443831   2.142467   2.716356   4.081666
    15  H    6.192669   7.119626   3.883410   5.449322   6.339039
    16  C    5.206490   6.156473   3.824733   5.082448   6.348248
    17  H    4.918491   5.823817   4.050015   5.059092   6.389487
    18  H    5.645064   6.582173   4.343387   5.567880   6.832957
    19  H    6.112474   7.060718   4.549812   5.893595   7.100386
                    6          7          8          9         10
     6  H    0.000000
     7  C    2.697920   0.000000
     8  H    2.113470   1.086862   0.000000
     9  C    4.055608   1.390326   2.132843   0.000000
    10  H    4.549251   2.150413   2.451863   1.083742   0.000000
    11  C    5.055117   2.405951   3.380083   1.389969   2.147045
    12  C    5.071100   2.798860   3.885382   2.423828   3.402788
    13  C    4.044478   2.399921   3.396893   2.770331   3.854065
    14  H    4.521587   3.380197   4.292931   3.856038   4.939777
    15  H    6.073868   3.388431   4.270061   2.146258   2.468889
    16  C    6.492511   4.305662   5.392078   3.804931   4.668776
    17  H    6.674874   4.812638   5.885081   4.561579   5.507391
    18  H    6.988778   4.789373   5.852091   4.248235   5.050670
    19  H    7.155604   4.814757   5.878084   4.074214   4.777409
                   11         12         13         14         15
    11  C    0.000000
    12  C    1.396393   0.000000
    13  C    2.394736   1.393327   0.000000
    14  H    3.381075   2.146320   1.085732   0.000000
    15  H    1.085532   2.148501   3.380132   4.280173   0.000000
    16  C    2.522717   1.506986   2.526174   2.727193   2.719415
    17  H    3.401244   2.154953   2.660968   2.434374   3.732792
    18  H    2.987455   2.151048   3.095930   3.241585   3.052584
    19  H    2.713895   2.156556   3.358951   3.665760   2.534230
                   16         17         18         19
    16  C    0.000000
    17  H    1.090603   0.000000
    18  H    1.093491   1.764423   0.000000
    19  H    1.091481   1.769663   1.763754   0.000000
 Symmetry turned off by external request.
 Stoichiometry    C7H9BO2
 Framework group  C1[X(C7H9BO2)]
 Deg. of freedom    51
 Full point group                 C1      NOp   1
 Rotational constants (GHZ):           2.4971250           0.8874672           0.6577728
 Standard basis: 6-311+G(d,p) (5D, 7F)
   274 basis functions,   432 primitive gaussians,   284 cartesian basis functions
    36 alpha electrons       36 beta electrons
       nuclear repulsion energy       475.9734418805 Hartrees.
 NAtoms=   19 NActive=   19 NUniq=   19 SFac= 1.00D+00 NAtFMM=   60 NAOKFM=F Big=F
 Integral buffers will be    131072 words long.
 Raffenetti 2 integral format.
 Two-electron integral symmetry is turned off.
 Force inversion solution in PCM.
 ------------------------------------------------------------------------------
 Polarizable Continuum Model (PCM)
 =================================
 Model                : PCM.
 Atomic radii         : SMD-Coulomb.
 Polarization charges : Total charges.
 Charge compensation  : None.
 Solution method      : Matrix inversion.
 Cavity type          : VdW (van der Waals Surface) (Alpha=1.000).
 Cavity algorithm     : GePol (No added spheres)
                        Default sphere list used, NSphG=   19.
                        Lebedev-Laikov grids with approx.  5.0 points / Ang**2.
                        Smoothing algorithm: York/Karplus (Gamma=1.0000).
                        Polarization charges: spherical gaussians, with
                                              point-specific exponents (IZeta= 3).
                        Self-potential: point-specific (ISelfS= 7).
                        Self-field    : sphere-specific E.n sum rule (ISelfD= 2).
 1st derivatives      : Analytical E(r).r(x)/FMM algorithm (CHGder, D1EAlg=3).
                        Cavity 1st derivative terms included.
 2nd derivatives      : Analytical E(r).r(xy)/FMM algorithm (CHGder, D2EAlg=3).
                        Cavity 2nd derivative terms included.
 Solvent              : TetraHydroFuran, Eps=   7.425700 Eps(inf)=   1.974025
 ------------------------------------------------------------------------------
 Spheres list:
 ISph  on   Nord     Re0    Alpha      Xe            Ye            Ze
    1   O      1    2.2940  1.000      8.680650      7.479959      5.596898
    2   H      2    1.2000  1.000      9.482899      7.175251      6.030333
    3   C      3    1.8500  1.000      6.243053      6.995482      5.182227
    4   B      4    1.8000  1.000      7.632824      6.633965      5.808132
    5   O      5    2.2940  1.000      7.864885      5.515248      6.562944
    6   H      6    1.2000  1.000      7.090838      4.968526      6.706391
    7   C      7    1.8500  1.000      5.134165      6.149031      5.272303
    8   H      8    1.2000  1.000      5.204204      5.190638      5.780089
    9   C      9    1.8500  1.000      3.914570      6.511384      4.711682
   10   H     10    1.2000  1.000      3.060045      5.849462      4.790056
   11   C     11    1.8500  1.000      3.791226      7.727910      4.050724
   12   C     12    1.8500  1.000      4.879666      8.595132      3.936101
   13   C     13    1.8500  1.000      6.091565      8.212453      4.507256
   14   H     14    1.2000  1.000      6.948831      8.874593      4.433239
   15   H     15    1.2000  1.000      2.836924      8.010593      3.617391
   16   C     16    1.8500  1.000      4.747305      9.898466      3.191246
   17   H     17    1.2000  1.000      5.515625     10.607672      3.501288
   18   H     18    1.2000  1.000      4.854835      9.739293      2.114759
   19   H     19    1.2000  1.000      3.769882     10.353023      3.362574
 ------------------------------------------------------------------------------
 ------------------------------------------------------------------------------
 Atomic radii for non-electrostatic terms: SMD-CDS.
 ------------------------------------------------------------------------------
 Nuclear repulsion after PCM non-electrostatic terms =      475.9692536198 Hartrees.
 One-electron integrals computed using PRISM.
 NBasis=   274 RedAO= T EigKep=  2.08D-06  NBF=   274
 NBsUse=   274 1.00D-06 EigRej= -1.00D+00 NBFU=   274
 ExpMin= 3.15D-02 ExpMax= 8.59D+03 ExpMxC= 1.30D+03 IAcc=3 IRadAn=         5 AccDes= 0.00D+00
 Harris functional with IExCor= 1009 and IRadAn=       5 diagonalized for initial guess.
 HarFok:  IExCor= 1009 AccDes= 0.00D+00 IRadAn=         5 IDoV= 1 UseB2=F ITyADJ=14
 ICtDFT=  3500011 ScaDFX=  1.000000  1.000000  1.000000  1.000000
 FoFCou: FMM=F IPFlag=           0 FMFlag=      100000 FMFlg1=           0
         NFxFlg=           0 DoJE=T BraDBF=F KetDBF=T FulRan=T
         wScrn=  0.000000 ICntrl=       500 IOpCl=  0 I1Cent=   200000004 NGrid=           0
         NMat0=    1 NMatS0=      1 NMatT0=    0 NMatD0=    1 NMtDS0=    0 NMtDT0=    0
 Symmetry not used in FoFCou.
 Requested convergence on RMS density matrix=1.00D-08 within 128 cycles.
 Requested convergence on MAX density matrix=1.00D-06.
 Requested convergence on             energy=1.00D-06.
 Level shift goal  0.100 maximum shift  0.100.
 No special actions if energy rises.
 Dynamic level shift is on during FON iterations.
 Inv3:  Mode=1 IEnd=     7776300.
 Iteration    1 A*A^-1 deviation from unit magnitude is 1.13D-14 for   1605.
 Iteration    1 A*A^-1 deviation from orthogonality  is 1.92D-15 for   1606   1605.
 Iteration    1 A^-1*A deviation from unit magnitude is 1.18D-14 for   1605.
 Iteration    1 A^-1*A deviation from orthogonality  is 2.80D-15 for   1606   1605.
 Error on total polarization charges =  0.03027
 SCF Done:  E(RM062X) =  -447.545085262     A.U. after   14 cycles
            NFock= 14  Conv=0.23D-08     -V/T= 2.0038
 SMD-CDS (non-electrostatic) energy       (kcal/mol) =      -2.63
 (included in total energy above)
 DoSCS=F DFT=T ScalE2(SS,OS)=  1.000000  1.000000
 Range of M.O.s used for correlation:     1   274
 NBasis=   274 NAE=    36 NBE=    36 NFC=     0 NFV=     0
 NROrb=    274 NOA=    36 NOB=    36 NVA=   238 NVB=   238

 **** Warning!!: The largest alpha MO coefficient is  0.17078086D+03

 Symmetrizing basis deriv contribution to polar:
 IMax=3 JMax=2 DiffMx= 0.00D+00
 G2DrvN: will do    20 centers at a time, making    1 passes.
 Calling FoFCou, ICntrl=  3107 FMM=F I1Cent=   0 AccDes= 0.00D+00.
 NEqPCM:  Using equilibrium solvation (IEInf=0, Eps=   7.4257, EpsInf=   1.9740)
 G2PCM: DoFxE=T DoFxN=T DoGrad=T DoDP/DQ/DG/TGxP=FFFF NFrqRd=   0 IEInf=0 SqF1=F DoCFld=F IF1Alg=4.
 End of G2Drv F.D. properties file   721 does not exist.
 End of G2Drv F.D. properties file   722 does not exist.
 End of G2Drv F.D. properties file   788 does not exist.
          IDoAtm=1111111111111111111
 NEqPCM:  Using equilibrium solvation (IEInf=0, Eps=   7.4257, EpsInf=   1.9740)
          Differentiating once with respect to nuclear coordinates.
 Keep R1 ints in memory in canonical form, NReq=745413662.
          There are    60 degrees of freedom in the 1st order CPHF.  IDoFFX=6 NUNeed=     0.
     54 vectors produced by pass  0 Test12= 1.43D-14 1.67D-09 XBig12= 1.57D-01 1.02D-01.
 AX will form    54 AO Fock derivatives at one time.
     54 vectors produced by pass  1 Test12= 1.43D-14 1.67D-09 XBig12= 1.04D-02 3.11D-02.
     54 vectors produced by pass  2 Test12= 1.43D-14 1.67D-09 XBig12= 3.05D-04 2.69D-03.
     54 vectors produced by pass  3 Test12= 1.43D-14 1.67D-09 XBig12= 1.70D-06 2.54D-04.
     54 vectors produced by pass  4 Test12= 1.43D-14 1.67D-09 XBig12= 1.20D-08 1.51D-05.
     54 vectors produced by pass  5 Test12= 1.43D-14 1.67D-09 XBig12= 6.14D-11 7.23D-07.
     44 vectors produced by pass  6 Test12= 1.43D-14 1.67D-09 XBig12= 2.61D-13 5.35D-08.
      6 vectors produced by pass  7 Test12= 1.43D-14 1.67D-09 XBig12= 8.76D-16 3.10D-09.
 InvSVY:  IOpt=1 It=  1 EMax= 4.44D-16
 Solved reduced A of dimension   374 with    60 vectors.
 End of Minotr F.D. properties file   721 does not exist.
 End of Minotr F.D. properties file   722 does not exist.
 End of Minotr F.D. properties file   788 does not exist.

 **********************************************************************

            Population analysis using the SCF Density.

 **********************************************************************

 Alpha  occ. eigenvalues --  -19.63423 -19.62935 -10.55001 -10.54441 -10.54195
 Alpha  occ. eigenvalues --  -10.54109 -10.53874 -10.52773 -10.52491  -7.08158
 Alpha  occ. eigenvalues --   -1.16592  -1.12900  -0.96346  -0.86930  -0.84200
 Alpha  occ. eigenvalues --   -0.77333  -0.69104  -0.67516  -0.64481  -0.61822
 Alpha  occ. eigenvalues --   -0.58114  -0.53403  -0.51832  -0.49486  -0.48690
 Alpha  occ. eigenvalues --   -0.47500  -0.47326  -0.45341  -0.44396  -0.44154
 Alpha  occ. eigenvalues --   -0.42339  -0.40337  -0.39398  -0.37571  -0.30998
 Alpha  occ. eigenvalues --   -0.29910
 Alpha virt. eigenvalues --   -0.00354   0.00149   0.01920   0.02079   0.02301
 Alpha virt. eigenvalues --    0.03223   0.03970   0.04177   0.05530   0.06245
 Alpha virt. eigenvalues --    0.07051   0.07525   0.08906   0.09039   0.10722
 Alpha virt. eigenvalues --    0.10969   0.12402   0.12642   0.12901   0.13217
 Alpha virt. eigenvalues --    0.13750   0.14651   0.15610   0.16679   0.17003
 Alpha virt. eigenvalues --    0.17619   0.17997   0.18676   0.18759   0.19804
 Alpha virt. eigenvalues --    0.20450   0.21113   0.21907   0.22853   0.23088
 Alpha virt. eigenvalues --    0.23338   0.23797   0.24319   0.24907   0.25246
 Alpha virt. eigenvalues --    0.25436   0.25884   0.26312   0.26885   0.28254
 Alpha virt. eigenvalues --    0.28520   0.29393   0.30009   0.31038   0.32258
 Alpha virt. eigenvalues --    0.34635   0.34991   0.35975   0.36365   0.37249
 Alpha virt. eigenvalues --    0.39599   0.40734   0.43786   0.45178   0.46088
 Alpha virt. eigenvalues --    0.47725   0.48971   0.51101   0.52040   0.52349
 Alpha virt. eigenvalues --    0.52640   0.56194   0.57031   0.57862   0.59543
 Alpha virt. eigenvalues --    0.60424   0.61411   0.62653   0.62814   0.63892
 Alpha virt. eigenvalues --    0.65116   0.65916   0.68068   0.68819   0.69432
 Alpha virt. eigenvalues --    0.70219   0.71566   0.72300   0.73186   0.73989
 Alpha virt. eigenvalues --    0.75250   0.76458   0.78777   0.79813   0.82352
 Alpha virt. eigenvalues --    0.85311   0.86231   0.87627   0.88647   0.91519
 Alpha virt. eigenvalues --    0.91979   0.93874   0.95585   0.95808   0.98294
 Alpha virt. eigenvalues --    1.00554   1.02519   1.03331   1.05080   1.06351
 Alpha virt. eigenvalues --    1.08172   1.09461   1.11053   1.11422   1.12826
 Alpha virt. eigenvalues --    1.13106   1.14441   1.18489   1.20732   1.21009
 Alpha virt. eigenvalues --    1.27506   1.32900   1.33931   1.35842   1.37861
 Alpha virt. eigenvalues --    1.43145   1.43624   1.46372   1.48826   1.50560
 Alpha virt. eigenvalues --    1.52066   1.53076   1.55330   1.57140   1.58978
 Alpha virt. eigenvalues --    1.60410   1.61446   1.63195   1.64616   1.65373
 Alpha virt. eigenvalues --    1.65848   1.69256   1.70493   1.71465   1.73689
 Alpha virt. eigenvalues --    1.76858   1.78451   1.79807   1.80997   1.84971
 Alpha virt. eigenvalues --    1.86779   1.89187   1.89539   1.94421   1.95971
 Alpha virt. eigenvalues --    1.97116   1.97887   1.98492   2.02492   2.04973
 Alpha virt. eigenvalues --    2.07859   2.08187   2.10092   2.11205   2.15855
 Alpha virt. eigenvalues --    2.17383   2.21414   2.22250   2.25836   2.26981
 Alpha virt. eigenvalues --    2.35856   2.40778   2.43110   2.44912   2.46216
 Alpha virt. eigenvalues --    2.49664   2.56062   2.56976   2.59581   2.60261
 Alpha virt. eigenvalues --    2.62182   2.63043   2.64641   2.65885   2.66889
 Alpha virt. eigenvalues --    2.70434   2.73723   2.74448   2.74822   2.78653
 Alpha virt. eigenvalues --    2.79267   2.83204   2.84608   2.87299   2.89030
 Alpha virt. eigenvalues --    2.91389   2.94729   2.95572   2.98075   2.99782
 Alpha virt. eigenvalues --    3.07793   3.11610   3.15891   3.24506   3.26288
 Alpha virt. eigenvalues --    3.27110   3.29826   3.32595   3.41621   3.44177
 Alpha virt. eigenvalues --    3.47079   3.53721   3.57945   3.60969   3.63971
 Alpha virt. eigenvalues --    3.66903   3.72851   3.86097   3.88380   3.92103
 Alpha virt. eigenvalues --    3.95952   4.06173   4.10119   4.19339   4.22184
 Alpha virt. eigenvalues --    4.38174   4.86766   5.08759   5.09555   5.40177
 Alpha virt. eigenvalues --    5.50608   5.69251   5.77101  14.80236  23.68941
 Alpha virt. eigenvalues --   24.01167  24.05119  24.06935  24.16115  24.18147
 Alpha virt. eigenvalues --   24.26970  50.01100  50.05922
          Condensed to atoms (all electrons):
               1          2          3          4          5          6
     1  O    7.781753   0.284479   0.024118   0.434668  -0.125344   0.017368
     2  H    0.284479   0.420231   0.046983  -0.004874  -0.031184   0.002850
     3  C    0.024118   0.046983   9.121450   0.310065  -0.160577  -0.001350
     4  B    0.434668  -0.004874   0.310065   3.328726   0.373522   0.013775
     5  O   -0.125344  -0.031184  -0.160577   0.373522   7.963301   0.270030
     6  H    0.017368   0.002850  -0.001350   0.013775   0.270030   0.397274
     7  C    0.064246  -0.001718  -1.076249   0.075716  -0.017236  -0.027745
     8  H    0.001670  -0.000030   0.006145   0.008349  -0.005005   0.008767
     9  C    0.047963   0.004849   0.229025   0.050839  -0.002498   0.049126
    10  H   -0.000032   0.000000  -0.006428  -0.000517   0.000283  -0.000053
    11  C   -0.015369  -0.001401  -0.740450   0.028361   0.005229  -0.002723
    12  C    0.006253  -0.026963  -0.101430  -0.055655   0.085232  -0.018644
    13  C   -0.132619  -0.017195  -0.675988  -0.026982   0.017286   0.012800
    14  H    0.004961  -0.000189   0.081924  -0.008664   0.001951  -0.000078
    15  H    0.000007   0.000000   0.006768  -0.000327   0.000003  -0.000002
    16  C   -0.000628  -0.000636  -0.688201  -0.019052   0.000456  -0.000119
    17  H    0.000285   0.000000   0.026520   0.000972  -0.000016   0.000000
    18  H   -0.000043   0.000000   0.019842  -0.000633   0.000003   0.000000
    19  H    0.000000   0.000000   0.008265  -0.000060   0.000002   0.000000
               7          8          9         10         11         12
     1  O    0.064246   0.001670   0.047963  -0.000032  -0.015369   0.006253
     2  H   -0.001718  -0.000030   0.004849   0.000000  -0.001401  -0.026963
     3  C   -1.076249   0.006145   0.229025  -0.006428  -0.740450  -0.101430
     4  B    0.075716   0.008349   0.050839  -0.000517   0.028361  -0.055655
     5  O   -0.017236  -0.005005  -0.002498   0.000283   0.005229   0.085232
     6  H   -0.027745   0.008767   0.049126  -0.000053  -0.002723  -0.018644
     7  C    9.937045   0.356203  -1.267249   0.030284   0.171933  -0.129181
     8  H    0.356203   0.490739   0.010527  -0.005625  -0.025405   0.004019
     9  C   -1.267249   0.010527   7.519989   0.350172  -0.073113   0.245098
    10  H    0.030284  -0.005625   0.350172   0.469351   0.000202   0.000979
    11  C    0.171933  -0.025405  -0.073113   0.000202   8.312744  -0.026186
    12  C   -0.129181   0.004019   0.245098   0.000979  -0.026186  12.532339
    13  C   -2.287101  -0.017910  -0.785954  -0.026294  -1.509778  -6.117673
    14  H   -0.003340  -0.000077  -0.003198   0.000050  -0.003706   0.027155
    15  H   -0.023251  -0.000223   0.035409  -0.005662   0.289586   0.027148
    16  C    0.346516  -0.000663  -0.319208   0.005838   0.103596  -1.132680
    17  H    0.000175  -0.000001  -0.005984   0.000007  -0.148113  -0.287732
    18  H   -0.012395   0.000001   0.010591   0.000000  -0.036973   0.188703
    19  H    0.008270  -0.000002   0.027328   0.000010   0.176025  -0.135022
              13         14         15         16         17         18
     1  O   -0.132619   0.004961   0.000007  -0.000628   0.000285  -0.000043
     2  H   -0.017195  -0.000189   0.000000  -0.000636   0.000000   0.000000
     3  C   -0.675988   0.081924   0.006768  -0.688201   0.026520   0.019842
     4  B   -0.026982  -0.008664  -0.000327  -0.019052   0.000972  -0.000633
     5  O    0.017286   0.001951   0.000003   0.000456  -0.000016   0.000003
     6  H    0.012800  -0.000078  -0.000002  -0.000119   0.000000   0.000000
     7  C   -2.287101  -0.003340  -0.023251   0.346516   0.000175  -0.012395
     8  H   -0.017910  -0.000077  -0.000223  -0.000663  -0.000001   0.000001
     9  C   -0.785954  -0.003198   0.035409  -0.319208  -0.005984   0.010591
    10  H   -0.026294   0.000050  -0.005662   0.005838   0.000007   0.000000
    11  C   -1.509778  -0.003706   0.289586   0.103596  -0.148113  -0.036973
    12  C   -6.117673   0.027155   0.027148  -1.132680  -0.287732   0.188703
    13  C   17.599042   0.238673  -0.014914   0.355142   0.335026  -0.143147
    14  H    0.238673   0.464197  -0.000195   0.010566  -0.000550   0.000448
    15  H   -0.014914  -0.000195   0.466798   0.030626   0.000258   0.000254
    16  C    0.355142   0.010566   0.030626   6.794841   0.447776   0.334990
    17  H    0.335026  -0.000550   0.000258   0.447776   0.497564  -0.021027
    18  H   -0.143147   0.000448   0.000254   0.334990  -0.021027   0.470867
    19  H   -0.128176   0.000207  -0.000450   0.406027  -0.028822  -0.024839
              19
     1  O    0.000000
     2  H    0.000000
     3  C    0.008265
     4  B   -0.000060
     5  O    0.000002
     6  H    0.000000
     7  C    0.008270
     8  H   -0.000002
     9  C    0.027328
    10  H    0.000010
    11  C    0.176025
    12  C   -0.135022
    13  C   -0.128176
    14  H    0.000207
    15  H   -0.000450
    16  C    0.406027
    17  H   -0.028822
    18  H   -0.024839
    19  H    0.509656
 Mulliken charges:
               1
     1  O   -0.393736
     2  H    0.324798
     3  C   -0.430433
     4  B    0.491771
     5  O   -0.375437
     6  H    0.278723
     7  C   -0.144924
     8  H    0.168521
     9  C   -0.123711
    10  H    0.187436
    11  C   -0.504461
    12  C    0.914241
    13  C   -0.674237
    14  H    0.189866
    15  H    0.188168
    16  C   -0.675189
    17  H    0.183663
    18  H    0.213359
    19  H    0.181581
 Sum of Mulliken charges =   0.00000
 Mulliken charges with hydrogens summed into heavy atoms:
               1
     1  O   -0.068938
     3  C   -0.430433
     4  B    0.491771
     5  O   -0.096714
     7  C    0.023597
     9  C    0.063725
    11  C   -0.316292
    12  C    0.914241
    13  C   -0.484371
    16  C   -0.096586
 APT charges:
               1
     1  O   -0.552118
     2  H    2.079852
     3  C   -1.124999
     4  B   -0.361044
     5  O    1.310298
     6  H   -1.225142
     7  C   -0.454896
     8  H   -0.162984
     9  C    0.720003
    10  H   -0.804202
    11  C   -1.166315
    12  C    1.994451
    13  C   -1.033445
    14  H    1.894581
    15  H   -0.181044
    16  C   -2.917405
    17  H    1.866987
    18  H   -0.300923
    19  H    0.418348
 Sum of APT charges =   0.00000
 APT charges with hydrogens summed into heavy atoms:
               1
     1  O    1.527734
     3  C   -1.124999
     4  B   -0.361044
     5  O    0.085155
     7  C   -0.617880
     9  C   -0.084200
    11  C   -1.347359
    12  C    1.994451
    13  C    0.861136
    16  C   -0.932994
 Electronic spatial extent (au):  <R**2>=          30974.9926
 Charge=              0.0000 electrons
 Dipole moment (field-independent basis, Debye):
    X=             -1.4240    Y=             -0.6965    Z=              0.0824  Tot=              1.5873
 Quadrupole moment (field-independent basis, Debye-Ang):
   XX=            -70.6373   YY=            -63.6366   ZZ=            -58.4905
   XY=            -13.6709   XZ=             -3.8605   YZ=             -7.9301
 Traceless Quadrupole moment (field-independent basis, Debye-Ang):
   XX=             -6.3825   YY=              0.6182   ZZ=              5.7643
   XY=            -13.6709   XZ=             -3.8605   YZ=             -7.9301
 Octapole moment (field-independent basis, Debye-Ang**2):
  XXX=          -1086.6391  YYY=          -1308.9637  ZZZ=           -856.7169  XYY=           -447.3795
  XXY=           -535.1530  XXZ=           -309.2661  XZZ=           -352.1487  YZZ=           -498.8610
  YYZ=           -377.4842  XYZ=            -66.0453
 Hexadecapole moment (field-independent basis, Debye-Ang**3):
 XXXX=         -12928.0058 YYYY=         -19629.3582 ZZZZ=          -8759.8819 XXXY=          -7947.4060
 XXXZ=          -5135.9746 YYYX=          -8186.3559 YYYZ=          -6918.5796 ZZZX=          -5235.3777
 ZZZY=          -6574.5177 XXYY=          -6314.2448 XXZZ=          -3629.7650 YYZZ=          -5584.0191
 XXYZ=          -2355.1181 YYXZ=          -2397.9596 ZZXY=          -2846.4585
 N-N= 4.759692536198D+02 E-N=-1.996840335814D+03  KE= 4.458601000262D+02
  Exact polarizability:       0.000       0.000       0.000       0.000       0.000       0.000
 Approx polarizability:     136.828       5.285     126.973      14.788     -23.987      97.102
 D2PCM: PCM CHGder 2nd derivatives, FixD1E=F FixD2E=F DoIter=F DoCFld=F I1PDM=0
 Calling FoFJK, ICntrl=    100127 FMM=F ISym2X=0 I1Cent= 0 IOpClX= 0 NMat=1 NMatS=1 NMatT=0.
 -------------------------------------------------------------------
 Center     Atomic                   Forces (Hartrees/Bohr)
 Number     Number              X              Y              Z
 -------------------------------------------------------------------
      1        8          -0.000976998    0.001593581   -0.001363101
      2        1           0.002520838   -0.000614767    0.001146877
      3        6          -0.000014373    0.000222974   -0.000159841
      4        5          -0.000470142   -0.001813884    0.001058171
      5        8           0.002439477    0.002512696   -0.000888104
      6        1          -0.002765366   -0.002158446    0.000495226
      7        6           0.000186878   -0.002089594    0.000989499
      8        1           0.000040305   -0.000067871    0.000234405
      9        6          -0.000166048    0.000066924   -0.000071734
     10        1          -0.000190679   -0.000262591    0.000042619
     11        6          -0.001035843    0.000089434   -0.000368585
     12        6          -0.000024987    0.001960372   -0.001042163
     13        6           0.000871970    0.000003868    0.000218274
     14        1          -0.000356371    0.000762157   -0.000426465
     15        1          -0.000141608    0.000165757   -0.000150838
     16        6           0.000061644   -0.000305695    0.000698159
     17        1           0.000422687    0.000142071    0.000044082
     18        1          -0.000056618   -0.000099822   -0.000357081
     19        1          -0.000344766   -0.000107163   -0.000099400
 -------------------------------------------------------------------
 Cartesian Forces:  Max     0.002765366 RMS     0.001011149
 FormGI is forming the generalized inverse of G from B-inverse, IUseBI=4.

 GradGradGradGradGradGradGradGradGradGradGradGradGradGradGradGradGradGrad
 Berny optimization.
 Internal  Forces:  Max     0.003550431 RMS     0.000689024
 Search for a local minimum.
 Step number   1 out of a maximum of   96
 All quantities printed in internal units (Hartrees-Bohrs-Radians)
 Mixed Optimization -- En-DIIS/RFO-DIIS
 Second derivative matrix not updated -- analytic derivatives used.
 ITU=  0
     Eigenvalues ---   -0.00028  -0.00002   0.01032   0.01207   0.01425
     Eigenvalues ---    0.01652   0.01759   0.01982   0.02238   0.02465
     Eigenvalues ---    0.02628   0.02691   0.02852   0.03875   0.05579
     Eigenvalues ---    0.05731   0.10565   0.10999   0.11371   0.11760
     Eigenvalues ---    0.12069   0.12252   0.12567   0.14156   0.14504
     Eigenvalues ---    0.15997   0.18089   0.18589   0.18854   0.19429
     Eigenvalues ---    0.19801   0.20363   0.27983   0.29902   0.32372
     Eigenvalues ---    0.34001   0.34543   0.35136   0.35761   0.36029
     Eigenvalues ---    0.36210   0.36478   0.38509   0.42405   0.42591
     Eigenvalues ---    0.47604   0.47748   0.48936   0.51697   0.54666
     Eigenvalues ---    0.55675
 RFO step:  Lambda=-3.28097130D-04 EMin=-2.80514742D-04
 Linear search not attempted -- first point.
 Iteration  1 RMS(Cart)=  0.11348627 RMS(Int)=  0.03784158
 Iteration  2 RMS(Cart)=  0.09220349 RMS(Int)=  0.00406871
 Iteration  3 RMS(Cart)=  0.00639798 RMS(Int)=  0.00003651
 Iteration  4 RMS(Cart)=  0.00001902 RMS(Int)=  0.00003293
 Iteration  5 RMS(Cart)=  0.00000000 RMS(Int)=  0.00003293
 Variable       Old X    -DE/DX   Delta X   Delta X   Delta X     New X
                                 (Linear)    (Quad)   (Total)
    R1        1.81681   0.00282   0.00000   0.00487   0.00487   1.82168
    R2        2.57604   0.00181   0.00000   0.00474   0.00474   2.58078
    R3        2.96025   0.00094   0.00000   0.00643   0.00643   2.96668
    R4        2.64172   0.00124   0.00000   0.00288   0.00289   2.64461
    R5        2.64531   0.00171   0.00000   0.00356   0.00355   2.64887
    R6        2.58770  -0.00055   0.00000  -0.00212  -0.00212   2.58558
    R7        1.81121   0.00355   0.00000   0.00582   0.00582   1.81703
    R8        2.05387   0.00017   0.00000  -0.00083  -0.00083   2.05304
    R9        2.62734   0.00124   0.00000   0.00251   0.00253   2.62987
   R10        2.04798   0.00031   0.00000   0.00091   0.00091   2.04889
   R11        2.62666   0.00135   0.00000   0.00146   0.00147   2.62813
   R12        2.63880   0.00112   0.00000   0.00227   0.00226   2.64106
   R13        2.05136   0.00023   0.00000   0.00056   0.00056   2.05192
   R14        2.63301   0.00100   0.00000   0.00221   0.00219   2.63520
   R15        2.84779  -0.00046   0.00000  -0.00211  -0.00211   2.84568
   R16        2.05174   0.00021   0.00000   0.00049   0.00049   2.05223
   R17        2.06094   0.00041   0.00000   0.00092   0.00092   2.06186
   R18        2.06640   0.00036   0.00000   0.00129   0.00129   2.06769
   R19        2.06260   0.00024   0.00000   0.00073   0.00073   2.06333
    A1        1.95504   0.00061   0.00000   0.00266   0.00266   1.95770
    A2        2.13917  -0.00084   0.00000   0.00295   0.00292   2.14209
    A3        2.08208   0.00064   0.00000  -0.00132  -0.00135   2.08074
    A4        2.06193   0.00020   0.00000  -0.00159  -0.00162   2.06031
    A5        2.06782   0.00015   0.00000  -0.00548  -0.00553   2.06229
    A6        2.05123   0.00018   0.00000  -0.00270  -0.00274   2.04849
    A7        2.16414  -0.00033   0.00000   0.00822   0.00818   2.17231
    A8        1.99506   0.00022   0.00000   0.00707   0.00707   2.00214
    A9        2.10938   0.00025   0.00000   0.00709   0.00698   2.11635
   A10        2.10835  -0.00064   0.00000  -0.00141  -0.00149   2.10686
   A11        2.06546   0.00039   0.00000  -0.00562  -0.00573   2.05973
   A12        2.09824  -0.00034   0.00000  -0.00268  -0.00269   2.09555
   A13        2.09173   0.00052   0.00000   0.00297   0.00298   2.09471
   A14        2.09322  -0.00018   0.00000  -0.00029  -0.00030   2.09292
   A15        2.10995  -0.00001   0.00000  -0.00128  -0.00130   2.10865
   A16        2.08949   0.00015   0.00000   0.00122   0.00123   2.09072
   A17        2.08374  -0.00014   0.00000   0.00006   0.00006   2.08380
   A18        2.06434  -0.00024   0.00000  -0.00099  -0.00103   2.06331
   A19        2.10508   0.00020   0.00000  -0.00010  -0.00008   2.10500
   A20        2.11360   0.00004   0.00000   0.00111   0.00114   2.11474
   A21        2.13005   0.00018   0.00000   0.00236   0.00231   2.13236
   A22        2.06873   0.00084   0.00000   0.00574   0.00574   2.07447
   A23        2.08440  -0.00102   0.00000  -0.00807  -0.00807   2.07633
   A24        1.93908  -0.00004   0.00000   0.00077   0.00077   1.93985
   A25        1.93056  -0.00008   0.00000  -0.00154  -0.00154   1.92902
   A26        1.94040  -0.00010   0.00000  -0.00050  -0.00050   1.93990
   A27        1.88099   0.00003   0.00000  -0.00005  -0.00005   1.88094
   A28        1.89171   0.00025   0.00000   0.00367   0.00367   1.89537
   A29        1.87886  -0.00005   0.00000  -0.00233  -0.00233   1.87653
    D1        3.12906   0.00004   0.00000   0.04775   0.04770  -3.10643
    D2       -0.00985  -0.00003   0.00000   0.03072   0.03077   0.02092
    D3        3.06868   0.00001   0.00000   0.35145   0.35143  -2.86308
    D4       -0.07579   0.00009   0.00000   0.36963   0.36964   0.29385
    D5       -0.07634   0.00000   0.00000   0.36649   0.36648   0.29014
    D6        3.06238   0.00008   0.00000   0.38468   0.38469  -2.83611
    D7       -0.01108   0.00008   0.00000   0.05304   0.05312   0.04205
    D8        3.13296   0.00003   0.00000   0.02661   0.02661  -3.12362
    D9        3.13390   0.00009   0.00000   0.03816   0.03824  -3.11105
   D10       -0.00525   0.00003   0.00000   0.01173   0.01172   0.00647
   D11       -3.13479  -0.00002   0.00000  -0.03718  -0.03714   3.11125
   D12        0.00361  -0.00003   0.00000  -0.02546  -0.02540  -0.02178
   D13        0.00353  -0.00003   0.00000  -0.02279  -0.02279  -0.01926
   D14       -3.14125  -0.00004   0.00000  -0.01108  -0.01104   3.13089
   D15        3.10806   0.00014   0.00000   0.07244   0.07246  -3.10266
   D16       -0.03068   0.00006   0.00000   0.05442   0.05439   0.02371
   D17       -3.13788  -0.00001   0.00000   0.00690   0.00687  -3.13102
   D18        0.00173  -0.00001   0.00000   0.00421   0.00419   0.00592
   D19        0.00609  -0.00006   0.00000  -0.01890  -0.01883  -0.01274
   D20       -3.13748  -0.00006   0.00000  -0.02159  -0.02150   3.12420
   D21        0.00373  -0.00002   0.00000  -0.00996  -0.00995  -0.00622
   D22       -3.13713  -0.00001   0.00000  -0.00798  -0.00798   3.13808
   D23       -3.13984  -0.00002   0.00000  -0.01264  -0.01262   3.13072
   D24        0.00249  -0.00001   0.00000  -0.01067  -0.01065  -0.00816
   D25       -0.00538   0.00002   0.00000  -0.00059  -0.00058  -0.00596
   D26        3.11730   0.00002   0.00000   0.00085   0.00086   3.11816
   D27        3.13548   0.00001   0.00000  -0.00256  -0.00255   3.13293
   D28       -0.02503   0.00000   0.00000  -0.00112  -0.00110  -0.02613
   D29        0.00171   0.00000   0.00000   0.01731   0.01730   0.01901
   D30       -3.13667   0.00001   0.00000   0.00547   0.00552  -3.13115
   D31       -3.12087   0.00001   0.00000   0.01587   0.01586  -3.10501
   D32        0.02393   0.00002   0.00000   0.00403   0.00408   0.02802
   D33        2.76385   0.00010   0.00000   0.01991   0.01991   2.78376
   D34       -1.43103   0.00006   0.00000   0.01933   0.01933  -1.41171
   D35        0.65544  -0.00012   0.00000   0.01507   0.01507   0.67051
   D36       -0.39720   0.00009   0.00000   0.02137   0.02137  -0.37582
   D37        1.69110   0.00005   0.00000   0.02079   0.02079   1.71189
   D38       -2.50561  -0.00013   0.00000   0.01653   0.01653  -2.48907
         Item               Value     Threshold  Converged?
 Maximum Force            0.003550     0.000015     NO 
 RMS     Force            0.000689     0.000010     NO 
 Maximum Displacement     1.081281     0.000060     NO 
 RMS     Displacement     0.200649     0.000040     NO 
 Predicted change in Energy=-2.090027D-04
 GradGradGradGradGradGradGradGradGradGradGradGradGradGradGradGradGradGrad

                          Input orientation:                          
 ---------------------------------------------------------------------
 Center     Atomic      Atomic             Coordinates (Angstroms)
 Number     Number       Type             X           Y           Z
 ---------------------------------------------------------------------
      1          8           0        8.566157    7.625514    5.943850
      2          1           0        9.400706    7.294098    6.294521
      3          6           0        6.223832    7.018349    5.237994
      4          5           0        7.624080    6.642246    5.840022
      5          8           0        7.976459    5.387111    6.255373
      6          1           0        7.296699    4.717941    6.134202
      7          6           0        5.095649    6.202361    5.378969
      8          1           0        5.134966    5.280150    5.951938
      9          6           0        3.879217    6.566755    4.809543
     10          1           0        3.009391    5.931500    4.933627
     11          6           0        3.776665    7.749465    4.085073
     12          6           0        4.882533    8.588785    3.924286
     13          6           0        6.087909    8.211819    4.515517
     14          1           0        6.952474    8.859918    4.406535
     15          1           0        2.826566    8.028559    3.639603
     16          6           0        4.773983    9.853233    3.113712
     17          1           0        5.568699   10.555151    3.371029
     18          1           0        4.856615    9.632277    2.045270
     19          1           0        3.811393   10.342849    3.274568
 ---------------------------------------------------------------------
                    Distance matrix (angstroms):
                    1          2          3          4          5
     1  O    0.000000
     2  H    0.963991   0.000000
     3  C    2.520589   3.359288   0.000000
     4  B    1.365689   1.946248   1.569900   0.000000
     5  O    2.335646   2.380465   2.601480   1.368230   0.000000
     6  H    3.178323   3.330035   2.691860   1.973998   0.961531
     7  C    3.793268   4.534715   1.399467   2.607495   3.119580
     8  H    4.156185   4.729682   2.171793   2.839634   2.859649
     9  C    4.937107   5.763769   2.425846   3.884788   4.502152
    10  H    5.896430   6.675149   3.406833   4.756266   5.168668
    11  C    5.139032   6.059609   2.802210   4.371313   5.284807
    12  C    4.309944   5.263851   2.447689   3.869772   5.025641
    13  C    2.919863   3.870619   1.401720   2.564701   3.817420
    14  H    2.547757   3.465563   2.147934   2.724704   4.065359
    15  H    6.197975   7.127927   3.888032   5.457091   6.351448
    16  C    5.230009   6.170355   3.827689   5.085888   6.330255
    17  H    4.918022   5.819412   4.052619   5.062741   6.389475
    18  H    5.743407   6.646201   4.346882   5.567700   6.743873
    19  H    6.092352   7.046660   4.552714   5.900220   7.126872
                    6          7          8          9         10
     6  H    0.000000
     7  C    2.760163   0.000000
     8  H    2.241069   1.086422   0.000000
     9  C    4.105121   1.391667   2.130100   0.000000
    10  H    4.614663   2.150388   2.445257   1.084225   0.000000
    11  C    5.077371   2.409858   3.380485   1.390746   2.147964
    12  C    5.069059   2.802952   3.888722   2.424649   3.404202
    13  C    4.035901   2.401677   3.400896   2.769658   3.853822
    14  H    4.501033   3.384677   4.301901   3.855634   4.939773
    15  H    6.096335   3.392511   4.269585   2.147953   2.470947
    16  C    6.469828   4.308564   5.394342   3.804916   4.669675
    17  H    6.685367   4.816885   5.888536   4.564096   5.510891
    18  H    6.842811   4.789051   5.854959   4.241926   5.044858
    19  H    7.208637   4.818865   5.878017   4.076718   4.780762
                   11         12         13         14         15
    11  C    0.000000
    12  C    1.397588   0.000000
    13  C    2.396018   1.394486   0.000000
    14  H    3.379675   2.142600   1.085993   0.000000
    15  H    1.085829   2.149859   3.381888   4.278137   0.000000
    16  C    2.522702   1.505869   2.526994   2.721008   2.720006
    17  H    3.404867   2.154881   2.659067   2.420934   3.738327
    18  H    2.978602   2.149476   3.104176   3.250343   3.038899
    19  H    2.717309   2.155508   3.356154   3.653330   2.541471
                   16         17         18         19
    16  C    0.000000
    17  H    1.091088   0.000000
    18  H    1.094175   1.765332   0.000000
    19  H    1.091869   1.772710   1.763116   0.000000
 Symmetry turned off by external request.
 Stoichiometry    C7H9BO2
 Framework group  C1[X(C7H9BO2)]
 Deg. of freedom    51
 Full point group                 C1      NOp   1
 Rotational constants (GHZ):           2.4877288           0.8809583           0.6591480
 Standard basis: 6-311+G(d,p) (5D, 7F)
   274 basis functions,   432 primitive gaussians,   284 cartesian basis functions
    36 alpha electrons       36 beta electrons
       nuclear repulsion energy       475.3505021449 Hartrees.
 NAtoms=   19 NActive=   19 NUniq=   19 SFac= 1.00D+00 NAtFMM=   60 NAOKFM=F Big=F
 Integral buffers will be    131072 words long.
 Raffenetti 2 integral format.
 Two-electron integral symmetry is turned off.
 ------------------------------------------------------------------------------
 Polarizable Continuum Model (PCM)
 =================================
 Model                : PCM.
 Atomic radii         : SMD-Coulomb.
 Polarization charges : Total charges.
 Charge compensation  : None.
 Solution method      : Matrix inversion.
 Cavity type          : VdW (van der Waals Surface) (Alpha=1.000).
 Cavity algorithm     : GePol (No added spheres)
                        Default sphere list used, NSphG=   19.
                        Lebedev-Laikov grids with approx.  5.0 points / Ang**2.
                        Smoothing algorithm: York/Karplus (Gamma=1.0000).
                        Polarization charges: spherical gaussians, with
                                              point-specific exponents (IZeta= 3).
                        Self-potential: point-specific (ISelfS= 7).
                        Self-field    : sphere-specific E.n sum rule (ISelfD= 2).
 1st derivatives      : Analytical E(r).r(x)/FMM algorithm (CHGder, D1EAlg=3).
                        Cavity 1st derivative terms included.
 Solvent              : TetraHydroFuran, Eps=   7.425700 Eps(inf)=   1.974025
 ------------------------------------------------------------------------------
 Spheres list:
 ISph  on   Nord     Re0    Alpha      Xe            Ye            Ze
    1   O      1    2.2940  1.000      8.566157      7.625514      5.943850
    2   H      2    1.2000  1.000      9.400706      7.294098      6.294521
    3   C      3    1.8500  1.000      6.223832      7.018349      5.237994
    4   B      4    1.8000  1.000      7.624080      6.642246      5.840022
    5   O      5    2.2940  1.000      7.976459      5.387111      6.255373
    6   H      6    1.2000  1.000      7.296699      4.717941      6.134202
    7   C      7    1.8500  1.000      5.095649      6.202361      5.378969
    8   H      8    1.2000  1.000      5.134966      5.280150      5.951938
    9   C      9    1.8500  1.000      3.879217      6.566755      4.809543
   10   H     10    1.2000  1.000      3.009391      5.931500      4.933627
   11   C     11    1.8500  1.000      3.776665      7.749465      4.085073
   12   C     12    1.8500  1.000      4.882533      8.588785      3.924286
   13   C     13    1.8500  1.000      6.087909      8.211819      4.515517
   14   H     14    1.2000  1.000      6.952474      8.859918      4.406535
   15   H     15    1.2000  1.000      2.826566      8.028559      3.639603
   16   C     16    1.8500  1.000      4.773983      9.853233      3.113712
   17   H     17    1.2000  1.000      5.568699     10.555151      3.371029
   18   H     18    1.2000  1.000      4.856615      9.632277      2.045270
   19   H     19    1.2000  1.000      3.811393     10.342849      3.274568
 ------------------------------------------------------------------------------
 ------------------------------------------------------------------------------
 Atomic radii for non-electrostatic terms: SMD-CDS.
 ------------------------------------------------------------------------------
 Nuclear repulsion after PCM non-electrostatic terms =      475.3462897500 Hartrees.
 One-electron integrals computed using PRISM.
 NBasis=   274 RedAO= T EigKep=  2.36D-06  NBF=   274
 NBsUse=   274 1.00D-06 EigRej= -1.00D+00 NBFU=   274
 Initial guess from the checkpoint file:  "3-Me-phboh2-opt-freq-thf.chk"
 B after Tr=     0.235417    0.065288   -0.324749
         Rot=    0.999932   -0.008917    0.005153   -0.005396 Ang=  -1.33 deg.
 ExpMin= 3.15D-02 ExpMax= 8.59D+03 ExpMxC= 1.30D+03 IAcc=3 IRadAn=         5 AccDes= 0.00D+00
 Harris functional with IExCor= 1009 and IRadAn=       5 diagonalized for initial guess.
 HarFok:  IExCor= 1009 AccDes= 0.00D+00 IRadAn=         5 IDoV= 1 UseB2=F ITyADJ=14
 ICtDFT=  3500011 ScaDFX=  1.000000  1.000000  1.000000  1.000000
 FoFCou: FMM=F IPFlag=           0 FMFlag=      100000 FMFlg1=           0
         NFxFlg=           0 DoJE=T BraDBF=F KetDBF=T FulRan=T
         wScrn=  0.000000 ICntrl=       500 IOpCl=  0 I1Cent=   200000004 NGrid=           0
         NMat0=    1 NMatS0=      1 NMatT0=    0 NMatD0=    1 NMtDS0=    0 NMtDT0=    0
 Symmetry not used in FoFCou.
 Requested convergence on RMS density matrix=1.00D-08 within 128 cycles.
 Requested convergence on MAX density matrix=1.00D-06.
 Requested convergence on             energy=1.00D-06.
 Level shift goal  0.100 maximum shift  0.100.
 No special actions if energy rises.
 Dynamic level shift is on during FON iterations.
 Inv3:  Mode=1 IEnd=     7824675.
 Iteration    1 A*A^-1 deviation from unit magnitude is 6.66D-15 for   1615.
 Iteration    1 A*A^-1 deviation from orthogonality  is 2.30D-15 for   1609   1487.
 Iteration    1 A^-1*A deviation from unit magnitude is 6.22D-15 for   1615.
 Iteration    1 A^-1*A deviation from orthogonality  is 2.56D-15 for   1609   1487.
 Error on total polarization charges =  0.03030
 SCF Done:  E(RM062X) =  -447.544881199     A.U. after   13 cycles
            NFock= 13  Conv=0.36D-08     -V/T= 2.0039
 SMD-CDS (non-electrostatic) energy       (kcal/mol) =      -2.64
 (included in total energy above)
 D1PCM: PCM CHGder 1st derivatives, ID1Alg=3 FixD1E=F DoIter=F DoCFld=F I1PDM=0.
 Calling FoFJK, ICntrl=      2127 FMM=F ISym2X=0 I1Cent= 0 IOpClX= 0 NMat=1 NMatS=1 NMatT=0.
 -------------------------------------------------------------------
 Center     Atomic                   Forces (Hartrees/Bohr)
 Number     Number              X              Y              Z
 -------------------------------------------------------------------
      1        8          -0.000149414    0.000067593   -0.000398698
      2        1           0.000120828   -0.000095060    0.000036700
      3        6           0.000017349   -0.000267935   -0.000091381
      4        5           0.000184237    0.000769753    0.000024003
      5        8          -0.000640668    0.000084845    0.000780565
      6        1          -0.000884473    0.000021565   -0.000514088
      7        6          -0.000476188   -0.000884441    0.000396125
      8        1           0.001632260   -0.000332461   -0.000057286
      9        6           0.000040097    0.000578365   -0.000179571
     10        1          -0.000025788    0.000001370    0.000021618
     11        6          -0.000188910   -0.000074933   -0.000102260
     12        6          -0.000168941    0.000052234    0.000062564
     13        6           0.000470560   -0.000198448   -0.000069460
     14        1           0.000016658    0.000123350   -0.000026819
     15        1          -0.000003205    0.000062847   -0.000010919
     16        6           0.000047203    0.000003719    0.000044368
     17        1           0.000006131    0.000035753    0.000028733
     18        1          -0.000014043    0.000024224    0.000013748
     19        1           0.000016307    0.000027660    0.000042057
 -------------------------------------------------------------------
 Cartesian Forces:  Max     0.001632260 RMS     0.000367275

 GradGradGradGradGradGradGradGradGradGradGradGradGradGradGradGradGradGrad
 Berny optimization.
 Using GEDIIS/GDIIS optimizer.
 FormGI is forming the generalized inverse of G from B-inverse, IUseBI=4.
 Internal  Forces:  Max     0.003023169 RMS     0.000643152
 Search for a local minimum.
 Step number   2 out of a maximum of   96
 All quantities printed in internal units (Hartrees-Bohrs-Radians)
 Mixed Optimization -- En-DIIS/RFO-DIIS
 Swapping is turned off.
 Update second derivatives using D2CorX and points    1    2
 DE=  2.04D-04 DEPred=-2.09D-04 R=-9.76D-01
 Trust test=-9.76D-01 RLast= 7.53D-01 DXMaxT set to 1.50D-01
 ITU= -1  0
     Eigenvalues ---   -0.00002   0.00172   0.01045   0.01232   0.01436
     Eigenvalues ---    0.01652   0.01759   0.01987   0.02249   0.02476
     Eigenvalues ---    0.02630   0.02704   0.02853   0.03884   0.05621
     Eigenvalues ---    0.05748   0.10582   0.11022   0.11409   0.11978
     Eigenvalues ---    0.12094   0.12312   0.13215   0.14156   0.14511
     Eigenvalues ---    0.16112   0.18157   0.18594   0.18937   0.19848
     Eigenvalues ---    0.20653   0.21667   0.28165   0.30700   0.32478
     Eigenvalues ---    0.34003   0.34546   0.35223   0.35825   0.36057
     Eigenvalues ---    0.36244   0.36489   0.39537   0.42584   0.42744
     Eigenvalues ---    0.47653   0.47950   0.48988   0.52805   0.55226
     Eigenvalues ---    1.26554
 Eigenvalue     1 is  -1.86D-05 should be greater than     0.000000 Eigenvector:
                          D37       D34       D38       D36       D35
   1                    0.41769   0.41042   0.40992   0.40724   0.40264
                          D33       D28       D6        D5        D32
   1                    0.39997   0.01090   0.01017   0.01013  -0.00972
 Use linear search instead of GDIIS.
 RFO step:  Lambda=-1.26279688D-04 EMin=-1.00000000D-04
 Quartic linear search produced a step of -0.61845.
 Maximum step size (   0.150) exceeded in Quadratic search.
    -- Step size scaled by   0.829
 Iteration  1 RMS(Cart)=  0.12962102 RMS(Int)=  0.10363031
 Iteration  2 RMS(Cart)=  0.07177562 RMS(Int)=  0.05090989
 Iteration  3 RMS(Cart)=  0.06808326 RMS(Int)=  0.00581554
 Iteration  4 RMS(Cart)=  0.00601174 RMS(Int)=  0.00003131
 Iteration  5 RMS(Cart)=  0.00003310 RMS(Int)=  0.00001757
 Iteration  6 RMS(Cart)=  0.00000000 RMS(Int)=  0.00001757
 Variable       Old X    -DE/DX   Delta X   Delta X   Delta X     New X
                                 (Linear)    (Quad)   (Total)
    R1        1.82168   0.00015  -0.00301   0.00110  -0.00192   1.81976
    R2        2.58078  -0.00007  -0.00293   0.00043  -0.00250   2.57828
    R3        2.96668  -0.00145  -0.00398  -0.00049  -0.00447   2.96221
    R4        2.64461  -0.00071  -0.00179  -0.00434  -0.00614   2.63847
    R5        2.64887  -0.00025  -0.00220   0.00563   0.00343   2.65229
    R6        2.58558  -0.00041   0.00131  -0.00036   0.00095   2.58653
    R7        1.81703   0.00068  -0.00360   0.00152  -0.00208   1.81495
    R8        2.05304   0.00031   0.00051   0.00026   0.00077   2.05381
    R9        2.62987   0.00033  -0.00157   0.00549   0.00392   2.63379
   R10        2.04889   0.00002  -0.00056   0.00024  -0.00033   2.04856
   R11        2.62813   0.00029  -0.00091  -0.00497  -0.00588   2.62225
   R12        2.64106   0.00031  -0.00140   0.00595   0.00456   2.64562
   R13        2.05192   0.00002  -0.00035   0.00109   0.00074   2.05266
   R14        2.63520   0.00014  -0.00135  -0.00479  -0.00614   2.62905
   R15        2.84568   0.00000   0.00131  -0.00059   0.00071   2.84639
   R16        2.05223   0.00009  -0.00031  -0.00060  -0.00091   2.05132
   R17        2.06186   0.00003  -0.00057  -0.00167  -0.00224   2.05962
   R18        2.06769  -0.00002  -0.00080  -0.00116  -0.00195   2.06574
   R19        2.06333   0.00000  -0.00045   0.00365   0.00320   2.06653
    A1        1.95770  -0.00008  -0.00165   0.00091  -0.00073   1.95697
    A2        2.14209  -0.00237  -0.00181  -0.00405  -0.00584   2.13624
    A3        2.08074   0.00142   0.00083   0.00261   0.00346   2.08419
    A4        2.06031   0.00096   0.00100   0.00143   0.00244   2.06275
    A5        2.06229   0.00137   0.00342   0.00187   0.00529   2.06758
    A6        2.04849   0.00165   0.00170   0.00238   0.00408   2.05257
    A7        2.17231  -0.00302  -0.00506  -0.00422  -0.00927   2.16304
    A8        2.00214  -0.00137  -0.00438  -0.00280  -0.00718   1.99496
    A9        2.11635  -0.00134  -0.00432  -0.00135  -0.00566   2.11070
   A10        2.10686  -0.00043   0.00092  -0.00086   0.00006   2.10692
   A11        2.05973   0.00177   0.00354   0.00228   0.00583   2.06557
   A12        2.09555   0.00003   0.00166  -0.00069   0.00097   2.09652
   A13        2.09471  -0.00005  -0.00184  -0.00012  -0.00196   2.09274
   A14        2.09292   0.00002   0.00018   0.00082   0.00100   2.09392
   A15        2.10865   0.00002   0.00080   0.00066   0.00147   2.11013
   A16        2.09072   0.00005  -0.00076   0.00091   0.00014   2.09087
   A17        2.08380  -0.00007  -0.00004  -0.00157  -0.00162   2.08219
   A18        2.06331   0.00000   0.00064  -0.00008   0.00056   2.06387
   A19        2.10500   0.00013   0.00005  -0.01388  -0.01385   2.09115
   A20        2.11474  -0.00013  -0.00070   0.01413   0.01341   2.12815
   A21        2.13236  -0.00050  -0.00143  -0.00099  -0.00241   2.12995
   A22        2.07447   0.00034  -0.00355   0.00105  -0.00250   2.07197
   A23        2.07633   0.00016   0.00499  -0.00006   0.00494   2.08126
   A24        1.93985  -0.00001  -0.00047   0.00066   0.00017   1.94002
   A25        1.92902   0.00004   0.00095   0.00266   0.00360   1.93262
   A26        1.93990  -0.00001   0.00031  -0.00244  -0.00213   1.93777
   A27        1.88094   0.00000   0.00003   0.01054   0.01055   1.89149
   A28        1.89537  -0.00003  -0.00227  -0.00175  -0.00402   1.89135
   A29        1.87653   0.00000   0.00144  -0.00969  -0.00825   1.86828
    D1       -3.10643  -0.00004  -0.02950   0.00441  -0.02510  -3.13152
    D2        0.02092   0.00011  -0.01903   0.00623  -0.01279   0.00813
    D3       -2.86308  -0.00041  -0.21734   0.02615  -0.19119  -3.05427
    D4        0.29385  -0.00061  -0.22860   0.02413  -0.20446   0.08939
    D5        0.29014  -0.00050  -0.22665   0.02675  -0.19991   0.09023
    D6       -2.83611  -0.00071  -0.23791   0.02473  -0.21319  -3.04930
    D7        0.04205  -0.00044  -0.03285  -0.00522  -0.03807   0.00398
    D8       -3.12362  -0.00028  -0.01645  -0.00140  -0.01785  -3.14147
    D9       -3.11105  -0.00034  -0.02365  -0.00580  -0.02944  -3.14048
   D10        0.00647  -0.00018  -0.00725  -0.00197  -0.00922  -0.00275
   D11        3.11125   0.00032   0.02297   0.00244   0.02543   3.13668
   D12       -0.02178   0.00007   0.01571   0.00216   0.01785  -0.00393
   D13       -0.01926   0.00025   0.01409   0.00304   0.01713  -0.00213
   D14        3.13089   0.00000   0.00683   0.00276   0.00955   3.14045
   D15       -3.10266   0.00002  -0.04482   0.00870  -0.03611  -3.13877
   D16        0.02371   0.00022  -0.03364   0.01071  -0.02293   0.00077
   D17       -3.13102   0.00004  -0.00425  -0.00222  -0.00647  -3.13748
   D18        0.00592   0.00003  -0.00259   0.00045  -0.00213   0.00379
   D19       -0.01274   0.00015   0.01164   0.00144   0.01309   0.00035
   D20        3.12420   0.00014   0.01330   0.00411   0.01743  -3.14156
   D21       -0.00622   0.00007   0.00615   0.00010   0.00625   0.00003
   D22        3.13808   0.00006   0.00493  -0.00379   0.00112   3.13920
   D23        3.13072   0.00006   0.00780   0.00277   0.01058   3.14131
   D24       -0.00816   0.00005   0.00659  -0.00112   0.00545  -0.00270
   D25       -0.00596   0.00000   0.00036   0.00087   0.00124  -0.00471
   D26        3.11816   0.00004  -0.00053   0.01244   0.01183   3.12999
   D27        3.13293   0.00000   0.00157   0.00475   0.00635   3.13928
   D28       -0.02613   0.00005   0.00068   0.01632   0.01694  -0.00919
   D29        0.01901  -0.00017  -0.01070  -0.00252  -0.01320   0.00581
   D30       -3.13115   0.00008  -0.00341  -0.00223  -0.00563  -3.13678
   D31       -3.10501  -0.00022  -0.00981  -0.01386  -0.02374  -3.12875
   D32        0.02802   0.00003  -0.00252  -0.01357  -0.01616   0.01185
   D33        2.78376  -0.00003  -0.01231   0.58757   0.57525  -2.92417
   D34       -1.41171  -0.00001  -0.01195   0.60297   0.59103  -0.82067
   D35        0.67051   0.00001  -0.00932   0.59101   0.58169   1.25220
   D36       -0.37582   0.00002  -0.01322   0.59932   0.58609   0.21027
   D37        1.71189   0.00004  -0.01286   0.61473   0.60188   2.31377
   D38       -2.48907   0.00006  -0.01022   0.60276   0.59253  -1.89654
         Item               Value     Threshold  Converged?
 Maximum Force            0.003023     0.000015     NO 
 RMS     Force            0.000643     0.000010     NO 
 Maximum Displacement     1.116137     0.000060     NO 
 RMS     Displacement     0.231372     0.000040     NO 
 Predicted change in Energy=-4.417762D-04
 GradGradGradGradGradGradGradGradGradGradGradGradGradGradGradGradGradGrad

                          Input orientation:                          
 ---------------------------------------------------------------------
 Center     Atomic      Atomic             Coordinates (Angstroms)
 Number     Number       Type             X           Y           Z
 ---------------------------------------------------------------------
      1          8           0        8.612893    7.591454    5.832425
      2          1           0        9.421129    7.276481    6.250600
      3          6           0        6.238766    7.010940    5.212931
      4          5           0        7.619020    6.657348    5.866414
      5          8           0        7.893648    5.460854    6.471730
      6          1           0        7.162388    4.838232    6.466584
      7          6           0        5.134822    6.159544    5.289489
      8          1           0        5.196472    5.210751    5.815979
      9          6           0        3.923603    6.509093    4.695119
     10          1           0        3.071525    5.842446    4.763777
     11          6           0        3.808849    7.713004    4.014705
     12          6           0        4.896574    8.588666    3.914327
     13          6           0        6.094554    8.222793    4.519733
     14          1           0        6.947073    8.891722    4.455822
     15          1           0        2.864699    7.982665    3.550226
     16          6           0        4.749107    9.882364    3.157111
     17          1           0        5.718948   10.346726    2.979166
     18          1           0        4.265981    9.712539    2.191345
     19          1           0        4.123942   10.590459    3.708152
 ---------------------------------------------------------------------
                    Distance matrix (angstroms):
                    1          2          3          4          5
     1  O    0.000000
     2  H    0.962977   0.000000
     3  C    2.521358   3.357782   0.000000
     4  B    1.364365   1.943842   1.567536   0.000000
     5  O    2.337837   2.382981   2.593449   1.368732   0.000000
     6  H    3.175902   3.330709   2.673085   1.969239   0.960431
     7  C    3.800279   4.532517   1.396220   2.598440   3.081718
     8  H    4.164127   4.722697   2.165809   2.822044   2.786992
     9  C    4.945140   5.764651   2.424863   3.879435   4.473970
    10  H    5.908282   6.677168   3.405663   4.749694   5.129873
    11  C    5.137871   6.057018   2.798774   4.365850   5.272072
    12  C    4.299367   5.258479   2.444805   3.866826   5.030504
    13  C    2.909257   3.867494   1.403534   2.566742   3.830841
    14  H    2.522040   3.457049   2.147615   2.726483   4.090323
    15  H    6.197032   7.125832   3.884992   5.452042   6.339168
    16  C    5.228232   6.179651   3.832825   5.096808   6.358033
    17  H    4.909942   5.816771   4.048133   5.055491   6.387415
    18  H    6.054098   6.999106   4.507826   5.838082   7.039779
    19  H    5.801486   6.745864   4.421515   5.687093   6.939805
                    6          7          8          9         10
     6  H    0.000000
     7  C    2.691178   0.000000
     8  H    2.104016   1.086831   0.000000
     9  C    4.052109   1.393740   2.135934   0.000000
    10  H    4.543474   2.152701   2.453888   1.084053   0.000000
    11  C    5.051955   2.407596   3.381029   1.387636   2.145634
    12  C    5.070866   2.801512   3.887998   2.425063   3.405010
    13  C    4.047931   2.402208   3.399883   2.771381   3.855427
    14  H    4.529934   3.382905   4.296996   3.856883   4.940930
    15  H    6.071469   3.391499   4.272506   2.145571   2.469012
    16  C    6.497676   4.307574   5.393856   3.798141   4.660106
    17  H    6.677508   4.817810   5.890563   4.571125   5.521071
    18  H    7.101106   4.793449   5.854048   4.080217   4.798098
    19  H    7.066061   4.812017   5.876607   4.203782   4.976500
                   11         12         13         14         15
    11  C    0.000000
    12  C    1.400002   0.000000
    13  C    2.395701   1.391235   0.000000
    14  H    3.381184   2.142336   1.085513   0.000000
    15  H    1.086221   2.151353   3.380764   4.279283   0.000000
    16  C    2.515089   1.506246   2.533997   2.738444   2.704512
    17  H    3.414280   2.154437   2.650570   2.409531   3.749883
    18  H    2.744403   2.151605   3.314274   3.604144   2.608181
    19  H    2.910842   2.155607   3.185564   3.378577   2.900210
                   16         17         18         19
    16  C    0.000000
    17  H    1.089903   0.000000
    18  H    1.093141   1.770302   0.000000
    19  H    1.093561   1.770556   1.758301   0.000000
 Symmetry turned off by external request.
 Stoichiometry    C7H9BO2
 Framework group  C1[X(C7H9BO2)]
 Deg. of freedom    51
 Full point group                 C1      NOp   1
 Rotational constants (GHZ):           2.5056170           0.8841269           0.6567410
 Standard basis: 6-311+G(d,p) (5D, 7F)
   274 basis functions,   432 primitive gaussians,   284 cartesian basis functions
    36 alpha electrons       36 beta electrons
       nuclear repulsion energy       475.7258391181 Hartrees.
 NAtoms=   19 NActive=   19 NUniq=   19 SFac= 1.00D+00 NAtFMM=   60 NAOKFM=F Big=F
 Integral buffers will be    131072 words long.
 Raffenetti 2 integral format.
 Two-electron integral symmetry is turned off.
 ------------------------------------------------------------------------------
 Polarizable Continuum Model (PCM)
 =================================
 Model                : PCM.
 Atomic radii         : SMD-Coulomb.
 Polarization charges : Total charges.
 Charge compensation  : None.
 Solution method      : Matrix inversion.
 Cavity type          : VdW (van der Waals Surface) (Alpha=1.000).
 Cavity algorithm     : GePol (No added spheres)
                        Default sphere list used, NSphG=   19.
                        Lebedev-Laikov grids with approx.  5.0 points / Ang**2.
                        Smoothing algorithm: York/Karplus (Gamma=1.0000).
                        Polarization charges: spherical gaussians, with
                                              point-specific exponents (IZeta= 3).
                        Self-potential: point-specific (ISelfS= 7).
                        Self-field    : sphere-specific E.n sum rule (ISelfD= 2).
 1st derivatives      : Analytical E(r).r(x)/FMM algorithm (CHGder, D1EAlg=3).
                        Cavity 1st derivative terms included.
 Solvent              : TetraHydroFuran, Eps=   7.425700 Eps(inf)=   1.974025
 ------------------------------------------------------------------------------
 Spheres list:
 ISph  on   Nord     Re0    Alpha      Xe            Ye            Ze
    1   O      1    2.2940  1.000      8.612893      7.591454      5.832425
    2   H      2    1.2000  1.000      9.421129      7.276481      6.250600
    3   C      3    1.8500  1.000      6.238766      7.010940      5.212931
    4   B      4    1.8000  1.000      7.619020      6.657348      5.866414
    5   O      5    2.2940  1.000      7.893648      5.460854      6.471730
    6   H      6    1.2000  1.000      7.162388      4.838232      6.466584
    7   C      7    1.8500  1.000      5.134822      6.159544      5.289489
    8   H      8    1.2000  1.000      5.196472      5.210751      5.815979
    9   C      9    1.8500  1.000      3.923603      6.509093      4.695119
   10   H     10    1.2000  1.000      3.071525      5.842446      4.763777
   11   C     11    1.8500  1.000      3.808849      7.713004      4.014705
   12   C     12    1.8500  1.000      4.896574      8.588666      3.914327
   13   C     13    1.8500  1.000      6.094554      8.222793      4.519733
   14   H     14    1.2000  1.000      6.947073      8.891722      4.455822
   15   H     15    1.2000  1.000      2.864699      7.982665      3.550226
   16   C     16    1.8500  1.000      4.749107      9.882364      3.157111
   17   H     17    1.2000  1.000      5.718948     10.346726      2.979166
   18   H     18    1.2000  1.000      4.265981      9.712539      2.191345
   19   H     19    1.2000  1.000      4.123942     10.590459      3.708152
 ------------------------------------------------------------------------------
 ------------------------------------------------------------------------------
 Atomic radii for non-electrostatic terms: SMD-CDS.
 ------------------------------------------------------------------------------
 Nuclear repulsion after PCM non-electrostatic terms =      475.7216431654 Hartrees.
 One-electron integrals computed using PRISM.
 NBasis=   274 RedAO= T EigKep=  2.16D-06  NBF=   274
 NBsUse=   274 1.00D-06 EigRej= -1.00D+00 NBFU=   274
 Lowest energy guess from the checkpoint file:  "3-Me-phboh2-opt-freq-thf.chk"
[...]
 8274,0.00458831,0.00803772,-0.00159928,0.02454252,-0.07665460,0.015147
 23,0.07668709,0.50693264,0.01337683,0.02717703,-0.05714144,-0.01358501
 ,-0.01076586,0.00308701,-0.04689544,0.01526757,-0.08639883,0.08283247,
 -0.16191713,0.25569949,0.00380236,-0.03493063,0.01557271,0.00457469,0.
 00202658,0.00136749,0.00134089,0.02156619,-0.01610947,-0.09016545,0.02
 677417,-0.02967127,0.42318301,-0.02461007,-0.05105972,0.02433331,0.006
 04438,-0.00020380,0.00067464,0.00498016,-0.00810935,0.01433064,0.05809
 463,-0.24154814,0.12205868,0.21028416,0.51570306,0.01019464,0.02082107
 ,0.00431000,-0.00071633,-0.00062721,-0.00257460,-0.00753823,0.01982472
 ,0.00371164,-0.04575557,0.11166787,-0.11530283,0.02511807,-0.18225482,
 0.12978751,0.00308569,0.00269508,-0.00247283,-0.00006517,0.00037882,0.
 00007144,-0.00143103,0.00120743,-0.00027249,0.00426481,0.00155338,0.00
 162182,-0.33657732,-0.25789533,0.02272541,0.33302847,0.00096766,-0.000
 38273,0.00377153,0.00038645,-0.00050163,-0.00006672,0.00027246,0.00164
 692,-0.00201719,-0.02429839,-0.02285253,0.00214551,-0.22807004,-0.2144
 9925,0.02945247,0.25136040,0.23510991,-0.00155031,0.00437688,0.0035137
 0,0.00005567,-0.00007728,-0.00081407,0.00022963,-0.00176510,-0.0015587
 4,0.01490199,0.01086440,-0.00358850,0.00730338,0.01950378,-0.01580423,
 -0.02014801,-0.03288990,0.01734771,-0.00115757,0.00101557,-0.00114746,
 -0.00051628,-0.00042741,-0.00009166,-0.24702015,-0.08027262,-0.0174549
 0,-0.01836454,-0.00898323,-0.00189198,0.00084859,-0.00271892,0.0019866
 0,0.00100602,0.00017445,0.00005453,0.62121776,0.00517811,0.00025977,0.
 00199242,0.00038951,0.00043457,0.00008309,-0.12825523,-0.18616236,0.02
 373723,-0.00115216,0.01052087,-0.00489733,0.00046183,-0.00372767,0.001
 49750,0.00307196,0.00008179,0.00117007,0.05809598,0.60949803,-0.003378
 95,0.00062183,-0.00066327,-0.00050141,-0.00019026,0.00026579,0.0079574
 5,0.03955997,-0.08091110,-0.00601491,-0.00755448,0.00398451,0.00029411
 ,0.00044038,-0.00156383,-0.00150632,0.00030280,-0.00009341,0.12679996,
 -0.23118571,0.30183818,0.00041236,0.00029734,-0.00007443,-0.00004249,-
 0.00004285,-0.00005154,0.00686651,-0.01993939,0.01244894,-0.00025834,-
 0.00046452,0.00119220,-0.00080798,0.00037585,-0.00103968,-0.00268207,0
 .00064603,-0.00147626,-0.05868025,0.00962153,-0.01203743,0.06048346,-0
 .00025436,0.00042145,-0.00021366,-0.00012860,-0.00001124,0.00006061,0.
 00255844,-0.01185797,0.00775579,0.00156800,-0.00248726,0.00014632,0.00
 121045,0.00152108,0.00017015,-0.00109210,0.00088672,-0.00035787,0.0133
 2069,-0.26445365,0.12474531,-0.01272783,0.27747775,0.00018144,-0.00004
 536,0.00025952,-0.00000458,0.00008624,0.00013621,0.00045110,0.00031837
 ,0.00116598,0.00014492,-0.00048363,-0.00282781,-0.00134385,-0.00009411
 ,-0.00167370,-0.00059668,0.00021024,0.00069999,-0.01405686,0.12365883,
 -0.10785424,0.01898828,-0.13881309,0.10587483,-0.00260308,0.00012179,-
 0.00080296,-0.00004912,-0.00009700,0.00018344,-0.05284031,-0.04099251,
 0.00104391,0.00058310,-0.00632754,0.00145032,0.00074382,0.00084728,-0.
 00019232,-0.00044315,0.00032428,-0.00009731,-0.28438751,0.06977810,-0.
 10864777,0.00213692,-0.00198618,0.00036983,0.67900167,0.00017075,0.000
 61911,-0.00047325,-0.00032730,-0.00016110,-0.00027043,0.00555071,0.050
 23773,-0.01931992,-0.00417596,0.00022973,0.00187518,0.00002496,0.00015
 539,-0.00009727,-0.00069477,0.00005945,-0.00058103,0.00522994,-0.12877
 778,0.03590162,0.02551787,-0.00385956,0.01260707,0.10604573,0.59637149
 ,-0.00079974,-0.00050220,-0.00040319,0.00030823,-0.00017397,-0.0002423
 0,-0.02357428,-0.03457741,0.02083732,0.00032462,0.00118295,0.00586184,
 0.00023860,0.00018187,-0.00004822,0.00042390,-0.00026619,-0.00039789,-
 0.07442843,0.05696293,-0.11832834,-0.01422647,0.00366794,-0.00228685,0
 .12055426,-0.20849091,0.28624457,-0.00081080,-0.00003880,-0.00020547,-
 0.00002292,-0.00004471,0.00003143,-0.00320578,0.00166685,-0.00434398,0
 .00055324,-0.00105111,0.00065814,-0.00019827,0.00037993,-0.00027096,-0
 .00001018,-0.00013867,0.00006972,-0.01542967,-0.01797162,0.00330891,0.
 00068255,0.00071984,0.00118111,-0.23401765,-0.14043588,0.01077114,0.24
 399128,0.00009223,-0.00005471,-0.00001000,0.00004339,0.00000259,-0.000
 01349,0.00116115,0.00205544,0.00319418,0.00031850,0.00031171,0.0000624
 5,-0.00006718,0.00001611,-0.00001160,0.00002938,-0.00001233,0.00001118
 ,0.00829224,0.00875877,-0.00000669,0.00011480,-0.00028607,-0.00198294,
 -0.14039999,-0.16209427,0.01946396,0.15130714,0.16589868,-0.00025922,-
 0.00005027,-0.00019124,-0.00001411,-0.00004278,-0.00003314,-0.00406604
 ,0.00335728,0.00428106,-0.00008112,-0.00038192,0.00041126,-0.00003418,
 0.00012632,-0.00004491,-0.00002011,-0.00003913,0.00001079,-0.01059268,
 -0.00858124,0.00469044,0.00150143,-0.00179771,-0.00266031,0.01072152,0
 .01945986,-0.04549167,-0.00926378,-0.02441823,0.03633781,-0.00157213,-
 0.00012146,-0.00041082,0.00020461,0.00001388,0.00003801,-0.01446816,-0
 .02434617,0.01007317,0.00200047,-0.00183870,0.00190605,-0.00017733,0.0
 0046936,-0.00031563,0.00019019,-0.00019485,0.00008686,0.02887486,0.031
 03209,-0.00915931,-0.00405156,0.00091469,-0.00417359,-0.12877640,0.039
 85715,-0.04278389,0.00618752,-0.02241824,0.01266942,0.67471050,-0.0006
 6282,0.00008160,-0.00035715,0.00002200,-0.00005752,0.00009161,-0.02625
 612,-0.05677390,0.01829397,-0.00151985,-0.00287957,0.00057370,0.000877
 97,-0.00038068,0.00051107,-0.00000682,0.00041255,-0.00011881,0.0811975
 8,0.00200505,0.02886287,0.00000837,0.00276624,0.00240709,-0.02532785,-
 0.28128844,0.10743323,0.00395076,-0.01133128,0.00929874,0.04119490,0.5
 7746623,-0.00012457,-0.00016908,-0.00011505,0.00002640,0.00007844,0.00
 004825,0.01105463,0.01885570,-0.01227789,0.00176511,0.00045983,-0.0005
 1461,-0.00054860,0.00039195,-0.00033759,0.00001027,-0.00017806,0.00030
 111,-0.03549998,0.01251661,-0.01174340,-0.00371852,0.00271746,0.004642
 75,-0.00836313,0.12879383,-0.13353405,-0.00131744,0.00069829,0.0029995
 7,0.15262509,-0.21854505,0.30545728,0.00055048,-0.00029793,0.00033105,
 0.00000924,0.00015854,-0.00005862,0.02561681,0.07643424,-0.03488025,0.
 00422502,0.00101687,-0.00124475,-0.00076272,0.00103836,-0.00035778,-0.
 00013765,-0.00034127,0.00009729,-0.07789742,-0.01537679,-0.01538106,-0
 .00109639,-0.00017307,0.00002857,0.05069552,-0.06204119,0.04769156,0.0
 0189773,0.00078299,-0.00245808,-0.24277462,-0.06560358,-0.02148410,0.6
 3515078,-0.00075188,0.00055543,-0.00050426,0.00019683,0.00014277,-0.00
 008224,0.02973059,0.00534896,0.01167245,-0.00095307,-0.00278447,0.0045
 2339,0.00137474,-0.00038713,-0.00007523,-0.00001615,0.00017314,-0.0000
 1253,-0.01671817,-0.00272292,-0.00715162,-0.00017139,0.00011266,-0.000
 60349,-0.01243753,-0.03788611,0.01877862,0.00041681,-0.00175901,0.0053
 2659,-0.13133497,-0.18705414,0.01962290,0.05746205,0.55837911,0.000603
 99,-0.00034332,0.00046851,-0.00005535,-0.00009238,-0.00011299,-0.01036
 975,0.02672353,-0.00867608,-0.00029296,0.00523308,0.00356931,-0.000523
 40,-0.00017058,-0.00143419,-0.00010082,-0.00012904,0.00017517,-0.01462
 939,-0.00685489,-0.00723755,0.00002722,-0.00058891,-0.00055122,0.02161
 488,0.00255495,0.01085024,-0.00225873,0.00548997,0.00447672,0.01306988
 ,0.04109089,-0.08675428,0.11942597,-0.18464772,0.31279342,-0.00255038,
 -0.00027346,-0.00051335,0.00062027,0.00017518,0.00015361,-0.12248942,-
 0.01452274,-0.01150370,0.00250794,0.01968291,-0.01033453,-0.00538000,0
 .00258313,-0.00350817,-0.00026070,-0.00094202,0.00037878,0.04592235,-0
 .01571953,0.02160081,-0.00334354,-0.00427025,-0.00139393,-0.02694256,0
 .02803038,-0.02172662,0.00014265,0.00090505,-0.00011654,-0.05339946,-0
 .04161693,0.00214145,-0.27543414,0.07156105,-0.10514703,0.67204003,-0.
 00232312,-0.00251602,0.00020267,-0.00034586,-0.00039164,0.00005716,0.0
 3529529,-0.25768470,0.11357782,0.01013769,-0.00136109,0.00524269,-0.00
 226470,0.00232585,-0.00122005,-0.00031960,-0.00042044,0.00013107,-0.06
 047876,-0.03958074,0.00408612,-0.00365944,0.00105499,0.00235957,0.0304
 6039,-0.03496562,0.02537459,0.00085466,-0.00060933,0.00009857,0.004260
 30,0.05353761,-0.02309243,0.00290480,-0.13116084,0.03377287,0.09801610
 ,0.58406772,0.00057969,0.00085513,-0.00095626,0.00040943,0.00023233,-0
 .00005331,-0.03781387,0.09741339,-0.12796517,-0.00525033,0.00836802,-0
 .00390156,-0.00100364,0.00032013,0.00086762,0.00009268,-0.00006689,0.0
 0007004,0.04509768,0.01867675,0.01044381,-0.00171924,0.00217994,0.0060
 6915,-0.02294044,0.02448152,-0.02626912,-0.00009353,0.00010895,-0.0010
 4601,-0.02197574,-0.03801995,0.01991826,-0.06911476,0.05614395,-0.1211
 2349,0.12112831,-0.20019942,0.28905210,-0.00047874,0.00077357,-0.00058
 114,-0.00005806,0.00002070,0.00004729,0.00613997,0.00246485,0.00010314
 ,-0.00046192,0.00093369,0.00034156,0.00021252,-0.00040409,0.00012242,0
 .00000765,0.00003726,0.00000250,0.00196740,0.00061781,-0.00216038,0.00
 029047,0.00020077,-0.00012144,-0.00020996,0.00092487,-0.00021947,-0.00
 010931,0.00003518,0.00032043,-0.00289884,0.00140282,-0.00408498,-0.016
 38272,-0.01745799,0.00214225,-0.22958257,-0.13781319,0.01072018,0.2414
 5613,0.00001249,0.00069951,-0.00028794,0.00029140,0.00031905,-0.000197
 36,-0.02052113,-0.01261053,0.00094979,-0.00151756,-0.00220623,-0.00093
 222,0.00025168,0.00047911,0.00008474,-0.00008031,0.00006778,-0.0000921
 3,0.00092408,-0.00221558,0.00543718,-0.00112293,-0.00064490,0.00013620
 ,0.00064070,-0.00036490,-0.00014103,0.00003327,-0.00019985,-0.00048168
 ,0.00140637,0.00183110,0.00330466,0.00693974,0.00693498,0.00132215,-0.
 13839452,-0.16005591,0.01792407,0.14890443,0.16714970,-0.00021503,-0.0
 0000767,0.00009251,-0.00009267,-0.00028347,-0.00010446,0.01227065,0.00
 848560,0.00139896,0.00162684,-0.00015555,-0.00238513,-0.00021464,-0.00
 013437,0.00046700,0.00006664,-0.00005496,-0.00000976,-0.00232091,0.005
 34209,0.00393034,0.00057922,0.00058003,0.00020912,-0.00005331,-0.00005
 052,-0.00101620,0.00031881,-0.00048337,-0.00077503,-0.00402237,0.00334
 491,0.00414205,-0.01069203,-0.00678239,0.00524467,0.01088051,0.0181081
 8,-0.04598814,-0.00840591,-0.02511996,0.03750467,-0.00017754,0.0000090
 2,-0.00009777,0.00003082,0.00001863,0.00000037,-0.00001892,-0.00042937
 ,0.00071596,0.00011069,0.00002347,0.00034472,-0.00008720,0.00012853,-0
 .00012068,0.00001736,-0.00004873,0.00002314,0.00244740,-0.00066239,-0.
 00143589,-0.00008628,-0.00009478,0.00004078,0.00187684,-0.00171112,0.0
 0008982,0.00019532,0.00089769,0.00101298,-0.27127843,0.05878661,-0.106
 62701,-0.01617672,0.00813581,-0.01112876,-0.00177588,-0.00452790,-0.00
 055239,-0.00090936,0.00043980,-0.00045573,0.28507532,0.00004418,0.0001
 0272,0.00001342,0.00001038,0.00001609,-0.00000605,-0.00015710,-0.00100
 510,-0.00032404,0.00001952,-0.00029556,-0.00035879,0.00004653,0.000060
 48,0.00002469,-0.00010792,0.00006212,-0.00005307,-0.00124273,-0.002708
 39,0.00521900,0.00128258,-0.00038082,0.00058367,0.02458279,-0.00194209
 ,0.01137294,0.00024239,0.00009065,-0.00227105,0.05865047,-0.07242136,0
 .03628986,-0.01689883,0.00839512,-0.00745033,-0.00433153,-0.00083340,0
 .00285117,-0.00084072,0.00035156,-0.00057388,-0.06171049,0.07004771,-0
 .00011345,0.00000185,0.00006049,0.00000480,-0.00000412,0.00000208,0.00
 058136,-0.00041384,-0.00111232,0.00033723,-0.00035368,-0.00068292,-0.0
 0007350,0.00004576,0.00003205,0.00005531,-0.00003611,0.00005839,-0.001
 11948,0.00539704,0.00469205,-0.00068586,0.00014234,-0.00034172,-0.0137
 9800,0.00275838,-0.00166799,0.00135992,-0.00205877,-0.00281903,-0.1065
 1243,0.03641673,-0.09397315,0.00209916,0.00062390,0.00515128,-0.000683
 05,0.00278832,0.00553428,0.00022605,-0.00015592,-0.00007578,0.11717746
 ,-0.04335583,0.08727424,-0.00034197,-0.00013985,-0.00004554,0.00003623
 ,0.00000287,-0.00000447,-0.00293637,-0.00124622,-0.00336900,0.00082016
 ,0.00069658,-0.00010145,-0.00054515,0.00037853,-0.00031198,0.00002091,
 -0.00014439,0.00007759,-0.00067933,0.00107842,-0.00045468,0.00010926,0
 .00017849,0.00029870,-0.00405071,-0.00414803,-0.00078782,0.00018162,-0
 .00118791,0.00066522,0.00673738,-0.02278462,0.01329311,-0.08767256,0.0
 0530213,-0.00806085,-0.00043820,0.02513516,-0.01557580,0.00038816,0.00
 179715,0.00079465,0.00072903,0.00008013,0.00096174,0.58596769,-0.00007
 418,-0.00001236,-0.00003788,0.00000845,0.00002006,0.00001987,-0.001660
 02,0.00257904,0.00250275,0.00003978,-0.00003154,0.00007902,-0.00001731
 ,0.00003020,-0.00011548,-0.00001655,-0.00000353,-0.00000074,0.00154424
 ,-0.00061109,0.00029232,0.00018917,-0.00019548,-0.00038254,-0.00380366
 ,0.00315625,0.00011200,0.00014866,-0.00032968,0.00024454,-0.00071347,-
 0.02289928,0.01407331,0.01049634,-0.19001229,0.06651052,0.00283042,-0.
 00797201,0.00842616,-0.00081691,0.00010448,-0.00255741,0.00148002,0.00
 048119,-0.00116155,0.01951035,0.51763353,-0.00009919,-0.00005850,-0.00
 002240,-0.00000644,0.00001714,0.00003818,-0.00274309,0.00261466,0.0062
 4291,0.00027576,0.00025040,-0.00000584,-0.00012829,0.00002917,-0.00021
 899,0.00002429,-0.00005406,0.00003806,-0.00080000,0.00037165,-0.001398
 09,0.00028988,-0.00042393,-0.00078662,-0.00126673,-0.00022907,0.005564
 96,-0.00001270,-0.00023462,0.00011149,0.00154009,0.00670713,0.00061175
 ,-0.01072189,0.06412793,-0.10946325,-0.00370565,0.01558203,-0.00348170
 ,0.00194960,-0.00178035,-0.00284281,0.00042672,-0.00164478,-0.00170769
 ,0.00156621,0.02465443,0.53432019,0.00008127,0.00002987,0.00001915,-0.
 00000910,-0.00000396,-0.00000215,0.00030630,-0.00006461,0.00029643,-0.
 00016954,-0.00001497,-0.00004678,0.00005720,-0.00005430,0.00004635,-0.
 00000386,0.00001896,-0.00001225,0.00011434,0.00002358,0.00002747,0.000
 03137,-0.00002005,0.00000292,0.00008676,0.00019411,-0.00027035,-0.0000
 0405,0.00002612,0.00004034,0.00057321,0.00037394,-0.00049697,0.0032329
 5,0.00329332,0.00038141,0.00053869,0.00181074,-0.00076018,0.00021260,-
 0.00015794,0.00001332,0.00014891,0.00017891,0.00002814,-0.24450030,-0.
 12488656,-0.01274494,0.26149588,0.00012939,0.00006615,-0.00000119,-0.0
 0000358,0.00000223,0.00000009,0.00010969,-0.00016320,0.00007176,-0.000
 27667,-0.00002219,-0.00009467,0.00005886,-0.00003500,0.00004133,-0.000
 02012,0.00002589,-0.00001923,0.00030774,0.00001344,0.00008281,0.000096
 73,-0.00001146,0.00002560,-0.00158269,-0.00012273,-0.00010568,0.000052
 49,-0.00042195,0.00016153,0.00180335,-0.00439734,0.00347771,-0.0243811
 7,-0.01486387,-0.00267267,-0.00162060,0.00131396,-0.00116114,0.0008991
 3,0.00025759,0.00019753,0.00007773,0.00001530,-0.00010663,-0.12047971,
 -0.12413728,-0.00760795,0.13351627,0.13519891,-0.00002801,-0.00003085,
 -0.00001319,-0.00000308,-0.00000051,0.00000419,0.00009470,-0.00008679,
 -0.00013109,0.00008283,-0.00001242,0.00000680,-0.00000901,0.00000177,0
 .00000328,0.00000676,-0.00000383,0.00000660,-0.00002743,-0.00000832,0.
 00001584,-0.00003845,0.00000006,-0.00001542,0.00067120,0.00051822,0.00
 035854,0.00002216,0.00015616,-0.00023492,-0.00118284,0.00307610,-0.000
 82931,0.01502210,0.00857506,-0.00028677,0.00101619,-0.00007304,0.00048
 500,-0.00044480,-0.00012695,0.00008210,0.00003793,-0.00004195,-0.00013
 759,-0.01512010,-0.00943609,-0.04773653,0.01593191,0.00565362,0.047976
 12,-0.00004465,0.00000777,0.00001007,0.00000447,0.00000137,-0.00000353
 ,-0.00064486,-0.00010832,0.00056652,0.00006568,-0.00003529,-0.00004810
 ,-0.00002881,0.00003281,-0.00000877,-0.00000368,-0.00000339,-0.0000052
 5,0.00084764,-0.00007960,0.00031843,0.00005828,-0.00003829,-0.00013159
 ,-0.00055517,0.00110504,-0.00040992,-0.00000652,0.00001506,-0.00002085
 ,-0.00006934,-0.00187699,0.00075977,-0.00162393,0.00091729,-0.00337123
 ,-0.00028101,0.00149432,-0.00070685,0.00027892,-0.00008213,-0.00038010
 ,-0.00000837,-0.00014109,-0.00024356,-0.05630925,-0.01196622,-0.053361
 94,-0.00423677,-0.00370001,-0.02657512,0.05662169,0.00021162,0.0000583
 8,0.00004033,-0.00001602,-0.00000956,-0.00000699,0.00076268,-0.0011820
 0,-0.00071307,-0.00041663,-0.00010480,-0.00011006,0.00017660,-0.000140
 90,0.00017102,-0.00002424,0.00007078,-0.00004037,0.00050780,-0.0002731
 0,0.00042530,-0.00003147,0.00002371,0.00009103,0.00023713,0.00015802,-
 0.00089060,-0.00005809,0.00000510,0.00001966,0.00073620,0.00012636,-0.
 00006734,0.00694019,0.00429503,0.03020289,-0.00087837,-0.00212011,0.00
 067572,-0.00003189,0.00021838,0.00041743,-0.00042866,0.00023515,-0.000
 01557,-0.01179201,-0.05292118,-0.04523772,-0.00176802,-0.00335414,-0.0
 1595423,0.01046314,0.05836112,-0.00016889,-0.00002035,-0.00002602,0.00
 001830,0.00000377,0.00000065,-0.00059947,0.00031634,0.00035123,0.00030
 585,0.00001875,0.00009316,-0.00012366,0.00012423,-0.00011269,0.0000138
 1,-0.00004948,0.00002388,0.00034760,0.00004090,-0.00000249,0.00005576,
 -0.00002909,-0.00012845,-0.00045185,0.00089153,0.00023451,0.00002599,0
 .00004089,-0.00004757,-0.00102506,-0.00059940,0.00135317,-0.00330201,-
 0.00061644,-0.01333852,0.00100465,0.00139407,-0.00064235,0.00013502,-0
 .00010096,-0.00022502,0.00042899,-0.00011800,-0.00048675,-0.05350779,-
 0.04589216,-0.29549939,-0.00002082,-0.00025381,0.00021325,0.05943257,0
 .04716367,0.31972848,-0.00005468,-0.00000796,-0.00004091,0.00000697,0.
 00000454,0.00000526,-0.00037386,-0.00053323,-0.00027526,0.00007493,0.0
 0000641,0.00009521,-0.00003285,0.00004559,-0.00005738,-0.00000627,-0.0
 0000622,0.00000833,0.00088635,-0.00013160,0.00037098,-0.00002229,0.000
 11415,0.00013487,-0.00024898,0.00088274,-0.00117515,-0.00001676,0.0000
 5237,-0.00000465,-0.00001246,-0.00215936,0.00058947,-0.00141967,0.0014
 5054,-0.00132732,0.00010594,0.00136312,-0.00052119,0.00013764,0.000235
 41,0.00030206,-0.00011298,0.00029251,0.00039816,-0.19751660,0.10770746
 ,0.07951832,-0.01795588,0.01501317,0.01054306,0.00593567,-0.00458996,-
 0.00256902,0.21062579,0.00023748,0.00005890,0.00005850,-0.00002356,-0.
 00000675,-0.00000198,0.00030818,0.00016930,0.00127181,-0.00048131,-0.0
 0007012,-0.00007545,0.00021514,-0.00019962,0.00013502,-0.00002253,0.00
 007539,-0.00004930,0.00023153,-0.00033901,0.00011123,0.00000954,-0.000
 07620,-0.00007875,-0.00008325,0.00047544,0.00061697,-0.00003393,-0.000
 04056,-0.00002906,0.00062909,0.00125675,0.00077140,0.02093972,-0.01570
 642,-0.00995102,-0.00121428,-0.00262828,0.00079017,0.00014970,-0.00011
 536,-0.00027223,-0.00038388,-0.00027137,-0.00051232,0.10776292,-0.1248
 7902,-0.05708354,-0.01249541,0.01063570,0.00779398,0.00399453,-0.00344
 624,-0.00231446,-0.11973968,0.13510748,-0.00010463,-0.00003602,-0.0000
 2117,0.00000816,0.00000318,-0.00000302,-0.00014366,-0.00006410,-0.0012
 1776,0.00022066,0.00008281,0.00003610,-0.00011085,0.00009126,-0.000063
 32,0.00000492,-0.00003099,0.00002118,-0.00022521,0.00008038,-0.0000652
 3,-0.00001507,0.00005831,0.00006879,0.00000446,-0.00032976,-0.00026617
 ,0.00001928,-0.00000631,0.00002469,-0.00044687,-0.00046768,0.00060515,
 -0.01500037,0.01108114,0.00624904,0.00032825,0.00180919,-0.00101315,-0
 .00009232,0.00025770,0.00035090,0.00011936,-0.00015700,0.00020008,0.07
 968227,-0.05733106,-0.08376423,-0.00243299,0.00231099,0.00023309,0.024
 17946,-0.01617109,-0.01148907,-0.08599486,0.05881903,0.09011410\\0.000
 00157,-0.00000763,-0.00000508,0.00000135,-0.00000946,-0.00000594,-0.00
 000101,-0.00000093,0.00000005,-0.00000102,-0.00000420,-0.00000173,-0.0
 0000350,-0.00000378,-0.00000018,-0.00000531,-0.00000133,0.00000218,-0.
 00000356,0.00000272,0.00000345,-0.00000563,0.00000344,0.00000499,-0.00
 000344,0.00000555,0.00000495,-0.00000542,0.00000837,0.00000759,-0.0000
 0083,0.00000474,0.00000306,0.00000177,0.00000116,-0.00000035,0.0000016
 3,-0.00000164,-0.00000179,0.00000360,-0.00000447,-0.00000444,-0.000000
 74,0.00000696,0.00000424,0.00000460,0.00000028,-0.00000235,0.00000654,
 -0.00000252,-0.00000498,0.00000219,-0.00000083,-0.00000166,0.00000720,
 0.00000357,-0.00000199\\\@
 The archive entry for this job was punched.


 ONLY THE DAY DAWNS TO WHICH YOU ARE AWAKE.

                                 -- THOREAU
 Job cpu time:       0 days  0 hours 54 minutes  9.7 seconds.
 Elapsed time:       0 days  0 hours  1 minutes 46.5 seconds.
 File lengths (MBytes):  RWF=    183 Int=      0 D2E=      0 Chk=     16 Scr=      1
 Normal termination of Gaussian 16 at Wed Apr 30 05:32:27 2025.
