/home/tahminaafroz
cn013.cluster.local
tahminaafroz
Tue May  6 17:14:38 CDT 2025
 Entering Gaussian System, Link 0=g16
 Initial command:
 /home/apps/g16/l1.exe "/tmp/3-5-diF-phboh2-opt-freq-thf/Gau-698185.inp" -scrdir="/tmp/3-5-diF-phboh2-opt-freq-thf/"
 Entering Link 1 = /home/apps/g16/l1.exe PID=    698186.
  
 Copyright (c) 1988-2019, Gaussian, Inc.  All Rights Reserved.
  
 This is part of the Gaussian(R) 16 program.  It is based on
 the Gaussian(R) 09 system (copyright 2009, Gaussian, Inc.),
 the Gaussian(R) 03 system (copyright 2003, Gaussian, Inc.),
 the Gaussian(R) 98 system (copyright 1998, Gaussian, Inc.),
 the Gaussian(R) 94 system (copyright 1995, Gaussian, Inc.),
 the Gaussian 92(TM) system (copyright 1992, Gaussian, Inc.),
 the Gaussian 90(TM) system (copyright 1990, Gaussian, Inc.),
 the Gaussian 88(TM) system (copyright 1988, Gaussian, Inc.),
 the Gaussian 86(TM) system (copyright 1986, Carnegie Mellon
 University), and the Gaussian 82(TM) system (copyright 1983,
 Carnegie Mellon University). Gaussian is a federally registered
 trademark of Gaussian, Inc.
  
 This software contains proprietary and confidential information,
 including trade secrets, belonging to Gaussian, Inc.
  
 This software is provided under written license and may be
 used, copied, transmitted, or stored only in accord with that
 written license.
  
 The following legend is applicable only to US Government
 contracts under FAR:
  
                    RESTRICTED RIGHTS LEGEND
  
 Use, reproduction and disclosure by the US Government is
 subject to restrictions as set forth in subparagraphs (a)
 and (c) of the Commercial Computer Software - Restricted
 Rights clause in FAR 52.227-19.
  
 Gaussian, Inc.
 340 Quinnipiac St., Bldg. 40, Wallingford CT 06492
  
  
 ---------------------------------------------------------------
 Warning -- This program may not be used in any manner that
 competes with the business of Gaussian, Inc. or will provide
 assistance to any competitor of Gaussian, Inc.  The licensee
 of this program is prohibited from giving any competitor of
 Gaussian, Inc. access to this program.  By using this program,
 the user acknowledges that Gaussian, Inc. is engaged in the
 business of creating and licensing software in the field of
 computational chemistry and represents and warrants to the
 licensee that it is not a competitor of Gaussian, Inc. and that
 it will not use this program in any manner prohibited above.
 ---------------------------------------------------------------
  

 Cite this work as:
 Gaussian 16, Revision C.01,
 M. J. Frisch, G. W. Trucks, H. B. Schlegel, G. E. Scuseria, 
 M. A. Robb, J. R. Cheeseman, G. Scalmani, V. Barone, 
 G. A. Petersson, H. Nakatsuji, X. Li, M. Caricato, A. V. Marenich, 
 J. Bloino, B. G. Janesko, R. Gomperts, B. Mennucci, H. P. Hratchian, 
 J. V. Ortiz, A. F. Izmaylov, J. L. Sonnenberg, D. Williams-Young, 
 F. Ding, F. Lipparini, F. Egidi, J. Goings, B. Peng, A. Petrone, 
 T. Henderson, D. Ranasinghe, V. G. Zakrzewski, J. Gao, N. Rega, 
 G. Zheng, W. Liang, M. Hada, M. Ehara, K. Toyota, R. Fukuda, 
 J. Hasegawa, M. Ishida, T. Nakajima, Y. Honda, O. Kitao, H. Nakai, 
 T. Vreven, K. Throssell, J. A. Montgomery, Jr., J. E. Peralta, 
 F. Ogliaro, M. J. Bearpark, J. J. Heyd, E. N. Brothers, K. N. Kudin, 
 V. N. Staroverov, T. A. Keith, R. Kobayashi, J. Normand, 
 K. Raghavachari, A. P. Rendell, J. C. Burant, S. S. Iyengar, 
 J. Tomasi, M. Cossi, J. M. Millam, M. Klene, C. Adamo, R. Cammi, 
 J. W. Ochterski, R. L. Martin, K. Morokuma, O. Farkas, 
 J. B. Foresman, and D. J. Fox, Gaussian, Inc., Wallingford CT, 2019.
 
 ******************************************
 Gaussian 16:  AS64L-G16RevC.01  3-Jul-2019
                 6-May-2025 
 ******************************************
 %mem=20GB
 %nprocshared=32
 Will use up to   32 processors via shared memory.
 %chk=3-5-diF-phboh2-opt-freq-thf.chk
 ----------------------------------------------------------------------
 # opt=(calcfc,tight) freq 6-311+g(d,p) scrf=(smd,solvent=thf) nosymm s
 cf=(qc,fermi,xqc) geom=connectivity int=ultrafine m062x
 ----------------------------------------------------------------------
 1/7=10,10=4,18=20,19=15,26=6,38=1,57=2/1,3;
 2/9=110,12=2,15=1,17=6,18=5,40=1/2;
 3/5=4,6=6,7=111,11=2,25=1,30=1,70=32201,71=2,72=20,74=-55,75=-5,140=1/1,2,3;
 4//1;
 5/5=2,22=13,38=5,53=20/2;
 8/6=4,10=90,11=11/1;
 11/6=1,8=1,9=11,15=111,16=1,31=1/1,2,10;
 10/6=1,13=1,31=1/2;
 6/7=2,8=2,9=2,10=2,28=1/1;
 7/10=1,25=1,30=1/1,2,3,16;
 1/7=10,10=4,18=20,19=15,26=6/3(2);
 2/9=110,15=1/2;
 99//99;
 2/9=110,15=1/2;
 3/5=4,6=6,7=111,11=2,25=1,30=1,70=32205,71=1,72=20,74=-55,75=-5/1,2,3;
 4/5=5,16=3,69=1/1;
 5/5=2,22=13,38=5,53=20/2;
 7/30=1/1,2,3,16;
 1/7=10,18=20,19=15,26=6/3(-5);
 2/9=110,15=1/2;
 6/7=2,8=2,9=2,10=2,19=2,28=1/1;
 99/9=1/99;
 ---------------------------
 3-5-diF-phboh2-opt-freq-thf
 ---------------------------
 Symbolic Z-matrix:
 Charge =  0 Multiplicity = 1
 O                     8.67856   7.46401   5.56252 
 H                     9.48944   7.1771    5.99244 
 C                     6.24147   6.9964    5.1803 
 B                     7.63492   6.62815   5.80839 
 O                     7.85588   5.52763   6.58562 
 H                     7.08146   4.99141   6.76271 
 C                     5.13709   6.14367   5.26667 
 H                     5.17716   5.17712   5.75707 
 C                     3.93594   6.52788   4.69859 
 C                     3.77466   7.73266   4.0387 
 C                     4.8845    8.55739   3.96477 
 C                     6.10688   8.21837   4.51426 
 H                     6.94527   8.89795   4.42607 
 H                     2.82712   8.01603   3.6006 
 F                     2.88145   5.70272   4.78539 
 F                     4.7557    9.73123   3.32977 
 

 GradGradGradGradGradGradGradGradGradGradGradGradGradGradGradGradGradGrad
 Berny optimization.
 Initialization pass.
                           ----------------------------
                           !    Initial Parameters    !
                           ! (Angstroms and Degrees)  !
 --------------------------                            --------------------------
 ! Name  Definition              Value          Derivative Info.                !
 --------------------------------------------------------------------------------
 ! R1    R(1,2)                  0.9616         calculate D2E/DX2 analytically  !
 ! R2    R(1,4)                  1.3595         calculate D2E/DX2 analytically  !
 ! R3    R(3,4)                  1.5722         calculate D2E/DX2 analytically  !
 ! R4    R(3,7)                  1.3979         calculate D2E/DX2 analytically  !
 ! R5    R(3,12)                 1.3982         calculate D2E/DX2 analytically  !
 ! R6    R(4,5)                  1.3653         calculate D2E/DX2 analytically  !
 ! R7    R(5,6)                  0.9585         calculate D2E/DX2 analytically  !
 ! R8    R(7,8)                  1.0846         calculate D2E/DX2 analytically  !
 ! R9    R(7,9)                  1.3831         calculate D2E/DX2 analytically  !
 ! R10   R(9,10)                 1.3831         calculate D2E/DX2 analytically  !
 ! R11   R(9,15)                 1.3418         calculate D2E/DX2 analytically  !
 ! R12   R(10,11)                1.3847         calculate D2E/DX2 analytically  !
 ! R13   R(10,14)                1.0817         calculate D2E/DX2 analytically  !
 ! R14   R(11,12)                1.3824         calculate D2E/DX2 analytically  !
 ! R15   R(11,16)                1.3408         calculate D2E/DX2 analytically  !
 ! R16   R(12,13)                1.0828         calculate D2E/DX2 analytically  !
 ! A1    A(2,1,4)              112.5219         calculate D2E/DX2 analytically  !
 ! A2    A(4,3,7)              122.1832         calculate D2E/DX2 analytically  !
 ! A3    A(4,3,12)             118.7064         calculate D2E/DX2 analytically  !
 ! A4    A(7,3,12)             119.1103         calculate D2E/DX2 analytically  !
 ! A5    A(1,4,3)              117.6535         calculate D2E/DX2 analytically  !
 ! A6    A(1,4,5)              118.3138         calculate D2E/DX2 analytically  !
 ! A7    A(3,4,5)              124.0322         calculate D2E/DX2 analytically  !
 ! A8    A(4,5,6)              115.1752         calculate D2E/DX2 analytically  !
 ! A9    A(3,7,8)              122.8441         calculate D2E/DX2 analytically  !
 ! A10   A(3,7,9)              119.4221         calculate D2E/DX2 analytically  !
 ! A11   A(8,7,9)              117.7317         calculate D2E/DX2 analytically  !
 ! A12   A(7,9,10)             122.628          calculate D2E/DX2 analytically  !
 ! A13   A(7,9,15)             119.0183         calculate D2E/DX2 analytically  !
 ! A14   A(10,9,15)            118.3537         calculate D2E/DX2 analytically  !
 ! A15   A(9,10,11)            116.7966         calculate D2E/DX2 analytically  !
 ! A16   A(9,10,14)            121.5723         calculate D2E/DX2 analytically  !
 ! A17   A(11,10,14)           121.631          calculate D2E/DX2 analytically  !
 ! A18   A(10,11,12)           122.7811         calculate D2E/DX2 analytically  !
 ! A19   A(10,11,16)           118.0168         calculate D2E/DX2 analytically  !
 ! A20   A(12,11,16)           119.2021         calculate D2E/DX2 analytically  !
 ! A21   A(3,12,11)            119.2609         calculate D2E/DX2 analytically  !
 ! A22   A(3,12,13)            120.8486         calculate D2E/DX2 analytically  !
 ! A23   A(11,12,13)           119.8905         calculate D2E/DX2 analytically  !
 ! D1    D(2,1,4,3)            179.0691         calculate D2E/DX2 analytically  !
 ! D2    D(2,1,4,5)             -0.691          calculate D2E/DX2 analytically  !
 ! D3    D(7,3,4,1)            173.9131         calculate D2E/DX2 analytically  !
 ! D4    D(7,3,4,5)             -6.3418         calculate D2E/DX2 analytically  !
 ! D5    D(12,3,4,1)            -6.092          calculate D2E/DX2 analytically  !
 ! D6    D(12,3,4,5)           173.6531         calculate D2E/DX2 analytically  !
 ! D7    D(4,3,7,8)             -0.8386         calculate D2E/DX2 analytically  !
 ! D8    D(4,3,7,9)            179.6975         calculate D2E/DX2 analytically  !
 ! D9    D(12,3,7,8)           179.1666         calculate D2E/DX2 analytically  !
 ! D10   D(12,3,7,9)            -0.2973         calculate D2E/DX2 analytically  !
 ! D11   D(4,3,12,11)         -179.6069         calculate D2E/DX2 analytically  !
 ! D12   D(4,3,12,13)            0.3314         calculate D2E/DX2 analytically  !
 ! D13   D(7,3,12,11)            0.3881         calculate D2E/DX2 analytically  !
 ! D14   D(7,3,12,13)         -179.6736         calculate D2E/DX2 analytically  !
 ! D15   D(1,4,5,6)            177.3484         calculate D2E/DX2 analytically  !
 ! D16   D(3,4,5,6)             -2.3952         calculate D2E/DX2 analytically  !
 ! D17   D(3,7,9,10)             0.0669         calculate D2E/DX2 analytically  !
 ! D18   D(3,7,9,15)           179.9495         calculate D2E/DX2 analytically  !
 ! D19   D(8,7,9,10)          -179.4243         calculate D2E/DX2 analytically  !
 ! D20   D(8,7,9,15)             0.4583         calculate D2E/DX2 analytically  !
 ! D21   D(7,9,10,11)            0.0707         calculate D2E/DX2 analytically  !
 ! D22   D(7,9,10,14)         -179.9974         calculate D2E/DX2 analytically  !
 ! D23   D(15,9,10,11)        -179.8126         calculate D2E/DX2 analytically  !
 ! D24   D(15,9,10,14)           0.1193         calculate D2E/DX2 analytically  !
 ! D25   D(9,10,11,12)           0.026          calculate D2E/DX2 analytically  !
 ! D26   D(9,10,11,16)         179.9652         calculate D2E/DX2 analytically  !
 ! D27   D(14,10,11,12)       -179.9058         calculate D2E/DX2 analytically  !
 ! D28   D(14,10,11,16)          0.0334         calculate D2E/DX2 analytically  !
 ! D29   D(10,11,12,3)          -0.257          calculate D2E/DX2 analytically  !
 ! D30   D(10,11,12,13)        179.804          calculate D2E/DX2 analytically  !
 ! D31   D(16,11,12,3)         179.8045         calculate D2E/DX2 analytically  !
 ! D32   D(16,11,12,13)         -0.1345         calculate D2E/DX2 analytically  !
 --------------------------------------------------------------------------------
 Trust Radius=3.00D-01 FncErr=5.00D-06 GrdErr=5.00D-06 EigMax=2.50D+02 EigMin=1.00D-04
 Number of steps in this run=     81 maximum allowed number of steps=    100.
 GradGradGradGradGradGradGradGradGradGradGradGradGradGradGradGradGradGrad

                          Input orientation:                          
 ---------------------------------------------------------------------
 Center     Atomic      Atomic             Coordinates (Angstroms)
 Number     Number       Type             X           Y           Z
 ---------------------------------------------------------------------
      1          8           0        8.678562    7.464006    5.562516
      2          1           0        9.489445    7.177101    5.992441
      3          6           0        6.241468    6.996398    5.180298
      4          5           0        7.634925    6.628151    5.808387
      5          8           0        7.855883    5.527630    6.585617
      6          1           0        7.081460    4.991406    6.762709
      7          6           0        5.137092    6.143673    5.266668
      8          1           0        5.177157    5.177121    5.757069
      9          6           0        3.935935    6.527879    4.698594
     10          6           0        3.774656    7.732659    4.038704
     11          6           0        4.884497    8.557388    3.964774
     12          6           0        6.106880    8.218366    4.514259
     13          1           0        6.945271    8.897949    4.426066
     14          1           0        2.827121    8.016026    3.600603
     15          9           0        2.881446    5.702715    4.785390
     16          9           0        4.755696    9.731230    3.329767
 ---------------------------------------------------------------------
                    Distance matrix (angstroms):
                    1          2          3          4          5
     1  O    0.000000
     2  H    0.961603   0.000000
     3  C    2.510812   3.352847   0.000000
     4  B    1.359516   1.942799   1.572204   0.000000
     5  O    2.339463   2.396067   2.595869   1.365304   0.000000
     6  H    3.178828   3.342000   2.688792   1.973826   0.958451
     7  C    3.791150   4.531854   1.397944   2.601413   3.083984
     8  H    4.186589   4.759322   2.185221   2.854601   2.825760
     9  C    4.910724   5.739077   2.401464   3.863188   4.464006
    10  C    5.142224   6.065026   2.816111   4.387869   5.292006
    11  C    4.259483   5.217487   2.399075   3.832195   4.987724
    12  C    2.877751   3.835492   1.398187   2.557044   3.819633
    13  H    2.520319   3.447850   2.163354   2.745618   4.105110
    14  H    6.196224   7.128201   3.897800   5.469505   6.355381
    15  F    6.108406   6.877241   3.622060   4.949598   5.293061
    16  F    5.051173   6.001815   3.620951   4.905366   6.154833
                    6          7          8          9         10
     6  H    0.000000
     7  C    2.710429   0.000000
     8  H    2.161521   1.084583   0.000000
     9  C    4.063945   1.383149   2.117911   0.000000
    10  C    5.086219   2.426727   3.383868   1.383098   0.000000
    11  C    5.036995   2.754043   3.837209   2.357365   1.384699
    12  C    4.051988   2.410593   3.414401   2.757667   2.429266
    13  H    4.554067   3.400318   4.329244   3.840261   3.400110
    14  H    6.103003   3.408437   4.269941   2.156301   1.081689
    15  F    4.696368   2.348193   2.547685   1.341781   2.340093
    16  F    6.297635   4.094828   5.177773   3.578708   2.336518
                   11         12         13         14         15
    11  C    0.000000
    12  C    1.382422   0.000000
    13  H    2.139056   1.082825   0.000000
    14  H    2.158353   3.410649   4.291659   0.000000
    15  F    3.582566   4.099443   5.182018   2.599631   0.000000
    16  F    1.340794   2.348931   2.586594   2.595126   4.675530
                   16
    16  F    0.000000
 Symmetry turned off by external request.
 Stoichiometry    C6H5BF2O2
 Framework group  C1[X(C6H5BF2O2)]
 Deg. of freedom    42
 Full point group                 C1      NOp   1
 Rotational constants (GHZ):           1.5130755           0.7896481           0.5194118
 Standard basis: 6-311+G(d,p) (5D, 7F)
   272 basis functions,   436 primitive gaussians,   283 cartesian basis functions
    40 alpha electrons       40 beta electrons
       nuclear repulsion energy       567.7500230999 Hartrees.
 NAtoms=   16 NActive=   16 NUniq=   16 SFac= 1.00D+00 NAtFMM=   60 NAOKFM=F Big=F
 Integral buffers will be    131072 words long.
 Raffenetti 2 integral format.
 Two-electron integral symmetry is turned off.
 Force inversion solution in PCM.
 ------------------------------------------------------------------------------
 Polarizable Continuum Model (PCM)
 =================================
 Model                : PCM.
 Atomic radii         : SMD-Coulomb.
 Polarization charges : Total charges.
 Charge compensation  : None.
 Solution method      : Matrix inversion.
 Cavity type          : VdW (van der Waals Surface) (Alpha=1.000).
 Cavity algorithm     : GePol (No added spheres)
                        Default sphere list used, NSphG=   16.
                        Lebedev-Laikov grids with approx.  5.0 points / Ang**2.
                        Smoothing algorithm: York/Karplus (Gamma=1.0000).
                        Polarization charges: spherical gaussians, with
                                              point-specific exponents (IZeta= 3).
                        Self-potential: point-specific (ISelfS= 7).
                        Self-field    : sphere-specific E.n sum rule (ISelfD= 2).
 1st derivatives      : Analytical E(r).r(x)/FMM algorithm (CHGder, D1EAlg=3).
                        Cavity 1st derivative terms included.
 2nd derivatives      : Analytical E(r).r(xy)/FMM algorithm (CHGder, D2EAlg=3).
                        Cavity 2nd derivative terms included.
 Solvent              : TetraHydroFuran, Eps=   7.425700 Eps(inf)=   1.974025
 ------------------------------------------------------------------------------
 Spheres list:
 ISph  on   Nord     Re0    Alpha      Xe            Ye            Ze
    1   O      1    2.2940  1.000      8.678562      7.464006      5.562516
    2   H      2    1.2000  1.000      9.489445      7.177101      5.992441
    3   C      3    1.8500  1.000      6.241468      6.996398      5.180298
    4   B      4    1.8000  1.000      7.634925      6.628151      5.808387
    5   O      5    2.2940  1.000      7.855883      5.527630      6.585617
    6   H      6    1.2000  1.000      7.081460      4.991406      6.762709
    7   C      7    1.8500  1.000      5.137092      6.143673      5.266668
    8   H      8    1.2000  1.000      5.177157      5.177121      5.757069
    9   C      9    1.8500  1.000      3.935935      6.527879      4.698594
   10   C     10    1.8500  1.000      3.774656      7.732659      4.038704
   11   C     11    1.8500  1.000      4.884497      8.557388      3.964774
   12   C     12    1.8500  1.000      6.106880      8.218366      4.514259
   13   H     13    1.2000  1.000      6.945271      8.897949      4.426066
   14   H     14    1.2000  1.000      2.827121      8.016026      3.600603
   15   F     15    1.7300  1.000      2.881446      5.702715      4.785390
   16   F     16    1.7300  1.000      4.755696      9.731230      3.329767
 ------------------------------------------------------------------------------
 ------------------------------------------------------------------------------
 Atomic radii for non-electrostatic terms: SMD-CDS.
 ------------------------------------------------------------------------------
 Nuclear repulsion after PCM non-electrostatic terms =      567.7480014486 Hartrees.
 One-electron integrals computed using PRISM.
 NBasis=   272 RedAO= T EigKep=  3.21D-06  NBF=   272
 NBsUse=   272 1.00D-06 EigRej= -1.00D+00 NBFU=   272
 ExpMin= 3.15D-02 ExpMax= 1.14D+04 ExpMxC= 1.72D+03 IAcc=3 IRadAn=         5 AccDes= 0.00D+00
 Harris functional with IExCor= 1009 and IRadAn=       5 diagonalized for initial guess.
 HarFok:  IExCor= 1009 AccDes= 0.00D+00 IRadAn=         5 IDoV= 1 UseB2=F ITyADJ=14
 ICtDFT=  3500011 ScaDFX=  1.000000  1.000000  1.000000  1.000000
 FoFCou: FMM=F IPFlag=           0 FMFlag=      100000 FMFlg1=           0
         NFxFlg=           0 DoJE=T BraDBF=F KetDBF=T FulRan=T
         wScrn=  0.000000 ICntrl=       500 IOpCl=  0 I1Cent=   200000004 NGrid=           0
         NMat0=    1 NMatS0=      1 NMatT0=    0 NMatD0=    1 NMtDS0=    0 NMtDT0=    0
 Symmetry not used in FoFCou.
 Requested convergence on RMS density matrix=1.00D-08 within 128 cycles.
 Requested convergence on MAX density matrix=1.00D-06.
 Requested convergence on             energy=1.00D-06.
 Level shift goal  0.100 maximum shift  0.100.
 No special actions if energy rises.
 Dynamic level shift is on during FON iterations.
 Inv3:  Mode=1 IEnd=     6553452.
 Iteration    1 A*A^-1 deviation from unit magnitude is 3.77D-15 for   1465.
 Iteration    1 A*A^-1 deviation from orthogonality  is 2.03D-15 for   1466   1343.
 Iteration    1 A^-1*A deviation from unit magnitude is 4.22D-15 for   1465.
 Iteration    1 A^-1*A deviation from orthogonality  is 2.00D-15 for    741    694.
 Error on total polarization charges =  0.01756
 SCF Done:  E(RM062X) =  -606.719821332     A.U. after   14 cycles
            NFock= 14  Conv=0.29D-08     -V/T= 2.0031
 SMD-CDS (non-electrostatic) energy       (kcal/mol) =      -1.27
 (included in total energy above)
 DoSCS=F DFT=T ScalE2(SS,OS)=  1.000000  1.000000
 Range of M.O.s used for correlation:     1   272
 NBasis=   272 NAE=    40 NBE=    40 NFC=     0 NFV=     0
 NROrb=    272 NOA=    40 NOB=    40 NVA=   232 NVB=   232

 **** Warning!!: The largest alpha MO coefficient is  0.13419849D+03

 Symmetrizing basis deriv contribution to polar:
 IMax=3 JMax=2 DiffMx= 0.00D+00
 G2DrvN: will do    17 centers at a time, making    1 passes.
 Calling FoFCou, ICntrl=  3107 FMM=F I1Cent=   0 AccDes= 0.00D+00.
 NEqPCM:  Using equilibrium solvation (IEInf=0, Eps=   7.4257, EpsInf=   1.9740)
 G2PCM: DoFxE=T DoFxN=T DoGrad=T DoDP/DQ/DG/TGxP=FFFF NFrqRd=   0 IEInf=0 SqF1=F DoCFld=F IF1Alg=4.
 End of G2Drv F.D. properties file   721 does not exist.
 End of G2Drv F.D. properties file   722 does not exist.
 End of G2Drv F.D. properties file   788 does not exist.
          IDoAtm=1111111111111111
 NEqPCM:  Using equilibrium solvation (IEInf=0, Eps=   7.4257, EpsInf=   1.9740)
          Differentiating once with respect to nuclear coordinates.
 Keep R1 ints in memory in canonical form, NReq=724819200.
          There are    51 degrees of freedom in the 1st order CPHF.  IDoFFX=6 NUNeed=     0.
     45 vectors produced by pass  0 Test12= 1.82D-14 1.96D-09 XBig12= 1.45D-01 1.07D-01.
 AX will form    45 AO Fock derivatives at one time.
     45 vectors produced by pass  1 Test12= 1.82D-14 1.96D-09 XBig12= 1.01D-02 3.25D-02.
     45 vectors produced by pass  2 Test12= 1.82D-14 1.96D-09 XBig12= 2.77D-04 3.34D-03.
     45 vectors produced by pass  3 Test12= 1.82D-14 1.96D-09 XBig12= 2.32D-06 2.99D-04.
     45 vectors produced by pass  4 Test12= 1.82D-14 1.96D-09 XBig12= 2.51D-08 2.17D-05.
     45 vectors produced by pass  5 Test12= 1.82D-14 1.96D-09 XBig12= 1.58D-10 1.54D-06.
     43 vectors produced by pass  6 Test12= 1.82D-14 1.96D-09 XBig12= 7.60D-13 9.68D-08.
     11 vectors produced by pass  7 Test12= 1.82D-14 1.96D-09 XBig12= 3.29D-15 6.03D-09.
 InvSVY:  IOpt=1 It=  1 EMax= 5.00D-16
 Solved reduced A of dimension   324 with    51 vectors.
 End of Minotr F.D. properties file   721 does not exist.
 End of Minotr F.D. properties file   722 does not exist.
 End of Minotr F.D. properties file   788 does not exist.

 **********************************************************************

            Population analysis using the SCF Density.

 **********************************************************************

 Alpha  occ. eigenvalues --  -25.26643 -25.26494 -19.64135 -19.63627 -10.64466
 Alpha  occ. eigenvalues --  -10.64359 -10.56355 -10.56014 -10.55565 -10.55107
 Alpha  occ. eigenvalues --   -7.09209  -1.38852  -1.38731  -1.17313  -1.13678
 Alpha  occ. eigenvalues --   -0.98635  -0.87014  -0.86361  -0.73512  -0.72840
 Alpha  occ. eigenvalues --   -0.67423  -0.65229  -0.62952  -0.61417  -0.58850
 Alpha  occ. eigenvalues --   -0.58684  -0.57626  -0.57623  -0.54177  -0.52367
 Alpha  occ. eigenvalues --   -0.48577  -0.47763  -0.46752  -0.46522  -0.44855
 Alpha  occ. eigenvalues --   -0.43852  -0.41019  -0.40181  -0.32601  -0.31315
 Alpha virt. eigenvalues --   -0.01639  -0.00021   0.01740   0.01976   0.02179
 Alpha virt. eigenvalues --    0.02974   0.04119   0.04401   0.05818   0.06717
 Alpha virt. eigenvalues --    0.07446   0.07644   0.09387   0.10940   0.11139
 Alpha virt. eigenvalues --    0.12226   0.13003   0.13292   0.13581   0.14002
 Alpha virt. eigenvalues --    0.14553   0.15161   0.16247   0.16612   0.16750
 Alpha virt. eigenvalues --    0.17566   0.18073   0.18632   0.19317   0.20271
 Alpha virt. eigenvalues --    0.21976   0.22141   0.22868   0.23580   0.23962
 Alpha virt. eigenvalues --    0.24397   0.24883   0.24994   0.25583   0.25874
 Alpha virt. eigenvalues --    0.26410   0.28440   0.29305   0.30130   0.31880
 Alpha virt. eigenvalues --    0.32856   0.33847   0.35013   0.36305   0.36811
 Alpha virt. eigenvalues --    0.36993   0.37450   0.39717   0.40924   0.42557
 Alpha virt. eigenvalues --    0.43017   0.43596   0.44538   0.45105   0.47160
 Alpha virt. eigenvalues --    0.48290   0.49844   0.50585   0.51187   0.53604
 Alpha virt. eigenvalues --    0.55786   0.57833   0.59524   0.59817   0.60823
 Alpha virt. eigenvalues --    0.61694   0.62010   0.64207   0.64683   0.66677
 Alpha virt. eigenvalues --    0.67522   0.68877   0.70603   0.71813   0.73644
 Alpha virt. eigenvalues --    0.74831   0.78096   0.78211   0.80046   0.83803
 Alpha virt. eigenvalues --    0.83946   0.85555   0.89170   0.91204   0.94070
 Alpha virt. eigenvalues --    0.94673   0.94823   0.95932   0.98323   1.00824
 Alpha virt. eigenvalues --    1.02422   1.04115   1.05464   1.07994   1.09870
 Alpha virt. eigenvalues --    1.11158   1.12195   1.12341   1.12996   1.15607
 Alpha virt. eigenvalues --    1.16535   1.19893   1.25188   1.25939   1.31733
 Alpha virt. eigenvalues --    1.33109   1.34596   1.39325   1.42959   1.45750
 Alpha virt. eigenvalues --    1.46606   1.46736   1.49616   1.49931   1.51673
 Alpha virt. eigenvalues --    1.51857   1.53454   1.56668   1.58679   1.60626
 Alpha virt. eigenvalues --    1.61306   1.61698   1.62919   1.63973   1.64638
 Alpha virt. eigenvalues --    1.68699   1.69711   1.70669   1.76979   1.79997
 Alpha virt. eigenvalues --    1.84106   1.89774   1.92769   1.93688   1.94446
 Alpha virt. eigenvalues --    1.95853   1.97004   1.99540   2.00343   2.03645
 Alpha virt. eigenvalues --    2.04284   2.05917   2.10775   2.11826   2.13181
 Alpha virt. eigenvalues --    2.15449   2.16917   2.20818   2.22276   2.29662
 Alpha virt. eigenvalues --    2.34395   2.38307   2.49379   2.50428   2.57217
 Alpha virt. eigenvalues --    2.58994   2.63277   2.65014   2.66006   2.69342
 Alpha virt. eigenvalues --    2.70381   2.75023   2.76416   2.79254   2.79640
 Alpha virt. eigenvalues --    2.80461   2.81280   2.84733   2.92037   2.93745
 Alpha virt. eigenvalues --    3.06777   3.10959   3.12686   3.19018   3.23916
 Alpha virt. eigenvalues --    3.25092   3.26589   3.27696   3.31820   3.38211
 Alpha virt. eigenvalues --    3.43132   3.45639   3.52820   3.59564   3.65163
 Alpha virt. eigenvalues --    3.65278   3.69903   3.76936   3.87329   3.87484
 Alpha virt. eigenvalues --    3.91366   3.93600   3.93994   3.95803   4.07453
 Alpha virt. eigenvalues --    4.07821   4.07905   4.17695   4.19196   4.21442
 Alpha virt. eigenvalues --    4.23151   4.85331   4.93395   4.94295   5.08062
 Alpha virt. eigenvalues --    5.08937   5.38893   5.48836   5.68793   5.76777
 Alpha virt. eigenvalues --    6.45209   6.46097   6.57830   6.58407   6.85195
 Alpha virt. eigenvalues --    6.91066  14.78886  23.61205  23.95118  24.01986
 Alpha virt. eigenvalues --   24.15046  24.15404  24.24762  49.99921  50.05082
 Alpha virt. eigenvalues --   66.92504  66.93681
          Condensed to atoms (all electrons):
               1          2          3          4          5          6
     1  O    7.802192   0.281973   0.014093   0.440112  -0.119795   0.016475
     2  H    0.281973   0.413044   0.040171  -0.006423  -0.029671   0.002722
     3  C    0.014093   0.040171   8.857628   0.145291  -0.151707  -0.000784
     4  B    0.440112  -0.006423   0.145291   3.335480   0.380502   0.013108
     5  O   -0.119795  -0.029671  -0.151707   0.380502   7.984039   0.272269
     6  H    0.016475   0.002722  -0.000784   0.013108   0.272269   0.392985
     7  C    0.041903   0.000787  -1.107457   0.159795  -0.028590  -0.023884
     8  H    0.001656  -0.000033   0.072707   0.008740  -0.001737   0.006619
     9  C    0.033548   0.003508   0.015287  -0.027106   0.037655   0.032429
    10  C   -0.008180  -0.000267  -1.314263   0.089767   0.000430   0.001512
    11  C    0.020279  -0.016983   0.008831  -0.085446   0.041494  -0.009839
    12  C   -0.120270  -0.021651  -0.271908   0.026000   0.026193   0.006130
    13  H    0.005662  -0.000269   0.103316  -0.006746   0.002036  -0.000066
    14  H    0.000006   0.000000   0.024401   0.000116   0.000008  -0.000001
    15  F   -0.000026   0.000000  -0.017047  -0.001585   0.000422   0.000053
    16  F    0.000744  -0.000001  -0.002010  -0.001570  -0.000085   0.000005
               7          8          9         10         11         12
     1  O    0.041903   0.001656   0.033548  -0.008180   0.020279  -0.120270
     2  H    0.000787  -0.000033   0.003508  -0.000267  -0.016983  -0.021651
     3  C   -1.107457   0.072707   0.015287  -1.314263   0.008831  -0.271908
     4  B    0.159795   0.008740  -0.027106   0.089767  -0.085446   0.026000
     5  O   -0.028590  -0.001737   0.037655   0.000430   0.041494   0.026193
     6  H   -0.023884   0.006619   0.032429   0.001512  -0.009839   0.006130
     7  C   11.604536   0.337492  -1.802811  -0.825178  -0.469658  -1.535536
     8  H    0.337492   0.459424  -0.022990  -0.028800  -0.000179  -0.015804
     9  C   -1.802811  -0.022990   8.661935  -0.664480   0.376801  -0.983190
    10  C   -0.825178  -0.028800  -0.664480   9.898482  -0.711453  -0.641222
    11  C   -0.469658  -0.000179   0.376801  -0.711453   8.845642  -2.290996
    12  C   -1.535536  -0.015804  -0.983190  -0.641222  -2.290996  11.834661
    13  H   -0.006873  -0.000014   0.004000  -0.035821  -0.055153   0.347442
    14  H   -0.037774  -0.000051   0.015174   0.384327   0.016554  -0.036086
    15  F   -0.257871  -0.004760   0.516737  -0.255627   0.012280  -0.002021
    16  F   -0.007370   0.000101   0.013194  -0.265907   0.480710  -0.224449
              13         14         15         16
     1  O    0.005662   0.000006  -0.000026   0.000744
     2  H   -0.000269   0.000000   0.000000  -0.000001
     3  C    0.103316   0.024401  -0.017047  -0.002010
     4  B   -0.006746   0.000116  -0.001585  -0.001570
     5  O    0.002036   0.000008   0.000422  -0.000085
     6  H   -0.000066  -0.000001   0.000053   0.000005
     7  C   -0.006873  -0.037774  -0.257871  -0.007370
     8  H   -0.000014  -0.000051  -0.004760   0.000101
     9  C    0.004000   0.015174   0.516737   0.013194
    10  C   -0.035821   0.384327  -0.255627  -0.265907
    11  C   -0.055153   0.016554   0.012280   0.480710
    12  C    0.347442  -0.036086  -0.002021  -0.224449
    13  H    0.435792  -0.000021   0.000086  -0.005301
    14  H   -0.000021   0.426843  -0.004887  -0.005005
    15  F    0.000086  -0.004887   9.212601  -0.000766
    16  F   -0.005301  -0.005005  -0.000766   9.214322
 Mulliken charges:
               1
     1  O   -0.410372
     2  H    0.333093
     3  C   -0.416549
     4  B    0.529967
     5  O   -0.413462
     6  H    0.290268
     7  C   -0.041509
     8  H    0.187631
     9  C   -0.209691
    10  C    0.376680
    11  C   -0.162885
    12  C   -0.097293
    13  H    0.211929
    14  H    0.216397
    15  F   -0.197589
    16  F   -0.196613
 Sum of Mulliken charges =   0.00000
 Mulliken charges with hydrogens summed into heavy atoms:
               1
     1  O   -0.077279
     3  C   -0.416549
     4  B    0.529967
     5  O   -0.123194
     7  C    0.146121
     9  C   -0.209691
    10  C    0.593076
    11  C   -0.162885
    12  C    0.114636
    15  F   -0.197589
    16  F   -0.196613
 APT charges:
               1
     1  O   -0.608763
     2  H    2.117922
     3  C   -1.812005
     4  B   -0.333676
     5  O    1.292277
     6  H   -1.165655
     7  C   -0.352679
     8  H   -0.187724
     9  C    0.095515
    10  C   -0.405049
    11  C   -1.161611
    12  C    1.065420
    13  H    1.987685
    14  H   -0.184270
    15  F   -0.309749
    16  F   -0.037637
 Sum of APT charges =   0.00000
 APT charges with hydrogens summed into heavy atoms:
               1
     1  O    1.509158
     3  C   -1.812005
     4  B   -0.333676
     5  O    0.126622
     7  C   -0.540403
     9  C    0.095515
    10  C   -0.589319
    11  C   -1.161611
    12  C    3.053105
    15  F   -0.309749
    16  F   -0.037637
 Electronic spatial extent (au):  <R**2>=          32629.5105
 Charge=              0.0000 electrons
 Dipole moment (field-independent basis, Debye):
    X=              0.7218    Y=             -1.7372    Z=              1.4210  Tot=              2.3576
 Quadrupole moment (field-independent basis, Debye-Ang):
   XX=            -51.6263   YY=            -88.4443   ZZ=            -47.9311
   XY=             -6.5369   XZ=             13.9284   YZ=              0.7537
 Traceless Quadrupole moment (field-independent basis, Debye-Ang):
   XX=             11.0409   YY=            -25.7771   ZZ=             14.7361
   XY=             -6.5369   XZ=             13.9284   YZ=              0.7537
 Octapole moment (field-independent basis, Debye-Ang**2):
  XXX=           -919.1258  YYY=          -1658.1067  ZZZ=           -805.6626  XYY=           -486.8050
  XXY=           -430.7889  XXZ=           -181.3291  XZZ=           -233.9660  YZZ=           -402.3461
  YYZ=           -360.3495  XYZ=             40.5655
 Hexadecapole moment (field-independent basis, Debye-Ang**3):
 XXXX=         -11440.8823 YYYY=         -23471.7975 ZZZZ=          -8585.8822 XXXY=          -6804.2105
 XXXZ=          -4161.8817 YYYX=          -9276.4055 YYYZ=          -7296.7590 ZZZX=          -4559.7323
 ZZZY=          -5998.4437 XXYY=          -5871.0942 XXZZ=          -2811.7990 YYZZ=          -4869.5165
 XXYZ=          -1524.6676 YYXZ=          -1889.2785 ZZXY=          -1997.5425
 N-N= 5.677480014486D+02 E-N=-2.563119676914D+03  KE= 6.048356766712D+02
  Exact polarizability:       0.000       0.000       0.000       0.000       0.000       0.000
 Approx polarizability:     122.191       7.227     112.860      13.971     -23.297      80.912
 D2PCM: PCM CHGder 2nd derivatives, FixD1E=F FixD2E=F DoIter=F DoCFld=F I1PDM=0
 Calling FoFJK, ICntrl=    100127 FMM=F ISym2X=0 I1Cent= 0 IOpClX= 0 NMat=1 NMatS=1 NMatT=0.
 -------------------------------------------------------------------
 Center     Atomic                   Forces (Hartrees/Bohr)
 Number     Number              X              Y              Z
 -------------------------------------------------------------------
      1        8          -0.001055220    0.001714223   -0.001611406
      2        1           0.002531905   -0.000691844    0.001213591
      3        6          -0.000921929    0.000011249   -0.000385720
      4        5          -0.000478410   -0.001926327    0.001234527
      5        8           0.002611256    0.002785866   -0.001018554
      6        1          -0.003002996   -0.002158912    0.000514016
      7        6          -0.000858185   -0.001471115    0.000351187
      8        1           0.000569256   -0.000470546    0.000606127
      9        6           0.005103782    0.003833754   -0.000418266
     10        6          -0.000693339    0.000395279   -0.000351284
     11        6           0.000510880   -0.005630001    0.002973399
     12        6          -0.000301692    0.000784433   -0.000514740
     13        1          -0.000036182    0.000682977   -0.000261662
     14        1          -0.000774894    0.000292846   -0.000406320
     15        9          -0.002873841   -0.002048560    0.000143506
     16        9          -0.000330390    0.003896677   -0.002068401
 -------------------------------------------------------------------
 Cartesian Forces:  Max     0.005630001 RMS     0.001892185
 FormGI is forming the generalized inverse of G from B-inverse, IUseBI=4.

 GradGradGradGradGradGradGradGradGradGradGradGradGradGradGradGradGradGrad
 Berny optimization.
 Internal  Forces:  Max     0.004430170 RMS     0.001022353
 Search for a local minimum.
 Step number   1 out of a maximum of   81
 All quantities printed in internal units (Hartrees-Bohrs-Radians)
 Mixed Optimization -- RFO/linear search
 Second derivative matrix not updated -- analytic derivatives used.
 ITU=  0
     Eigenvalues ---   -0.00125   0.00953   0.01233   0.01441   0.01698
     Eigenvalues ---    0.01731   0.02100   0.02364   0.02394   0.02638
     Eigenvalues ---    0.03383   0.03625   0.03842   0.09841   0.10538
     Eigenvalues ---    0.10982   0.11271   0.11672   0.15967   0.17347
     Eigenvalues ---    0.17700   0.18291   0.18619   0.19453   0.20338
     Eigenvalues ---    0.23314   0.29076   0.30219   0.36198   0.36833
     Eigenvalues ---    0.37117   0.38396   0.39250   0.40084   0.44817
     Eigenvalues ---    0.47041   0.49050   0.49507   0.49740   0.54270
     Eigenvalues ---    0.54613   0.55612
 RFO step:  Lambda=-1.24772974D-03 EMin=-1.24737509D-03
 I=     1 Eig=   -1.25D-03 Dot1= -1.14D-05
 I=     1 Stepn= -6.00D-01 RXN=   6.00D-01 EDone=F
 Mixed    1 eigenvectors in step.  Raw Step.Grad=  1.14D-05.
 RFO eigenvector is Hessian eigenvector with negative curvature.
 Taking step of  6.00D-01 in eigenvector direction(s).  Step.Grad= -8.45D-04.
 Linear search not attempted -- first point.
 Iteration  1 RMS(Cart)=  0.11786943 RMS(Int)=  0.02332366
 Iteration  2 RMS(Cart)=  0.05333590 RMS(Int)=  0.00113787
 Iteration  3 RMS(Cart)=  0.00180359 RMS(Int)=  0.00003232
 Iteration  4 RMS(Cart)=  0.00000144 RMS(Int)=  0.00003230
 Iteration  5 RMS(Cart)=  0.00000000 RMS(Int)=  0.00003230
 Variable       Old X    -DE/DX   Delta X   Delta X   Delta X     New X
                                 (Linear)    (Quad)   (Total)
    R1        1.81717   0.00290   0.00000  -0.00013  -0.00013   1.81704
    R2        2.56911   0.00180   0.00000   0.00055   0.00055   2.56966
    R3        2.97103   0.00073   0.00000   0.00059   0.00059   2.97162
    R4        2.64173   0.00008   0.00000   0.00025   0.00026   2.64199
    R5        2.64219   0.00098   0.00000   0.00047   0.00046   2.64266
    R6        2.58005  -0.00083   0.00000  -0.00186  -0.00186   2.57819
    R7        1.81121   0.00375   0.00000  -0.00079  -0.00079   1.81042
    R8        2.04957   0.00071   0.00000   0.00087   0.00087   2.05044
    R9        2.61377   0.00003   0.00000   0.00018   0.00020   2.61397
   R10        2.61368  -0.00008   0.00000   0.00026   0.00026   2.61394
   R11        2.53560   0.00352   0.00000  -0.00014  -0.00014   2.53545
   R12        2.61670  -0.00080   0.00000  -0.00019  -0.00020   2.61650
   R13        2.04410   0.00092   0.00000   0.00004   0.00004   2.04414
   R14        2.61240  -0.00057   0.00000  -0.00041  -0.00043   2.61197
   R15        2.53373   0.00443   0.00000   0.00010   0.00010   2.53383
   R16        2.04624   0.00043   0.00000   0.00011   0.00011   2.04635
    A1        1.96388   0.00033   0.00000  -0.00090  -0.00090   1.96298
    A2        2.13250  -0.00083   0.00000   0.00519   0.00515   2.13765
    A3        2.07182   0.00073   0.00000  -0.00478  -0.00482   2.06700
    A4        2.07887   0.00011   0.00000  -0.00041  -0.00045   2.07841
    A5        2.05344   0.00027   0.00000  -0.00221  -0.00227   2.05117
    A6        2.06497   0.00031   0.00000  -0.00452  -0.00458   2.06039
    A7        2.16477  -0.00058   0.00000   0.00681   0.00675   2.17153
    A8        2.01019  -0.00009   0.00000   0.00818   0.00818   2.01837
    A9        2.14403  -0.00005   0.00000   0.00377   0.00366   2.14770
   A10        2.08431  -0.00112   0.00000  -0.00023  -0.00031   2.08400
   A11        2.05481   0.00117   0.00000  -0.00333  -0.00344   2.05137
   A12        2.14026   0.00150   0.00000   0.00027   0.00028   2.14054
   A13        2.07726  -0.00049   0.00000   0.00003   0.00003   2.07729
   A14        2.06566  -0.00101   0.00000  -0.00030  -0.00030   2.06536
   A15        2.03849  -0.00108   0.00000   0.00014   0.00013   2.03861
   A16        2.12184   0.00064   0.00000  -0.00026  -0.00026   2.12158
   A17        2.12286   0.00044   0.00000   0.00012   0.00013   2.12299
   A18        2.14293   0.00085   0.00000  -0.00047  -0.00050   2.14243
   A19        2.05978  -0.00026   0.00000   0.00036   0.00038   2.06016
   A20        2.08047  -0.00059   0.00000   0.00011   0.00013   2.08060
   A21        2.08150  -0.00025   0.00000   0.00082   0.00078   2.08228
   A22        2.10921   0.00071   0.00000  -0.00113  -0.00114   2.10807
   A23        2.09248  -0.00046   0.00000   0.00032   0.00031   2.09280
    D1        3.12535   0.00004   0.00000   0.02959   0.02954  -3.12830
    D2       -0.01206  -0.00004   0.00000   0.01059   0.01064  -0.00142
    D3        3.03536  -0.00002   0.00000   0.27345   0.27343  -2.97440
    D4       -0.11068   0.00006   0.00000   0.29360   0.29362   0.18294
    D5       -0.10633  -0.00007   0.00000   0.29100   0.29098   0.18465
    D6        3.03082   0.00002   0.00000   0.31115   0.31117  -2.94120
    D7       -0.01464   0.00006   0.00000   0.05953   0.05961   0.04497
    D8        3.13631  -0.00001   0.00000   0.03327   0.03330  -3.11357
    D9        3.12705   0.00010   0.00000   0.04192   0.04195  -3.11419
   D10       -0.00519   0.00003   0.00000   0.01566   0.01565   0.01046
   D11       -3.13473   0.00002   0.00000  -0.03816  -0.03810   3.11035
   D12        0.00578  -0.00002   0.00000  -0.02739  -0.02735  -0.02157
   D13        0.00677  -0.00002   0.00000  -0.02117  -0.02116  -0.01439
   D14       -3.13590  -0.00006   0.00000  -0.01039  -0.01041   3.13688
   D15        3.09531   0.00020   0.00000   0.05938   0.05939  -3.12848
   D16       -0.04180   0.00012   0.00000   0.03910   0.03910  -0.00271
   D17        0.00117  -0.00002   0.00000   0.00002   0.00002   0.00119
   D18        3.14071   0.00001   0.00000   0.00154   0.00152  -3.14095
   D19       -3.13154  -0.00008   0.00000  -0.02494  -0.02488   3.12676
   D20        0.00800  -0.00005   0.00000  -0.02342  -0.02337  -0.01538
   D21        0.00123   0.00000   0.00000  -0.00977  -0.00977  -0.00853
   D22       -3.14155   0.00002   0.00000  -0.00732  -0.00733   3.13431
   D23       -3.13832  -0.00003   0.00000  -0.01128  -0.01126   3.13360
   D24        0.00208  -0.00002   0.00000  -0.00883  -0.00882  -0.00674
   D25        0.00045   0.00001   0.00000   0.00391   0.00391   0.00436
   D26        3.14099   0.00003   0.00000   0.00294   0.00294  -3.13926
   D27       -3.13995  -0.00001   0.00000   0.00146   0.00146  -3.13848
   D28        0.00058   0.00001   0.00000   0.00049   0.00049   0.00108
   D29       -0.00449   0.00001   0.00000   0.01151   0.01152   0.00703
   D30        3.13817   0.00004   0.00000   0.00085   0.00086   3.13903
   D31        3.13818  -0.00002   0.00000   0.01250   0.01250  -3.13251
   D32       -0.00235   0.00002   0.00000   0.00183   0.00184  -0.00050
         Item               Value     Threshold  Converged?
 Maximum Force            0.004430     0.000015     NO 
 RMS     Force            0.001022     0.000010     NO 
 Maximum Displacement     0.751300     0.000060     NO 
 RMS     Displacement     0.168088     0.000040     NO 
 Predicted change in Energy=-2.359139D-04
 GradGradGradGradGradGradGradGradGradGradGradGradGradGradGradGradGradGrad

                          Input orientation:                          
 ---------------------------------------------------------------------
 Center     Atomic      Atomic             Coordinates (Angstroms)
 Number     Number       Type             X           Y           Z
 ---------------------------------------------------------------------
      1          8           0        8.598667    7.589598    5.801898
      2          1           0        9.425340    7.281602    6.184394
      3          6           0        6.227469    7.011707    5.217414
      4          5           0        7.626553    6.639221    5.831107
      5          8           0        7.932590    5.424829    6.372367
      6          1           0        7.226128    4.777772    6.365138
      7          6           0        5.101958    6.195429    5.364206
      8          1           0        5.108313    5.276900    5.941774
      9          6           0        3.910189    6.568507    4.769322
     10          6           0        3.778461    7.726697    4.024616
     11          6           0        4.905363    8.521799    3.902137
     12          6           0        6.117320    8.195439    4.481030
     13          1           0        6.970322    8.850249    4.353560
     14          1           0        2.839395    7.998183    3.561416
     15          9           0        2.834716    5.779789    4.915792
     16          9           0        4.804710    9.651977    3.187691
 ---------------------------------------------------------------------
                    Distance matrix (angstroms):
                    1          2          3          4          5
     1  O    0.000000
     2  H    0.961537   0.000000
     3  C    2.509614   3.351757   0.000000
     4  B    1.359807   1.942447   1.572515   0.000000
     5  O    2.335662   2.389821   2.599911   1.364320   0.000000
     6  H    3.179225   3.337420   2.702787   1.977505   0.958031
     7  C    3.789757   4.532562   1.398082   2.605481   3.102046
     8  H    4.189357   4.765965   2.187867   2.865258   2.860740
     9  C    4.908225   5.738277   2.401457   3.865715   4.478556
    10  C    5.139252   6.062177   2.816312   4.387918   5.297860
    11  C    4.256593   5.213154   2.399644   3.830130   4.985715
    12  C    2.875555   3.831389   1.398433   2.553880   3.814268
    13  H    2.517625   3.440890   2.162941   2.739056   4.090849
    14  H    6.193215   7.125179   3.898013   5.469475   6.361150
    15  F    6.106040   6.877581   3.622066   4.953597   5.313748
    16  F    5.047930   5.995759   3.621469   4.901749   6.147729
                    6          7          8          9         10
     6  H    0.000000
     7  C    2.742939   0.000000
     8  H    2.216643   1.085044   0.000000
     9  C    4.092532   1.383253   2.116222   0.000000
    10  C    5.104960   2.427123   3.383121   1.383237   0.000000
    11  C    5.046787   2.754685   3.838056   2.357484   1.384592
    12  C    4.057064   2.410602   3.416100   2.757073   2.428641
    13  H    4.549391   3.400038   4.331088   3.839742   3.399786
    14  H    6.121710   3.408689   4.268427   2.156295   1.081713
    15  F    4.731716   2.348237   2.544558   1.341704   2.339936
    16  F    6.302167   4.095521   5.178653   3.579038   2.336735
                   11         12         13         14         15
    11  C    0.000000
    12  C    1.382196   0.000000
    13  H    2.139092   1.082883   0.000000
    14  H    2.158353   3.410189   4.291627   0.000000
    15  F    3.582414   4.098765   5.181415   2.599159   0.000000
    16  F    1.340846   2.348866   2.586869   2.595605   4.675580
                   16
    16  F    0.000000
 Symmetry turned off by external request.
 Stoichiometry    C6H5BF2O2
 Framework group  C1[X(C6H5BF2O2)]
 Deg. of freedom    42
 Full point group                 C1      NOp   1
 Rotational constants (GHZ):           1.5136814           0.7877775           0.5196970
 Standard basis: 6-311+G(d,p) (5D, 7F)
   272 basis functions,   436 primitive gaussians,   283 cartesian basis functions
    40 alpha electrons       40 beta electrons
       nuclear repulsion energy       567.6530799339 Hartrees.
 NAtoms=   16 NActive=   16 NUniq=   16 SFac= 1.00D+00 NAtFMM=   60 NAOKFM=F Big=F
 Integral buffers will be    131072 words long.
 Raffenetti 2 integral format.
 Two-electron integral symmetry is turned off.
 ------------------------------------------------------------------------------
 Polarizable Continuum Model (PCM)
 =================================
 Model                : PCM.
 Atomic radii         : SMD-Coulomb.
 Polarization charges : Total charges.
 Charge compensation  : None.
 Solution method      : Matrix inversion.
 Cavity type          : VdW (van der Waals Surface) (Alpha=1.000).
 Cavity algorithm     : GePol (No added spheres)
                        Default sphere list used, NSphG=   16.
                        Lebedev-Laikov grids with approx.  5.0 points / Ang**2.
                        Smoothing algorithm: York/Karplus (Gamma=1.0000).
                        Polarization charges: spherical gaussians, with
                                              point-specific exponents (IZeta= 3).
                        Self-potential: point-specific (ISelfS= 7).
                        Self-field    : sphere-specific E.n sum rule (ISelfD= 2).
 1st derivatives      : Analytical E(r).r(x)/FMM algorithm (CHGder, D1EAlg=3).
                        Cavity 1st derivative terms included.
 Solvent              : TetraHydroFuran, Eps=   7.425700 Eps(inf)=   1.974025
 ------------------------------------------------------------------------------
 Spheres list:
 ISph  on   Nord     Re0    Alpha      Xe            Ye            Ze
    1   O      1    2.2940  1.000      8.598667      7.589598      5.801898
    2   H      2    1.2000  1.000      9.425340      7.281602      6.184394
    3   C      3    1.8500  1.000      6.227469      7.011707      5.217414
    4   B      4    1.8000  1.000      7.626553      6.639221      5.831107
    5   O      5    2.2940  1.000      7.932590      5.424829      6.372367
    6   H      6    1.2000  1.000      7.226128      4.777772      6.365138
    7   C      7    1.8500  1.000      5.101958      6.195429      5.364206
    8   H      8    1.2000  1.000      5.108313      5.276900      5.941774
    9   C      9    1.8500  1.000      3.910189      6.568507      4.769322
   10   C     10    1.8500  1.000      3.778461      7.726697      4.024616
   11   C     11    1.8500  1.000      4.905363      8.521799      3.902137
   12   C     12    1.8500  1.000      6.117320      8.195439      4.481030
   13   H     13    1.2000  1.000      6.970322      8.850249      4.353560
   14   H     14    1.2000  1.000      2.839395      7.998183      3.561416
   15   F     15    1.7300  1.000      2.834716      5.779789      4.915792
   16   F     16    1.7300  1.000      4.804710      9.651977      3.187691
 ------------------------------------------------------------------------------
 ------------------------------------------------------------------------------
 Atomic radii for non-electrostatic terms: SMD-CDS.
 ------------------------------------------------------------------------------
 Nuclear repulsion after PCM non-electrostatic terms =      567.6510531512 Hartrees.
 One-electron integrals computed using PRISM.
 NBasis=   272 RedAO= T EigKep=  3.27D-06  NBF=   272
 NBsUse=   272 1.00D-06 EigRej= -1.00D+00 NBFU=   272
 Initial guess from the checkpoint file:  "3-5-diF-phboh2-opt-freq-thf.chk"
 B after Tr=    -0.145379   -0.091453    0.331786
         Rot=    0.999936    0.010426   -0.001483    0.004135 Ang=   1.30 deg.
 ExpMin= 3.15D-02 ExpMax= 1.14D+04 ExpMxC= 1.72D+03 IAcc=3 IRadAn=         5 AccDes= 0.00D+00
 Harris functional with IExCor= 1009 and IRadAn=       5 diagonalized for initial guess.
 HarFok:  IExCor= 1009 AccDes= 0.00D+00 IRadAn=         5 IDoV= 1 UseB2=F ITyADJ=14
 ICtDFT=  3500011 ScaDFX=  1.000000  1.000000  1.000000  1.000000
 FoFCou: FMM=F IPFlag=           0 FMFlag=      100000 FMFlg1=           0
         NFxFlg=           0 DoJE=T BraDBF=F KetDBF=T FulRan=T
         wScrn=  0.000000 ICntrl=       500 IOpCl=  0 I1Cent=   200000004 NGrid=           0
         NMat0=    1 NMatS0=      1 NMatT0=    0 NMatD0=    1 NMtDS0=    0 NMtDT0=    0
 Symmetry not used in FoFCou.
 Requested convergence on RMS density matrix=1.00D-08 within 128 cycles.
 Requested convergence on MAX density matrix=1.00D-06.
 Requested convergence on             energy=1.00D-06.
 Level shift goal  0.100 maximum shift  0.100.
 No special actions if energy rises.
 Dynamic level shift is on during FON iterations.
 Inv3:  Mode=1 IEnd=     6553452.
 Iteration    1 A*A^-1 deviation from unit magnitude is 6.33D-15 for   1474.
 Iteration    1 A*A^-1 deviation from orthogonality  is 2.45D-15 for   1474   1359.
 Iteration    1 A^-1*A deviation from unit magnitude is 6.33D-15 for   1474.
 Iteration    1 A^-1*A deviation from orthogonality  is 3.17D-14 for    670    648.
 Error on total polarization charges =  0.01785
 SCF Done:  E(RM062X) =  -606.719755551     A.U. after   13 cycles
            NFock= 13  Conv=0.93D-08     -V/T= 2.0031
 SMD-CDS (non-electrostatic) energy       (kcal/mol) =      -1.27
 (included in total energy above)
 D1PCM: PCM CHGder 1st derivatives, ID1Alg=3 FixD1E=F DoIter=F DoCFld=F I1PDM=0.
 Calling FoFJK, ICntrl=      2127 FMM=F ISym2X=0 I1Cent= 0 IOpClX= 0 NMat=1 NMatS=1 NMatT=0.
 -------------------------------------------------------------------
 Center     Atomic                   Forces (Hartrees/Bohr)
 Number     Number              X              Y              Z
 -------------------------------------------------------------------
      1        8          -0.001273717    0.002332191   -0.001186590
      2        1           0.002655699   -0.000854552    0.000942897
      3        6          -0.000859917   -0.000254528   -0.000455337
      4        5          -0.000234534   -0.001525665    0.000684461
      5        8           0.002741528    0.002518124    0.001068321
      6        1          -0.003444641   -0.002538588   -0.000716731
      7        6          -0.001384041   -0.001573850    0.000999449
      8        1           0.001095273   -0.000359793   -0.000207354
      9        6           0.005316644    0.004020533   -0.000844642
     10        6          -0.000837654    0.000431359   -0.000262961
     11        6           0.000235791   -0.005531369    0.003310044
     12        6           0.000107388    0.000549244   -0.000654953
     13        1          -0.000090175    0.000656164   -0.000382186
     14        1          -0.000794740    0.000338310   -0.000344235
     15        9          -0.002966346   -0.001976733    0.000370682
     16        9          -0.000266557    0.003769152   -0.002320865
 -------------------------------------------------------------------
 Cartesian Forces:  Max     0.005531369 RMS     0.001957884

 GradGradGradGradGradGradGradGradGradGradGradGradGradGradGradGradGradGrad
 Berny optimization.
 Using GEDIIS/GDIIS optimizer.
 FormGI is forming the generalized inverse of G from B-inverse, IUseBI=4.
 Internal  Forces:  Max     0.004433210 RMS     0.001120109
 Search for a local minimum.
 Step number   2 out of a maximum of   81
 All quantities printed in internal units (Hartrees-Bohrs-Radians)
 Mixed Optimization -- RFO/linear search
 Update second derivatives using D2CorX and points    2    1
 ITU=  0  0
 Use linear search instead of GDIIS.
     Eigenvalues ---    0.00073   0.00988   0.01321   0.01513   0.01700
     Eigenvalues ---    0.01757   0.02106   0.02364   0.02402   0.02715
     Eigenvalues ---    0.03391   0.03626   0.03846   0.09841   0.10703
     Eigenvalues ---    0.11018   0.11281   0.11885   0.15982   0.17356
     Eigenvalues ---    0.17731   0.18329   0.18626   0.19973   0.20422
     Eigenvalues ---    0.23314   0.29155   0.30231   0.36229   0.36852
     Eigenvalues ---    0.37118   0.38450   0.39264   0.40090   0.44820
     Eigenvalues ---    0.47060   0.49053   0.49535   0.49900   0.54271
     Eigenvalues ---    0.54613   0.55703
 RFO step:  Lambda=-2.55133384D-04 EMin= 7.25038063D-04
 Quartic linear search produced a step of -0.60202.
 Iteration  1 RMS(Cart)=  0.07913568 RMS(Int)=  0.00252590
 Iteration  2 RMS(Cart)=  0.00403564 RMS(Int)=  0.00001252
 Iteration  3 RMS(Cart)=  0.00000690 RMS(Int)=  0.00001121
 Iteration  4 RMS(Cart)=  0.00000000 RMS(Int)=  0.00001121
 Variable       Old X    -DE/DX   Delta X   Delta X   Delta X     New X
                                 (Linear)    (Quad)   (Total)
    R1        1.81704   0.00293   0.00008   0.00531   0.00539   1.82243
    R2        2.56966   0.00203  -0.00033   0.00387   0.00354   2.57320
    R3        2.97162   0.00072  -0.00035   0.00392   0.00357   2.97519
    R4        2.64199  -0.00007  -0.00016   0.00140   0.00124   2.64323
    R5        2.64266   0.00097  -0.00028   0.00157   0.00130   2.64395
    R6        2.57819   0.00000   0.00112  -0.00221  -0.00109   2.57710
    R7        1.81042   0.00426   0.00048   0.00707   0.00755   1.81796
    R8        2.05044   0.00020  -0.00052   0.00094   0.00042   2.05085
    R9        2.61397  -0.00001  -0.00012  -0.00110  -0.00122   2.61275
   R10        2.61394  -0.00028  -0.00016  -0.00074  -0.00090   2.61304
   R11        2.53545   0.00358   0.00009   0.01055   0.01064   2.54609
   R12        2.61650  -0.00079   0.00012  -0.00226  -0.00214   2.61436
   R13        2.04414   0.00092  -0.00003   0.00194   0.00191   2.04605
   R14        2.61197  -0.00024   0.00026  -0.00167  -0.00141   2.61057
   R15        2.53383   0.00443  -0.00006   0.01204   0.01198   2.54581
   R16        2.04635   0.00037  -0.00007   0.00102   0.00095   2.04730
    A1        1.96298   0.00032   0.00054   0.00137   0.00191   1.96489
    A2        2.13765  -0.00134  -0.00310  -0.00394  -0.00705   2.13060
    A3        2.06700   0.00130   0.00290   0.00355   0.00644   2.07344
    A4        2.07841   0.00003   0.00027   0.00046   0.00073   2.07914
    A5        2.05117   0.00042   0.00137  -0.00059   0.00079   2.05196
    A6        2.06039   0.00119   0.00276   0.00320   0.00596   2.06635
    A7        2.17153  -0.00161  -0.00407  -0.00260  -0.00666   2.16487
    A8        2.01837  -0.00129  -0.00493  -0.00327  -0.00820   2.01017
    A9        2.14770  -0.00051  -0.00220  -0.00153  -0.00370   2.14399
   A10        2.08400  -0.00094   0.00019  -0.00519  -0.00498   2.07902
   A11        2.05137   0.00146   0.00207   0.00669   0.00879   2.06016
   A12        2.14054   0.00155  -0.00017   0.00903   0.00886   2.14940
   A13        2.07729  -0.00059  -0.00002  -0.00341  -0.00343   2.07386
   A14        2.06536  -0.00095   0.00018  -0.00562  -0.00544   2.05992
   A15        2.03861  -0.00121  -0.00008  -0.00865  -0.00872   2.02990
   A16        2.12158   0.00068   0.00015   0.00419   0.00434   2.12593
   A17        2.12299   0.00053  -0.00008   0.00445   0.00437   2.12736
   A18        2.14243   0.00096   0.00030   0.00637   0.00668   2.14911
   A19        2.06016  -0.00038  -0.00023  -0.00188  -0.00211   2.05804
   A20        2.08060  -0.00058  -0.00008  -0.00449  -0.00457   2.07603
   A21        2.08228  -0.00039  -0.00047  -0.00202  -0.00249   2.07979
   A22        2.10807   0.00088   0.00068   0.00633   0.00701   2.11508
   A23        2.09280  -0.00049  -0.00019  -0.00428  -0.00448   2.08832
    D1       -3.12830   0.00013  -0.01778   0.00920  -0.00859  -3.13689
    D2       -0.00142   0.00023  -0.00641   0.00980   0.00339   0.00197
    D3       -2.97440  -0.00005  -0.16461   0.03918  -0.12544  -3.09983
    D4        0.18294  -0.00019  -0.17676   0.03849  -0.13828   0.04466
    D5        0.18465  -0.00020  -0.17517   0.03452  -0.14065   0.04400
    D6       -2.94120  -0.00034  -0.18733   0.03383  -0.15349  -3.09469
    D7        0.04497  -0.00048  -0.03588  -0.00249  -0.03835   0.00662
    D8       -3.11357  -0.00038  -0.02005  -0.00502  -0.02506  -3.13863
    D9       -3.11419  -0.00032  -0.02525   0.00222  -0.02304  -3.13723
   D10        0.01046  -0.00022  -0.00942  -0.00031  -0.00974   0.00072
   D11        3.11035   0.00035   0.02294   0.00401   0.02699   3.13734
   D12       -0.02157   0.00015   0.01647   0.00138   0.01785  -0.00371
   D13       -0.01439   0.00022   0.01274  -0.00043   0.01231  -0.00208
   D14        3.13688   0.00002   0.00627  -0.00307   0.00318   3.14006
   D15       -3.12848   0.00027  -0.03575   0.02768  -0.00808  -3.13656
   D16       -0.00271   0.00040  -0.02354   0.02835   0.00482   0.00211
   D17        0.00119   0.00004  -0.00001   0.00001  -0.00001   0.00118
   D18       -3.14095   0.00010  -0.00092   0.00170   0.00077  -3.14018
   D19        3.12676   0.00012   0.01498  -0.00245   0.01253   3.13929
   D20       -0.01538   0.00018   0.01407  -0.00076   0.01332  -0.00206
   D21       -0.00853   0.00015   0.00588   0.00106   0.00694  -0.00159
   D22        3.13431   0.00008   0.00441   0.00102   0.00544   3.13975
   D23        3.13360   0.00009   0.00678  -0.00062   0.00616   3.13976
   D24       -0.00674   0.00002   0.00531  -0.00066   0.00465  -0.00208
   D25        0.00436  -0.00015  -0.00235  -0.00188  -0.00423   0.00013
   D26       -3.13926  -0.00004  -0.00177  -0.00020  -0.00196  -3.14123
   D27       -3.13848  -0.00009  -0.00088  -0.00184  -0.00272  -3.14120
   D28        0.00108   0.00002  -0.00030  -0.00016  -0.00045   0.00062
   D29        0.00703  -0.00003  -0.00693   0.00156  -0.00535   0.00168
   D30        3.13903   0.00017  -0.00052   0.00423   0.00371  -3.14044
   D31       -3.13251  -0.00014  -0.00752  -0.00014  -0.00764  -3.14015
   D32       -0.00050   0.00006  -0.00111   0.00254   0.00142   0.00091
         Item               Value     Threshold  Converged?
 Maximum Force            0.004433     0.000015     NO 
 RMS     Force            0.001120     0.000010     NO 
 Maximum Displacement     0.344853     0.000060     NO 
 RMS     Displacement     0.079302     0.000040     NO 
 Predicted change in Energy=-1.874296D-04
 GradGradGradGradGradGradGradGradGradGradGradGradGradGradGradGradGradGrad

                          Input orientation:                          
 ---------------------------------------------------------------------
 Center     Atomic      Atomic             Coordinates (Angstroms)
 Number     Number       Type             X           Y           Z
 ---------------------------------------------------------------------
      1          8           0        8.642758    7.538047    5.692393
      2          1           0        9.463783    7.237576    6.099429
      3          6           0        6.237622    7.004159    5.194809
      4          5           0        7.632642    6.634447    5.824079
      5          8           0        7.887000    5.469257    6.485467
      6          1           0        7.142566    4.863083    6.547627
      7          6           0        5.122794    6.168244    5.316783
      8          1           0        5.150158    5.225165    5.853116
      9          6           0        3.927741    6.551572    4.736691
     10          6           0        3.773301    7.731318    4.032156
     11          6           0        4.894223    8.535750    3.930223
     12          6           0        6.113537    8.206288    4.489813
     13          1           0        6.954855    8.879315    4.376042
     14          1           0        2.827189    8.009324    3.585078
     15          9           0        2.857259    5.742654    4.859268
     16          9           0        4.780066    9.693499    3.250887
 ---------------------------------------------------------------------
                    Distance matrix (angstroms):
                    1          2          3          4          5
     1  O    0.000000
     2  H    0.964388   0.000000
     3  C    2.513425   3.358710   0.000000
     4  B    1.361679   1.947475   1.574404   0.000000
     5  O    2.340946   2.400462   2.596569   1.363744   0.000000
     6  H    3.183934   3.350693   2.689470   1.975203   0.962026
     7  C    3.795733   4.538743   1.398739   2.602697   3.081435
     8  H    4.192076   4.766322   2.186495   2.854758   2.819530
     9  C    4.910996   5.742423   2.397969   3.862068   4.461542
    10  C    5.148335   6.074453   2.820177   4.394158   5.296997
    11  C    4.260536   5.222221   2.397847   3.834134   4.988924
    12  C    2.879185   3.841018   1.399119   2.560983   3.823499
    13  H    2.526023   3.458336   2.168182   2.756019   4.116681
    14  H    6.203524   7.138762   3.902902   5.476841   6.361280
    15  F    6.114698   6.886142   3.623650   4.952821   5.293162
    16  F    5.052456   6.006909   3.624342   4.910836   6.161150
                    6          7          8          9         10
     6  H    0.000000
     7  C    2.701463   0.000000
     8  H    2.140827   1.085265   0.000000
     9  C    4.057781   1.382606   2.121335   0.000000
    10  C    5.089825   2.431995   3.390049   1.382759   0.000000
    11  C    5.039279   2.753157   3.837055   2.349775   1.383462
    12  C    4.058389   2.412276   3.416693   2.752588   2.431409
    13  H    4.569588   3.404607   4.334915   3.835606   3.399771
    14  H    6.107209   3.414408   4.276882   2.159275   1.082725
    15  F    4.689143   2.350127   2.552041   1.347333   2.340520
    16  F    6.307363   4.100343   5.184069   3.578516   2.339682
                   11         12         13         14         15
    11  C    0.000000
    12  C    1.381453   0.000000
    13  H    2.136117   1.083386   0.000000
    14  H    2.160758   3.414296   4.291868   0.000000
    15  F    3.579628   4.099920   5.182900   2.600435   0.000000
    16  F    1.347187   2.350506   2.580422   2.600357   4.679023
                   16
    16  F    0.000000
 Symmetry turned off by external request.
 Stoichiometry    C6H5BF2O2
 Framework group  C1[X(C6H5BF2O2)]
 Deg. of freedom    42
 Full point group                 C1      NOp   1
 Rotational constants (GHZ):           1.5119181           0.7890951           0.5185793
 Standard basis: 6-311+G(d,p) (5D, 7F)
   272 basis functions,   436 primitive gaussians,   283 cartesian basis functions
    40 alpha electrons       40 beta electrons
       nuclear repulsion energy       567.3492744349 Hartrees.
 NAtoms=   16 NActive=   16 NUniq=   16 SFac= 1.00D+00 NAtFMM=   60 NAOKFM=F Big=F
 Integral buffers will be    131072 words long.
 Raffenetti 2 integral format.
 Two-electron integral symmetry is turned off.
 ------------------------------------------------------------------------------
 Polarizable Continuum Model (PCM)
 =================================
 Model                : PCM.
 Atomic radii         : SMD-Coulomb.
 Polarization charges : Total charges.
 Charge compensation  : None.
 Solution method      : Matrix inversion.
 Cavity type          : VdW (van der Waals Surface) (Alpha=1.000).
 Cavity algorithm     : GePol (No added spheres)
                        Default sphere list used, NSphG=   16.
                        Lebedev-Laikov grids with approx.  5.0 points / Ang**2.
                        Smoothing algorithm: York/Karplus (Gamma=1.0000).
                        Polarization charges: spherical gaussians, with
                                              point-specific exponents (IZeta= 3).
                        Self-potential: point-specific (ISelfS= 7).
                        Self-field    : sphere-specific E.n sum rule (ISelfD= 2).
 1st derivatives      : Analytical E(r).r(x)/FMM algorithm (CHGder, D1EAlg=3).
                        Cavity 1st derivative terms included.
 Solvent              : TetraHydroFuran, Eps=   7.425700 Eps(inf)=   1.974025
 ------------------------------------------------------------------------------
 Spheres list:
 ISph  on   Nord     Re0    Alpha      Xe            Ye            Ze
    1   O      1    2.2940  1.000      8.642758      7.538047      5.692393
    2   H      2    1.2000  1.000      9.463783      7.237576      6.099429
    3   C      3    1.8500  1.000      6.237622      7.004159      5.194809
    4   B      4    1.8000  1.000      7.632642      6.634447      5.824079
    5   O      5    2.2940  1.000      7.887000      5.469257      6.485467
    6   H      6    1.2000  1.000      7.142566      4.863083      6.547627
    7   C      7    1.8500  1.000      5.122794      6.168244      5.316783
    8   H      8    1.2000  1.000      5.150158      5.225165      5.853116
    9   C      9    1.8500  1.000      3.927741      6.551572      4.736691
   10   C     10    1.8500  1.000      3.773301      7.731318      4.032156
   11   C     11    1.8500  1.000      4.894223      8.535750      3.930223
   12   C     12    1.8500  1.000      6.113537      8.206288      4.489813
   13   H     13    1.2000  1.000      6.954855      8.879315      4.376042
   14   H     14    1.2000  1.000      2.827189      8.009324      3.585078
   15   F     15    1.7300  1.000      2.857259      5.742654      4.859268
   16   F     16    1.7300  1.000      4.780066      9.693499      3.250887
 ------------------------------------------------------------------------------
 ------------------------------------------------------------------------------
 Atomic radii for non-electrostatic terms: SMD-CDS.
 ------------------------------------------------------------------------------
 Nuclear repulsion after PCM non-electrostatic terms =      567.3472557387 Hartrees.
 One-electron integrals computed using PRISM.
 NBasis=   272 RedAO= T EigKep=  3.20D-06  NBF=   272
 NBsUse=   272 1.00D-06 EigRej= -1.00D+00 NBFU=   272
 Lowest energy guess from the checkpoint file:  "3-5-diF-phboh2-opt-freq-thf.chk"
 B after Tr=    -0.070832   -0.058413    0.185626
         Rot=    0.999979    0.006065   -0.000494    0.002184 Ang=   0.74 deg.
 B after Tr=     0.070595    0.035898   -0.139423
         Rot=    0.999989   -0.004224    0.000895   -0.001862 Ang=  -0.54 deg.
 Requested convergence on RMS density matrix=1.00D-08 within 128 cycles.
 Requested convergence on MAX density matrix=1.00D-06.
 Requested convergence on             energy=1.00D-06.
 Level shift goal  0.100 maximum shift  0.100.
 No special actions if energy rises.
 Dynamic level shift is on during FON iterations.
 Inv3:  Mode=1 IEnd=     6624588.
 Iteration    1 A*A^-1 deviation from unit magnitude is 3.89D-15 for   1482.
 Iteration    1 A*A^-1 deviation from orthogonality  is 2.39D-15 for   1428    122.
 Iteration    1 A^-1*A deviation from unit magnitude is 4.33D-15 for   1482.
 Iteration    1 A^-1*A deviation from orthogonality  is 3.26D-15 for    690    651.
 Error on total polarization charges =  0.01767
 SCF Done:  E(RM062X) =  -606.719955832     A.U. after   11 cycles
            NFock= 11  Conv=0.41D-08     -V/T= 2.0032
 SMD-CDS (non-electrostatic) energy       (kcal/mol) =      -1.27
 (included in total energy above)
 D1PCM: PCM CHGder 1st derivatives, ID1Alg=3 FixD1E=F DoIter=F DoCFld=F I1PDM=0.
 Calling FoFJK, ICntrl=      2127 FMM=F ISym2X=0 I1Cent= 0 IOpClX= 0 NMat=1 NMatS=1 NMatT=0.
 -------------------------------------------------------------------
 Center     Atomic                   Forces (Hartrees/Bohr)
 Number     Number              X              Y              Z
 -------------------------------------------------------------------
      1        8          -0.000033960    0.000028896   -0.000049162
      2        1           0.000025519    0.000002675   -0.000014615
      3        6           0.000032062   -0.000016146   -0.000096549
      4        5           0.000021534   -0.000001800   -0.000040398
      5        8           0.000294488   -0.000160696    0.000472937
      6        1           0.000065875   -0.000102241   -0.000080819
      7        6           0.000025458    0.000053225    0.000009072
      8        1          -0.000339500    0.000247527   -0.000255746
      9        6           0.000056199   -0.000015372   -0.000042475
     10        6          -0.000015828   -0.000006495    0.000034406
     11        6           0.000037401   -0.000089421    0.000025804
     12        6          -0.000052770    0.000052284    0.000035866
     13        1          -0.000014973   -0.000003182    0.000006786
     14        1          -0.000018197   -0.000017175    0.000015021
     15        9          -0.000055192   -0.000047159    0.000037184
     16        9          -0.000028115    0.000075081   -0.000057313
 -------------------------------------------------------------------
 Cartesian Forces:  Max     0.000472937 RMS     0.000117444

 GradGradGradGradGradGradGradGradGradGradGradGradGradGradGradGradGradGrad
 Berny optimization.
 Using GEDIIS/GDIIS optimizer.
 FormGI is forming the generalized inverse of G from B-inverse, IUseBI=4.
 Internal  Forces:  Max     0.000737341 RMS     0.000186293
 Search for a local minimum.
 Step number   3 out of a maximum of   81
 All quantities printed in internal units (Hartrees-Bohrs-Radians)
 Mixed Optimization -- En-DIIS/RFO-DIIS
 Update second derivatives using D2CorX and points    2    1    3
 DE= -1.35D-04 DEPred=-1.87D-04 R= 7.18D-01
 TightC=F SS=  1.41D+00  RLast= 3.18D-01 DXNew= 5.0454D-01 9.5424D-01
 Trust test= 7.18D-01 RLast= 3.18D-01 DXMaxT set to 5.05D-01
 ITU=  1  0  0
 Use linear search instead of GDIIS.
     Eigenvalues ---    0.00065   0.00937   0.01301   0.01495   0.01699
     Eigenvalues ---    0.01750   0.02103   0.02364   0.02402   0.02704
     Eigenvalues ---    0.03385   0.03626   0.03846   0.09850   0.10657
     Eigenvalues ---    0.10968   0.11308   0.11894   0.15971   0.16966
     Eigenvalues ---    0.17735   0.18329   0.18630   0.20275   0.22713
     Eigenvalues ---    0.23358   0.29341   0.30646   0.36177   0.36860
     Eigenvalues ---    0.37400   0.38500   0.39125   0.41588   0.46156
     Eigenvalues ---    0.47319   0.49003   0.49552   0.49798   0.54313
     Eigenvalues ---    0.55073   0.60009
 RFO step:  Lambda=-1.52919752D-05 EMin= 6.53626985D-04
 Quartic linear search produced a step of -0.03102.
 Iteration  1 RMS(Cart)=  0.00796047 RMS(Int)=  0.00003429
 Iteration  2 RMS(Cart)=  0.00004495 RMS(Int)=  0.00000173
 Iteration  3 RMS(Cart)=  0.00000000 RMS(Int)=  0.00000173
 Variable       Old X    -DE/DX   Delta X   Delta X   Delta X     New X
                                 (Linear)    (Quad)   (Total)
    R1        1.82243   0.00001  -0.00016   0.00042   0.00025   1.82268
    R2        2.57320   0.00003  -0.00013   0.00050   0.00037   2.57357
    R3        2.97519   0.00050  -0.00013   0.00172   0.00159   2.97679
    R4        2.64323   0.00018  -0.00005   0.00012   0.00007   2.64331
    R5        2.64395   0.00012  -0.00005   0.00057   0.00051   2.64446
    R6        2.57710   0.00047   0.00009   0.00055   0.00064   2.57775
    R7        1.81796   0.00000  -0.00021   0.00062   0.00041   1.81837
    R8        2.05085  -0.00035  -0.00004  -0.00070  -0.00074   2.05011
    R9        2.61275  -0.00008   0.00003  -0.00019  -0.00016   2.61259
   R10        2.61304  -0.00015   0.00002  -0.00034  -0.00032   2.61271
   R11        2.54609   0.00008  -0.00033   0.00106   0.00073   2.54682
   R12        2.61436  -0.00003   0.00007  -0.00016  -0.00009   2.61428
   R13        2.04605   0.00001  -0.00006   0.00015   0.00009   2.04614
   R14        2.61057   0.00007   0.00006  -0.00011  -0.00006   2.61051
   R15        2.54581   0.00009  -0.00037   0.00123   0.00086   2.54667
   R16        2.04730  -0.00002  -0.00003   0.00002  -0.00002   2.04729
    A1        1.96489   0.00005  -0.00003   0.00048   0.00045   1.96534
    A2        2.13060   0.00059   0.00006   0.00253   0.00258   2.13318
    A3        2.07344  -0.00027  -0.00005  -0.00125  -0.00130   2.07214
    A4        2.07914  -0.00032  -0.00001  -0.00127  -0.00128   2.07786
    A5        2.05196  -0.00048   0.00005  -0.00254  -0.00250   2.04946
    A6        2.06635  -0.00025  -0.00004  -0.00067  -0.00071   2.06564
    A7        2.16487   0.00074   0.00000   0.00322   0.00322   2.16809
    A8        2.01017   0.00012   0.00000   0.00035   0.00035   2.01052
    A9        2.14399   0.00026   0.00000   0.00171   0.00172   2.14571
   A10        2.07902   0.00019   0.00016   0.00043   0.00060   2.07962
   A11        2.06016  -0.00044  -0.00017  -0.00215  -0.00231   2.05785
   A12        2.14940   0.00004  -0.00028   0.00094   0.00065   2.15006
   A13        2.07386  -0.00006   0.00011  -0.00076  -0.00065   2.07321
   A14        2.05992   0.00002   0.00018  -0.00018  -0.00001   2.05991
   A15        2.02990  -0.00006   0.00027  -0.00129  -0.00102   2.02887
   A16        2.12593  -0.00001  -0.00013   0.00042   0.00029   2.12622
   A17        2.12736   0.00007  -0.00014   0.00087   0.00073   2.12810
   A18        2.14911   0.00004  -0.00019   0.00078   0.00058   2.14970
   A19        2.05804  -0.00006   0.00005  -0.00034  -0.00029   2.05776
   A20        2.07603   0.00002   0.00014  -0.00043  -0.00030   2.07573
   A21        2.07979   0.00012   0.00005   0.00042   0.00047   2.08026
   A22        2.11508  -0.00005  -0.00018   0.00039   0.00020   2.11528
   A23        2.08832  -0.00007   0.00013  -0.00080  -0.00067   2.08764
    D1       -3.13689   0.00001  -0.00065   0.00050  -0.00015  -3.13704
    D2        0.00197   0.00003  -0.00044   0.00322   0.00278   0.00475
    D3       -3.09983   0.00000  -0.00459  -0.00602  -0.01061  -3.11044
    D4        0.04466  -0.00002  -0.00482  -0.00890  -0.01371   0.03094
    D5        0.04400  -0.00005  -0.00466  -0.01084  -0.01551   0.02850
    D6       -3.09469  -0.00007  -0.00489  -0.01372  -0.01861  -3.11330
    D7        0.00662  -0.00004  -0.00066  -0.00471  -0.00537   0.00125
    D8       -3.13863  -0.00005  -0.00026  -0.00483  -0.00509   3.13947
    D9       -3.13723   0.00001  -0.00059   0.00013  -0.00045  -3.13768
   D10        0.00072   0.00000  -0.00018   0.00001  -0.00017   0.00054
   D11        3.13734   0.00005   0.00034   0.00473   0.00507  -3.14078
   D12       -0.00371   0.00003   0.00029   0.00390   0.00419   0.00047
   D13       -0.00208   0.00000   0.00027   0.00005   0.00032  -0.00175
   D14        3.14006  -0.00002   0.00022  -0.00079  -0.00056   3.13949
   D15       -3.13656   0.00010  -0.00159   0.01186   0.01026  -3.12630
   D16        0.00211   0.00013  -0.00136   0.01476   0.01340   0.01550
   D17        0.00118  -0.00001   0.00000  -0.00050  -0.00050   0.00068
   D18       -3.14018   0.00002  -0.00007   0.00067   0.00060  -3.13957
   D19        3.13929  -0.00002   0.00038  -0.00061  -0.00023   3.13907
   D20       -0.00206   0.00001   0.00031   0.00057   0.00088  -0.00118
   D21       -0.00159   0.00001   0.00009   0.00088   0.00097  -0.00062
   D22        3.13975   0.00002   0.00006   0.00117   0.00123   3.14098
   D23        3.13976  -0.00002   0.00016  -0.00028  -0.00013   3.13964
   D24       -0.00208  -0.00001   0.00013   0.00001   0.00014  -0.00195
   D25        0.00013  -0.00002   0.00001  -0.00082  -0.00081  -0.00068
   D26       -3.14123   0.00000  -0.00003  -0.00002  -0.00005  -3.14127
   D27       -3.14120  -0.00002   0.00004  -0.00111  -0.00107   3.14091
   D28        0.00062   0.00000   0.00000  -0.00031  -0.00031   0.00031
   D29        0.00168   0.00001  -0.00019   0.00038   0.00019   0.00187
   D30       -3.14044   0.00003  -0.00014   0.00120   0.00106  -3.13939
   D31       -3.14015  -0.00001  -0.00015  -0.00043  -0.00058  -3.14073
   D32        0.00091   0.00001  -0.00010   0.00039   0.00029   0.00120
         Item               Value     Threshold  Converged?
 Maximum Force            0.000737     0.000015     NO 
[...]

 Dipole orientation:
     8         13.92281255         19.78590344         -0.40037458
     1         14.98308153         20.36227201          0.96523631
     6          9.88764564         17.60467479         -1.62493471
     5         11.77161189         18.64468689          0.43165043
     8         11.38305049         18.47047403          2.97418278
     1          9.85066319         17.62472632          3.46609999
     6          7.57503588         16.49550349         -0.98577003
     1          6.93400556         16.29124609          0.95072874
     6          6.01315010         15.62096186         -2.88881859
     6          6.62078086         15.78395672         -5.42468686
     6          8.91927366         16.89157482         -5.99491552
     6         10.55559697         17.80211719         -4.17596035
     1         12.32852547         18.65336610         -4.74456694
     1          5.36648260         15.08334020         -6.88146620
     9          3.78688858         14.55855146         -2.25726363
     9          9.57361464         17.08337322         -8.44804366

 Electric dipole moment (dipole orientation):
 (Debye = 10**-18 statcoulomb cm , SI units = C m)
                  (au)            (Debye)         (10**-30 SI)
   Tot        0.956235D+00      0.243051D+01      0.810730D+01
   x          0.000000D+00      0.000000D+00      0.000000D+00
   y          0.000000D+00      0.000000D+00      0.000000D+00
   z          0.956235D+00      0.243051D+01      0.810730D+01

 Dipole polarizability, Alpha (dipole orientation).
 (esu units = cm**3 , SI units = C**2 m**2 J**-1)
 Alpha(0;0):
               (au)            (10**-24 esu)      (10**-40 SI)
   iso        0.107905D+03      0.159899D+02      0.177911D+02
   aniso      0.686892D+02      0.101787D+02      0.113253D+02
   xx         0.116974D+03      0.173338D+02      0.192865D+02
   yx         0.274671D+02      0.407020D+01      0.452871D+01
   yy         0.765730D+02      0.113469D+02      0.126252D+02
   zx         0.368412D+01      0.545931D+00      0.607430D+00
   zy         0.499420D+01      0.740065D+00      0.823433D+00
   zz         0.130167D+03      0.192888D+02      0.214617D+02

 ----------------------------------------------------------------------
 Unable to Open any file for archive entry.
 1\1\GINC-CN013\Freq\RM062X\6-311+G(d,p)\C6H5B1F2O2\TAHMINAAFROZ\06-May
 -2025\0\\#N Geom=AllCheck Guess=TCheck SCRF=Check GenChk RM062X/6-311+
 G(d,p) Freq\\3-5-diF-phboh2-opt-freq-thf\\0,1\O,8.6388694163,7.5419515
 513,5.6957840466\H,9.4615368444,7.2443614778,6.1016253227\C,6.23713523
 34,7.0013858534,5.1945153396\B,7.6326784074,6.6335788491,5.8256801141\
 O,7.8924207337,5.4694287933,6.4877241814\H,7.1539944556,4.8549243949,6
 .5400727663\C,5.1201817697,6.1683610801,5.317119329\H,5.1430564111,5.2
 261881764,5.8543846273\C,3.9257204236,6.5531421901,4.7369009142\C,3.77
 27225127,7.7325069797,4.0317201493\C,4.895285324,8.5345805955,3.929060
 7655\C,6.114088447,8.203515441,4.4888609031\H,6.9560714601,8.875598201
 5,4.3747175067\H,2.8267577629,8.011849542,3.5851652737\F,2.85397363,5.
 7459836871,4.8614315853\F,4.783001168,9.692341187,3.2490991751\\Versio
 n=AS64L-G16RevC.01\HF=-606.7199623\RMSD=3.146e-09\RMSF=4.978e-06\ZeroP
 oint=0.10885\Thermal=0.1174889\ETot=-606.6024735\HTot=-606.6015293\GTo
 t=-606.6449429\Dipole=0.3311242,-0.7627471,0.4721854\DipoleDeriv=-1.53
 99423,-0.3946911,-0.0956961,-0.4648086,-0.9076935,-0.0131629,-0.063415
 8,0.0111516,-0.6594972,0.4481627,0.0494594,-0.006627,0.0556738,0.33988
 74,0.0442731,-0.0058452,0.0408967,0.3714809,-0.5333349,0.2437374,-0.23
 01364,0.2252761,-0.005162,-0.0533173,-0.2273886,-0.0476211,-0.2617848,
 2.2151262,0.020704,0.4814034,0.1457295,1.7686977,-0.488105,0.4185266,-
 0.5336431,1.0850756,-0.8217774,0.1771097,-0.1493986,0.1835697,-1.39128
 3,0.4407722,-0.1538591,0.445742,-0.891278,0.3097172,-0.0387038,-0.0046
 ,-0.0798617,0.4673381,-0.0671389,0.0101348,-0.0559271,0.411795,-0.3477
 114,-0.2516478,0.0907524,0.099331,-0.1302253,-0.0003351,-0.0909335,-0.
 1068002,-0.1532857,0.1182756,0.02983,-0.0409921,-0.0035262,0.0246454,0
 .0942187,-0.0223399,0.1047851,0.135409,1.3912908,0.7551675,-0.0398327,
 0.6746287,0.8347843,-0.1838796,0.002673,-0.1611929,0.22772,-0.242654,-
 0.0603778,0.0137057,-0.0796525,-0.3189378,0.0591774,0.0262288,0.066642
 6,-0.198981,0.4600025,-0.1864248,0.2011364,-0.0658421,1.4324319,-0.740
 4499,0.1341759,-0.7799334,0.6161913,-0.1371853,0.2955502,-0.1540715,-0
 .0742632,-0.2750289,0.033871,0.052136,0.1481152,-0.2399655,0.1006067,-
 0.0681683,0.0094389,-0.0380791,0.1000975,0.0426523,-0.0049059,0.03368,
 0.1761297,0.1097831,-0.0013261,-0.0362769,-0.0007004,0.1539465,0.04296
 27,-0.0362544,0.0426132,0.1963103,-1.225872,-0.6818854,0.0604026,-0.70
 56464,-0.762301,0.1099403,0.0694037,0.114904,-0.223752,-0.3044877,0.11
 16667,-0.0992082,0.1281716,-1.3311976,0.6785215,-0.1083364,0.6765875,-
 0.5915678\Polar=129.5034247,5.298043,112.2246664,17.7558206,-25.513438
 1,81.986511\Quadrupole=10.2097502,-20.0762223,9.8664721,-5.3093858,9.8
 090161,-1.1890493\PG=C01 [X(C6H5B1F2O2)]\NImag=1\\0.63311958,0.0383657
 1,0.30336366,0.17040502,-0.12139449,0.14705253,-0.37904725,0.11263518,
 -0.17100438,0.40611596,0.14393610,-0.07792541,0.07805127,-0.11974561,0
 .07171574,-0.18638763,0.06815913,-0.10460973,0.18386728,-0.06856350,0.
 10140007,-0.02862197,-0.00273775,-0.01051317,0.00008677,-0.00218501,-0
 .00022669,0.60078101,-0.01919189,0.00623494,-0.00506709,-0.00316022,-0
 .00126304,0.00177090,0.07520187,0.53737923,-0.00216901,0.00025911,0.00
 747694,0.00026136,0.00206442,0.00340265,0.10166454,-0.20023069,0.27514
 235,-0.22430379,-0.11851270,0.00235559,-0.03179750,-0.02422595,0.00126
 421,-0.16572739,0.02583761,-0.04601215,0.51537202,-0.14188600,-0.17981
 145,0.02047469,0.00355035,0.00772094,-0.00165124,0.02542959,-0.0749739
 4,0.01458633,0.07807931,0.52354557,0.01374570,0.02788238,-0.05681991,-
 0.01245180,-0.01049956,0.00325310,-0.04550294,0.01492214,-0.08480114,0
 .08027495,-0.16472873,0.25123092,0.00486918,-0.03408029,0.01500989,0.0
 0446118,0.00211886,0.00119368,0.00095851,0.02141268,-0.01544145,-0.090
 71556,0.02975328,-0.03077173,0.41055203,-0.02435192,-0.05213571,0.0240
 0884,0.00629178,-0.00010483,0.00071049,0.00441735,-0.00818862,0.013490
 98,0.06166553,-0.25144771,0.12379115,0.21023482,0.53659898,0.01004942,
 0.02068402,0.00487554,-0.00083559,-0.00055910,-0.00261356,-0.00701787,
 0.01891612,0.00454188,-0.04647701,0.11315381,-0.11328304,0.02778056,-0
 .18072043,0.12540940,0.00307595,0.00275290,-0.00249120,-0.00009793,0.0
 0039202,0.00005625,-0.00122049,0.00136958,-0.00034228,0.00436879,0.002
 35475,0.00139331,-0.32567166,-0.26001805,0.02060888,0.32188629,0.00126
 715,-0.00004703,0.00358670,0.00030956,-0.00048362,-0.00009794,0.000237
 38,0.00172039,-0.00187068,-0.02380082,-0.02337082,0.00196707,-0.230249
 21,-0.22458623,0.02791167,0.25241922,0.24537765,-0.00165869,0.00419408
 ,0.00371385,0.00006103,-0.00010018,-0.00079216,0.00031188,-0.00159314,
 -0.00158610,0.01414533,0.01098802,-0.00390577,0.00583517,0.01764069,-0
 .01504195,-0.01797183,-0.03120201,0.01661672,-0.00238491,0.00085629,-0
 .00133157,-0.00039666,-0.00046565,-0.00009084,-0.25116677,-0.08016095,
 -0.01391769,-0.01574774,-0.01025903,0.00014179,0.00135446,-0.00180794,
 0.00134153,0.00094703,0.00011250,0.00002048,0.63905107,0.00462867,0.00
 035175,0.00165295,0.00030189,0.00039236,0.00005331,-0.12902956,-0.1830
 0685,0.03007876,-0.00073835,0.00935691,-0.00394957,0.00042148,-0.00264
 732,0.00134870,0.00240146,0.00009590,0.00076658,0.06450054,0.61472817,
 -0.00353015,0.00040119,-0.00078839,-0.00040981,-0.00021100,0.00018325,
 0.01321774,0.04540767,-0.07921292,-0.00510870,-0.00703216,0.00496483,0
 .00007493,0.00076322,-0.00172094,-0.00122510,0.00020355,0.00012649,0.1
 2079108,-0.25445343,0.30559497,0.00048151,0.00037255,-0.00008084,-0.00
 006013,-0.00004956,-0.00005090,0.00700000,-0.01954247,0.01307795,-0.00
 014870,-0.00057220,0.00126561,-0.00007625,-0.00099401,-0.00138873,-0.0
 0268048,0.00085597,-0.00114752,-0.05759313,0.00327556,-0.00910630,0.05
 645187,-0.00020475,0.00028485,-0.00011667,-0.00009204,0.00001582,0.000
 07352,0.00169361,-0.00994126,0.00609426,0.00133727,-0.00196644,-0.0003
 8922,-0.00043970,0.00097588,-0.00028185,-0.00058413,0.00073273,-0.0000
 5424,0.00784738,-0.26625807,0.13308465,-0.00471539,0.27862191,0.000118
 74,0.00002012,0.00020377,-0.00002949,0.00007463,0.00015203,0.00101065,
 -0.00049147,0.00065567,0.00023976,-0.00089614,-0.00266768,-0.00134174,
 -0.00040375,-0.00143741,-0.00052388,0.00027637,0.00070077,-0.01160424,
 0.13197714,-0.11143331,0.01426741,-0.14543644,0.11022320,0.00034320,0.
 00046013,-0.00005299,-0.00019132,-0.00005316,0.00010755,-0.05514848,-0
 .04855091,0.00904353,-0.00388496,-0.00411050,-0.00080075,0.00188668,-0
 .00101610,0.00117258,-0.00061074,0.00117782,-0.00059789,-0.26334809,0.
 09596710,-0.11366591,0.00301458,-0.00306750,0.00093240,0.64474744,0.00
 139515,0.00056659,0.00005647,-0.00039643,-0.00015248,-0.00033863,0.010
 04819,0.05274282,-0.02410392,-0.00528620,0.00178706,0.00071493,0.00033
 569,-0.00076826,0.00040828,-0.00059683,0.00042278,-0.00061115,0.020795
 77,-0.13663534,0.04547864,0.02419270,-0.00523229,0.01321777,0.04089800
 ,0.57910211,-0.00046674,-0.00031861,-0.00028151,0.00029937,-0.00012295
 ,-0.00018859,-0.02369800,-0.04238681,0.01985004,-0.00011865,0.00115985
 ,0.00543073,0.00044271,0.00006156,0.00000648,0.00023448,-0.00012270,-0
 .00045205,-0.07172657,0.06858407,-0.12636883,-0.01427623,0.00500640,-0
 .00180017,0.12776946,-0.22620258,0.31732920,-0.00192228,-0.00013650,-0
 .00054613,0.00024366,0.00001647,0.00007051,-0.01433512,-0.02455157,0.0
 0922495,0.00253130,-0.00186398,0.00216917,-0.00042034,0.00077900,-0.00
 055128,0.00016055,-0.00033129,0.00012788,0.02982122,0.02581710,-0.0074
 3974,-0.00449022,0.00085533,-0.00334586,-0.12905037,0.06758404,-0.0584
 3518,0.73219174,-0.00055051,0.00010426,-0.00037953,0.00004627,-0.00002
 900,0.00014059,-0.02534602,-0.05233811,0.02126451,-0.00131107,-0.00268
 925,0.00050163,0.00064594,-0.00015229,0.00036101,-0.00004646,0.0002941
 5,-0.00010538,0.07384892,0.00167080,0.02566969,0.00046344,0.00171020,0
 .00197111,-0.00555864,-0.26544224,0.11211333,0.05238155,0.58294026,-0.
 00024619,-0.00019907,-0.00012835,0.00000648,0.00007866,0.00006198,0.00
 972662,0.02170571,-0.00900924,0.00188793,0.00031060,-0.00070529,-0.000
 53094,0.00036971,-0.00030380,0.00005322,-0.00018471,0.00027600,-0.0342
 4126,0.01087233,-0.00949748,-0.00317223,0.00214525,0.00288138,-0.01785
 862,0.13441927,-0.14199138,0.15924625,-0.24310352,0.30243439,0.0017232
 9,-0.00014116,0.00076181,-0.00013745,0.00008236,-0.00012918,0.03125702
 ,0.08496464,-0.03880909,0.00188616,0.00156379,-0.00226003,0.00001689,-
 0.00002734,0.00027497,-0.00010710,-0.00003092,-0.00000031,-0.08472150,
 -0.01355187,-0.01815138,-0.00162200,-0.00006272,-0.00029430,0.06056225
 ,-0.07732446,0.06339772,-0.28702889,-0.07079748,-0.02952167,0.68651568
 ,-0.00262463,0.00004512,-0.00093956,0.00036477,0.00020621,-0.00005404,
 0.02691932,-0.00011475,0.01059502,0.00246325,-0.00251924,0.00560886,0.
 00016789,0.00068422,-0.00101376,0.00016968,-0.00028054,0.00027340,-0.0
 1362066,-0.00046264,-0.00432912,-0.00066739,0.00049347,-0.00068780,-0.
 01316383,-0.04427775,0.01734023,-0.14374984,-0.17000382,0.01596287,0.0
 7668001,0.55420686,0.00214875,-0.00007360,0.00070976,-0.00021548,-0.00
 012173,-0.00012431,-0.00658606,0.02816417,-0.01358148,-0.00286796,0.00
 538791,0.00234201,0.00024909,-0.00098149,-0.00054664,-0.00018239,0.000
 19375,-0.00002993,-0.01811176,-0.00442486,-0.00428177,0.00000204,-0.00
 051933,-0.00008753,0.02773360,-0.00234255,0.00375950,0.01111209,0.0383
 3253,-0.07999591,0.12103084,-0.19985139,0.30226559,-0.00342547,-0.0001
 0616,-0.00097950,0.00073575,0.00028674,0.00016103,-0.12177830,-0.01831
 266,-0.00913371,0.00377461,0.01879830,-0.01016854,-0.00551304,0.002991
 77,-0.00334341,-0.00020886,-0.00107010,0.00038156,0.04571131,-0.016356
 80,0.02177050,-0.00333258,-0.00346902,-0.00132585,-0.03003825,0.034122
 34,-0.02781344,-0.04746915,-0.04145846,0.00622276,-0.30429642,0.061481
 62,-0.10691706,0.70024025,-0.00150288,-0.00202353,0.00024706,-0.000337
 28,-0.00032347,0.00001495,0.03242944,-0.26049768,0.12112847,0.00767211
 ,-0.00200285,0.00524789,-0.00135108,0.00156655,-0.00068639,-0.00031648
 ,-0.00015268,0.00004355,-0.05797764,-0.03520785,0.00440271,-0.00349759
 ,0.00144052,0.00214575,0.03433207,-0.03428732,0.02891153,0.00552086,0.
 04973210,-0.02187443,-0.01322804,-0.11492050,0.02213261,0.10772919,0.5
 8563515,-0.00013639,0.00070199,-0.00105851,0.00045408,0.00024126,-0.00
 004091,-0.03715872,0.10555730,-0.13046807,-0.00384132,0.00857691,-0.00
 293732,-0.00126757,0.00059279,0.00035960,0.00014902,-0.00019099,0.0001
 4841,0.04490931,0.01718387,0.00885462,-0.00128785,0.00218940,0.0055524
 9,-0.02798258,0.02886757,-0.02579746,-0.01998777,-0.03619146,0.0215889
 0,-0.06535007,0.04505640,-0.11335689,0.11549897,-0.22001726,0.28834896
 ,-0.00049277,0.00062071,-0.00057600,-0.00010424,-0.00004074,0.00006272
 ,0.00738511,0.00274720,0.00054228,-0.00001915,0.00099785,0.00042705,0.
 00009743,-0.00041320,0.00006043,0.00003070,0.00000921,0.00002711,0.001
 66903,0.00094341,-0.00217705,0.00039131,0.00019590,-0.00012707,-0.0002
 5700,0.00123556,-0.00061815,-0.00298662,0.00130202,-0.00328205,-0.0157
 0201,-0.01788818,0.00356525,-0.23420325,-0.14285126,0.01826713,0.24283
 988,-0.00010852,0.00045916,-0.00017600,0.00028544,0.00028586,-0.000206
 05,-0.01908622,-0.01119275,0.00073799,-0.00113368,-0.00202762,-0.00104
 877,0.00011068,0.00053643,0.00006069,-0.00006075,0.00003047,-0.0000698
 1,0.00067521,-0.00170668,0.00501572,-0.00101192,-0.00036106,0.00012796
 ,0.00071299,-0.00059862,0.00029126,0.00147391,0.00102193,0.00280356,0.
 00745674,0.00775972,0.00082888,-0.14345407,-0.16186288,0.02628259,0.15
 391621,0.16713393,-0.00030869,0.00007864,-0.00008342,-0.00011911,-0.00
 030907,-0.00006935,0.01275910,0.00745333,0.00046620,0.00157518,-0.0003
 8854,-0.00244251,-0.00017074,-0.00018677,0.00055423,0.00007398,-0.0000
 4067,-0.00002774,-0.00197198,0.00512285,0.00350890,0.00054312,0.000502
 02,0.00031340,-0.00034428,0.00044091,-0.00082936,-0.00334705,0.0027695
 9,0.00269289,-0.01057940,-0.00697507,0.00573280,0.01861453,0.02649591,
 -0.04432502,-0.01858674,-0.03167534,0.03707600,0.00003914,0.00006209,-
 0.00002488,0.00000576,0.00002143,0.00000165,0.00037889,-0.00057539,0.0
 0083252,-0.00025218,-0.00000325,-0.00003738,0.00002273,-0.00000490,0.0
 0003737,0.00000148,0.00000749,-0.00001806,0.00166199,-0.00095891,-0.00
 060584,0.00018199,-0.00013395,0.00009365,0.00207225,-0.00137964,-0.000
 01329,-0.28122555,0.06391313,-0.11181576,-0.01383889,0.00856566,-0.010
 42776,-0.00180719,-0.00378337,-0.00009591,-0.00055269,0.00042566,-0.00
 043029,0.29164975,-0.00004033,0.00005941,-0.00003645,0.00002194,0.0000
 0684,-0.00002055,-0.00053614,-0.00122007,-0.00020848,0.00003946,-0.000
 17720,0.00003152,0.00001113,0.00006429,-0.00007636,-0.00008497,0.00004
 596,-0.00001532,-0.00077921,-0.00302497,0.00444274,0.00112925,-0.00016
 291,0.00048757,0.02264034,-0.00046622,0.00979197,0.06395445,-0.0713251
 7,0.04122521,-0.01544373,0.00938335,-0.00739263,-0.00397416,-0.0010894
 7,0.00235856,-0.00074286,0.00040378,-0.00040365,-0.06883827,0.06513276
 ,0.00002492,-0.00000627,0.00002854,0.00000567,-0.00002207,-0.00003094,
 0.00083363,-0.00019718,-0.00093073,-0.00006929,0.00002484,-0.00016782,
 0.00003047,-0.00008476,-0.00002386,0.00003387,-0.00000302,0.00005426,-
 0.00070849,0.00438314,0.00269163,-0.00060534,0.00011333,-0.00012686,-0
 .01337296,0.00238117,-0.00084734,-0.11185280,0.04132758,-0.08992559,0.
 00290983,-0.00007462,0.00552698,0.00003809,0.00241003,0.00400915,0.000
 22106,-0.00005115,0.00018278,0.12082031,-0.04491273,0.08477260,-0.0028
 9753,-0.00024463,-0.00081349,0.00011914,-0.00008212,0.00008687,-0.0024
 7220,0.00794536,-0.00734309,0.00332044,-0.00263497,0.00253167,-0.00106
 880,0.00162567,-0.00120901,0.00012643,-0.00070692,0.00039091,-0.049523
 27,-0.03854709,0.00428698,0.00224700,0.00065573,0.00171384,-0.22275204
 ,-0.11780158,0.01097164,-0.00540048,-0.01299046,0.00352099,-0.00081477
 ,0.00255176,-0.00424040,-0.00092551,-0.00414503,0.00242686,0.00010651,
 0.00000876,0.00028762,0.00028756,0.00083527,0.00097105,0.27957249,-0.0
 0142073,-0.00016446,-0.00042835,0.00015656,-0.00001393,0.00003725,-0.0
 0107389,0.00037266,0.00331558,0.00240381,-0.00108699,0.00129672,-0.000
 63552,0.00102851,-0.00065648,0.00009750,-0.00044575,0.00022655,-0.0041
 5519,0.00656267,-0.00061517,0.00046775,-0.00003471,-0.00220678,-0.1174
 9384,-0.15359871,0.02615603,-0.04735974,-0.03320715,0.00809125,0.00800
 666,0.00293241,0.00535082,-0.00404237,-0.00046831,-0.00167902,0.000029
 89,0.00000012,-0.00038597,0.00088655,0.00147620,-0.00297919,0.16633500
 ,0.18111812,-0.00009317,-0.00002327,-0.00007671,-0.00002842,-0.0000449
 2,-0.00003985,-0.00233109,0.00609501,0.00292200,-0.00026218,-0.0002686
 5,-0.00003440,-0.00001560,-0.00000519,0.00011875,0.00000006,0.00000842
 ,-0.00003767,-0.01495532,-0.01117880,0.00914442,0.00180113,-0.00219016
 ,-0.00248823,0.01089717,0.02624173,-0.05423688,0.02258760,0.01840607,0
 .00362737,-0.00716374,0.00374780,0.00385428,0.00230302,-0.00169448,0.0
 0039454,0.00024501,-0.00041153,-0.00044680,0.00094490,-0.00293949,-0.0
 0241155,-0.01524426,-0.03722346,0.04034275,-0.00055588,-0.00016636,-0.
 00011816,0.00006426,-0.00000617,0.00001349,-0.00737659,-0.00543287,-0.
 00147866,0.00134366,0.00080272,0.00004393,-0.00075344,0.00062755,-0.00
 050280,0.00000002,-0.00020705,0.00009293,0.00466595,0.00092538,0.00127
 875,0.00023522,0.00018400,0.00021597,-0.00734515,0.00217768,-0.0059491
 3,0.00938055,-0.03454218,0.02000447,-0.07369227,0.01235058,-0.01629278
 ,0.00253611,0.04130699,-0.02459718,0.00179776,-0.00021043,0.00200475,0
 .00137496,0.00180782,0.00071997,0.00007502,-0.00220245,0.00131490,0.06
 824982,0.00228938,0.00063787,0.00046014,-0.00023216,-0.00004801,-0.000
 02819,0.00361784,0.00428702,0.00279835,-0.00448957,-0.00033697,-0.0013
 4844,0.00154336,-0.00142388,0.00115007,-0.00024943,0.00064663,-0.00038
 166,0.00058969,-0.00420882,0.00177110,0.00029332,-0.00031865,-0.000176
 03,-0.00317398,0.00683788,-0.00026258,-0.00038978,-0.04228666,0.027377
 31,0.01185354,-0.24313211,0.11531690,0.00683385,-0.02553779,0.02047009
 ,-0.00006172,0.00011820,-0.00249817,0.00179566,0.00089342,-0.00230908,
 -0.00280476,-0.00447066,0.00148091,-0.01741522,0.30834253,-0.00149591,
 -0.00036533,-0.00021441,0.00013880,0.00004385,0.00005632,-0.00648963,-
 0.00002596,0.00513197,0.00301431,0.00030250,0.00054329,-0.00107672,0.0
 0095296,-0.00089469,0.00013361,-0.00043481,0.00023686,0.00145554,0.001
 98297,-0.00176548,0.00015869,-0.00022093,-0.00064152,-0.00298030,0.001
 37210,0.00641762,0.00096736,0.01692225,-0.00200587,-0.01611600,0.11534
 078,-0.11218647,-0.00530894,0.03109208,-0.01127248,0.00194904,-0.00251
 000,-0.00230300,0.00073876,-0.00233192,-0.00280124,0.00166183,0.001700
 19,-0.00063201,0.02324956,-0.16382074,0.12233113\\-0.00000043,0.000008
 29,-0.00000364,0.00000110,0.00001038,-0.00000536,0.00000066,0.00000102
 ,-0.00000073,0.00000272,0.00000502,-0.00000333,0.00000749,0.00000457,-
 0.00000472,0.00000952,0.00000256,-0.00000479,0.00000334,-0.00000266,0.
 00000010,0.00000731,-0.00000322,-0.00000137,0.00000115,-0.00000588,0.0
 0000223,-0.00000354,-0.00000552,0.00000394,-0.00000636,-0.00000158,0.0
 0000300,-0.00000431,0.00000151,0.00000089,-0.00000671,0.00000435,0.000
 00042,-0.00000511,-0.00000801,0.00000568,0.00000422,-0.00000937,0.0000
 0292,-0.00001105,-0.00000145,0.00000477\\\@
 The archive entry for this job was punched.


 ASKING DUMB QUESTIONS IS EASIER THAN CORECTING DUMB MISTAKES.
 Job cpu time:       0 days  0 hours 44 minutes 24.4 seconds.
 Elapsed time:       0 days  0 hours  1 minutes 27.5 seconds.
 File lengths (MBytes):  RWF=    163 Int=      0 D2E=      0 Chk=     15 Scr=      1
 Normal termination of Gaussian 16 at Tue May  6 17:19:34 2025.
