/home/tahminaafroz
cn017.cluster.local
Mon May  5 08:09:43 CDT 2025
 Entering Gaussian System, Link 0=g16
 Initial command:
 /home/apps/g16/l1.exe "/tmp/3-5-diF-phboh2-opt-freq/Gau-3475777.inp" -scrdir="/tmp/3-5-diF-phboh2-opt-freq/"
 Entering Link 1 = /home/apps/g16/l1.exe PID=   3475778.
  
 Copyright (c) 1988-2019, Gaussian, Inc.  All Rights Reserved.
  
 This is part of the Gaussian(R) 16 program.  It is based on
 the Gaussian(R) 09 system (copyright 2009, Gaussian, Inc.),
 the Gaussian(R) 03 system (copyright 2003, Gaussian, Inc.),
 the Gaussian(R) 98 system (copyright 1998, Gaussian, Inc.),
 the Gaussian(R) 94 system (copyright 1995, Gaussian, Inc.),
 the Gaussian 92(TM) system (copyright 1992, Gaussian, Inc.),
 the Gaussian 90(TM) system (copyright 1990, Gaussian, Inc.),
 the Gaussian 88(TM) system (copyright 1988, Gaussian, Inc.),
 the Gaussian 86(TM) system (copyright 1986, Carnegie Mellon
 University), and the Gaussian 82(TM) system (copyright 1983,
 Carnegie Mellon University). Gaussian is a federally registered
 trademark of Gaussian, Inc.
  
 This software contains proprietary and confidential information,
 including trade secrets, belonging to Gaussian, Inc.
  
 This software is provided under written license and may be
 used, copied, transmitted, or stored only in accord with that
 written license.
  
 The following legend is applicable only to US Government
 contracts under FAR:
  
                    RESTRICTED RIGHTS LEGEND
  
 Use, reproduction and disclosure by the US Government is
 subject to restrictions as set forth in subparagraphs (a)
 and (c) of the Commercial Computer Software - Restricted
 Rights clause in FAR 52.227-19.
  
 Gaussian, Inc.
 340 Quinnipiac St., Bldg. 40, Wallingford CT 06492
  
  
 ---------------------------------------------------------------
 Warning -- This program may not be used in any manner that
 competes with the business of Gaussian, Inc. or will provide
 assistance to any competitor of Gaussian, Inc.  The licensee
 of this program is prohibited from giving any competitor of
 Gaussian, Inc. access to this program.  By using this program,
 the user acknowledges that Gaussian, Inc. is engaged in the
 business of creating and licensing software in the field of
 computational chemistry and represents and warrants to the
 licensee that it is not a competitor of Gaussian, Inc. and that
 it will not use this program in any manner prohibited above.
 ---------------------------------------------------------------
  

 Cite this work as:
 Gaussian 16, Revision C.01,
 M. J. Frisch, G. W. Trucks, H. B. Schlegel, G. E. Scuseria, 
 M. A. Robb, J. R. Cheeseman, G. Scalmani, V. Barone, 
 G. A. Petersson, H. Nakatsuji, X. Li, M. Caricato, A. V. Marenich, 
 J. Bloino, B. G. Janesko, R. Gomperts, B. Mennucci, H. P. Hratchian, 
 J. V. Ortiz, A. F. Izmaylov, J. L. Sonnenberg, D. Williams-Young, 
 F. Ding, F. Lipparini, F. Egidi, J. Goings, B. Peng, A. Petrone, 
 T. Henderson, D. Ranasinghe, V. G. Zakrzewski, J. Gao, N. Rega, 
 G. Zheng, W. Liang, M. Hada, M. Ehara, K. Toyota, R. Fukuda, 
 J. Hasegawa, M. Ishida, T. Nakajima, Y. Honda, O. Kitao, H. Nakai, 
 T. Vreven, K. Throssell, J. A. Montgomery, Jr., J. E. Peralta, 
 F. Ogliaro, M. J. Bearpark, J. J. Heyd, E. N. Brothers, K. N. Kudin, 
 V. N. Staroverov, T. A. Keith, R. Kobayashi, J. Normand, 
 K. Raghavachari, A. P. Rendell, J. C. Burant, S. S. Iyengar, 
 J. Tomasi, M. Cossi, J. M. Millam, M. Klene, C. Adamo, R. Cammi, 
 J. W. Ochterski, R. L. Martin, K. Morokuma, O. Farkas, 
 J. B. Foresman, and D. J. Fox, Gaussian, Inc., Wallingford CT, 2019.
 
 ******************************************
 Gaussian 16:  AS64L-G16RevC.01  3-Jul-2019
                 5-May-2025 
 ******************************************
 %mem=20GB
 %nprocshared=32
 Will use up to   32 processors via shared memory.
 %chk=3-5-diF-phboh2-opt-freq.chk
 ----------------------------------------------------------------------
 # opt=(calcfc,tight) freq 6-311+g(d,p) nosymm scf=(qc,fermi,xqc) geom=
 connectivity int=ultrafine m062x
 ----------------------------------------------------------------------
 1/7=10,10=4,18=20,19=15,26=4,38=1,57=2/1,3;
 2/9=110,12=2,15=1,17=6,18=5,40=1/2;
 3/5=4,6=6,7=111,11=2,25=1,30=1,71=2,74=-55,75=-5,140=1/1,2,3;
 4//1;
 5/5=2,22=13,38=5/2;
 8/6=4,10=90,11=11/1;
 11/6=1,8=1,9=11,15=111,16=1,31=1/1,2,10;
 10/6=1,13=1,31=1/2;
 6/7=2,8=2,9=2,10=2,28=1/1;
 7/10=1,25=1,30=1/1,2,3,16;
 1/7=10,10=4,18=20,19=15,26=4/3(2);
 2/9=110,15=1/2;
 99//99;
 2/9=110,15=1/2;
 3/5=4,6=6,7=111,11=2,25=1,30=1,71=1,74=-55,75=-5/1,2,3;
 4/5=5,16=3,69=1/1;
 5/5=2,22=13,38=5/2;
 7/30=1/1,2,3,16;
 1/7=10,18=20,19=15,26=4/3(-5);
 2/9=110,15=1/2;
 6/7=2,8=2,9=2,10=2,19=2,28=1/1;
 99/9=1/99;
 -----------------------
 3-5-diF-phboh2-opt-freq
 -----------------------
 Symbolic Z-matrix:
 Charge =  0 Multiplicity = 1
 O                     8.68065   7.47996   5.5969 
 H                     9.4829    7.17525   6.03033 
 C                     6.24305   6.99548   5.18223 
 B                     7.63282   6.63396   5.80813 
 O                     7.86489   5.51525   6.56294 
 H                     7.09084   4.96853   6.70639 
 C                     5.13417   6.14903   5.2723 
 H                     5.2042    5.19064   5.78009 
 C                     3.91457   6.51138   4.71168 
 C                     3.79123   7.72791   4.05072 
 C                     4.87967   8.59513   3.9361 
 C                     6.09157   8.21245   4.50726 
 H                     6.94883   8.87459   4.43324 
 H                     2.83692   8.01059   3.61739 
 F                     2.8501    5.68684   4.80931 
 F                     4.76109   9.76269   3.26884 
 

 GradGradGradGradGradGradGradGradGradGradGradGradGradGradGradGradGradGrad
 Berny optimization.
 Initialization pass.
                           ----------------------------
                           !    Initial Parameters    !
                           ! (Angstroms and Degrees)  !
 --------------------------                            --------------------------
 ! Name  Definition              Value          Derivative Info.                !
 --------------------------------------------------------------------------------
 ! R1    R(1,2)                  0.9614         calculate D2E/DX2 analytically  !
 ! R2    R(1,4)                  1.3632         calculate D2E/DX2 analytically  !
 ! R3    R(3,4)                  1.5665         calculate D2E/DX2 analytically  !
 ! R4    R(3,7)                  1.3979         calculate D2E/DX2 analytically  !
 ! R5    R(3,12)                 1.3998         calculate D2E/DX2 analytically  !
 ! R6    R(4,5)                  1.3694         calculate D2E/DX2 analytically  !
 ! R7    R(5,6)                  0.9585         calculate D2E/DX2 analytically  !
 ! R8    R(7,8)                  1.0869         calculate D2E/DX2 analytically  !
 ! R9    R(7,9)                  1.3903         calculate D2E/DX2 analytically  !
 ! R10   R(9,10)                 1.39           calculate D2E/DX2 analytically  !
 ! R11   R(9,15)                 1.35           calculate D2E/DX2 analytically  !
 ! R12   R(10,11)                1.3964         calculate D2E/DX2 analytically  !
 ! R13   R(10,14)                1.0855         calculate D2E/DX2 analytically  !
 ! R14   R(11,12)                1.3933         calculate D2E/DX2 analytically  !
 ! R15   R(11,16)                1.35           calculate D2E/DX2 analytically  !
 ! R16   R(12,13)                1.0857         calculate D2E/DX2 analytically  !
 ! A1    A(2,1,4)              112.0154         calculate D2E/DX2 analytically  !
 ! A2    A(4,3,7)              122.5652         calculate D2E/DX2 analytically  !
 ! A3    A(4,3,12)             119.2945         calculate D2E/DX2 analytically  !
 ! A4    A(7,3,12)             118.14           calculate D2E/DX2 analytically  !
 ! A5    A(1,4,3)              118.4771         calculate D2E/DX2 analytically  !
 ! A6    A(1,4,5)              117.5269         calculate D2E/DX2 analytically  !
 ! A7    A(3,4,5)              123.9959         calculate D2E/DX2 analytically  !
 ! A8    A(4,5,6)              114.3087         calculate D2E/DX2 analytically  !
 ! A9    A(3,7,8)              120.8583         calculate D2E/DX2 analytically  !
 ! A10   A(3,7,9)              120.7994         calculate D2E/DX2 analytically  !
 ! A11   A(8,7,9)              118.3422         calculate D2E/DX2 analytically  !
 ! A12   A(7,9,10)             119.8472         calculate D2E/DX2 analytically  !
 ! A13   A(7,9,15)             120.2202         calculate D2E/DX2 analytically  !
 ! A14   A(10,9,15)            119.9325         calculate D2E/DX2 analytically  !
 ! A15   A(9,10,11)            120.8915         calculate D2E/DX2 analytically  !
 ! A16   A(9,10,14)            119.7191         calculate D2E/DX2 analytically  !
 ! A17   A(11,10,14)           119.3894         calculate D2E/DX2 analytically  !
 ! A18   A(10,11,12)           118.278          calculate D2E/DX2 analytically  !
 ! A19   A(10,11,16)           120.6124         calculate D2E/DX2 analytically  !
 ! A20   A(12,11,16)           121.1005         calculate D2E/DX2 analytically  !
 ! A21   A(3,12,11)            122.0429         calculate D2E/DX2 analytically  !
 ! A22   A(3,12,13)            118.5296         calculate D2E/DX2 analytically  !
 ! A23   A(11,12,13)           119.4273         calculate D2E/DX2 analytically  !
 ! D1    D(2,1,4,3)            179.282          calculate D2E/DX2 analytically  !
 ! D2    D(2,1,4,5)             -0.5643         calculate D2E/DX2 analytically  !
 ! D3    D(7,3,4,1)            175.8222         calculate D2E/DX2 analytically  !
 ! D4    D(7,3,4,5)             -4.3422         calculate D2E/DX2 analytically  !
 ! D5    D(12,3,4,1)            -4.3741         calculate D2E/DX2 analytically  !
 ! D6    D(12,3,4,5)           175.4615         calculate D2E/DX2 analytically  !
 ! D7    D(4,3,7,8)             -0.6347         calculate D2E/DX2 analytically  !
 ! D8    D(4,3,7,9)            179.5051         calculate D2E/DX2 analytically  !
 ! D9    D(12,3,7,8)           179.5594         calculate D2E/DX2 analytically  !
 ! D10   D(12,3,7,9)            -0.3007         calculate D2E/DX2 analytically  !
 ! D11   D(4,3,12,11)         -179.6103         calculate D2E/DX2 analytically  !
 ! D12   D(4,3,12,13)            0.2071         calculate D2E/DX2 analytically  !
 ! D13   D(7,3,12,11)            0.2021         calculate D2E/DX2 analytically  !
 ! D14   D(7,3,12,13)         -179.9805         calculate D2E/DX2 analytically  !
 ! D15   D(1,4,5,6)            178.079          calculate D2E/DX2 analytically  !
 ! D16   D(3,4,5,6)             -1.7581         calculate D2E/DX2 analytically  !
 ! D17   D(3,7,9,10)             0.0991         calculate D2E/DX2 analytically  !
 ! D18   D(3,7,9,15)          -179.7874         calculate D2E/DX2 analytically  !
 ! D19   D(8,7,9,10)          -179.7645         calculate D2E/DX2 analytically  !
 ! D20   D(8,7,9,15)             0.349          calculate D2E/DX2 analytically  !
 ! D21   D(7,9,10,11)            0.2135         calculate D2E/DX2 analytically  !
 ! D22   D(7,9,10,14)         -179.7441         calculate D2E/DX2 analytically  !
 ! D23   D(15,9,10,11)        -179.8997         calculate D2E/DX2 analytically  !
 ! D24   D(15,9,10,14)           0.1427         calculate D2E/DX2 analytically  !
 ! D25   D(9,10,11,12)          -0.308          calculate D2E/DX2 analytically  !
 ! D26   D(9,10,11,16)         178.6081         calculate D2E/DX2 analytically  !
 ! D27   D(14,10,11,12)        179.6498         calculate D2E/DX2 analytically  !
 ! D28   D(14,10,11,16)         -1.4341         calculate D2E/DX2 analytically  !
 ! D29   D(10,11,12,3)           0.0977         calculate D2E/DX2 analytically  !
 ! D30   D(10,11,12,13)       -179.7181         calculate D2E/DX2 analytically  !
 ! D31   D(16,11,12,3)        -178.8129         calculate D2E/DX2 analytically  !
 ! D32   D(16,11,12,13)          1.3714         calculate D2E/DX2 analytically  !
 --------------------------------------------------------------------------------
 Trust Radius=3.00D-01 FncErr=1.00D-07 GrdErr=1.00D-06 EigMax=2.50D+02 EigMin=1.00D-04
 Number of steps in this run=     81 maximum allowed number of steps=    100.
 GradGradGradGradGradGradGradGradGradGradGradGradGradGradGradGradGradGrad

                          Input orientation:                          
 ---------------------------------------------------------------------
 Center     Atomic      Atomic             Coordinates (Angstroms)
 Number     Number       Type             X           Y           Z
 ---------------------------------------------------------------------
      1          8           0        8.680650    7.479959    5.596898
      2          1           0        9.482899    7.175251    6.030333
      3          6           0        6.243053    6.995482    5.182227
      4          5           0        7.632824    6.633965    5.808132
      5          8           0        7.864885    5.515248    6.562944
      6          1           0        7.090838    4.968526    6.706391
      7          6           0        5.134165    6.149031    5.272303
      8          1           0        5.204204    5.190638    5.780089
      9          6           0        3.914570    6.511384    4.711682
     10          6           0        3.791226    7.727910    4.050724
     11          6           0        4.879666    8.595132    3.936101
     12          6           0        6.091565    8.212453    4.507256
     13          1           0        6.948831    8.874593    4.433239
     14          1           0        2.836924    8.010593    3.617391
     15          9           0        2.850102    5.686838    4.809311
     16          9           0        4.761093    9.762695    3.268839
 ---------------------------------------------------------------------
                    Distance matrix (angstroms):
                    1          2          3          4          5
     1  O    0.000000
     2  H    0.961414   0.000000
     3  C    2.519633   3.353834   0.000000
     4  B    1.363182   1.940397   1.566498   0.000000
     5  O    2.336409   2.378498   2.593802   1.369351   0.000000
     6  H    3.172660   3.323950   2.674017   1.968325   0.958452
     7  C    3.801879   4.532022   1.397936   2.601071   3.086141
     8  H    4.166560   4.723192   2.166589   2.825274   2.792393
     9  C    4.943406   5.760716   2.424375   3.878484   4.474868
    10  C    5.134063   6.051399   2.797893   4.363837   5.272743
    11  C    4.295269   5.252773   2.443468   3.864008   5.029664
    12  C    2.902969   3.859624   1.399840   2.561129   3.826935
    13  H    2.509642   3.443831   2.142467   2.716356   4.081666
    14  H    6.192669   7.119626   3.883410   5.449322   6.339039
    15  F    6.150680   6.906538   3.655644   4.976859   5.315329
    16  F    5.098398   6.051129   3.676238   4.948110   6.206887
                    6          7          8          9         10
     6  H    0.000000
     7  C    2.697920   0.000000
     8  H    2.113470   1.086862   0.000000
     9  C    4.055608   1.390326   2.132843   0.000000
    10  C    5.055117   2.405951   3.380083   1.389969   0.000000
    11  C    5.071100   2.798860   3.885382   2.423828   1.396393
    12  C    4.044478   2.399921   3.396893   2.770331   2.394736
    13  H    4.521587   3.380197   4.292931   3.856038   3.381075
    14  H    6.073868   3.388431   4.270061   2.146258   1.085532
    15  F    4.700928   2.375906   2.594306   1.350000   2.372160
    16  F    6.342596   4.148688   5.235114   3.656421   2.385861
                   11         12         13         14         15
    11  C    0.000000
    12  C    1.393327   0.000000
    13  H    2.146320   1.085732   0.000000
    14  H    2.148501   3.380132   4.280173   0.000000
    15  F    3.652369   4.120322   5.206034   2.611644   0.000000
    16  F    1.350000   2.388949   2.632631   2.625600   4.757893
                   16
    16  F    0.000000
 Symmetry turned off by external request.
 Stoichiometry    C6H5BF2O2
 Framework group  C1[X(C6H5BF2O2)]
 Deg. of freedom    42
 Full point group                 C1      NOp   1
 Rotational constants (GHZ):           1.4745841           0.7845953           0.5123447
 Standard basis: 6-311+G(d,p) (5D, 7F)
   272 basis functions,   436 primitive gaussians,   283 cartesian basis functions
    40 alpha electrons       40 beta electrons
       nuclear repulsion energy       564.6118528363 Hartrees.
 NAtoms=   16 NActive=   16 NUniq=   16 SFac= 1.00D+00 NAtFMM=   60 NAOKFM=F Big=F
 Integral buffers will be    131072 words long.
 Raffenetti 2 integral format.
 Two-electron integral symmetry is turned off.
 One-electron integrals computed using PRISM.
 NBasis=   272 RedAO= T EigKep=  2.83D-06  NBF=   272
 NBsUse=   272 1.00D-06 EigRej= -1.00D+00 NBFU=   272
 ExpMin= 3.15D-02 ExpMax= 1.14D+04 ExpMxC= 1.72D+03 IAcc=3 IRadAn=         5 AccDes= 0.00D+00
 Harris functional with IExCor= 1009 and IRadAn=       5 diagonalized for initial guess.
 HarFok:  IExCor= 1009 AccDes= 0.00D+00 IRadAn=         5 IDoV= 1 UseB2=F ITyADJ=14
 ICtDFT=  3500011 ScaDFX=  1.000000  1.000000  1.000000  1.000000
 FoFCou: FMM=F IPFlag=           0 FMFlag=      100000 FMFlg1=           0
         NFxFlg=           0 DoJE=T BraDBF=F KetDBF=T FulRan=T
         wScrn=  0.000000 ICntrl=       500 IOpCl=  0 I1Cent=   200000004 NGrid=           0
         NMat0=    1 NMatS0=      1 NMatT0=    0 NMatD0=    1 NMtDS0=    0 NMtDT0=    0
 Symmetry not used in FoFCou.
 Requested convergence on RMS density matrix=1.00D-08 within 128 cycles.
 Requested convergence on MAX density matrix=1.00D-06.
 Requested convergence on             energy=1.00D-06.
 Level shift goal  0.100 maximum shift  0.100.
 No special actions if energy rises.
 Dynamic level shift is on during FON iterations.
 SCF Done:  E(RM062X) =  -606.704180099     A.U. after   14 cycles
            NFock= 14  Conv=0.48D-08     -V/T= 2.0034
 DoSCS=F DFT=T ScalE2(SS,OS)=  1.000000  1.000000
 Range of M.O.s used for correlation:     1   272
 NBasis=   272 NAE=    40 NBE=    40 NFC=     0 NFV=     0
 NROrb=    272 NOA=    40 NOB=    40 NVA=   232 NVB=   232

 **** Warning!!: The largest alpha MO coefficient is  0.16026520D+03

 Symmetrizing basis deriv contribution to polar:
 IMax=3 JMax=2 DiffMx= 0.00D+00
 G2DrvN: will do    17 centers at a time, making    1 passes.
 Calling FoFCou, ICntrl=  3107 FMM=F I1Cent=   0 AccDes= 0.00D+00.
 End of G2Drv F.D. properties file   721 does not exist.
 End of G2Drv F.D. properties file   722 does not exist.
 End of G2Drv F.D. properties file   788 does not exist.
          IDoAtm=1111111111111111
          Differentiating once with respect to nuclear coordinates.
 Keep R1 ints in memory in canonical form, NReq=724819200.
          There are    51 degrees of freedom in the 1st order CPHF.  IDoFFX=6 NUNeed=     0.
     45 vectors produced by pass  0 Test12= 1.82D-14 1.96D-09 XBig12= 1.54D-01 1.07D-01.
 AX will form    45 AO Fock derivatives at one time.
     45 vectors produced by pass  1 Test12= 1.82D-14 1.96D-09 XBig12= 1.18D-02 3.03D-02.
     45 vectors produced by pass  2 Test12= 1.82D-14 1.96D-09 XBig12= 3.37D-04 3.56D-03.
     45 vectors produced by pass  3 Test12= 1.82D-14 1.96D-09 XBig12= 2.82D-06 2.68D-04.
     45 vectors produced by pass  4 Test12= 1.82D-14 1.96D-09 XBig12= 2.97D-08 1.97D-05.
     45 vectors produced by pass  5 Test12= 1.82D-14 1.96D-09 XBig12= 1.78D-10 1.26D-06.
     44 vectors produced by pass  6 Test12= 1.82D-14 1.96D-09 XBig12= 8.14D-13 1.39D-07.
     12 vectors produced by pass  7 Test12= 1.82D-14 1.96D-09 XBig12= 3.50D-15 6.25D-09.
 InvSVY:  IOpt=1 It=  1 EMax= 3.33D-16
 Solved reduced A of dimension   326 with    51 vectors.
 End of Minotr F.D. properties file   721 does not exist.
 End of Minotr F.D. properties file   722 does not exist.
 End of Minotr F.D. properties file   788 does not exist.

 **********************************************************************

            Population analysis using the SCF Density.

 **********************************************************************

 Alpha  occ. eigenvalues --  -25.27162 -25.27048 -19.65343 -19.64481 -10.65586
 Alpha  occ. eigenvalues --  -10.65501 -10.57604 -10.57381 -10.56571 -10.56015
 Alpha  occ. eigenvalues --   -7.10278  -1.38900  -1.38680  -1.18341  -1.14602
 Alpha  occ. eigenvalues --   -0.99136  -0.87639  -0.87026  -0.74013  -0.73287
 Alpha  occ. eigenvalues --   -0.67943  -0.66122  -0.63582  -0.61903  -0.59808
 Alpha  occ. eigenvalues --   -0.58747  -0.58592  -0.57699  -0.54739  -0.53173
 Alpha  occ. eigenvalues --   -0.49442  -0.48414  -0.47483  -0.47133  -0.45257
 Alpha  occ. eigenvalues --   -0.44485  -0.41885  -0.41391  -0.33341  -0.32039
 Alpha virt. eigenvalues --   -0.02530  -0.00944   0.00660   0.01189   0.01792
 Alpha virt. eigenvalues --    0.02637   0.03743   0.04269   0.05445   0.06178
 Alpha virt. eigenvalues --    0.07200   0.07360   0.09115   0.10260   0.10574
 Alpha virt. eigenvalues --    0.11267   0.12251   0.12823   0.13092   0.13382
 Alpha virt. eigenvalues --    0.14205   0.14879   0.15756   0.15960   0.16334
 Alpha virt. eigenvalues --    0.16628   0.17754   0.18196   0.18723   0.19678
 Alpha virt. eigenvalues --    0.21117   0.21417   0.22101   0.23054   0.23475
 Alpha virt. eigenvalues --    0.23823   0.24055   0.24397   0.24858   0.25373
 Alpha virt. eigenvalues --    0.25892   0.27525   0.28588   0.29235   0.31951
 Alpha virt. eigenvalues --    0.32166   0.32856   0.34223   0.35923   0.36315
 Alpha virt. eigenvalues --    0.37115   0.37503   0.39696   0.40225   0.41219
 Alpha virt. eigenvalues --    0.42760   0.43277   0.43871   0.44661   0.46777
 Alpha virt. eigenvalues --    0.47979   0.48896   0.49551   0.50822   0.52705
 Alpha virt. eigenvalues --    0.55154   0.56272   0.58883   0.59228   0.60251
 Alpha virt. eigenvalues --    0.60692   0.61132   0.63024   0.63601   0.66090
 Alpha virt. eigenvalues --    0.66659   0.68085   0.69532   0.71794   0.72119
 Alpha virt. eigenvalues --    0.73398   0.77045   0.77320   0.79761   0.83021
 Alpha virt. eigenvalues --    0.83727   0.84825   0.88377   0.89990   0.93326
 Alpha virt. eigenvalues --    0.93643   0.93886   0.95380   0.97064   1.00002
 Alpha virt. eigenvalues --    1.02204   1.03121   1.04372   1.07162   1.08734
 Alpha virt. eigenvalues --    1.10013   1.10947   1.11373   1.12057   1.14819
 Alpha virt. eigenvalues --    1.15704   1.18830   1.23137   1.25075   1.28801
 Alpha virt. eigenvalues --    1.31877   1.33562   1.37583   1.43662   1.44344
 Alpha virt. eigenvalues --    1.46173   1.46916   1.48840   1.49520   1.50445
 Alpha virt. eigenvalues --    1.51403   1.52029   1.55409   1.58072   1.59775
 Alpha virt. eigenvalues --    1.59987   1.61185   1.62087   1.63649   1.64505
 Alpha virt. eigenvalues --    1.67171   1.69051   1.69524   1.75839   1.78366
 Alpha virt. eigenvalues --    1.81808   1.88050   1.90076   1.91064   1.92947
 Alpha virt. eigenvalues --    1.94913   1.95839   1.97969   1.99634   2.02182
 Alpha virt. eigenvalues --    2.03506   2.08222   2.10707   2.11716   2.12397
 Alpha virt. eigenvalues --    2.15145   2.16261   2.18632   2.20041   2.26060
 Alpha virt. eigenvalues --    2.32547   2.33491   2.49000   2.49273   2.56117
 Alpha virt. eigenvalues --    2.57467   2.60958   2.62322   2.64302   2.67763
 Alpha virt. eigenvalues --    2.68279   2.71942   2.75005   2.77814   2.78833
 Alpha virt. eigenvalues --    2.79070   2.79354   2.83410   2.90857   2.92722
 Alpha virt. eigenvalues --    3.06045   3.09934   3.11338   3.15724   3.22362
 Alpha virt. eigenvalues --    3.22848   3.25153   3.25184   3.30291   3.36397
 Alpha virt. eigenvalues --    3.41836   3.43808   3.52047   3.57920   3.60619
 Alpha virt. eigenvalues --    3.64469   3.69772   3.76774   3.86943   3.87104
 Alpha virt. eigenvalues --    3.90289   3.92186   3.92914   3.95004   4.06213
 Alpha virt. eigenvalues --    4.06448   4.06917   4.15092   4.15556   4.19738
 Alpha virt. eigenvalues --    4.20941   4.84524   4.92494   4.92845   5.06877
 Alpha virt. eigenvalues --    5.08011   5.37789   5.48490   5.67546   5.75108
 Alpha virt. eigenvalues --    6.45200   6.45770   6.56934   6.58167   6.83989
 Alpha virt. eigenvalues --    6.88427  14.77889  23.59188  23.91912  23.99417
 Alpha virt. eigenvalues --   24.11755  24.12182  24.21066  49.98663  50.04147
 Alpha virt. eigenvalues --   66.92580  66.93060
          Condensed to atoms (all electrons):
               1          2          3          4          5          6
     1  O    7.785004   0.266406   0.022023   0.447898  -0.118140   0.018832
     2  H    0.266406   0.448309   0.050176  -0.005255  -0.033937   0.003193
     3  C    0.022023   0.050176   9.516137   0.124851  -0.169610  -0.000855
     4  B    0.447898  -0.005255   0.124851   3.354690   0.372136   0.015555
     5  O   -0.118140  -0.033937  -0.169610   0.372136   7.976412   0.256160
     6  H    0.018832   0.003193  -0.000855   0.015555   0.256160   0.433431
     7  C    0.052982  -0.001669  -1.693979   0.185935  -0.014424  -0.027467
     8  H    0.002194  -0.000061   0.063545   0.014791  -0.004721   0.011136
     9  C    0.037511   0.002948   0.299058  -0.001870   0.030203   0.038292
    10  C   -0.010532  -0.000313  -1.518010   0.084170   0.002176   0.001237
    11  C    0.007326  -0.016506   0.193416  -0.075570   0.038130  -0.010134
    12  C   -0.131477  -0.025121  -0.533667  -0.001208   0.027488   0.004618
    13  H    0.006420  -0.000509   0.109147  -0.005997   0.002471  -0.000107
    14  H    0.000013   0.000000   0.028342   0.000113   0.000014  -0.000002
    15  F   -0.000038   0.000000  -0.008648  -0.001455   0.000393   0.000046
    16  F    0.000619  -0.000001   0.005246  -0.001323  -0.000085   0.000005
               7          8          9         10         11         12
     1  O    0.052982   0.002194   0.037511  -0.010532   0.007326  -0.131477
     2  H   -0.001669  -0.000061   0.002948  -0.000313  -0.016506  -0.025121
     3  C   -1.693979   0.063545   0.299058  -1.518010   0.193416  -0.533667
     4  B    0.185935   0.014791  -0.001870   0.084170  -0.075570  -0.001208
     5  O   -0.014424  -0.004721   0.030203   0.002176   0.038130   0.027488
     6  H   -0.027467   0.011136   0.038292   0.001237  -0.010134   0.004618
     7  C   11.624152   0.284310  -1.737207  -0.458106  -0.627053  -1.397441
     8  H    0.284310   0.523002   0.009855  -0.018154  -0.004106  -0.012097
     9  C   -1.737207   0.009855   8.471797  -0.817918   0.564893  -1.105986
    10  C   -0.458106  -0.018154  -0.817918   9.465438  -0.795917  -0.296228
    11  C   -0.627053  -0.004106   0.564893  -0.795917   8.630408  -2.089410
    12  C   -1.397441  -0.012097  -1.105986  -0.296228  -2.089410  11.479714
    13  H    0.003439  -0.000030  -0.002251  -0.024430  -0.058684   0.324273
    14  H   -0.037457  -0.000125   0.024766   0.353979   0.026915  -0.033255
    15  F   -0.245372  -0.005596   0.491782  -0.236645   0.017413  -0.001592
    16  F   -0.004316   0.000100   0.020941  -0.246947   0.453614  -0.210447
              13         14         15         16
     1  O    0.006420   0.000013  -0.000038   0.000619
     2  H   -0.000509   0.000000   0.000000  -0.000001
     3  C    0.109147   0.028342  -0.008648   0.005246
     4  B   -0.005997   0.000113  -0.001455  -0.001323
     5  O    0.002471   0.000014   0.000393  -0.000085
     6  H   -0.000107  -0.000002   0.000046   0.000005
     7  C    0.003439  -0.037457  -0.245372  -0.004316
     8  H   -0.000030  -0.000125  -0.005596   0.000100
     9  C   -0.002251   0.024766   0.491782   0.020941
    10  C   -0.024430   0.353979  -0.236645  -0.246947
    11  C   -0.058684   0.026915   0.017413   0.453614
    12  C    0.324273  -0.033255  -0.001592  -0.210447
    13  H    0.455154  -0.000072   0.000079  -0.005092
    14  H   -0.000072   0.465459  -0.005871  -0.005557
    15  F    0.000079  -0.005871   9.179892  -0.000390
    16  F   -0.005092  -0.005557  -0.000390   9.176738
 Mulliken charges:
               1
     1  O   -0.387041
     2  H    0.312338
     3  C   -0.487171
     4  B    0.492540
     5  O   -0.364666
     6  H    0.256059
     7  C    0.093673
     8  H    0.135955
     9  C   -0.326813
    10  C    0.516198
    11  C   -0.254736
    12  C    0.001836
    13  H    0.196188
    14  H    0.182740
    15  F   -0.183996
    16  F   -0.183105
 Sum of Mulliken charges =   0.00000
 Mulliken charges with hydrogens summed into heavy atoms:
               1
     1  O   -0.074703
     3  C   -0.487171
     4  B    0.492540
     5  O   -0.108606
     7  C    0.229628
     9  C   -0.326813
    10  C    0.698938
    11  C   -0.254736
    12  C    0.198024
    15  F   -0.183996
    16  F   -0.183105
 APT charges:
               1
     1  O   -0.414322
     2  H    2.059146
     3  C   -1.841190
     4  B   -0.410137
     5  O    1.345351
     6  H   -1.202215
     7  C   -0.419320
     8  H   -0.137542
     9  C    0.032302
    10  C   -0.400725
    11  C   -0.778518
    12  C    0.704279
    13  H    1.959345
    14  H   -0.186600
    15  F   -0.371581
    16  F    0.061725
 Sum of APT charges =   0.00000
 APT charges with hydrogens summed into heavy atoms:
               1
     1  O    1.644823
     3  C   -1.841190
     4  B   -0.410137
     5  O    0.143137
     7  C   -0.556861
     9  C    0.032302
    10  C   -0.587324
    11  C   -0.778518
    12  C    2.663625
    15  F   -0.371581
    16  F    0.061725
 Electronic spatial extent (au):  <R**2>=          32644.4067
 Charge=              0.0000 electrons
 Dipole moment (field-independent basis, Debye):
    X=              0.6967    Y=             -1.3497    Z=              1.1297  Tot=              1.8930
 Quadrupole moment (field-independent basis, Debye-Ang):
   XX=            -52.4218   YY=            -82.9439   ZZ=            -51.1989
   XY=             -4.4137   XZ=             11.8435   YZ=              0.8710
 Traceless Quadrupole moment (field-independent basis, Debye-Ang):
   XX=              9.7664   YY=            -20.7557   ZZ=             10.9893
   XY=             -4.4137   XZ=             11.8435   YZ=              0.8710
 Octapole moment (field-independent basis, Debye-Ang**2):
  XXX=           -929.8976  YYY=          -1596.8360  ZZZ=           -833.1324  XYY=           -456.2102
  XXY=           -424.7683  XXZ=           -197.1566  XZZ=           -255.1770  YZZ=           -412.3591
  YYZ=           -345.9083  XYZ=             38.3671
 Hexadecapole moment (field-independent basis, Debye-Ang**3):
 XXXX=         -11569.8942 YYYY=         -22848.4583 ZZZZ=          -8798.0542 XXXY=          -6830.5186
 XXXZ=          -4286.4341 YYYX=          -8942.7966 YYYZ=          -7093.7245 ZZZX=          -4727.7429
 ZZZY=          -6105.3778 XXYY=          -5756.8980 XXZZ=          -2952.7385 YYZZ=          -4869.7477
 XXYZ=          -1572.1284 YYXZ=          -1829.6597 ZZXY=          -2073.8655
 N-N= 5.646118528363D+02 E-N=-2.556479537700D+03  KE= 6.046408526571D+02
  Exact polarizability:       0.000       0.000       0.000       0.000       0.000       0.000
 Approx polarizability:     123.480       7.449     115.139      14.321     -24.777      81.407
 Calling FoFJK, ICntrl=    100127 FMM=F ISym2X=0 I1Cent= 0 IOpClX= 0 NMat=1 NMatS=1 NMatT=0.
 -------------------------------------------------------------------
 Center     Atomic                   Forces (Hartrees/Bohr)
 Number     Number              X              Y              Z
 -------------------------------------------------------------------
      1        8          -0.003738678   -0.000950015   -0.000482288
      2        1           0.000293055    0.000122412    0.000015047
      3        6          -0.011906648    0.004677771   -0.005551148
      4        5           0.006296926   -0.000994612    0.002324133
      5        8          -0.002391449    0.002123185   -0.002010072
      6        1           0.000408725   -0.000878109    0.000726526
      7        6          -0.003821120   -0.008278900    0.003071769
      8        1          -0.002425080    0.000225796   -0.001050409
      9        6           0.012620692    0.007194877    0.000923958
     10        6          -0.013696304    0.009248076   -0.008875563
     11        6           0.004668449   -0.020761015    0.010008271
     12        6           0.006225518    0.014050861   -0.005051064
     13        1          -0.001199011    0.000377873   -0.001015282
     14        1           0.000450629   -0.001028754    0.000224400
     15        9           0.008620066    0.008133960   -0.001641812
     16        9          -0.000405770   -0.013263407    0.008383534
 -------------------------------------------------------------------
 Cartesian Forces:  Max     0.020761015 RMS     0.006681735
 FormGI is forming the generalized inverse of G from B-inverse, IUseBI=4.

 GradGradGradGradGradGradGradGradGradGradGradGradGradGradGradGradGradGrad
 Berny optimization.
 Internal  Forces:  Max     0.016781436 RMS     0.005150060
 Search for a local minimum.
 Step number   1 out of a maximum of   81
 All quantities printed in internal units (Hartrees-Bohrs-Radians)
 Mixed Optimization -- RFO/linear search
 Second derivative matrix not updated -- analytic derivatives used.
 ITU=  0
     Eigenvalues ---    0.00041   0.01011   0.01240   0.01502   0.01755
     Eigenvalues ---    0.01781   0.02107   0.02239   0.02374   0.02601
     Eigenvalues ---    0.03303   0.03502   0.03922   0.09991   0.10365
     Eigenvalues ---    0.11145   0.11319   0.11690   0.15743   0.16933
     Eigenvalues ---    0.17459   0.18059   0.18889   0.19181   0.19542
     Eigenvalues ---    0.21594   0.28097   0.29346   0.35513   0.36125
     Eigenvalues ---    0.36208   0.37215   0.38519   0.39112   0.43377
     Eigenvalues ---    0.45084   0.46860   0.47360   0.48910   0.51656
     Eigenvalues ---    0.55267   0.56241
 RFO step:  Lambda=-6.67845979D-03 EMin= 4.13561441D-04
 Linear search not attempted -- first point.
 Iteration  1 RMS(Cart)=  0.02405432 RMS(Int)=  0.00042993
 Iteration  2 RMS(Cart)=  0.00062418 RMS(Int)=  0.00011825
 Iteration  3 RMS(Cart)=  0.00000012 RMS(Int)=  0.00011825
 Variable       Old X    -DE/DX   Delta X   Delta X   Delta X     New X
                                 (Linear)    (Quad)   (Total)
    R1        1.81681   0.00021   0.00000   0.00035   0.00035   1.81715
    R2        2.57604  -0.00309   0.00000  -0.00681  -0.00681   2.56923
    R3        2.96025   0.00113   0.00000   0.01020   0.01020   2.97045
    R4        2.64172   0.00002   0.00000  -0.00028  -0.00051   2.64121
    R5        2.64531  -0.00251   0.00000  -0.00372  -0.00381   2.64151
    R6        2.58770  -0.00206   0.00000  -0.00755  -0.00755   2.58015
    R7        1.81121   0.00028   0.00000  -0.00005  -0.00005   1.81117
    R8        2.05387  -0.00085   0.00000  -0.00425  -0.00425   2.04962
    R9        2.62734  -0.00709   0.00000  -0.01420  -0.01434   2.61300
   R10        2.62666  -0.00902   0.00000  -0.01367  -0.01359   2.61307
   R11        2.55113  -0.01188   0.00000  -0.01657  -0.01657   2.53456
   R12        2.63880  -0.01174   0.00000  -0.02343  -0.02320   2.61560
   R13        2.05136  -0.00075   0.00000  -0.00733  -0.00733   2.04402
   R14        2.63301  -0.01028   0.00000  -0.02153  -0.02138   2.61163
   R15        2.55113  -0.01558   0.00000  -0.01945  -0.01945   2.53168
   R16        2.05174  -0.00065   0.00000  -0.00543  -0.00543   2.04630
    A1        1.95504   0.00044   0.00000   0.00836   0.00836   1.96339
    A2        2.13917  -0.00031   0.00000  -0.00582  -0.00566   2.13350
    A3        2.08208  -0.00209   0.00000  -0.01050  -0.01034   2.07174
    A4        2.06193   0.00240   0.00000   0.01633   0.01601   2.07794
    A5        2.06782  -0.00264   0.00000  -0.01429  -0.01429   2.05353
    A6        2.05123   0.00244   0.00000   0.01297   0.01297   2.06420
    A7        2.16414   0.00020   0.00000   0.00131   0.00131   2.16545
    A8        1.99506   0.00213   0.00000   0.01473   0.01473   2.00979
    A9        2.10938   0.00546   0.00000   0.03300   0.03319   2.14256
   A10        2.10835  -0.00578   0.00000  -0.02299  -0.02337   2.08498
   A11        2.06546   0.00031   0.00000  -0.01002  -0.00983   2.05563
   A12        2.09173   0.00999   0.00000   0.04768   0.04763   2.13936
   A13        2.09824  -0.00323   0.00000  -0.02017  -0.02015   2.07809
   A14        2.09322  -0.00677   0.00000  -0.02750  -0.02748   2.06574
   A15        2.10995  -0.01309   0.00000  -0.07054  -0.07021   2.03974
   A16        2.08949   0.00575   0.00000   0.03234   0.03217   2.12166
   A17        2.08374   0.00734   0.00000   0.03821   0.03804   2.12178
   A18        2.06434   0.01678   0.00000   0.07694   0.07728   2.14162
   A19        2.10508  -0.01034   0.00000  -0.04505  -0.04528   2.05980
   A20        2.11360  -0.00643   0.00000  -0.03161  -0.03184   2.08176
   A21        2.13005  -0.01031   0.00000  -0.04740  -0.04733   2.08272
   A22        2.06873   0.00662   0.00000   0.03855   0.03852   2.10725
   A23        2.08440   0.00369   0.00000   0.00885   0.00882   2.09322
    D1        3.12906  -0.00001   0.00000  -0.00021  -0.00021   3.12885
    D2       -0.00985   0.00001   0.00000   0.00024   0.00024  -0.00961
    D3        3.06868  -0.00006   0.00000  -0.00429  -0.00427   3.06441
    D4       -0.07579  -0.00008   0.00000  -0.00476  -0.00473  -0.08052
    D5       -0.07634   0.00003   0.00000  -0.00173  -0.00176  -0.07810
    D6        3.06238   0.00001   0.00000  -0.00219  -0.00222   3.06016
    D7       -0.01108  -0.00004   0.00000  -0.00028  -0.00031  -0.01139
    D8        3.13296   0.00005   0.00000   0.00303   0.00299   3.13594
    D9        3.13390  -0.00013   0.00000  -0.00277  -0.00278   3.13112
   D10       -0.00525  -0.00004   0.00000   0.00054   0.00052  -0.00473
   D11       -3.13479  -0.00006   0.00000  -0.00125  -0.00132  -3.13611
   D12        0.00361  -0.00004   0.00000   0.00008   0.00003   0.00364
   D13        0.00353   0.00003   0.00000   0.00116   0.00107   0.00459
   D14       -3.14125   0.00005   0.00000   0.00249   0.00242  -3.13883
   D15        3.10806  -0.00007   0.00000  -0.00205  -0.00205   3.10601
   D16       -0.03068  -0.00004   0.00000  -0.00155  -0.00154  -0.03223
   D17        0.00173   0.00004   0.00000  -0.00005   0.00003   0.00176
   D18       -3.13788  -0.00008   0.00000  -0.00318  -0.00310  -3.14098
   D19       -3.13748   0.00012   0.00000   0.00312   0.00310  -3.13438
   D20        0.00609   0.00000   0.00000  -0.00001  -0.00003   0.00607
   D21        0.00373  -0.00009   0.00000  -0.00244  -0.00238   0.00135
   D22       -3.13713  -0.00006   0.00000  -0.00281  -0.00280  -3.13993
   D23       -3.13984   0.00004   0.00000   0.00069   0.00074  -3.13910
   D24        0.00249   0.00007   0.00000   0.00031   0.00032   0.00281
   D25       -0.00538   0.00004   0.00000   0.00387   0.00389  -0.00149
   D26        3.11730   0.00071   0.00000   0.02015   0.02006   3.13735
   D27        3.13548   0.00001   0.00000   0.00424   0.00431   3.13979
   D28       -0.02503   0.00068   0.00000   0.02052   0.02047  -0.00456
   D29        0.00171   0.00001   0.00000  -0.00313  -0.00319  -0.00148
   D30       -3.13667  -0.00002   0.00000  -0.00453  -0.00458  -3.14126
   D31       -3.12087  -0.00062   0.00000  -0.01935  -0.01942  -3.14029
   D32        0.02393  -0.00065   0.00000  -0.02075  -0.02082   0.00312
         Item               Value     Threshold  Converged?
 Maximum Force            0.016781     0.000015     NO 
 RMS     Force            0.005150     0.000010     NO 
 Maximum Displacement     0.081315     0.000060     NO 
 RMS     Displacement     0.024222     0.000040     NO 
 Predicted change in Energy=-3.441594D-03
 GradGradGradGradGradGradGradGradGradGradGradGradGradGradGradGradGradGrad

                          Input orientation:                          
 ---------------------------------------------------------------------
 Center     Atomic      Atomic             Coordinates (Angstroms)
 Number     Number       Type             X           Y           Z
 ---------------------------------------------------------------------
      1          8           0        8.670874    7.480339    5.586907
      2          1           0        9.482622    7.190796    6.013401
      3          6           0        6.240643    6.997106    5.182073
      4          5           0        7.633856    6.630044    5.810628
      5          8           0        7.862315    5.516355    6.566735
      6          1           0        7.094166    4.964490    6.721577
      7          6           0        5.134063    6.148339    5.274517
      8          1           0        5.172464    5.186184    5.773684
      9          6           0        3.933418    6.531886    4.705915
     10          6           0        3.775536    7.732776    4.038825
     11          6           0        4.886730    8.554004    3.957545
     12          6           0        6.107613    8.215240    4.509490
     13          1           0        6.947853    8.892337    4.419401
     14          1           0        2.828045    8.017109    3.601349
     15          9           0        2.876436    5.711612    4.799946
     16          9           0        4.760861    9.721082    3.311869
 ---------------------------------------------------------------------
                    Distance matrix (angstroms):
                    1          2          3          4          5
     1  O    0.000000
     2  H    0.961596   0.000000
     3  C    2.510662   3.352469   0.000000
     4  B    1.359580   1.942549   1.571896   0.000000
     5  O    2.339030   2.394854   2.596100   1.365356   0.000000
     6  H    3.178519   3.341059   2.688885   1.973618   0.958428
     7  C    3.792208   4.532398   1.397667   2.601619   3.084249
     8  H    4.187708   4.759558   2.184136   2.853865   2.823693
     9  C    4.911130   5.739107   2.401342   3.863065   4.464324
    10  C    5.140488   6.063294   2.815134   4.386563   5.291939
    11  C    4.257619   5.216043   2.399266   3.831741   4.988917
    12  C    2.875971   3.834308   1.397825   2.556408   3.820369
    13  H    2.515076   3.443999   2.161877   2.743005   4.104210
    14  H    6.194289   7.126302   3.896783   5.468152   6.355404
    15  F    6.109273   6.877656   3.621658   4.949550   5.293266
    16  F    5.048260   5.999638   3.620422   4.904325   6.155721
                    6          7          8          9         10
     6  H    0.000000
     7  C    2.708779   0.000000
     8  H    2.154202   1.084612   0.000000
     9  C    4.063244   1.382738   2.118084   0.000000
    10  C    5.086636   2.425484   3.383234   1.382777   0.000000
    11  C    5.039569   2.753691   3.836954   2.357503   1.384115
    12  C    4.053886   2.409388   3.412898   2.756699   2.427526
    13  H    4.555151   3.398615   4.326853   3.839354   3.398974
    14  H    6.103613   3.407274   4.269599   2.155877   1.081651
    15  F    4.694689   2.347942   2.548723   1.341232   2.339399
    16  F    6.300443   4.093380   5.176412   3.577568   2.335100
                   11         12         13         14         15
    11  C    0.000000
    12  C    1.382013   0.000000
    13  H    2.139161   1.082857   0.000000
    14  H    2.157154   3.408745   4.290461   0.000000
    15  F    3.581915   4.097930   5.180567   2.598903   0.000000
    16  F    1.339706   2.348531   2.587737   2.592893   4.673465
                   16
    16  F    0.000000
 Symmetry turned off by external request.
 Stoichiometry    C6H5BF2O2
 Framework group  C1[X(C6H5BF2O2)]
 Deg. of freedom    42
 Full point group                 C1      NOp   1
 Rotational constants (GHZ):           1.5141978           0.7899506           0.5194111
 Standard basis: 6-311+G(d,p) (5D, 7F)
   272 basis functions,   436 primitive gaussians,   283 cartesian basis functions
    40 alpha electrons       40 beta electrons
       nuclear repulsion energy       567.8764942630 Hartrees.
 NAtoms=   16 NActive=   16 NUniq=   16 SFac= 1.00D+00 NAtFMM=   60 NAOKFM=F Big=F
 Integral buffers will be    131072 words long.
 Raffenetti 2 integral format.
 Two-electron integral symmetry is turned off.
 One-electron integrals computed using PRISM.
 NBasis=   272 RedAO= T EigKep=  3.16D-06  NBF=   272
 NBsUse=   272 1.00D-06 EigRej= -1.00D+00 NBFU=   272
 Initial guess from the checkpoint file:  "3-5-diF-phboh2-opt-freq.chk"
 B after Tr=     0.011091    0.009375   -0.020254
         Rot=    1.000000   -0.000968    0.000022   -0.000180 Ang=  -0.11 deg.
 ExpMin= 3.15D-02 ExpMax= 1.14D+04 ExpMxC= 1.72D+03 IAcc=3 IRadAn=         5 AccDes= 0.00D+00
 Harris functional with IExCor= 1009 and IRadAn=       5 diagonalized for initial guess.
 HarFok:  IExCor= 1009 AccDes= 0.00D+00 IRadAn=         5 IDoV= 1 UseB2=F ITyADJ=14
 ICtDFT=  3500011 ScaDFX=  1.000000  1.000000  1.000000  1.000000
 FoFCou: FMM=F IPFlag=           0 FMFlag=      100000 FMFlg1=           0
         NFxFlg=           0 DoJE=T BraDBF=F KetDBF=T FulRan=T
         wScrn=  0.000000 ICntrl=       500 IOpCl=  0 I1Cent=   200000004 NGrid=           0
         NMat0=    1 NMatS0=      1 NMatT0=    0 NMatD0=    1 NMtDS0=    0 NMtDT0=    0
 Symmetry not used in FoFCou.
 Requested convergence on RMS density matrix=1.00D-08 within 128 cycles.
 Requested convergence on MAX density matrix=1.00D-06.
 Requested convergence on             energy=1.00D-06.
 Level shift goal  0.100 maximum shift  0.100.
 No special actions if energy rises.
 Dynamic level shift is on during FON iterations.
 SCF Done:  E(RM062X) =  -606.707565953     A.U. after   11 cycles
            NFock= 11  Conv=0.85D-08     -V/T= 2.0031
 Calling FoFJK, ICntrl=      2127 FMM=F ISym2X=0 I1Cent= 0 IOpClX= 0 NMat=1 NMatS=1 NMatT=0.
 -------------------------------------------------------------------
 Center     Atomic                   Forces (Hartrees/Bohr)
 Number     Number              X              Y              Z
 -------------------------------------------------------------------
      1        8          -0.000030126    0.000001640   -0.000020430
      2        1           0.000016112    0.000015575   -0.000006317
      3        6          -0.000229789    0.000062425    0.000005026
      4        5           0.000209614   -0.000064860    0.000076947
      5        8          -0.000121496    0.000017346   -0.000039633
      6        1           0.000043652   -0.000037789    0.000050058
      7        6           0.000292515   -0.000500177    0.000351528
      8        1          -0.000168368   -0.000037312   -0.000071579
      9        6           0.000139037    0.000200887    0.000026264
     10        6          -0.000650626    0.000077212   -0.000181594
     11        6           0.000142870   -0.000649724    0.000136131
     12        6           0.000754119    0.000401592    0.000083844
     13        1          -0.000043186    0.000053296   -0.000157342
     14        1          -0.000047595   -0.000079773   -0.000101384
     15        9          -0.000289954   -0.000292227    0.000052698
     16        9          -0.000016779    0.000831888   -0.000204217
 -------------------------------------------------------------------
 Cartesian Forces:  Max     0.000831888 RMS     0.000262388

 GradGradGradGradGradGradGradGradGradGradGradGradGradGradGradGradGradGrad
 Berny optimization.
 Using GEDIIS/GDIIS optimizer.
 FormGI is forming the generalized inverse of G from B-inverse, IUseBI=4.
 Internal  Forces:  Max     0.000824013 RMS     0.000185710
 Search for a local minimum.
 Step number   2 out of a maximum of   81
 All quantities printed in internal units (Hartrees-Bohrs-Radians)
 Mixed Optimization -- En-DIIS/RFO-DIIS
 Update second derivatives using D2CorX and points    1    2
 DE= -3.39D-03 DEPred=-3.44D-03 R= 9.84D-01
 TightC=F SS=  1.41D+00  RLast= 1.75D-01 DXNew= 5.0454D-01 5.2526D-01
 Trust test= 9.84D-01 RLast= 1.75D-01 DXMaxT set to 5.05D-01
 ITU=  1  0
 Use linear search instead of GDIIS.
     Eigenvalues ---    0.00041   0.01011   0.01240   0.01502   0.01755
     Eigenvalues ---    0.01781   0.02107   0.02237   0.02372   0.02601
     Eigenvalues ---    0.03303   0.03501   0.03922   0.09992   0.10364
     Eigenvalues ---    0.11144   0.11314   0.11678   0.15742   0.16927
     Eigenvalues ---    0.17486   0.18023   0.18908   0.19180   0.19531
     Eigenvalues ---    0.21631   0.28101   0.29344   0.35513   0.36125
     Eigenvalues ---    0.36209   0.37219   0.38578   0.39117   0.43579
     Eigenvalues ---    0.45133   0.46847   0.47374   0.48909   0.52572
     Eigenvalues ---    0.55267   0.56241
 RFO step:  Lambda=-1.48140151D-05 EMin= 4.13561771D-04
 Quartic linear search produced a step of  0.00498.
 Iteration  1 RMS(Cart)=  0.03181998 RMS(Int)=  0.00045215
 Iteration  2 RMS(Cart)=  0.00065246 RMS(Int)=  0.00000156
 Iteration  3 RMS(Cart)=  0.00000020 RMS(Int)=  0.00000155
 Variable       Old X    -DE/DX   Delta X   Delta X   Delta X     New X
                                 (Linear)    (Quad)   (Total)
    R1        1.81715   0.00000   0.00000   0.00002   0.00002   1.81717
    R2        2.56923   0.00001  -0.00003  -0.00015  -0.00018   2.56905
    R3        2.97045   0.00015   0.00005   0.00047   0.00052   2.97097
    R4        2.64121   0.00035   0.00000   0.00052   0.00051   2.64172
    R5        2.64151   0.00039  -0.00002   0.00066   0.00064   2.64214
    R6        2.58015   0.00001  -0.00004  -0.00004  -0.00008   2.58007
    R7        1.81117  -0.00001   0.00000   0.00008   0.00008   1.81125
    R8        2.04962  -0.00001  -0.00002  -0.00003  -0.00005   2.04957
    R9        2.61300   0.00035  -0.00007   0.00087   0.00079   2.61379
   R10        2.61307   0.00036  -0.00007   0.00067   0.00060   2.61367
   R11        2.53456   0.00041  -0.00008   0.00117   0.00109   2.53565
   R12        2.61560   0.00061  -0.00012   0.00130   0.00119   2.61678
   R13        2.04402   0.00006  -0.00004   0.00009   0.00005   2.04408
   R14        2.61163   0.00042  -0.00011   0.00089   0.00079   2.61241
   R15        2.53168   0.00082  -0.00010   0.00227   0.00218   2.53385
   R16        2.04630   0.00001  -0.00003  -0.00004  -0.00007   2.04623
    A1        1.96339   0.00005   0.00004   0.00043   0.00048   1.96387
    A2        2.13350  -0.00009  -0.00003  -0.00138  -0.00140   2.13210
    A3        2.07174  -0.00011  -0.00005   0.00043   0.00038   2.07212
    A4        2.07794   0.00019   0.00008   0.00095   0.00103   2.07897
    A5        2.05353  -0.00008  -0.00007   0.00025   0.00018   2.05371
    A6        2.06420   0.00007   0.00006   0.00087   0.00093   2.06514
    A7        2.16545   0.00001   0.00001  -0.00112  -0.00112   2.16433
    A8        2.00979   0.00014   0.00007  -0.00004   0.00003   2.00983
    A9        2.14256   0.00023   0.00017   0.00104   0.00120   2.14377
   A10        2.08498  -0.00008  -0.00012  -0.00061  -0.00074   2.08424
   A11        2.05563  -0.00014  -0.00005  -0.00046  -0.00051   2.05512
   A12        2.13936   0.00012   0.00024   0.00067   0.00091   2.14027
   A13        2.07809  -0.00013  -0.00010  -0.00074  -0.00084   2.07725
   A14        2.06574   0.00002  -0.00014   0.00006  -0.00007   2.06566
   A15        2.03974  -0.00016  -0.00035  -0.00089  -0.00124   2.03850
   A16        2.12166   0.00002   0.00016   0.00006   0.00022   2.12188
   A17        2.12178   0.00014   0.00019   0.00084   0.00102   2.12280
   A18        2.14162   0.00015   0.00039   0.00090   0.00129   2.14291
   A19        2.05980   0.00007  -0.00023   0.00030   0.00007   2.05987
   A20        2.08176  -0.00022  -0.00016  -0.00120  -0.00136   2.08040
   A21        2.08272  -0.00022  -0.00024  -0.00103  -0.00127   2.08145
   A22        2.10725   0.00025   0.00019   0.00178   0.00197   2.10922
   A23        2.09322  -0.00004   0.00004  -0.00075  -0.00070   2.09251
    D1        3.12885   0.00000   0.00000  -0.00748  -0.00748   3.12137
    D2       -0.00961   0.00000   0.00000  -0.00531  -0.00531  -0.01492
    D3        3.06441  -0.00003  -0.00002  -0.05225  -0.05227   3.01214
    D4       -0.08052  -0.00003  -0.00002  -0.05454  -0.05457  -0.13508
    D5       -0.07810  -0.00001  -0.00001  -0.05149  -0.05150  -0.12960
    D6        3.06016  -0.00001  -0.00001  -0.05379  -0.05380   3.00636
    D7       -0.01139  -0.00001   0.00000  -0.00693  -0.00693  -0.01832
    D8        3.13594   0.00002   0.00001  -0.00109  -0.00108   3.13487
    D9        3.13112  -0.00002  -0.00001  -0.00769  -0.00771   3.12342
   D10       -0.00473   0.00000   0.00000  -0.00185  -0.00185  -0.00658
   D11       -3.13611  -0.00001  -0.00001   0.00309   0.00308  -3.13303
   D12        0.00364   0.00000   0.00000   0.00356   0.00356   0.00721
   D13        0.00459   0.00001   0.00001   0.00382   0.00382   0.00842
   D14       -3.13883   0.00002   0.00001   0.00429   0.00431  -3.13453
   D15        3.10601  -0.00001  -0.00001  -0.02066  -0.02068   3.08534
   D16       -0.03223  -0.00001  -0.00001  -0.01835  -0.01836  -0.05059
   D17        0.00176   0.00000   0.00000  -0.00015  -0.00015   0.00161
   D18       -3.14098  -0.00002  -0.00002  -0.00159  -0.00160   3.14060
   D19       -3.13438   0.00002   0.00002   0.00540   0.00541  -3.12897
   D20        0.00607   0.00000   0.00000   0.00396   0.00395   0.01002
   D21        0.00135  -0.00001  -0.00001   0.00014   0.00013   0.00148
   D22       -3.13993  -0.00003  -0.00001  -0.00148  -0.00150  -3.14142
   D23       -3.13910   0.00000   0.00000   0.00158   0.00158  -3.13752
   D24        0.00281  -0.00001   0.00000  -0.00005  -0.00005   0.00276
   D25       -0.00149   0.00003   0.00002   0.00194   0.00197   0.00048
   D26        3.13735   0.00010   0.00010   0.00341   0.00352   3.14087
   D27        3.13979   0.00004   0.00002   0.00357   0.00359  -3.13981
   D28       -0.00456   0.00012   0.00010   0.00504   0.00514   0.00059
   D29       -0.00148  -0.00003  -0.00002  -0.00396  -0.00398  -0.00546
   D30       -3.14126  -0.00004  -0.00002  -0.00443  -0.00446   3.13747
   D31       -3.14029  -0.00010  -0.00010  -0.00545  -0.00555   3.13734
   D32        0.00312  -0.00012  -0.00010  -0.00592  -0.00603  -0.00291
         Item               Value     Threshold  Converged?
 Maximum Force            0.000824     0.000015     NO 
 RMS     Force            0.000186     0.000010     NO 
 Maximum Displacement     0.139933     0.000060     NO 
 RMS     Displacement     0.031842     0.000040     NO 
 Predicted change in Energy=-7.633995D-06
 GradGradGradGradGradGradGradGradGradGradGradGradGradGradGradGradGradGrad

                          Input orientation:                          
 ---------------------------------------------------------------------
 Center     Atomic      Atomic             Coordinates (Angstroms)
 Number     Number       Type             X           Y           Z
 ---------------------------------------------------------------------
      1          8           0        8.684369    7.450642    5.543267
      2          1           0        9.493966    7.166260    5.977279
      3          6           0        6.242218    6.995262    5.177992
      4          5           0        7.635516    6.626625    5.806126
      5          8           0        7.850801    5.537308    6.600555
      6          1           0        7.071263    5.014877    6.795626
      7          6           0        5.139722    6.139581    5.258868
      8          1           0        5.182608    5.169360    5.741733
      9          6           0        3.937910    6.524614    4.692717
     10          6           0        3.774363    7.732787    4.039627
     11          6           0        4.882678    8.560040    3.970329
     12          6           0        6.105712    8.220198    4.517876
     13          1           0        6.943020    8.901524    4.432966
     14          1           0        2.826349    8.016830    3.603026
     15          9           0        2.885206    5.696576    4.774054
     16          9           0        4.751794    9.737215    3.341819
 ---------------------------------------------------------------------
                    Distance matrix (angstroms):
                    1          2          3          4          5
     1  O    0.000000
     2  H    0.961607   0.000000
     3  C    2.510955   3.352904   0.000000
     4  B    1.359482   1.942766   1.572172   0.000000
     5  O    2.339560   2.396237   2.595546   1.365312   0.000000
     6  H    3.178595   3.341800   2.688119   1.973632   0.958470
     7  C    3.790025   4.530964   1.397938   2.601094   3.084284
     8  H    4.184013   4.757195   2.185063   2.853861   2.827051
     9  C    4.910176   5.738603   2.401424   3.862948   4.463781
    10  C    5.142830   6.065419   2.816048   4.387780   5.291109
    11  C    4.261191   5.218664   2.399026   3.832279   4.986457
    12  C    2.879777   3.836784   1.398161   2.557218   3.818481
    13  H    2.523910   3.450126   2.163335   2.745958   4.103713
    14  H    6.196894   7.128651   3.897727   5.469406   6.354395
    15  F    6.107268   6.876295   3.622055   4.949303   5.293261
    16  F    5.053705   6.003637   3.620939   4.905551   6.153245
                    6          7          8          9         10
     6  H    0.000000
     7  C    2.712460   0.000000
     8  H    2.168311   1.084586   0.000000
     9  C    4.064411   1.383159   2.118118   0.000000
    10  C    5.084498   2.426738   3.384003   1.383096   0.000000
    11  C    5.033924   2.754092   3.837257   2.357411   1.384742
    12  C    4.049015   2.410638   3.414318   2.757705   2.429296
    13  H    4.550234   3.400342   4.329084   3.840293   3.400154
    14  H    6.101124   3.408455   4.270142   2.156316   1.081680
    15  F    4.698355   2.348220   2.548022   1.341808   2.340115
    16  F    6.293584   4.094940   5.177884   3.578845   2.336672
                   11         12         13         14         15
    11  C    0.000000
    12  C    1.382430   0.000000
    13  H    2.139078   1.082820   0.000000
    14  H    2.158351   3.410650   4.291674   0.000000
    15  F    3.582637   4.099506   5.182073   2.599682   0.000000
    16  F    1.340857   2.348944   2.586591   2.595245   4.675704
                   16
    16  F    0.000000
 Symmetry turned off by external request.
 Stoichiometry    C6H5BF2O2
 Framework group  C1[X(C6H5BF2O2)]
 Deg. of freedom    42
 Full point group                 C1      NOp   1
 Rotational constants (GHZ):           1.5129679           0.7894041           0.5195604
 Standard basis: 6-311+G(d,p) (5D, 7F)
   272 basis functions,   436 primitive gaussians,   283 cartesian basis functions
    40 alpha electrons       40 beta electrons
       nuclear repulsion energy       567.7398717553 Hartrees.
 NAtoms=   16 NActive=   16 NUniq=   16 SFac= 1.00D+00 NAtFMM=   60 NAOKFM=F Big=F
 Integral buffers will be    131072 words long.
 Raffenetti 2 integral format.
 Two-electron integral symmetry is turned off.
 One-electron integrals computed using PRISM.
 NBasis=   272 RedAO= T EigKep=  3.24D-06  NBF=   272
 NBsUse=   272 1.00D-06 EigRej= -1.00D+00 NBFU=   272
 Initial guess from the checkpoint file:  "3-5-diF-phboh2-opt-freq.chk"
 B after Tr=     0.025004    0.024754   -0.069764
         Rot=    0.999997   -0.002324    0.000192   -0.000753 Ang=  -0.28 deg.
 ExpMin= 3.15D-02 ExpMax= 1.14D+04 ExpMxC= 1.72D+03 IAcc=3 IRadAn=         5 AccDes= 0.00D+00
 Harris functional with IExCor= 1009 and IRadAn=       5 diagonalized for initial guess.
 HarFok:  IExCor= 1009 AccDes= 0.00D+00 IRadAn=         5 IDoV= 1 UseB2=F ITyADJ=14
 ICtDFT=  3500011 ScaDFX=  1.000000  1.000000  1.000000  1.000000
 FoFCou: FMM=F IPFlag=           0 FMFlag=      100000 FMFlg1=           0
         NFxFlg=           0 DoJE=T BraDBF=F KetDBF=T FulRan=T
         wScrn=  0.000000 ICntrl=       500 IOpCl=  0 I1Cent=   200000004 NGrid=           0
         NMat0=    1 NMatS0=      1 NMatT0=    0 NMatD0=    1 NMtDS0=    0 NMtDT0=    0
 Symmetry not used in FoFCou.
 Requested convergence on RMS density matrix=1.00D-08 within 128 cycles.
 Requested convergence on MAX density matrix=1.00D-06.
 Requested convergence on             energy=1.00D-06.
 Level shift goal  0.100 maximum shift  0.100.
 No special actions if energy rises.
 Dynamic level shift is on during FON iterations.
 SCF Done:  E(RM062X) =  -606.707571008     A.U. after   11 cycles
            NFock= 11  Conv=0.29D-08     -V/T= 2.0031
 Calling FoFJK, ICntrl=      2127 FMM=F ISym2X=0 I1Cent= 0 IOpClX= 0 NMat=1 NMatS=1 NMatT=0.
 -------------------------------------------------------------------
 Center     Atomic                   Forces (Hartrees/Bohr)
 Number     Number              X              Y              Z
 -------------------------------------------------------------------
      1        8          -0.000007600    0.000019566    0.000010727
      2        1           0.000002839   -0.000011346   -0.000005111
      3        6           0.000026295   -0.000019738   -0.000029215
      4        5          -0.000003309    0.000025896   -0.000012533
      5        8           0.000017996   -0.000019301    0.000016269
      6        1          -0.000038032   -0.000012873   -0.000024328
      7        6          -0.000029526   -0.000020424    0.000029295
      8        1           0.000013125    0.000012663    0.000033510
      9        6          -0.000000937   -0.000019397   -0.000033863
     10        6           0.000018164    0.000037302    0.000006520
     11        6          -0.000003877    0.000021997   -0.000014374
     12        6          -0.000001552    0.000008998    0.000013635
     13        1           0.000001198    0.000011521    0.000001227
     14        1          -0.000004894   -0.000000291   -0.000006988
     15        9           0.000016247    0.000017140   -0.000008022
     16        9          -0.000006136   -0.000051713    0.000023250
 -------------------------------------------------------------------
 Cartesian Forces:  Max     0.000051713 RMS     0.000019688

 GradGradGradGradGradGradGradGradGradGradGradGradGradGradGradGradGradGrad
 Berny optimization.
 Using GEDIIS/GDIIS optimizer.
 FormGI is forming the generalized inverse of G from B-inverse, IUseBI=4.
 Internal  Forces:  Max     0.000067138 RMS     0.000019383
 Search for a local minimum.
 Step number   3 out of a maximum of   81
 All quantities printed in internal units (Hartrees-Bohrs-Radians)
 Mixed Optimization -- En-DIIS/RFO-DIIS
 Swapping is turned off.
 Update second derivatives using D2CorX and points    1    2    3
 DE= -5.06D-06 DEPred=-7.63D-06 R= 6.62D-01
 TightC=F SS=  1.41D+00  RLast= 1.12D-01 DXNew= 8.4853D-01 3.3559D-01
 Trust test= 6.62D-01 RLast= 1.12D-01 DXMaxT set to 5.05D-01
 ITU=  1  1  0
     Eigenvalues ---    0.00068   0.01010   0.01232   0.01501   0.01698
     Eigenvalues ---    0.01780   0.02094   0.02234   0.02365   0.02599
     Eigenvalues ---    0.03294   0.03490   0.03922   0.09987   0.10294
     Eigenvalues ---    0.11089   0.11232   0.11660   0.15750   0.16805
     Eigenvalues ---    0.17266   0.17623   0.18888   0.19112   0.19472
     Eigenvalues ---    0.21608   0.28098   0.29322   0.35513   0.36125
     Eigenvalues ---    0.36165   0.37220   0.38567   0.39119   0.43592
     Eigenvalues ---    0.45073   0.46711   0.47340   0.48911   0.50577
     Eigenvalues ---    0.55267   0.56252
 En-DIIS/RFO-DIIS/Sim-DIIS IScMMF=       -3 using points:     3    2
 RFO step:  Lambda=-3.45629116D-06.
 DidBck=T Rises=F RFO-DIIS coefs:    0.38714    0.61286
 Iteration  1 RMS(Cart)=  0.01946665 RMS(Int)=  0.00017180
 Iteration  2 RMS(Cart)=  0.00024545 RMS(Int)=  0.00000093
 Iteration  3 RMS(Cart)=  0.00000003 RMS(Int)=  0.00000093
 Variable       Old X    -DE/DX   Delta X   Delta X   Delta X     New X
                                 (Linear)    (Quad)   (Total)
    R1        1.81717   0.00000  -0.00001   0.00001  -0.00001   1.81717
    R2        2.56905   0.00000   0.00011  -0.00006   0.00006   2.56911
    R3        2.97097  -0.00003  -0.00032   0.00048   0.00016   2.97114
    R4        2.64172   0.00001  -0.00031   0.00038   0.00006   2.64178
    R5        2.64214   0.00001  -0.00039   0.00054   0.00015   2.64229
    R6        2.58007   0.00002   0.00005  -0.00009  -0.00004   2.58003
    R7        1.81125   0.00003  -0.00005   0.00000  -0.00005   1.81120
    R8        2.04957   0.00000   0.00003  -0.00005  -0.00002   2.04955
    R9        2.61379   0.00000  -0.00049   0.00057   0.00008   2.61387
   R10        2.61367   0.00000  -0.00037   0.00045   0.00008   2.61376
   R11        2.53565  -0.00002  -0.00067   0.00077   0.00010   2.53575
   R12        2.61678  -0.00003  -0.00073   0.00080   0.00008   2.61686
   R13        2.04408   0.00001  -0.00003   0.00005   0.00002   2.04410
   R14        2.61241   0.00000  -0.00048   0.00057   0.00009   2.61250
   R15        2.53385  -0.00006  -0.00133   0.00153   0.00020   2.53405
   R16        2.04623   0.00001   0.00004  -0.00005  -0.00001   2.04623
    A1        1.96387   0.00000  -0.00029   0.00037   0.00008   1.96395
    A2        2.13210  -0.00004   0.00086  -0.00046   0.00040   2.13250
    A3        2.07212   0.00003  -0.00023  -0.00017  -0.00040   2.07172
    A4        2.07897   0.00001  -0.00063   0.00062   0.00000   2.07897
    A5        2.05371   0.00002  -0.00011  -0.00026  -0.00037   2.05333
    A6        2.06514   0.00004  -0.00057   0.00046  -0.00011   2.06502
    A7        2.16433  -0.00007   0.00068  -0.00019   0.00049   2.16482
    A8        2.00983  -0.00005  -0.00002   0.00053   0.00051   2.01033
    A9        2.14377  -0.00002  -0.00074   0.00130   0.00056   2.14433
   A10        2.08424  -0.00001   0.00045  -0.00046  -0.00001   2.08424
   A11        2.05512   0.00003   0.00031  -0.00085  -0.00053   2.05459
   A12        2.14027   0.00000  -0.00056   0.00070   0.00014   2.14041
   A13        2.07725   0.00000   0.00051  -0.00065  -0.00014   2.07712
   A14        2.06566  -0.00001   0.00005  -0.00005   0.00000   2.06566
   A15        2.03850   0.00000   0.00076  -0.00100  -0.00024   2.03826
   A16        2.12188   0.00000  -0.00013   0.00014   0.00001   2.12189
   A17        2.12280   0.00000  -0.00063   0.00085   0.00022   2.12303
   A18        2.14291   0.00001  -0.00079   0.00102   0.00023   2.14314
   A19        2.05987  -0.00002  -0.00004  -0.00004  -0.00008   2.05979
   A20        2.08040   0.00001   0.00083  -0.00098  -0.00015   2.08025
   A21        2.08145  -0.00002   0.00078  -0.00089  -0.00011   2.08134
   A22        2.10922   0.00002  -0.00121   0.00143   0.00022   2.10944
   A23        2.09251   0.00000   0.00043  -0.00054  -0.00011   2.09241
    D1        3.12137   0.00002   0.00458   0.00105   0.00564   3.12701
    D2       -0.01492   0.00001   0.00325   0.00076   0.00401  -0.01090
    D3        3.01214   0.00002   0.03203  -0.00022   0.03182   3.04396
    D4       -0.13508   0.00003   0.03344   0.00010   0.03354  -0.10155
    D5       -0.12960   0.00001   0.03156   0.00055   0.03212  -0.09748
    D6        3.00636   0.00002   0.03297   0.00087   0.03384   3.04020
    D7       -0.01832   0.00001   0.00425   0.00112   0.00537  -0.01295
    D8        3.13487   0.00001   0.00066   0.00183   0.00249   3.13735
    D9        3.12342   0.00002   0.00472   0.00035   0.00507   3.12849
   D10       -0.00658   0.00002   0.00113   0.00105   0.00219  -0.00439
   D11       -3.13303  -0.00001  -0.00189  -0.00071  -0.00260  -3.13563
   D12        0.00721   0.00000  -0.00218   0.00014  -0.00204   0.00517
   D13        0.00842  -0.00001  -0.00234   0.00004  -0.00231   0.00611
   D14       -3.13453  -0.00001  -0.00264   0.00089  -0.00175  -3.13628
   D15        3.08534   0.00002   0.01267   0.00077   0.01345   3.09879
   D16       -0.05059   0.00001   0.01125   0.00046   0.01171  -0.03887
   D17        0.00161  -0.00001   0.00009  -0.00095  -0.00086   0.00076
   D18        3.14060  -0.00001   0.00098  -0.00110  -0.00012   3.14048
   D19       -3.12897  -0.00002  -0.00332  -0.00029  -0.00360  -3.13257
   D20        0.01002  -0.00001  -0.00242  -0.00044  -0.00286   0.00716
   D21        0.00148   0.00000  -0.00008  -0.00028  -0.00036   0.00112
   D22       -3.14142   0.00000   0.00092  -0.00122  -0.00030   3.14146
   D23       -3.13752  -0.00001  -0.00097  -0.00013  -0.00109  -3.13862
   D24        0.00276  -0.00001   0.00003  -0.00107  -0.00104   0.00172
   D25        0.00048   0.00000  -0.00120   0.00144   0.00023   0.00071
   D26        3.14087   0.00000  -0.00215   0.00295   0.00080  -3.14152
   D27       -3.13981   0.00000  -0.00220   0.00237   0.00017  -3.13963
   D28        0.00059   0.00000  -0.00315   0.00389   0.00074   0.00133
   D29       -0.00546   0.00000   0.00244  -0.00133   0.00111  -0.00435
   D30        3.13747   0.00000   0.00273  -0.00217   0.00056   3.13803
   D31        3.13734   0.00001   0.00340  -0.00286   0.00053   3.13788
   D32       -0.00291   0.00000   0.00369  -0.00371  -0.00002  -0.00293
         Item               Value     Threshold  Converged?
 Maximum Force            0.000067     0.000015     NO 
 RMS     Force            0.000019     0.000010     NO 
 Maximum Displacement     0.085542     0.000060     NO 
 RMS     Displacement     0.019471     0.000040     NO 
 Predicted change in Energy=-1.736427D-06
 GradGradGradGradGradGradGradGradGradGradGradGradGradGradGradGradGradGrad

                          Input orientation:                          
 ---------------------------------------------------------------------
 Center     Atomic      Atomic             Coordinates (Angstroms)
 Number     Number       Type             X           Y           Z
 ---------------------------------------------------------------------
      1          8           0        8.676451    7.468772    5.569694
      2          1           0        9.487917    7.180814    5.997811
      3          6           0        6.241164    6.996994    5.181363
      4          5           0        7.634751    6.628689    5.809269
      5          8           0        7.857707    5.523915    6.579848
      6          1           0        7.085134    4.982919    6.750359
      7          6           0        5.136117    6.145319    5.269909
      8          1           0        5.174970    5.180219    5.763237
      9          6           0        3.935261    6.529070    4.700765
     10          6           0        3.774677    7.732488    4.038136
     11          6           0        4.885153    8.556370    3.962741
     12          6           0        6.107385    8.217842    4.513002
     13          1           0        6.946099    8.896817    4.423324
     14          1           0        2.827403    8.015348    3.599146
     15          9           0        2.880207    5.704706    4.789491
     16          9           0        4.757097    9.729417    3.325765
 ---------------------------------------------------------------------
                    Distance matrix (angstroms):
                    1          2          3          4          5
     1  O    0.000000
     2  H    0.961603   0.000000
     3  C    2.510776   3.352877   0.000000
     4  B    1.359513   1.942837   1.572259   0.000000
     5  O    2.339491   2.396177   2.595945   1.365294   0.000000
     6  H    3.178950   3.342220   2.688965   1.973901   0.958446
     7  C    3.791486   4.532136   1.397970   2.601486   3.083689
     8  H    4.187517   4.760138   2.185410   2.854943   2.825253
     9  C    4.910902   5.739258   2.401482   3.863279   4.463952
    10  C    5.142237   6.065128   2.816287   4.388103   5.292374
    11  C    4.259003   5.217193   2.399054   3.832219   4.988096
    12  C    2.877117   3.835111   1.398239   2.557060   3.820041
    13  H    2.519443   3.447392   2.163535   2.745812   4.105860
    14  H    6.196223   7.128288   3.897977   5.469740   6.355768
    15  F    6.108772   6.877555   3.622100   4.949684   5.292784
    16  F    5.050452   6.001322   3.621026   4.905425   6.155410
                    6          7          8          9         10
     6  H    0.000000
     7  C    2.709534   0.000000
     8  H    2.159181   1.084574   0.000000
     9  C    4.063634   1.383200   2.117811   0.000000
    10  C    5.086787   2.426908   3.383913   1.383141   0.000000
    11  C    5.037884   2.754058   3.837209   2.357312   1.384782
    12  C    4.052960   2.410730   3.414621   2.757776   2.429525
    13  H    4.555548   3.400512   4.329591   3.840358   3.400287
    14  H    6.103610   3.408609   4.269932   2.156371   1.081690
    15  F    4.695465   2.348206   2.547392   1.341860   2.340195
    16  F    6.298955   4.095010   5.177942   3.578863   2.336739
                   11         12         13         14         15
    11  C    0.000000
    12  C    1.382476   0.000000
    13  H    2.139051   1.082816   0.000000
    14  H    2.158528   3.410927   4.291843   0.000000
    15  F    3.582640   4.099631   5.182194   2.599765   0.000000
    16  F    1.340961   2.348972   2.586424   2.595475   4.675843
                   16
    16  F    0.000000
 Symmetry turned off by external request.
 Stoichiometry    C6H5BF2O2
 Framework group  C1[X(C6H5BF2O2)]
 Deg. of freedom    42
 Full point group                 C1      NOp   1
 Rotational constants (GHZ):           1.5129283           0.7897345           0.5193468
 Standard basis: 6-311+G(d,p) (5D, 7F)
   272 basis functions,   436 primitive gaussians,   283 cartesian basis functions
    40 alpha electrons       40 beta electrons
       nuclear repulsion energy       567.7368509094 Hartrees.
 NAtoms=   16 NActive=   16 NUniq=   16 SFac= 1.00D+00 NAtFMM=   60 NAOKFM=F Big=F
 Integral buffers will be    131072 words long.
 Raffenetti 2 integral format.
 Two-electron integral symmetry is turned off.
 One-electron integrals computed using PRISM.
 NBasis=   272 RedAO= T EigKep=  3.20D-06  NBF=   272
 NBsUse=   272 1.00D-06 EigRej= -1.00D+00 NBFU=   272
 Initial guess from the checkpoint file:  "3-5-diF-phboh2-opt-freq.chk"
 B after Tr=    -0.013440   -0.012360    0.037754
         Rot=    0.999999    0.001228   -0.000105    0.000404 Ang=   0.15 deg.
 ExpMin= 3.15D-02 ExpMax= 1.14D+04 ExpMxC= 1.72D+03 IAcc=3 IRadAn=         5 AccDes= 0.00D+00
 Harris functional with IExCor= 1009 and IRadAn=       5 diagonalized for initial guess.
 HarFok:  IExCor= 1009 AccDes= 0.00D+00 IRadAn=         5 IDoV= 1 UseB2=F ITyADJ=14
 ICtDFT=  3500011 ScaDFX=  1.000000  1.000000  1.000000  1.000000
 FoFCou: FMM=F IPFlag=           0 FMFlag=      100000 FMFlg1=           0
         NFxFlg=           0 DoJE=T BraDBF=F KetDBF=T FulRan=T
         wScrn=  0.000000 ICntrl=       500 IOpCl=  0 I1Cent=   200000004 NGrid=           0
         NMat0=    1 NMatS0=      1 NMatT0=    0 NMatD0=    1 NMtDS0=    0 NMtDT0=    0
 Symmetry not used in FoFCou.
 Requested convergence on RMS density matrix=1.00D-08 within 128 cycles.
 Requested convergence on MAX density matrix=1.00D-06.
 Requested convergence on             energy=1.00D-06.
 Level shift goal  0.100 maximum shift  0.100.
 No special actions if energy rises.
 Dynamic level shift is on during FON iterations.
 SCF Done:  E(RM062X) =  -606.707571942     A.U. after   11 cycles
            NFock= 11  Conv=0.37D-08     -V/T= 2.0031
 Calling FoFJK, ICntrl=      2127 FMM=F ISym2X=0 I1Cent= 0 IOpClX= 0 NMat=1 NMatS=1 NMatT=0.
 -------------------------------------------------------------------
 Center     Atomic                   Forces (Hartrees/Bohr)
 Number     Number              X              Y              Z
 -------------------------------------------------------------------
      1        8           0.000012569   -0.000009197   -0.000000403
      2        1          -0.000004729    0.000000868    0.000007796
      3        6           0.000028157   -0.000001739    0.000017573
      4        5          -0.000033372   -0.000007053   -0.000000735
      5        8           0.000004838    0.000004893    0.000002725
      6        1           0.000012681    0.000004802    0.000001960
      7        6          -0.000029142    0.000079945   -0.000071222
      8        1           0.000010340   -0.000005394   -0.000011053
      9        6          -0.000033110   -0.000032723    0.000011915
     10        6           0.000110284   -0.000007455    0.000021721
     11        6          -0.000020510    0.000112059   -0.000011987
     12        6          -0.000110074   -0.000063931   -0.000020738
     13        1           0.000007780   -0.000006085    0.000022223
     14        1           0.000004923    0.000012238    0.000010843
     15        9           0.000037619    0.000043509   -0.000010160
     16        9           0.000001746   -0.000124736    0.000029543
 -------------------------------------------------------------------
 Cartesian Forces:  Max     0.000124736 RMS     0.000041052

 GradGradGradGradGradGradGradGradGradGradGradGradGradGradGradGradGradGrad
 Berny optimization.
 Using GEDIIS/GDIIS optimizer.
 FormGI is forming the generalized inverse of G from B-inverse, IUseBI=4.
 Internal  Forces:  Max     0.000123975 RMS     0.000028220
 Search for a local minimum.
 Step number   4 out of a maximum of   81
 All quantities printed in internal units (Hartrees-Bohrs-Radians)
 Mixed Optimization -- En-DIIS/RFO-DIIS
 Swapping is turned off.
 Update second derivatives using D2CorX and points    1    2    3    4
 DE= -9.34D-07 DEPred=-1.74D-06 R= 5.38D-01
 TightC=F SS=  1.41D+00  RLast= 6.92D-02 DXNew= 8.4853D-01 2.0771D-01
 Trust test= 5.38D-01 RLast= 6.92D-02 DXMaxT set to 5.05D-01
 ITU=  1  1  1  0
     Eigenvalues ---    0.00089   0.01011   0.01250   0.01503   0.01751
     Eigenvalues ---    0.01789   0.02108   0.02239   0.02375   0.02626
     Eigenvalues ---    0.03306   0.03511   0.03922   0.09988   0.10380
     Eigenvalues ---    0.11136   0.11291   0.11685   0.15752   0.16877
     Eigenvalues ---    0.17520   0.17967   0.18974   0.19304   0.19589
     Eigenvalues ---    0.21677   0.28119   0.29463   0.35515   0.36128
     Eigenvalues ---    0.36188   0.37225   0.38583   0.39116   0.43638
     Eigenvalues ---    0.45186   0.46837   0.47440   0.48909   0.52565
     Eigenvalues ---    0.55268   0.56270
 En-DIIS/RFO-DIIS/Sim-DIIS IScMMF=       -3 using points:     4    3    2
 RFO step:  Lambda=-5.14468911D-07.
 DidBck=T Rises=F RFO-DIIS coefs:    0.61521    0.29453    0.09026
 Iteration  1 RMS(Cart)=  0.00462125 RMS(Int)=  0.00000964
 Iteration  2 RMS(Cart)=  0.00001381 RMS(Int)=  0.00000011
 Iteration  3 RMS(Cart)=  0.00000000 RMS(Int)=  0.00000011
 Variable       Old X    -DE/DX   Delta X   Delta X   Delta X     New X
                                 (Linear)    (Quad)   (Total)
    R1        1.81717   0.00000   0.00000   0.00000   0.00000   1.81717
    R2        2.56911   0.00000  -0.00001   0.00001   0.00000   2.56911
    R3        2.97114   0.00000  -0.00011   0.00001  -0.00010   2.97104
    R4        2.64178  -0.00004  -0.00007   0.00002  -0.00005   2.64173
    R5        2.64229  -0.00005  -0.00011   0.00002  -0.00010   2.64219
    R6        2.58003   0.00000   0.00002   0.00000   0.00002   2.58005
    R7        1.81120  -0.00001   0.00001   0.00000   0.00001   1.81121
    R8        2.04955   0.00000   0.00001   0.00001   0.00002   2.04957
    R9        2.61387  -0.00005  -0.00010   0.00001  -0.00010   2.61377
   R10        2.61376  -0.00005  -0.00009   0.00001  -0.00008   2.61368
   R11        2.53575  -0.00006  -0.00014  -0.00001  -0.00015   2.53560
   R12        2.61686  -0.00009  -0.00014  -0.00002  -0.00016   2.61670
   R13        2.04410  -0.00001  -0.00001   0.00001   0.00000   2.04410
   R14        2.61250  -0.00006  -0.00010   0.00000  -0.00010   2.61240
   R15        2.53405  -0.00012  -0.00027  -0.00004  -0.00032   2.53373
   R16        2.04623   0.00000   0.00001   0.00001   0.00002   2.04624
    A1        1.96395   0.00000  -0.00007   0.00000  -0.00007   1.96388
[...]

 Dipole orientation:
     8         13.21065943         19.88968472          2.87849987
     1         14.20213927         20.32849106          4.33675650
     6          9.15599168         18.00708500          1.28849412
     5         10.97898889         18.78077574          3.50324812
     8         10.45145709         18.41520410          6.00219327
     1          8.82561962         17.69641818          6.34929670
     6          6.93022366         16.64741392          1.70800062
     1          6.34162903         16.02576078          3.57021066
     6          5.39899645         16.03378883         -0.31946391
     6          5.97666732         16.70999031         -2.77717641
     6          8.19405774         18.05068461         -3.14165842
     6          9.78932632         18.70629003         -1.17953594
     1         11.50549010         19.75140534         -1.56635345
     1          4.75533072         16.21302545         -4.33912958
     9          3.26720958         14.72672743          0.10045942
     9          8.79980590         18.72880972         -5.50661552

 Electric dipole moment (dipole orientation):
 (Debye = 10**-18 statcoulomb cm , SI units = C m)
                  (au)            (Debye)         (10**-30 SI)
   Tot        0.756273D+00      0.192226D+01      0.641195D+01
   x          0.000000D+00      0.000000D+00      0.000000D+00
   y          0.000000D+00      0.000000D+00      0.000000D+00
   z          0.756273D+00      0.192226D+01      0.641195D+01

 Dipole polarizability, Alpha (dipole orientation).
 (esu units = cm**3 , SI units = C**2 m**2 J**-1)
 Alpha(0;0):
               (au)            (10**-24 esu)      (10**-40 SI)
   iso        0.843764D+02      0.125033D+02      0.139118D+02
   aniso      0.541138D+02      0.801884D+01      0.892216D+01
   xx         0.893234D+02      0.132364D+02      0.147274D+02
   yx         0.217409D+02      0.322167D+01      0.358460D+01
   yy         0.615997D+02      0.912813D+01      0.101564D+02
   zx         0.838573D+01      0.124264D+01      0.138262D+01
   zy        -0.159310D+01     -0.236074D+00     -0.262667D+00
   zz         0.102206D+03      0.151454D+02      0.168515D+02

 ----------------------------------------------------------------------
 Unable to Open any file for archive entry.
 1\1\GINC-CN017\Freq\RM062X\6-311+G(d,p)\C6H5B1F2O2\UNKNOWN\05-May-2025
 \0\\#N Geom=AllCheck Guess=TCheck SCRF=Check GenChk RM062X/6-311+G(d,p
 ) Freq\\3-5-diF-phboh2-opt-freq\\0,1\O,8.6785623498,7.4640059178,5.562
 5159303\H,9.4894449253,7.1771005815,5.9924412096\C,6.2414675922,6.9963
 979368,5.1802980155\B,7.6349254929,6.6281506583,5.8083865257\O,7.85588
 30132,5.5276301359,6.5856167422\H,7.0814602946,4.9914059959,6.76270850
 04\C,5.1370919857,6.143673182,5.266667507\H,5.1771572518,5.1771209777,
 5.7570690926\C,3.9359346372,6.5278790602,4.6985943674\C,3.7746564774,7
 .732658663,4.0387041608\C,4.8844974171,8.5573881168,3.9647737542\C,6.1
 0688025,8.2183657498,4.5142586726\H,6.9452709513,8.8979493134,4.426065
 8832\H,2.8271209803,8.0160261823,3.6006034059\F,2.8814456668,5.7027149
 15,4.7853896416\F,4.7556957645,9.7312304036,3.329767171\\Version=AS64L
 -G16RevC.01\HF=-606.7075722\RMSD=3.606e-09\RMSF=1.514e-06\ZeroPoint=0.
 1095755\Thermal=0.119072\ETot=-606.5885002\HTot=-606.587556\GTot=-606.
 6338868\Dipole=0.2897593,-0.5255417,0.4602119\DipoleDeriv=-1.3348603,-
 0.3000837,-0.022162,-0.3865128,-0.710476,0.0063364,0.0409911,0.0253157
 ,-0.5432072,0.3717345,0.0382902,-0.0196951,0.0604816,0.3003343,0.04857
 38,-0.0443345,0.0455114,0.3058863,-0.4399656,0.1877173,-0.1824081,0.16
 57774,-0.0020492,-0.0235403,-0.1607763,-0.0170018,-0.2097445,1.9232584
 ,-0.004182,0.3800652,0.1118647,1.3390375,-0.4920242,0.3114415,-0.51169
 93,0.9772665,-0.6871805,0.2049594,-0.1823435,0.1613116,-1.074599,0.406
 9592,-0.159724,0.406294,-0.8403858,0.2343051,-0.0901785,0.0363645,-0.0
 768067,0.3686488,-0.0545945,0.0402973,-0.0563914,0.3725986,-0.274179,-
 0.1983926,0.0607788,0.0696663,-0.0785823,-0.0105757,-0.0991769,-0.0940
 642,-0.1354092,0.0879023,0.0157055,-0.0284678,0.0041351,-0.0160651,0.0
 880728,-0.0203021,0.0895873,0.0988423,1.0972049,0.6140044,-0.0000333,0
 .5888741,0.6741584,-0.0983913,0.0184196,-0.0860102,0.1600254,-0.160632
 8,-0.0643306,0.0255481,-0.0856532,-0.2686873,0.0392324,0.0331905,0.045
 3306,-0.1492056,0.3450415,-0.1803953,0.1632719,-0.0997688,1.1991454,-0
 .578564,0.1241941,-0.6056746,0.4637568,-0.1198331,0.259048,-0.1340932,
 -0.0356781,-0.2124249,0.0290881,0.0168208,0.1180094,-0.185603,0.091179
 8,-0.0475537,0.0036575,-0.0343909,0.0757129,0.0295295,-0.0049977,0.027
 1736,0.1385343,0.0686008,0.0003874,-0.0350947,0.0003091,0.1104575,0.03
 62444,-0.035463,0.0363977,0.1525185,-0.9698986,-0.5439201,0.0164782,-0
 .5850993,-0.6118818,0.0508985,0.0377881,0.0636579,-0.1667238,-0.232677
 5,0.1089244,-0.0818665,0.1414899,-1.0927292,0.5227547,-0.0983685,0.513
 5637,-0.4391495\Polar=102.632692,2.7723735,86.6248971,14.9867585,-19.0
 895915,63.8715022\Quadrupole=7.5156872,-15.7276984,8.2120112,-2.884372
 ,9.1979399,0.8147439\PG=C01 [X(C6H5B1F2O2)]\NImag=0\\0.66339211,0.0416
 1746,0.27505926,0.15724357,-0.14548495,0.17883853,-0.38463335,0.109170
 68,-0.18226225,0.41189199,0.13943709,-0.07449234,0.08138331,-0.1176193
 1,0.06786081,-0.20240690,0.07247732,-0.12171509,0.19680039,-0.07270845
 ,0.11718963,-0.02876324,-0.00195272,-0.00928088,-0.00050693,-0.0021612
 0,-0.00002417,0.60130047,-0.01734005,0.00694476,-0.00390636,-0.0035727
 2,-0.00057692,0.00219806,0.07386096,0.55263428,0.00036890,0.00029066,0
 .00876705,0.00079858,0.00264025,0.00286800,0.10761608,-0.19379766,0.26
 688435,-0.24934428,-0.11816323,0.02005030,-0.03090709,-0.02251437,0.00
 477711,-0.16914786,0.02678486,-0.04660367,0.54634315,-0.14421049,-0.16
 767568,0.03518794,0.00667878,0.00880105,-0.00174248,0.02599999,-0.0765
 0713,0.01496095,0.08512889,0.49271017,0.03744203,0.04293959,-0.0671711
 8,-0.01437176,-0.01018428,0.00578940,-0.04710831,0.01470542,-0.0860168
 3,0.05749934,-0.19812441,0.29141113,0.00569889,-0.03385320,0.01961539,
 0.00403369,0.00251407,0.00053974,0.00190362,0.01987998,-0.01720291,-0.
 09260536,0.02045972,-0.02578790,0.45584739,-0.02208506,-0.03996826,0.0
 2830856,0.00464518,-0.00148289,0.00006472,0.00370021,-0.00521467,0.015
 14333,0.05279897,-0.23644184,0.13937774,0.20749784,0.46619858,0.012281
 91,0.02523352,-0.00037057,-0.00096232,-0.00065028,-0.00327302,-0.00620
 442,0.01974763,0.00207570,-0.04742783,0.13188437,-0.14296120,-0.036532
 69,-0.24165285,0.18044579,0.00249122,0.00193885,-0.00213767,0.00015663
 ,0.00040341,0.00000164,-0.00119553,0.00146205,-0.00045364,0.00374764,0
 .00226684,-0.00000220,-0.36963139,-0.24911206,0.08160379,0.36605498,0.
 00059170,-0.00068940,0.00460354,0.00058405,-0.00039247,-0.00006658,0.0
 0035462,0.00074104,-0.00223340,-0.02486180,-0.01752801,0.00405879,-0.2
 1913039,-0.18329507,0.06515851,0.24292713,0.19957123,-0.00152766,0.004
 71359,0.00280430,-0.00004569,-0.00006246,-0.00077741,-0.00006633,-0.00
 178365,-0.00115694,0.01832600,0.00973044,-0.00447110,0.06172459,0.0589
 6384,-0.03424309,-0.07752779,-0.07118421,0.03719931,-0.00190924,0.0008
 7018,-0.00140879,-0.00059502,-0.00021687,0.00018016,-0.24827543,-0.082
 17167,-0.01879640,-0.01659323,-0.01016886,-0.00079324,0.00001952,-0.00
 204764,0.00159530,0.00102822,0.00031684,0.00037873,0.63965536,0.004605
 50,0.00006618,0.00155035,0.00055813,0.00033537,0.00000354,-0.13155685,
 -0.18805200,0.02572693,-0.00093355,0.01036402,-0.00461292,0.00029247,-
 0.00403243,0.00189069,0.00280087,0.00069954,0.00100500,0.06121642,0.63
 459548,-0.00305871,0.00058315,-0.00046125,-0.00044337,-0.00016580,0.00
 027709,0.00652093,0.04037746,-0.07604133,-0.00567371,-0.00709736,0.004
 01020,0.00036464,0.00067827,-0.00075178,-0.00107499,-0.00022694,-0.000
 60058,0.12947642,-0.23629266,0.28274579,0.00031018,0.00039520,-0.00021
 562,-0.00005019,-0.00009616,-0.00004192,0.00718280,-0.01954154,0.01221
 364,0.00013923,-0.00092288,0.00149889,0.00003203,0.00091869,-0.0000666
 0,-0.00185410,-0.00004223,-0.00173190,-0.05730286,0.00781611,-0.011472
 48,0.05479999,-0.00009859,0.00054102,-0.00027469,-0.00014070,-0.000014
 07,0.00008157,0.00209538,-0.01131739,0.00611510,0.00144106,-0.00262087
 ,0.00042775,0.00090636,0.00150925,-0.00084943,-0.00125774,0.00093042,-
 0.00035126,0.01254411,-0.27637933,0.12460461,-0.01032433,0.29139902,0.
 00026611,-0.00000383,0.00022457,-0.00000801,0.00011848,0.00015605,0.00
 173790,-0.00044362,0.00024741,0.00034170,-0.00051458,-0.00280421,-0.00
 035338,-0.00074901,-0.00027700,-0.00097828,0.00031824,0.00072844,-0.01
 421485,0.12232194,-0.09771645,0.01554662,-0.13625684,0.09534244,0.0003
 9458,0.00058270,-0.00010175,-0.00029301,-0.00014906,0.00008952,-0.0553
 8685,-0.04931695,0.00688560,-0.00361099,-0.00480925,-0.00055742,0.0026
 2471,-0.00062400,0.00124355,-0.00093506,0.00117523,-0.00092312,-0.2671
 4560,0.09670997,-0.11087657,0.00347625,-0.00348035,0.00118162,0.663334
 41,0.00135160,0.00045552,-0.00023424,-0.00054127,-0.00007197,-0.000118
 01,0.01016660,0.05477478,-0.02328773,-0.00571468,0.00190032,0.00050274
 ,0.00082460,-0.00084980,0.00072629,-0.00057292,0.00021025,-0.00082466,
 0.01852633,-0.13847366,0.04238424,0.02575699,-0.00674117,0.01414607,0.
 05308868,0.60933381,-0.00071429,-0.00026210,-0.00030897,0.00026905,-0.
 00025555,-0.00025411,-0.02344882,-0.04109667,0.01758778,-0.00016928,0.
 00064020,0.00567634,0.00038704,0.00005714,-0.00015051,0.00034945,-0.00
 006927,-0.00018846,-0.07145442,0.06654662,-0.12205162,-0.01339946,0.00
 483213,-0.00153151,0.13138308,-0.21365100,0.30166353,-0.00154219,0.000
 00376,-0.00025883,0.00020910,-0.00002581,-0.00004127,-0.01367046,-0.02
 359414,0.00782876,0.00193683,-0.00184769,0.00185122,-0.00039015,0.0005
 5267,-0.00049936,0.00017466,-0.00014188,0.00022602,0.02809554,0.025819
 33,-0.00656811,-0.00440826,0.00117095,-0.00363418,-0.13096537,0.069644
 28,-0.05688787,0.72728226,-0.00063691,0.00028510,-0.00026974,0.0000672
 9,-0.00012759,0.00003447,-0.02561729,-0.05372536,0.01970618,-0.0010267
 9,-0.00332156,0.00077464,0.00078181,0.00011407,0.00014404,-0.00014621,
 0.00030480,-0.00008115,0.07521088,0.00156572,0.02605578,0.00045719,0.0
 0162421,0.00186273,-0.00631289,-0.27506574,0.10569849,0.04969187,0.603
 99502,-0.00005593,-0.00019478,-0.00010716,0.00000737,0.00012066,0.0000
 6866,0.00869619,0.01981607,-0.00752860,0.00133730,0.00055775,-0.000889
 18,-0.00047462,0.00017316,-0.00011407,0.00000887,-0.00012424,0.0002033
 8,-0.03147867,0.01086140,-0.00815765,-0.00316225,0.00201005,0.00296046
 ,-0.01835250,0.12972276,-0.13261416,0.16391511,-0.23109294,0.28531345,
 0.00190368,-0.00035769,0.00052200,-0.00018498,0.00017847,0.00002147,0.
 03005934,0.08599703,-0.03608018,0.00167191,0.00244017,-0.00259580,-0.0
 0009941,-0.00004958,0.00065545,-0.00013852,-0.00015069,-0.00016427,-0.
 08410103,-0.01382531,-0.01860631,-0.00183879,-0.00014683,-0.00047226,0
 .06250312,-0.07851188,0.06153925,-0.28123468,-0.06938882,-0.03264061,0
 .68189276,-0.00300596,-0.00013208,-0.00075955,0.00043093,0.00028134,-0
 .00007191,0.02851565,0.00038546,0.01031132,0.00280768,-0.00282121,0.00
 560121,-0.00007534,0.00054579,-0.00086282,0.00039447,-0.00026805,0.000
 35744,-0.01430765,-0.00169794,-0.00424850,-0.00064454,0.00050799,-0.00
 064499,-0.01140189,-0.04450927,0.01577259,-0.14510666,-0.17648990,0.01
 324517,0.06899278,0.59524520,0.00190120,-0.00019585,0.00035655,-0.0002
 5546,-0.00017403,-0.00000782,-0.00636506,0.02898371,-0.01300081,-0.002
 64587,0.00537669,0.00285592,0.00045927,-0.00109938,-0.00053709,-0.0002
 6671,0.00025515,-0.00006247,-0.01842952,-0.00409046,-0.00466088,-0.000
 13141,-0.00050796,-0.00024196,0.02715021,-0.00503873,0.00454197,0.0058
 4768,0.03692960,-0.07872944,0.12730848,-0.20174510,0.29644464,-0.00352
 264,-0.00044150,-0.00055204,0.00074674,0.00029415,-0.00002218,-0.12201
 710,-0.01600426,-0.01018789,0.00375099,0.01981984,-0.00995423,-0.00536
 348,0.00210401,-0.00381023,-0.00016698,-0.00074599,0.00061237,0.046101
 89,-0.01596998,0.02073686,-0.00325391,-0.00373267,-0.00126609,-0.03103
 335,0.03439806,-0.02693178,-0.04643569,-0.04220257,0.00478993,-0.30298
 420,0.06353409,-0.10447875,0.69818195,-0.00170753,-0.00207755,0.000558
 33,-0.00037206,-0.00030320,0.00001318,0.03548520,-0.26979136,0.1181807
 3,0.00812383,-0.00201799,0.00476020,-0.00141152,0.00168062,-0.00077764
 ,-0.00050630,-0.00034871,-0.00008175,-0.05815212,-0.03704580,0.0031932
 9,-0.00364189,0.00110011,0.00189968,0.03435916,-0.03607120,0.02861211,
 0.00498438,0.05124253,-0.02075336,-0.01300146,-0.11907734,0.02159297,0
 .10442115,0.60396727,0.00012201,0.00083686,-0.00067651,0.00043160,0.00
 010691,-0.00016280,-0.03684905,0.10222833,-0.12295819,-0.00435631,0.00
 862079,-0.00292851,-0.00120152,0.00040194,0.00035990,0.00006155,-0.000
 13930,0.00021348,0.04240242,0.01620367,0.00936931,-0.00139114,0.001818
 61,0.00588676,-0.02678228,0.02847263,-0.02392306,-0.01919665,-0.035620
 86,0.01923531,-0.06532981,0.04561563,-0.11081694,0.12185220,-0.2093348
 1,0.27350146,-0.00147104,0.00022344,-0.00046861,-0.00005917,-0.0000466
 1,0.00004845,0.00720708,0.00269369,0.00069447,0.00094402,0.00131057,0.
 00044393,-0.00011680,-0.00052397,0.00017014,0.00006487,-0.00002030,0.0
 0005676,0.00187118,0.00114233,-0.00213439,0.00041520,0.00024703,-0.000
 13212,-0.00052986,0.00131497,-0.00068319,-0.00306627,0.00139079,-0.003
 27419,-0.01561402,-0.01924937,0.00340011,-0.23327548,-0.14404826,0.012
 29512,0.24189726,0.00018412,0.00051618,-0.00041137,0.00021209,0.000366
 66,-0.00017758,-0.01973145,-0.01218417,0.00034863,-0.00155998,-0.00212
 456,-0.00076216,0.00022441,0.00066617,-0.00007497,-0.00010642,0.000012
 69,-0.00009308,0.00077600,-0.00208399,0.00488737,-0.00105966,-0.000453
 71,0.00015052,0.00075798,-0.00067802,0.00031678,0.00144195,0.00087366,
 0.00272952,0.00767754,0.00819624,0.00076604,-0.14443000,-0.16535684,0.
 02177126,0.15565227,0.17173864,-0.00028809,-0.00036254,-0.00014245,-0.
 00007333,-0.00023569,-0.00010585,0.01191507,0.00716958,0.00046535,0.00
 204377,0.00005059,-0.00245633,-0.00036720,-0.00006251,0.00049983,0.000
 07522,-0.00007349,0.00001917,-0.00201178,0.00497743,0.00384266,0.00053
 516,0.00055653,0.00038125,-0.00040957,0.00052110,-0.00088058,-0.003335
 89,0.00265415,0.00293684,-0.01028353,-0.00758974,0.00579711,0.01265106
 ,0.02184850,-0.04285081,-0.01255502,-0.02659742,0.03547340,0.00005957,
 0.00008712,-0.00003473,0.00000523,0.00002192,0.00000585,0.00044628,-0.
 00065907,0.00088596,-0.00032570,-0.00004421,-0.00002887,0.00004736,-0.
 00000180,0.00003740,0.00000351,0.00000293,-0.00001915,0.00180163,-0.00
 067468,-0.00076734,0.00013205,-0.00013852,0.00004954,0.00129026,-0.001
 37524,-0.00032148,-0.28273664,0.06490075,-0.11063261,-0.01452121,0.009
 96073,-0.01100597,-0.00194233,-0.00405387,-0.00021174,-0.00060431,0.00
 044601,-0.00044735,0.29448670,-0.00001821,0.00009939,-0.00005506,0.000
 01479,0.00000391,-0.00001971,-0.00063784,-0.00130160,-0.00019407,0.000
 03468,-0.00030308,0.00011097,0.00006272,0.00014342,-0.00010481,-0.0001
 1066,0.00002991,-0.00004862,-0.00069506,-0.00348585,0.00427301,0.00116
 119,-0.00021703,0.00059210,0.02462748,-0.00000427,0.00993988,0.0648294
 3,-0.07329949,0.04077044,-0.01596332,0.01044145,-0.00795932,-0.0040791
 4,-0.00133012,0.00216050,-0.00077411,0.00041899,-0.00040016,-0.0706457
 3,0.06674511,0.00004590,-0.00001490,0.00002549,-0.00000093,-0.00001349
 ,-0.00002832,0.00084314,-0.00022130,-0.00092861,-0.00006082,0.00006930
 ,-0.00019601,0.00000257,-0.00011882,-0.00003633,0.00003509,0.00003410,
 0.00007064,-0.00078479,0.00426860,0.00296600,-0.00061262,0.00016424,-0
 .00008485,-0.01347866,0.00185285,-0.00059618,-0.11065209,0.04073444,-0
 .08773532,0.00218973,0.00014367,0.00518353,-0.00017285,0.00214816,0.00
 422129,0.00016686,-0.00001297,0.00016377,0.12022749,-0.04416082,0.0827
 8299,-0.00258724,-0.00000680,-0.00061799,0.00012191,-0.00002707,0.0000
 7212,-0.00200450,0.00721593,-0.00651357,0.00288848,-0.00286776,0.00241
 544,-0.00126858,0.00167624,-0.00146775,0.00019318,-0.00069874,0.000538
 63,-0.04760768,-0.03892583,0.00215671,0.00193732,0.00073346,0.00167815
 ,-0.23599261,-0.13100734,0.00638915,-0.00301499,-0.01171630,0.00261806
 ,-0.00155080,0.00152633,-0.00380137,-0.00054442,-0.00337158,0.00189136
 ,0.00027919,-0.00000125,0.00030089,0.00021476,-0.00001326,0.00148875,0
 .28856270,-0.00130402,0.00007218,-0.00036714,0.00017929,-0.00001758,0.
 00000177,-0.00120746,-0.00070826,0.00366417,0.00235661,-0.00154299,0.0
 0150660,-0.00083288,0.00131652,-0.00097512,0.00009481,-0.00051613,0.00
 031438,-0.00285330,0.00715196,-0.00073233,-0.00040091,0.00035338,-0.00
 249781,-0.13101720,-0.16990927,0.02297249,-0.04739511,-0.03456393,0.00
 633909,0.00851289,0.00183568,0.00588212,-0.00416635,0.00046495,-0.0022
 3078,0.00013647,0.00005762,-0.00038714,0.00090686,0.00151132,-0.002744
 37,0.17919545,0.19795663,-0.00013947,-0.00007248,-0.00006479,-0.000046
 80,-0.00002529,-0.00003711,-0.00216618,0.00623714,0.00313279,-0.000230
 81,-0.00013729,-0.00009793,-0.00003684,-0.00004776,0.00016016,0.000035
 22,0.00000858,-0.00005522,-0.01598734,-0.01190042,0.00882931,0.0021736
 1,-0.00213458,-0.00268142,0.00635311,0.02277087,-0.05323993,0.02072754
 ,0.01766892,0.00495444,-0.00747833,0.00373214,0.00409242,0.00242584,-0
 .00201614,0.00047834,0.00025208,-0.00041601,-0.00046091,0.00102045,-0.
 00304801,-0.00267173,-0.00822071,-0.03169684,0.03807985,-0.00047700,-0
 .00011424,-0.00009210,0.00006446,0.00000735,0.00000001,-0.00713169,-0.
 00569409,-0.00145371,0.00111225,0.00076634,0.00004888,-0.00073204,0.00
 055027,-0.00061633,0.00000668,-0.00016047,0.00014282,0.00495675,0.0009
 2506,0.00142044,0.00028306,0.00018140,0.00025754,-0.00773063,0.0026512
 2,-0.00630642,0.00976632,-0.03545279,0.01869853,-0.07576317,0.01762873
 ,-0.01868682,0.00175801,0.04289288,-0.02373778,0.00205815,-0.00048363,
 0.00225056,0.00164285,0.00220702,0.00076325,0.00037328,-0.00220514,0.0
 0131864,0.06981272,0.00261935,0.00099571,0.00017107,-0.00029515,-0.000
 17012,0.00003010,0.00268619,0.00389852,0.00242462,-0.00470216,-0.00087
 066,-0.00108188,0.00185937,-0.00088946,0.00116287,-0.00047613,0.000537
 95,-0.00057386,0.00115242,-0.00352727,0.00172642,0.00016875,-0.0002218
 4,-0.00029908,-0.00418962,0.00569969,-0.00005384,-0.00002734,-0.043411
 54,0.02581924,0.01759669,-0.27244335,0.12102456,0.00720113,-0.02503537
 ,0.01908860,0.00055106,0.00003443,-0.00206920,0.00126681,0.00054793,-0
 .00212868,-0.00171148,-0.00346210,0.00107717,-0.02369991,0.33831749,-0
 .00148057,-0.00048326,0.00000146,0.00016293,0.00010571,0.00001269,-0.0
 0581607,-0.00021413,0.00560286,0.00279276,0.00053710,0.00024947,-0.001
 13617,0.00056165,-0.00082672,0.00027044,-0.00031946,0.00031654,0.00132
 679,0.00154028,-0.00159885,0.00025749,-0.00023582,-0.00058999,-0.00280
 482,0.00205479,0.00626947,0.00067791,0.01480125,0.00020304,-0.01858528
 ,0.12114344,-0.11121475,-0.00569219,0.03015656,-0.00894904,0.00171959,
 -0.00242459,-0.00268247,0.00124255,-0.00185632,-0.00313636,0.00107214,
 0.00095091,-0.00041827,0.02599251,-0.16631811,0.11676091\\0.00000039,0
 .00000101,-0.00000278,0.00000080,0.00000160,-0.00000316,0.00000020,0.0
 0000029,-0.00000025,0.00000076,0.00000114,-0.00000102,0.00000156,0.000
 00198,-0.00000002,0.00000178,0.00000205,0.00000119,0.00000033,0.000000
 12,0.00000161,0.00000092,0.00000066,0.00000261,-0.00000019,-0.00000056
 ,0.00000217,-0.00000091,-0.00000134,0.00000105,-0.00000110,-0.00000129
 ,-0.00000074,-0.00000060,-0.00000051,-0.00000142,-0.00000079,-0.000000
 47,-0.00000285,-0.00000132,-0.00000198,0.00000155,0.00000001,-0.000000
 72,0.00000396,-0.00000184,-0.00000197,-0.00000189\\\@
 The archive entry for this job was punched.


 PATIENCE IS THE ABILITY TO IDLE YOUR MOTOR WHEN
 YOU FEEL LIKE STRIPPING YOUR GEARS.
 Job cpu time:       0 days  0 hours 40 minutes 32.1 seconds.
 Elapsed time:       0 days  0 hours  1 minutes 17.9 seconds.
 File lengths (MBytes):  RWF=    124 Int=      0 D2E=      0 Chk=      8 Scr=      1
 Normal termination of Gaussian 16 at Mon May  5 08:13:14 2025.
