/home/tahminaafroz
cn014.cluster.local
tahminaafroz
Mon Apr 21 12:00:50 CDT 2025
 Entering Gaussian System, Link 0=g16
 Initial command:
 /home/apps/g16/l1.exe "/tmp/phboh2-opt-freq-thf/Gau-3038703.inp" -scrdir="/tmp/phboh2-opt-freq-thf/"
 Entering Link 1 = /home/apps/g16/l1.exe PID=   3038704.
  
 Copyright (c) 1988-2019, Gaussian, Inc.  All Rights Reserved.
  
 This is part of the Gaussian(R) 16 program.  It is based on
 the Gaussian(R) 09 system (copyright 2009, Gaussian, Inc.),
 the Gaussian(R) 03 system (copyright 2003, Gaussian, Inc.),
 the Gaussian(R) 98 system (copyright 1998, Gaussian, Inc.),
 the Gaussian(R) 94 system (copyright 1995, Gaussian, Inc.),
 the Gaussian 92(TM) system (copyright 1992, Gaussian, Inc.),
 the Gaussian 90(TM) system (copyright 1990, Gaussian, Inc.),
 the Gaussian 88(TM) system (copyright 1988, Gaussian, Inc.),
 the Gaussian 86(TM) system (copyright 1986, Carnegie Mellon
 University), and the Gaussian 82(TM) system (copyright 1983,
 Carnegie Mellon University). Gaussian is a federally registered
 trademark of Gaussian, Inc.
  
 This software contains proprietary and confidential information,
 including trade secrets, belonging to Gaussian, Inc.
  
 This software is provided under written license and may be
 used, copied, transmitted, or stored only in accord with that
 written license.
  
 The following legend is applicable only to US Government
 contracts under FAR:
  
                    RESTRICTED RIGHTS LEGEND
  
 Use, reproduction and disclosure by the US Government is
 subject to restrictions as set forth in subparagraphs (a)
 and (c) of the Commercial Computer Software - Restricted
 Rights clause in FAR 52.227-19.
  
 Gaussian, Inc.
 340 Quinnipiac St., Bldg. 40, Wallingford CT 06492
  
  
 ---------------------------------------------------------------
 Warning -- This program may not be used in any manner that
 competes with the business of Gaussian, Inc. or will provide
 assistance to any competitor of Gaussian, Inc.  The licensee
 of this program is prohibited from giving any competitor of
 Gaussian, Inc. access to this program.  By using this program,
 the user acknowledges that Gaussian, Inc. is engaged in the
 business of creating and licensing software in the field of
 computational chemistry and represents and warrants to the
 licensee that it is not a competitor of Gaussian, Inc. and that
 it will not use this program in any manner prohibited above.
 ---------------------------------------------------------------
  

 Cite this work as:
 Gaussian 16, Revision C.01,
 M. J. Frisch, G. W. Trucks, H. B. Schlegel, G. E. Scuseria, 
 M. A. Robb, J. R. Cheeseman, G. Scalmani, V. Barone, 
 G. A. Petersson, H. Nakatsuji, X. Li, M. Caricato, A. V. Marenich, 
 J. Bloino, B. G. Janesko, R. Gomperts, B. Mennucci, H. P. Hratchian, 
 J. V. Ortiz, A. F. Izmaylov, J. L. Sonnenberg, D. Williams-Young, 
 F. Ding, F. Lipparini, F. Egidi, J. Goings, B. Peng, A. Petrone, 
 T. Henderson, D. Ranasinghe, V. G. Zakrzewski, J. Gao, N. Rega, 
 G. Zheng, W. Liang, M. Hada, M. Ehara, K. Toyota, R. Fukuda, 
 J. Hasegawa, M. Ishida, T. Nakajima, Y. Honda, O. Kitao, H. Nakai, 
 T. Vreven, K. Throssell, J. A. Montgomery, Jr., J. E. Peralta, 
 F. Ogliaro, M. J. Bearpark, J. J. Heyd, E. N. Brothers, K. N. Kudin, 
 V. N. Staroverov, T. A. Keith, R. Kobayashi, J. Normand, 
 K. Raghavachari, A. P. Rendell, J. C. Burant, S. S. Iyengar, 
 J. Tomasi, M. Cossi, J. M. Millam, M. Klene, C. Adamo, R. Cammi, 
 J. W. Ochterski, R. L. Martin, K. Morokuma, O. Farkas, 
 J. B. Foresman, and D. J. Fox, Gaussian, Inc., Wallingford CT, 2019.
 
 ******************************************
 Gaussian 16:  AS64L-G16RevC.01  3-Jul-2019
                21-Apr-2025 
 ******************************************
 %mem=20GB
 %nprocshared=32
 Will use up to   32 processors via shared memory.
 %chk=phboh2-opt-freq-thf.chk
 ----------------------------------------------------------------------
 # opt=(calcfc,tight) freq 6-311+g(d,p) scrf=(smd,solvent=thf) nosymm s
 cf=(qc,fermi,xqc) geom=connectivity int=ultrafine m062x
 ----------------------------------------------------------------------
 1/7=10,10=4,18=20,19=15,26=6,38=1,57=2/1,3;
 2/9=110,12=2,15=1,17=6,18=5,40=1/2;
 3/5=4,6=6,7=111,11=2,25=1,30=1,70=32201,71=2,72=20,74=-55,75=-5,140=1/1,2,3;
 4//1;
 5/5=2,22=13,38=5,53=20/2;
 8/6=4,10=90,11=11/1;
 11/6=1,8=1,9=11,15=111,16=1,31=1/1,2,10;
 10/6=1,13=1,31=1/2;
 6/7=2,8=2,9=2,10=2,28=1/1;
 7/10=1,25=1,30=1/1,2,3,16;
 1/7=10,10=4,18=20,19=15,26=6/3(2);
 2/9=110,15=1/2;
 99//99;
 2/9=110,15=1/2;
 3/5=4,6=6,7=111,11=2,25=1,30=1,70=32205,71=1,72=20,74=-55,75=-5/1,2,3;
 4/5=5,16=3,69=1/1;
 5/5=2,22=13,38=5,53=20/2;
 7/30=1/1,2,3,16;
 1/7=10,18=20,19=15,26=6/3(-5);
 2/9=110,15=1/2;
 6/7=2,8=2,9=2,10=2,19=2,28=1/1;
 99/9=1/99;
 -------------------
 phboh2-opt-freq-thf
 -------------------
 Symbolic Z-matrix:
 Charge =  0 Multiplicity = 1
 O                     8.6937    7.4516    5.54165 
 H                     9.50219   7.13774   5.95654 
 C                     6.24551   6.99743   5.17177 
 B                     7.64171   6.61653   5.77197 
 O                     7.87495   5.49385   6.5199 
 H                     7.09974   4.95193   6.67447 
 C                     5.12292   6.1708    5.28852 
 H                     5.19038   5.21599   5.80391 
 C                     3.89549   6.53793   4.7481 
 H                     3.03837   5.88269   4.84886 
 C                     3.77272   7.74979   4.07563 
 C                     4.87718   8.58681   3.94549 
 H                     4.78267   9.53028   3.42076 
 C                     6.10033   8.21073   4.48781 
 H                     6.96312   8.85954   4.38658 
 H                     2.81782   8.0403    3.65311 
 

 GradGradGradGradGradGradGradGradGradGradGradGradGradGradGradGradGradGrad
 Berny optimization.
 Initialization pass.
                           ----------------------------
                           !    Initial Parameters    !
                           ! (Angstroms and Degrees)  !
 --------------------------                            --------------------------
 ! Name  Definition              Value          Derivative Info.                !
 --------------------------------------------------------------------------------
 ! R1    R(1,2)                  0.9614         calculate D2E/DX2 analytically  !
 ! R2    R(1,4)                  1.3627         calculate D2E/DX2 analytically  !
 ! R3    R(3,4)                  1.5667         calculate D2E/DX2 analytically  !
 ! R4    R(3,7)                  1.399          calculate D2E/DX2 analytically  !
 ! R5    R(3,14)                 1.4003         calculate D2E/DX2 analytically  !
 ! R6    R(4,5)                  1.369          calculate D2E/DX2 analytically  !
 ! R7    R(5,6)                  0.9584         calculate D2E/DX2 analytically  !
 ! R8    R(7,8)                  1.0871         calculate D2E/DX2 analytically  !
 ! R9    R(7,9)                  1.3905         calculate D2E/DX2 analytically  !
 ! R10   R(9,10)                 1.0836         calculate D2E/DX2 analytically  !
 ! R11   R(9,11)                 1.3914         calculate D2E/DX2 analytically  !
 ! R12   R(11,12)                1.3919         calculate D2E/DX2 analytically  !
 ! R13   R(11,16)                1.0839         calculate D2E/DX2 analytically  !
 ! R14   R(12,13)                1.0837         calculate D2E/DX2 analytically  !
 ! R15   R(12,14)                1.3898         calculate D2E/DX2 analytically  !
 ! R16   R(14,15)                1.0843         calculate D2E/DX2 analytically  !
 ! A1    A(2,1,4)              112.0983         calculate D2E/DX2 analytically  !
 ! A2    A(4,3,7)              122.6467         calculate D2E/DX2 analytically  !
 ! A3    A(4,3,14)             119.3501         calculate D2E/DX2 analytically  !
 ! A4    A(7,3,14)             118.0032         calculate D2E/DX2 analytically  !
 ! A5    A(1,4,3)              118.3077         calculate D2E/DX2 analytically  !
 ! A6    A(1,4,5)              117.6027         calculate D2E/DX2 analytically  !
 ! A7    A(3,4,5)              124.0894         calculate D2E/DX2 analytically  !
 ! A8    A(4,5,6)              114.4569         calculate D2E/DX2 analytically  !
 ! A9    A(3,7,8)              120.5799         calculate D2E/DX2 analytically  !
 ! A10   A(3,7,9)              121.3254         calculate D2E/DX2 analytically  !
 ! A11   A(8,7,9)              118.0941         calculate D2E/DX2 analytically  !
 ! A12   A(7,9,10)             120.1633         calculate D2E/DX2 analytically  !
 ! A13   A(7,9,11)             119.7161         calculate D2E/DX2 analytically  !
 ! A14   A(10,9,11)            120.1206         calculate D2E/DX2 analytically  !
 ! A15   A(9,11,12)            119.9297         calculate D2E/DX2 analytically  !
 ! A16   A(9,11,16)            119.9738         calculate D2E/DX2 analytically  !
 ! A17   A(12,11,16)           120.0964         calculate D2E/DX2 analytically  !
 ! A18   A(11,12,13)           119.9739         calculate D2E/DX2 analytically  !
 ! A19   A(11,12,14)           119.9423         calculate D2E/DX2 analytically  !
 ! A20   A(13,12,14)           120.0838         calculate D2E/DX2 analytically  !
 ! A21   A(3,14,12)            121.0828         calculate D2E/DX2 analytically  !
 ! A22   A(3,14,15)            118.7874         calculate D2E/DX2 analytically  !
 ! A23   A(12,14,15)           120.1298         calculate D2E/DX2 analytically  !
 ! D1    D(2,1,4,3)            179.4321         calculate D2E/DX2 analytically  !
 ! D2    D(2,1,4,5)             -0.4323         calculate D2E/DX2 analytically  !
 ! D3    D(7,3,4,1)            176.3571         calculate D2E/DX2 analytically  !
 ! D4    D(7,3,4,5)             -3.788          calculate D2E/DX2 analytically  !
 ! D5    D(14,3,4,1)            -3.617          calculate D2E/DX2 analytically  !
 ! D6    D(14,3,4,5)           176.2379         calculate D2E/DX2 analytically  !
 ! D7    D(4,3,7,8)             -0.4723         calculate D2E/DX2 analytically  !
 ! D8    D(4,3,7,9)            179.8225         calculate D2E/DX2 analytically  !
 ! D9    D(14,3,7,8)           179.5021         calculate D2E/DX2 analytically  !
 ! D10   D(14,3,7,9)            -0.2031         calculate D2E/DX2 analytically  !
 ! D11   D(4,3,14,12)         -179.7549         calculate D2E/DX2 analytically  !
 ! D12   D(4,3,14,15)            0.2004         calculate D2E/DX2 analytically  !
 ! D13   D(7,3,14,12)            0.2698         calculate D2E/DX2 analytically  !
 ! D14   D(7,3,14,15)         -179.7749         calculate D2E/DX2 analytically  !
 ! D15   D(1,4,5,6)            178.3759         calculate D2E/DX2 analytically  !
 ! D16   D(3,4,5,6)             -1.48           calculate D2E/DX2 analytically  !
 ! D17   D(3,7,9,10)           179.9449         calculate D2E/DX2 analytically  !
 ! D18   D(3,7,9,11)             0.0287         calculate D2E/DX2 analytically  !
 ! D19   D(8,7,9,10)             0.2326         calculate D2E/DX2 analytically  !
 ! D20   D(8,7,9,11)          -179.6836         calculate D2E/DX2 analytically  !
 ! D21   D(7,9,11,12)            0.0852         calculate D2E/DX2 analytically  !
 ! D22   D(7,9,11,16)         -179.9745         calculate D2E/DX2 analytically  !
 ! D23   D(10,9,11,12)        -179.831          calculate D2E/DX2 analytically  !
 ! D24   D(10,9,11,16)           0.1093         calculate D2E/DX2 analytically  !
 ! D25   D(9,11,12,13)         179.9215         calculate D2E/DX2 analytically  !
 ! D26   D(9,11,12,14)          -0.0192         calculate D2E/DX2 analytically  !
 ! D27   D(16,11,12,13)         -0.0187         calculate D2E/DX2 analytically  !
 ! D28   D(16,11,12,14)       -179.9595         calculate D2E/DX2 analytically  !
 ! D29   D(11,12,14,3)          -0.1625         calculate D2E/DX2 analytically  !
 ! D30   D(11,12,14,15)        179.8828         calculate D2E/DX2 analytically  !
 ! D31   D(13,12,14,3)         179.8968         calculate D2E/DX2 analytically  !
 ! D32   D(13,12,14,15)         -0.0579         calculate D2E/DX2 analytically  !
 --------------------------------------------------------------------------------
 Trust Radius=3.00D-01 FncErr=5.00D-06 GrdErr=5.00D-06 EigMax=2.50D+02 EigMin=1.00D-04
 Number of steps in this run=     81 maximum allowed number of steps=    100.
 GradGradGradGradGradGradGradGradGradGradGradGradGradGradGradGradGradGrad

                          Input orientation:                          
 ---------------------------------------------------------------------
 Center     Atomic      Atomic             Coordinates (Angstroms)
 Number     Number       Type             X           Y           Z
 ---------------------------------------------------------------------
      1          8           0        8.693701    7.451595    5.541649
      2          1           0        9.502193    7.137737    5.956544
      3          6           0        6.245510    6.997434    5.171772
      4          5           0        7.641708    6.616527    5.771970
      5          8           0        7.874947    5.493847    6.519897
      6          1           0        7.099744    4.951929    6.674467
      7          6           0        5.122923    6.170805    5.288524
      8          1           0        5.190378    5.215994    5.803906
      9          6           0        3.895492    6.537926    4.748104
     10          1           0        3.038365    5.882688    4.848858
     11          6           0        3.772716    7.749791    4.075628
     12          6           0        4.877176    8.586807    3.945493
     13          1           0        4.782667    9.530279    3.420756
     14          6           0        6.100328    8.210725    4.487806
     15          1           0        6.963122    8.859535    4.386577
     16          1           0        2.817824    8.040296    3.653112
 ---------------------------------------------------------------------
                    Distance matrix (angstroms):
                    1          2          3          4          5
     1  O    0.000000
     2  H    0.961407   0.000000
     3  C    2.517282   3.352840   0.000000
     4  B    1.362746   1.940910   1.566747   0.000000
     5  O    2.336687   2.380687   2.594856   1.369016   0.000000
     6  H    3.173690   3.326399   2.678040   1.969546   0.958388
     7  C    3.801967   4.534227   1.398981   2.603203   3.090014
     8  H    4.164128   4.723150   2.164815   2.823390   2.792267
     9  C    4.948466   5.766732   2.431713   3.884407   4.479443
    10  H    5.909675   6.677064   3.410676   4.751991   5.131870
    11  C    5.143368   6.061300   2.807540   4.373896   5.281291
    12  C    4.289788   5.247372   2.429445   3.854952   5.018026
    13  H    4.910733   5.867572   3.408998   4.710868   5.954801
    14  C    2.900422   3.857613   1.400344   2.562498   3.828850
    15  H    2.512248   3.446196   2.144509   2.722293   4.087828
    16  H    6.199925   7.127496   3.891391   5.457704   6.346444
                    6          7          8          9         10
     6  H    0.000000
     7  C    2.704500   0.000000
     8  H    2.115014   1.087121   0.000000
     9  C    4.061218   1.390474   2.130482   0.000000
    10  H    4.549061   2.149814   2.446989   1.083584   0.000000
    11  C    5.064693   2.405696   3.378881   1.391372   2.150170
    12  C    5.059589   2.775102   3.861887   2.409523   3.392573
    13  H    6.075917   3.858808   4.945572   3.391623   4.288005
    14  C    4.049700   2.399530   3.395371   2.779805   3.863384
    15  H    4.530176   3.380697   4.292649   3.864055   4.947630
    16  H    6.082881   3.388665   4.269849   2.148835   2.476635
                   11         12         13         14         15
    11  C    0.000000
    12  C    1.391892   0.000000
    13  H    2.149185   1.083707   0.000000
    14  C    2.408346   1.389835   2.148499   0.000000
    15  H    3.392184   2.149443   2.477315   1.084258   0.000000
    16  H    1.083850   2.150603   2.476822   3.391252   4.288662
                   16
    16  H    0.000000
 Symmetry turned off by external request.
 Stoichiometry    C6H7BO2
 Framework group  C1[X(C6H7BO2)]
 Deg. of freedom    42
 Full point group                 C1      NOp   1
 Rotational constants (GHZ):           3.7012063           1.1295328           0.8658291
 Standard basis: 6-311+G(d,p) (5D, 7F)
   240 basis functions,   380 primitive gaussians,   249 cartesian basis functions
    32 alpha electrons       32 beta electrons
       nuclear repulsion energy       394.2835141192 Hartrees.
 NAtoms=   16 NActive=   16 NUniq=   16 SFac= 1.00D+00 NAtFMM=   60 NAOKFM=F Big=F
 Integral buffers will be    131072 words long.
 Raffenetti 2 integral format.
 Two-electron integral symmetry is turned off.
 Force inversion solution in PCM.
 ------------------------------------------------------------------------------
 Polarizable Continuum Model (PCM)
 =================================
 Model                : PCM.
 Atomic radii         : SMD-Coulomb.
 Polarization charges : Total charges.
 Charge compensation  : None.
 Solution method      : Matrix inversion.
 Cavity type          : VdW (van der Waals Surface) (Alpha=1.000).
 Cavity algorithm     : GePol (No added spheres)
                        Default sphere list used, NSphG=   16.
                        Lebedev-Laikov grids with approx.  5.0 points / Ang**2.
                        Smoothing algorithm: York/Karplus (Gamma=1.0000).
                        Polarization charges: spherical gaussians, with
                                              point-specific exponents (IZeta= 3).
                        Self-potential: point-specific (ISelfS= 7).
                        Self-field    : sphere-specific E.n sum rule (ISelfD= 2).
 1st derivatives      : Analytical E(r).r(x)/FMM algorithm (CHGder, D1EAlg=3).
                        Cavity 1st derivative terms included.
 2nd derivatives      : Analytical E(r).r(xy)/FMM algorithm (CHGder, D2EAlg=3).
                        Cavity 2nd derivative terms included.
 Solvent              : TetraHydroFuran, Eps=   7.425700 Eps(inf)=   1.974025
 ------------------------------------------------------------------------------
 Spheres list:
 ISph  on   Nord     Re0    Alpha      Xe            Ye            Ze
    1   O      1    2.2940  1.000      8.693701      7.451595      5.541649
    2   H      2    1.2000  1.000      9.502193      7.137737      5.956544
    3   C      3    1.8500  1.000      6.245510      6.997434      5.171772
    4   B      4    1.8000  1.000      7.641708      6.616527      5.771970
    5   O      5    2.2940  1.000      7.874947      5.493847      6.519897
    6   H      6    1.2000  1.000      7.099744      4.951929      6.674467
    7   C      7    1.8500  1.000      5.122923      6.170805      5.288524
    8   H      8    1.2000  1.000      5.190378      5.215994      5.803906
    9   C      9    1.8500  1.000      3.895492      6.537926      4.748104
   10   H     10    1.2000  1.000      3.038365      5.882688      4.848858
   11   C     11    1.8500  1.000      3.772716      7.749791      4.075628
   12   C     12    1.8500  1.000      4.877176      8.586807      3.945493
   13   H     13    1.2000  1.000      4.782667      9.530279      3.420756
   14   C     14    1.8500  1.000      6.100328      8.210725      4.487806
   15   H     15    1.2000  1.000      6.963122      8.859535      4.386577
   16   H     16    1.2000  1.000      2.817824      8.040296      3.653112
 ------------------------------------------------------------------------------
 ------------------------------------------------------------------------------
 Atomic radii for non-electrostatic terms: SMD-CDS.
 ------------------------------------------------------------------------------
 Nuclear repulsion after PCM non-electrostatic terms =      394.2795437212 Hartrees.
 One-electron integrals computed using PRISM.
 NBasis=   240 RedAO= T EigKep=  2.95D-06  NBF=   240
 NBsUse=   240 1.00D-06 EigRej= -1.00D+00 NBFU=   240
 ExpMin= 3.15D-02 ExpMax= 8.59D+03 ExpMxC= 1.30D+03 IAcc=3 IRadAn=         5 AccDes= 0.00D+00
 Harris functional with IExCor= 1009 and IRadAn=       5 diagonalized for initial guess.
 HarFok:  IExCor= 1009 AccDes= 0.00D+00 IRadAn=         5 IDoV= 1 UseB2=F ITyADJ=14
 ICtDFT=  3500011 ScaDFX=  1.000000  1.000000  1.000000  1.000000
 FoFCou: FMM=F IPFlag=           0 FMFlag=      100000 FMFlg1=           0
         NFxFlg=           0 DoJE=T BraDBF=F KetDBF=T FulRan=T
         wScrn=  0.000000 ICntrl=       500 IOpCl=  0 I1Cent=   200000004 NGrid=           0
         NMat0=    1 NMatS0=      1 NMatT0=    0 NMatD0=    1 NMtDS0=    0 NMtDT0=    0
 Symmetry not used in FoFCou.
 Requested convergence on RMS density matrix=1.00D-08 within 128 cycles.
 Requested convergence on MAX density matrix=1.00D-06.
 Requested convergence on             energy=1.00D-06.
 Level shift goal  0.100 maximum shift  0.100.
 No special actions if energy rises.
 Dynamic level shift is on during FON iterations.
 Inv3:  Mode=1 IEnd=     6264075.
 Iteration    1 A*A^-1 deviation from unit magnitude is 4.44D-15 for   1434.
 Iteration    1 A*A^-1 deviation from orthogonality  is 2.22D-15 for   1445   1319.
 Iteration    1 A^-1*A deviation from unit magnitude is 4.55D-15 for   1442.
 Iteration    1 A^-1*A deviation from orthogonality  is 3.11D-15 for   1445   1319.
 Error on total polarization charges =  0.02638
 SCF Done:  E(RM062X) =  -408.237699069     A.U. after   13 cycles
            NFock= 13  Conv=0.57D-08     -V/T= 2.0037
 SMD-CDS (non-electrostatic) energy       (kcal/mol) =      -2.49
 (included in total energy above)
 DoSCS=F DFT=T ScalE2(SS,OS)=  1.000000  1.000000
 Range of M.O.s used for correlation:     1   240
 NBasis=   240 NAE=    32 NBE=    32 NFC=     0 NFV=     0
 NROrb=    240 NOA=    32 NOB=    32 NVA=   208 NVB=   208

 **** Warning!!: The largest alpha MO coefficient is  0.15246537D+03

 Symmetrizing basis deriv contribution to polar:
 IMax=3 JMax=2 DiffMx= 0.00D+00
 G2DrvN: will do    17 centers at a time, making    1 passes.
 Calling FoFCou, ICntrl=  3107 FMM=F I1Cent=   0 AccDes= 0.00D+00.
 NEqPCM:  Using equilibrium solvation (IEInf=0, Eps=   7.4257, EpsInf=   1.9740)
 G2PCM: DoFxE=T DoFxN=T DoGrad=T DoDP/DQ/DG/TGxP=FFFF NFrqRd=   0 IEInf=0 SqF1=F DoCFld=F IF1Alg=4.
 End of G2Drv F.D. properties file   721 does not exist.
 End of G2Drv F.D. properties file   722 does not exist.
 End of G2Drv F.D. properties file   788 does not exist.
          IDoAtm=1111111111111111
 NEqPCM:  Using equilibrium solvation (IEInf=0, Eps=   7.4257, EpsInf=   1.9740)
          Differentiating once with respect to nuclear coordinates.
 Keep R1 ints in memory in canonical form, NReq=452690912.
          There are    51 degrees of freedom in the 1st order CPHF.  IDoFFX=6 NUNeed=     0.
     45 vectors produced by pass  0 Test12= 1.31D-14 1.96D-09 XBig12= 1.29D-01 9.61D-02.
 AX will form    45 AO Fock derivatives at one time.
     45 vectors produced by pass  1 Test12= 1.31D-14 1.96D-09 XBig12= 8.76D-03 2.41D-02.
     45 vectors produced by pass  2 Test12= 1.31D-14 1.96D-09 XBig12= 2.44D-04 2.84D-03.
     45 vectors produced by pass  3 Test12= 1.31D-14 1.96D-09 XBig12= 1.53D-06 2.14D-04.
     45 vectors produced by pass  4 Test12= 1.31D-14 1.96D-09 XBig12= 1.14D-08 1.39D-05.
     45 vectors produced by pass  5 Test12= 1.31D-14 1.96D-09 XBig12= 5.66D-11 9.35D-07.
     38 vectors produced by pass  6 Test12= 1.31D-14 1.96D-09 XBig12= 2.40D-13 4.80D-08.
      4 vectors produced by pass  7 Test12= 1.31D-14 1.96D-09 XBig12= 8.84D-16 3.08D-09.
 InvSVY:  IOpt=1 It=  1 EMax= 2.78D-16
 Solved reduced A of dimension   312 with    51 vectors.
 End of Minotr F.D. properties file   721 does not exist.
 End of Minotr F.D. properties file   722 does not exist.
 End of Minotr F.D. properties file   788 does not exist.

 **********************************************************************

            Population analysis using the SCF Density.

 **********************************************************************

 Alpha  occ. eigenvalues --  -19.63504 -19.63001 -10.54846 -10.54618 -10.54371
 Alpha  occ. eigenvalues --  -10.54350 -10.54215 -10.52976  -7.08260  -1.16671
 Alpha  occ. eigenvalues --   -1.12985  -0.96195  -0.84494  -0.84456  -0.69490
 Alpha  occ. eigenvalues --   -0.68679  -0.64952  -0.62775  -0.58900  -0.53121
 Alpha  occ. eigenvalues --   -0.51666  -0.50022  -0.48836  -0.47942  -0.45511
 Alpha  occ. eigenvalues --   -0.44669  -0.43910  -0.40414  -0.39898  -0.38027
 Alpha  occ. eigenvalues --   -0.31311  -0.31148
 Alpha virt. eigenvalues --   -0.00429   0.00133   0.01653   0.02183   0.02405
 Alpha virt. eigenvalues --    0.03205   0.04183   0.04644   0.05712   0.07885
 Alpha virt. eigenvalues --    0.08089   0.08107   0.09591   0.11196   0.11273
 Alpha virt. eigenvalues --    0.12514   0.13158   0.14070   0.14408   0.14556
 Alpha virt. eigenvalues --    0.15390   0.15846   0.17091   0.17840   0.17895
 Alpha virt. eigenvalues --    0.18678   0.19337   0.20226   0.20906   0.21084
 Alpha virt. eigenvalues --    0.22530   0.23711   0.23819   0.24416   0.24608
 Alpha virt. eigenvalues --    0.25042   0.25291   0.25448   0.25840   0.26691
 Alpha virt. eigenvalues --    0.28277   0.28763   0.30707   0.31805   0.33758
 Alpha virt. eigenvalues --    0.34320   0.36032   0.36706   0.37145   0.39599
 Alpha virt. eigenvalues --    0.41074   0.44911   0.47387   0.48960   0.49663
 Alpha virt. eigenvalues --    0.49815   0.51609   0.55191   0.56984   0.57234
 Alpha virt. eigenvalues --    0.58007   0.59126   0.59271   0.60202   0.61560
 Alpha virt. eigenvalues --    0.62976   0.64876   0.64972   0.67802   0.68730
 Alpha virt. eigenvalues --    0.70110   0.71449   0.71704   0.73152   0.75274
 Alpha virt. eigenvalues --    0.76308   0.78598   0.81205   0.84668   0.86309
 Alpha virt. eigenvalues --    0.86422   0.87059   0.89824   0.90404   0.91107
 Alpha virt. eigenvalues --    0.92154   0.93657   0.95630   1.00533   1.03174
 Alpha virt. eigenvalues --    1.04056   1.05563   1.07667   1.07888   1.09516
 Alpha virt. eigenvalues --    1.11759   1.12155   1.13038   1.14084   1.18261
 Alpha virt. eigenvalues --    1.19691   1.21290   1.25469   1.32429   1.33601
 Alpha virt. eigenvalues --    1.35073   1.39372   1.45569   1.46161   1.49310
 Alpha virt. eigenvalues --    1.51480   1.53212   1.55400   1.57995   1.61468
 Alpha virt. eigenvalues --    1.61833   1.61917   1.64020   1.67814   1.70247
 Alpha virt. eigenvalues --    1.70992   1.71174   1.77180   1.78309   1.80343
 Alpha virt. eigenvalues --    1.81463   1.84571   1.86078   1.90081   1.93360
 Alpha virt. eigenvalues --    1.94120   1.96883   1.97819   1.98225   2.00878
 Alpha virt. eigenvalues --    2.01688   2.05962   2.09498   2.11273   2.12447
 Alpha virt. eigenvalues --    2.15340   2.17176   2.21673   2.33891   2.37419
 Alpha virt. eigenvalues --    2.42081   2.43326   2.44859   2.46221   2.55989
 Alpha virt. eigenvalues --    2.57534   2.61401   2.62793   2.65231   2.66603
 Alpha virt. eigenvalues --    2.69534   2.72879   2.73054   2.74103   2.78075
 Alpha virt. eigenvalues --    2.78659   2.80327   2.85203   2.87073   2.87706
 Alpha virt. eigenvalues --    2.89659   2.95182   2.96518   2.97966   3.07609
 Alpha virt. eigenvalues --    3.11453   3.14455   3.24383   3.26780   3.27206
 Alpha virt. eigenvalues --    3.31956   3.40839   3.42967   3.46483   3.52623
 Alpha virt. eigenvalues --    3.55550   3.57382   3.61089   3.66009   3.66896
 Alpha virt. eigenvalues --    3.91841   3.94754   4.04442   4.06369   4.13206
 Alpha virt. eigenvalues --    4.19754   4.21431   4.86423   5.08446   5.09362
 Alpha virt. eigenvalues --    5.39270   5.50018   5.69129   5.76851  14.79721
 Alpha virt. eigenvalues --   23.68616  24.03753  24.04834  24.15653  24.18221
 Alpha virt. eigenvalues --   24.27502  50.00062  50.05749
          Condensed to atoms (all electrons):
               1          2          3          4          5          6
     1  O    7.810491   0.279129   0.021165   0.435735  -0.112958   0.016580
     2  H    0.279129   0.419428   0.039982  -0.006219  -0.031780   0.002945
     3  C    0.021165   0.039982   7.974459   0.273599  -0.142561  -0.003235
     4  B    0.435735  -0.006219   0.273599   3.317101   0.376239   0.011819
     5  O   -0.112958  -0.031780  -0.142561   0.376239   7.991735   0.273411
     6  H    0.016580   0.002945  -0.003235   0.011819   0.273411   0.395206
     7  C    0.058592  -0.001553  -0.878663   0.093835  -0.036329  -0.020296
     8  H    0.001730  -0.000031   0.015385   0.009670  -0.004072   0.008974
     9  C    0.042828   0.003306  -0.238435   0.048260   0.007611   0.042060
    10  H   -0.000026  -0.000001   0.003540  -0.000317   0.000248  -0.000045
    11  C   -0.007986  -0.000321  -0.500234   0.012920  -0.001252   0.000090
    12  C    0.006670  -0.015842  -0.358731  -0.011851   0.048152  -0.009769
    13  H    0.000300   0.000001   0.013042   0.000025  -0.000018   0.000002
    14  C   -0.138097  -0.019419   0.074821  -0.061701   0.046049  -0.001415
    15  H    0.004704  -0.000315   0.038678  -0.009373   0.001726  -0.000063
    16  H    0.000006   0.000000   0.022830  -0.000280   0.000008  -0.000002
               7          8          9         10         11         12
     1  O    0.058592   0.001730   0.042828  -0.000026  -0.007986   0.006670
     2  H   -0.001553  -0.000031   0.003306  -0.000001  -0.000321  -0.015842
     3  C   -0.878663   0.015385  -0.238435   0.003540  -0.500234  -0.358731
     4  B    0.093835   0.009670   0.048260  -0.000317   0.012920  -0.011851
     5  O   -0.036329  -0.004072   0.007611   0.000248  -0.001252   0.048152
     6  H   -0.020296   0.008974   0.042060  -0.000045   0.000090  -0.009769
     7  C    8.972730   0.363078  -0.692266  -0.009010   0.051100   0.036878
     8  H    0.363078   0.488408  -0.003805  -0.005388  -0.016448  -0.003264
     9  C   -0.692266  -0.003805   6.500719   0.369032   0.514503  -0.092947
    10  H   -0.009010  -0.005388   0.369032   0.464402   0.005493  -0.008943
    11  C    0.051100  -0.016448   0.514503   0.005493   5.200622   0.530971
    12  C    0.036878  -0.003264  -0.092947  -0.008943   0.530971   6.748610
    13  H   -0.003341   0.000061  -0.008362  -0.000142  -0.003654   0.360902
    14  C   -1.700762  -0.023051  -0.398715  -0.002487   0.067902  -1.116580
    15  H   -0.020046  -0.000065   0.002875   0.000048  -0.015495  -0.006789
    16  H   -0.035145  -0.000198   0.021568  -0.005732   0.354689   0.026482
              13         14         15         16
     1  O    0.000300  -0.138097   0.004704   0.000006
     2  H    0.000001  -0.019419  -0.000315   0.000000
     3  C    0.013042   0.074821   0.038678   0.022830
     4  B    0.000025  -0.061701  -0.009373  -0.000280
     5  O   -0.000018   0.046049   0.001726   0.000008
     6  H    0.000002  -0.001415  -0.000063  -0.000002
     7  C   -0.003341  -1.700762  -0.020046  -0.035145
     8  H    0.000061  -0.023051  -0.000065  -0.000198
     9  C   -0.008362  -0.398715   0.002875   0.021568
    10  H   -0.000142  -0.002487   0.000048  -0.005732
    11  C   -0.003654   0.067902  -0.015495   0.354689
    12  C    0.360902  -1.116580  -0.006789   0.026482
    13  H    0.464201  -0.001974  -0.005168  -0.005757
    14  C   -0.001974   9.199060   0.353717  -0.032184
    15  H   -0.005168   0.353717   0.460837  -0.000160
    16  H   -0.005757  -0.032184  -0.000160   0.462202
 Mulliken charges:
               1
     1  O   -0.418863
     2  H    0.330691
     3  C   -0.355643
     4  B    0.510539
     5  O   -0.416207
     6  H    0.283739
     7  C   -0.178801
     8  H    0.169017
     9  C   -0.118231
    10  H    0.189326
    11  C   -0.192900
    12  C   -0.133948
    13  H    0.189881
    14  C   -0.245164
    15  H    0.194890
    16  H    0.191674
 Sum of Mulliken charges =   0.00000
 Mulliken charges with hydrogens summed into heavy atoms:
               1
     1  O   -0.088171
     3  C   -0.355643
     4  B    0.510539
     5  O   -0.132468
     7  C   -0.009784
     9  C    0.071095
    11  C   -0.001225
    12  C    0.055932
    14  C   -0.050274
 APT charges:
               1
     1  O   -0.554032
     2  H    2.042271
     3  C   -1.614749
     4  B   -0.315814
     5  O    1.252351
     6  H   -1.191663
     7  C   -0.088489
     8  H   -0.164085
     9  C    0.168074
    10  H   -0.789672
    11  C   -0.336984
    12  C   -1.353239
    13  H    1.194711
    14  C    0.026065
    15  H    1.877500
    16  H   -0.152244
 Sum of APT charges =   0.00000
 APT charges with hydrogens summed into heavy atoms:
               1
     1  O    1.488239
     3  C   -1.614749
     4  B   -0.315814
     5  O    0.060688
     7  C   -0.252574
     9  C   -0.621598
    11  C   -0.489228
    12  C   -0.158528
    14  C    1.903565
 Electronic spatial extent (au):  <R**2>=          27114.4197
 Charge=              0.0000 electrons
 Dipole moment (field-independent basis, Debye):
    X=             -1.3474    Y=             -1.1666    Z=              0.4227  Tot=              1.8317
 Quadrupole moment (field-independent basis, Debye-Ang):
   XX=            -62.8289   YY=            -64.7513   ZZ=            -49.4031
   XY=            -15.4146   XZ=             -1.8683   YZ=             -7.3425
 Traceless Quadrupole moment (field-independent basis, Debye-Ang):
   XX=             -3.8344   YY=             -5.7569   ZZ=              9.5913
   XY=            -15.4146   XZ=             -1.8683   YZ=             -7.3425
 Octapole moment (field-independent basis, Debye-Ang**2):
  XXX=           -978.8702  YYY=          -1206.0818  ZZZ=           -778.5459  XYY=           -449.6215
  XXY=           -472.3903  XXZ=           -275.4403  XZZ=           -307.7516  YZZ=           -423.0254
  YYZ=           -369.7489  XYZ=            -60.8562
 Hexadecapole moment (field-independent basis, Debye-Ang**3):
 XXXX=         -11888.7633 YYYY=         -16691.7800 ZZZZ=          -8235.7242 XXXY=          -6970.5469
 XXXZ=          -4738.2291 YYYX=          -7676.3816 YYYZ=          -6553.7532 ZZZX=          -4852.2415
 ZZZY=          -5875.6624 XXYY=          -5635.4073 XXZZ=          -3336.3179 YYZZ=          -4850.6333
 XXYZ=          -2104.1846 YYXZ=          -2342.6866 ZZXY=          -2478.9721
 N-N= 3.942795437212D+02 E-N=-1.742414286510D+03  KE= 4.067427691582D+02
  Exact polarizability:       0.000       0.000       0.000       0.000       0.000       0.000
 Approx polarizability:     123.954       5.241     110.735      13.228     -22.314      82.399
 D2PCM: PCM CHGder 2nd derivatives, FixD1E=F FixD2E=F DoIter=F DoCFld=F I1PDM=0
 Calling FoFJK, ICntrl=    100127 FMM=F ISym2X=0 I1Cent= 0 IOpClX= 0 NMat=1 NMatS=1 NMatT=0.
 -------------------------------------------------------------------
 Center     Atomic                   Forces (Hartrees/Bohr)
 Number     Number              X              Y              Z
 -------------------------------------------------------------------
      1        8          -0.000938638    0.001676090   -0.001364830
      2        1           0.002532051   -0.000672093    0.001102894
      3        6           0.000051218    0.000359816   -0.000215131
      4        5          -0.000530223   -0.001911866    0.001104606
      5        8           0.002592040    0.002477779   -0.000883327
      6        1          -0.002822845   -0.002131417    0.000542436
      7        6           0.000135470   -0.001992596    0.000937635
      8        1          -0.000058525    0.000041747    0.000138569
      9        6          -0.000217851    0.000059373   -0.000096446
     10        1          -0.000166229   -0.000249669    0.000058838
     11        6          -0.000686128    0.000123279   -0.000267765
     12        6           0.000128165    0.001069675   -0.000494862
     13        1          -0.000045256    0.000323088   -0.000175802
     14        6           0.000527240   -0.000132010    0.000190573
     15        1          -0.000249910    0.000775505   -0.000415161
     16        1          -0.000250580    0.000183301   -0.000162227
 -------------------------------------------------------------------
 Cartesian Forces:  Max     0.002822845 RMS     0.001059171
 FormGI is forming the generalized inverse of G from B-inverse, IUseBI=4.

 GradGradGradGradGradGradGradGradGradGradGradGradGradGradGradGradGradGrad
 Berny optimization.
 Internal  Forces:  Max     0.003583496 RMS     0.000733661
 Search for a local minimum.
 Step number   1 out of a maximum of   81
 All quantities printed in internal units (Hartrees-Bohrs-Radians)
 Mixed Optimization -- En-DIIS/RFO-DIIS
 Second derivative matrix not updated -- analytic derivatives used.
 ITU=  0
     Eigenvalues ---    0.00128   0.01022   0.01248   0.01451   0.01719
     Eigenvalues ---    0.01789   0.02200   0.02464   0.02582   0.02763
     Eigenvalues ---    0.02870   0.02888   0.03879   0.10527   0.10689
     Eigenvalues ---    0.11235   0.11420   0.12018   0.12130   0.12721
     Eigenvalues ---    0.16021   0.18578   0.18771   0.19151   0.19415
     Eigenvalues ---    0.20208   0.27327   0.29679   0.35708   0.36327
     Eigenvalues ---    0.36379   0.36510   0.36594   0.38644   0.42135
     Eigenvalues ---    0.42483   0.47725   0.47953   0.49051   0.51984
     Eigenvalues ---    0.54657   0.55685
 RFO step:  Lambda=-9.51371461D-05 EMin= 1.27960932D-03
 Linear search not attempted -- first point.
 Iteration  1 RMS(Cart)=  0.01268892 RMS(Int)=  0.00007483
 Iteration  2 RMS(Cart)=  0.00010292 RMS(Int)=  0.00000080
 Iteration  3 RMS(Cart)=  0.00000001 RMS(Int)=  0.00000080
 Variable       Old X    -DE/DX   Delta X   Delta X   Delta X     New X
                                 (Linear)    (Quad)   (Total)
    R1        1.81680   0.00283   0.00000   0.00504   0.00504   1.82184
    R2        2.57522   0.00188   0.00000   0.00423   0.00423   2.57945
    R3        2.96072   0.00107   0.00000   0.00433   0.00433   2.96506
    R4        2.64369   0.00125   0.00000   0.00293   0.00293   2.64662
    R5        2.64627   0.00157   0.00000   0.00221   0.00221   2.64847
    R6        2.58707  -0.00050   0.00000  -0.00217  -0.00217   2.58489
    R7        1.81109   0.00358   0.00000   0.00642   0.00642   1.81751
    R8        2.05436   0.00002   0.00000  -0.00036  -0.00036   2.05401
    R9        2.62762   0.00111   0.00000   0.00224   0.00224   2.62985
   R10        2.04768   0.00029   0.00000   0.00088   0.00088   2.04856
   R11        2.62931   0.00117   0.00000   0.00185   0.00185   2.63116
   R12        2.63029   0.00088   0.00000   0.00176   0.00176   2.63205
   R13        2.04818   0.00033   0.00000   0.00085   0.00085   2.04903
   R14        2.04791   0.00037   0.00000   0.00090   0.00090   2.04881
   R15        2.62641   0.00083   0.00000   0.00191   0.00191   2.62832
   R16        2.04895   0.00031   0.00000   0.00087   0.00087   2.04982
    A1        1.95648   0.00056   0.00000   0.00280   0.00280   1.95928
    A2        2.14059  -0.00073   0.00000  -0.00350  -0.00350   2.13709
    A3        2.08305   0.00067   0.00000   0.00345   0.00345   2.08650
    A4        2.05954   0.00006   0.00000   0.00005   0.00005   2.05959
    A5        2.06486   0.00010   0.00000  -0.00154  -0.00154   2.06332
    A6        2.05255   0.00010   0.00000   0.00099   0.00099   2.05354
    A7        2.16577  -0.00020   0.00000   0.00055   0.00055   2.16632
    A8        1.99765   0.00016   0.00000   0.00126   0.00126   1.99891
    A9        2.10452   0.00031   0.00000   0.00225   0.00225   2.10676
   A10        2.11753  -0.00056   0.00000  -0.00221  -0.00221   2.11532
   A11        2.06113   0.00025   0.00000  -0.00003  -0.00003   2.06110
   A12        2.09724  -0.00032   0.00000  -0.00189  -0.00189   2.09535
   A13        2.08944   0.00045   0.00000   0.00230   0.00230   2.09174
   A14        2.09650  -0.00013   0.00000  -0.00041  -0.00041   2.09609
   A15        2.09317   0.00003   0.00000  -0.00057  -0.00057   2.09260
   A16        2.09394   0.00010   0.00000   0.00074   0.00074   2.09468
   A17        2.09608  -0.00014   0.00000  -0.00016  -0.00016   2.09591
   A18        2.09394   0.00011   0.00000   0.00081   0.00081   2.09475
   A19        2.09339  -0.00022   0.00000  -0.00093  -0.00093   2.09246
   A20        2.09586   0.00012   0.00000   0.00011   0.00012   2.09597
   A21        2.11329   0.00023   0.00000   0.00136   0.00136   2.11466
   A22        2.07323   0.00076   0.00000   0.00605   0.00605   2.07928
   A23        2.09666  -0.00099   0.00000  -0.00741  -0.00741   2.08925
    D1        3.13168   0.00004   0.00000   0.00464   0.00464   3.13632
    D2       -0.00754  -0.00003   0.00000   0.00296   0.00296  -0.00458
    D3        3.07801   0.00000   0.00000   0.01884   0.01884   3.09685
    D4       -0.06611   0.00006   0.00000   0.02064   0.02064  -0.04548
    D5       -0.06313  -0.00002   0.00000   0.01908   0.01908  -0.04405
    D6        3.07593   0.00005   0.00000   0.02088   0.02088   3.09681
    D7       -0.00824   0.00007   0.00000   0.00525   0.00525  -0.00299
    D8        3.13850   0.00002   0.00000   0.00172   0.00172   3.14021
    D9        3.13290   0.00008   0.00000   0.00501   0.00501   3.13791
   D10       -0.00354   0.00003   0.00000   0.00148   0.00148  -0.00207
   D11       -3.13731  -0.00001   0.00000  -0.00177  -0.00177  -3.13908
   D12        0.00350  -0.00003   0.00000  -0.00217  -0.00217   0.00133
   D13        0.00471  -0.00002   0.00000  -0.00154  -0.00154   0.00317
   D14       -3.13766  -0.00004   0.00000  -0.00193  -0.00193  -3.13960
   D15        3.11325   0.00011   0.00000   0.01148   0.01148   3.12472
   D16       -0.02583   0.00004   0.00000   0.00969   0.00969  -0.01614
   D17        3.14063   0.00000   0.00000   0.00031   0.00031   3.14094
   D18        0.00050  -0.00001   0.00000  -0.00032  -0.00032   0.00018
   D19        0.00406  -0.00006   0.00000  -0.00314  -0.00314   0.00092
   D20       -3.13607  -0.00007   0.00000  -0.00377  -0.00377  -3.13984
   D21        0.00149  -0.00001   0.00000  -0.00081  -0.00081   0.00067
   D22       -3.14115   0.00001   0.00000  -0.00004  -0.00004  -3.14118
   D23       -3.13864  -0.00002   0.00000  -0.00145  -0.00145  -3.14009
   D24        0.00191   0.00000   0.00000  -0.00067  -0.00067   0.00124
   D25        3.14022   0.00002   0.00000   0.00085   0.00085   3.14107
   D26       -0.00034   0.00002   0.00000   0.00075   0.00075   0.00042
   D27       -0.00033   0.00000   0.00000   0.00007   0.00007  -0.00026
   D28       -3.14089   0.00000   0.00000  -0.00003  -0.00003  -3.14091
   D29       -0.00284   0.00000   0.00000   0.00045   0.00045  -0.00239
   D30        3.13955   0.00001   0.00000   0.00084   0.00084   3.14039
   D31        3.13979   0.00000   0.00000   0.00035   0.00035   3.14014
   D32       -0.00101   0.00002   0.00000   0.00075   0.00075  -0.00026
         Item               Value     Threshold  Converged?
 Maximum Force            0.003583     0.000015     NO 
 RMS     Force            0.000734     0.000010     NO 
 Maximum Displacement     0.054750     0.000060     NO 
 RMS     Displacement     0.012706     0.000040     NO 
 Predicted change in Energy=-4.767494D-05
 GradGradGradGradGradGradGradGradGradGradGradGradGradGradGradGradGradGrad

                          Input orientation:                          
 ---------------------------------------------------------------------
 Center     Atomic      Atomic             Coordinates (Angstroms)
 Number     Number       Type             X           Y           Z
 ---------------------------------------------------------------------
      1          8           0        8.693428    7.460003    5.560011
      2          1           0        9.506458    7.144104    5.970660
      3          6           0        6.246056    6.999766    5.173924
      4          5           0        7.643015    6.615573    5.776243
      5          8           0        7.878038    5.484269    6.508348
      6          1           0        7.104423    4.929523    6.645494
      7          6           0        5.121939    6.173455    5.296633
      8          1           0        5.186172    5.223004    5.820028
      9          6           0        3.894469    6.540779    4.753401
     10          1           0        3.036490    5.886627    4.858868
     11          6           0        3.771436    7.749616    4.073531
     12          6           0        4.876959    8.586074    3.938945
     13          1           0        4.783533    9.527584    3.409529
     14          6           0        6.100413    8.210826    4.483737
     15          1           0        6.959708    8.864020    4.376184
     16          1           0        2.816257    8.038692    3.649527
 ---------------------------------------------------------------------
                    Distance matrix (angstroms):
                    1          2          3          4          5
     1  O    0.000000
     2  H    0.964076   0.000000
     3  C    2.520022   3.359441   0.000000
     4  B    1.364986   1.946680   1.569041   0.000000
     5  O    2.338318   2.386611   2.596302   1.367867   0.000000
     6  H    3.179079   3.336097   2.681086   1.971914   0.961786
     7  C    3.805274   4.540978   1.400531   2.604097   3.088577
     8  H    4.168047   4.730559   2.167415   2.824401   2.790732
     9  C    4.952333   5.774093   2.432585   3.886309   4.479383
    10  H    5.913380   6.684147   3.411694   4.753211   5.130620
    11  C    5.149709   6.070933   2.810139   4.378859   5.284345
    12  C    4.296665   5.257320   2.432277   3.861296   5.022898
    13  H    4.918002   5.877618   3.412026   4.717815   5.960455
    14  C    2.906170   3.866520   1.401511   2.568078   3.833159
    15  H    2.525568   3.462138   2.149681   2.735432   4.100264
    16  H    6.206930   7.137699   3.894442   5.463130   6.349769
                    6          7          8          9         10
     6  H    0.000000
     7  C    2.701302   0.000000
     8  H    2.108841   1.086933   0.000000
     9  C    4.059553   1.391658   2.131366   0.000000
    10  H    4.544905   2.150117   2.446499   1.084051   0.000000
    11  C    5.067220   2.409174   3.381641   1.392352   2.151192
    12  C    5.065311   2.779221   3.865789   2.410779   3.394201
    13  H    6.082776   3.863401   4.949952   3.393734   4.290608
    14  C    4.055635   2.401894   3.398321   2.779922   3.863968
    15  H    4.544334   3.385818   4.299663   3.864638   4.948686
    16  H    6.085320   3.392380   4.272666   2.150540   2.478386
                   11         12         13         14         15
    11  C    0.000000
    12  C    1.392824   0.000000
    13  H    2.150909   1.084182   0.000000
    14  C    2.409382   1.390846   2.149872   0.000000
    15  H    3.390954   2.146223   2.471937   1.084720   0.000000
    16  H    1.084303   2.151716   2.478825   3.392819   4.286885
                   16
    16  H    0.000000
 Symmetry turned off by external request.
 Stoichiometry    C6H7BO2
 Framework group  C1[X(C6H7BO2)]
 Deg. of freedom    42
 Full point group                 C1      NOp   1
 Rotational constants (GHZ):           3.6947187           1.1276561           0.8641605
 Standard basis: 6-311+G(d,p) (5D, 7F)
   240 basis functions,   380 primitive gaussians,   249 cartesian basis functions
    32 alpha electrons       32 beta electrons
       nuclear repulsion energy       393.9299571800 Hartrees.
 NAtoms=   16 NActive=   16 NUniq=   16 SFac= 1.00D+00 NAtFMM=   60 NAOKFM=F Big=F
 Integral buffers will be    131072 words long.
 Raffenetti 2 integral format.
 Two-electron integral symmetry is turned off.
 ------------------------------------------------------------------------------
 Polarizable Continuum Model (PCM)
 =================================
 Model                : PCM.
 Atomic radii         : SMD-Coulomb.
 Polarization charges : Total charges.
 Charge compensation  : None.
 Solution method      : Matrix inversion.
 Cavity type          : VdW (van der Waals Surface) (Alpha=1.000).
 Cavity algorithm     : GePol (No added spheres)
                        Default sphere list used, NSphG=   16.
                        Lebedev-Laikov grids with approx.  5.0 points / Ang**2.
                        Smoothing algorithm: York/Karplus (Gamma=1.0000).
                        Polarization charges: spherical gaussians, with
                                              point-specific exponents (IZeta= 3).
                        Self-potential: point-specific (ISelfS= 7).
                        Self-field    : sphere-specific E.n sum rule (ISelfD= 2).
 1st derivatives      : Analytical E(r).r(x)/FMM algorithm (CHGder, D1EAlg=3).
                        Cavity 1st derivative terms included.
 Solvent              : TetraHydroFuran, Eps=   7.425700 Eps(inf)=   1.974025
 ------------------------------------------------------------------------------
 Spheres list:
 ISph  on   Nord     Re0    Alpha      Xe            Ye            Ze
    1   O      1    2.2940  1.000      8.693428      7.460003      5.560011
    2   H      2    1.2000  1.000      9.506458      7.144104      5.970660
    3   C      3    1.8500  1.000      6.246056      6.999766      5.173924
    4   B      4    1.8000  1.000      7.643015      6.615573      5.776243
    5   O      5    2.2940  1.000      7.878038      5.484269      6.508348
    6   H      6    1.2000  1.000      7.104423      4.929523      6.645494
    7   C      7    1.8500  1.000      5.121939      6.173455      5.296633
    8   H      8    1.2000  1.000      5.186172      5.223004      5.820028
    9   C      9    1.8500  1.000      3.894469      6.540779      4.753401
   10   H     10    1.2000  1.000      3.036490      5.886627      4.858868
   11   C     11    1.8500  1.000      3.771436      7.749616      4.073531
   12   C     12    1.8500  1.000      4.876959      8.586074      3.938945
   13   H     13    1.2000  1.000      4.783533      9.527584      3.409529
   14   C     14    1.8500  1.000      6.100413      8.210826      4.483737
   15   H     15    1.2000  1.000      6.959708      8.864020      4.376184
   16   H     16    1.2000  1.000      2.816257      8.038692      3.649527
 ------------------------------------------------------------------------------
 ------------------------------------------------------------------------------
 Atomic radii for non-electrostatic terms: SMD-CDS.
 ------------------------------------------------------------------------------
 Nuclear repulsion after PCM non-electrostatic terms =      393.9259919464 Hartrees.
 One-electron integrals computed using PRISM.
 NBasis=   240 RedAO= T EigKep=  2.95D-06  NBF=   240
 NBsUse=   240 1.00D-06 EigRej= -1.00D+00 NBFU=   240
 Initial guess from the checkpoint file:  "phboh2-opt-freq-thf.chk"
 B after Tr=     0.016982    0.007645   -0.027171
         Rot=    1.000000   -0.000737    0.000427   -0.000316 Ang=  -0.10 deg.
 ExpMin= 3.15D-02 ExpMax= 8.59D+03 ExpMxC= 1.30D+03 IAcc=3 IRadAn=         5 AccDes= 0.00D+00
 Harris functional with IExCor= 1009 and IRadAn=       5 diagonalized for initial guess.
 HarFok:  IExCor= 1009 AccDes= 0.00D+00 IRadAn=         5 IDoV= 1 UseB2=F ITyADJ=14
 ICtDFT=  3500011 ScaDFX=  1.000000  1.000000  1.000000  1.000000
 FoFCou: FMM=F IPFlag=           0 FMFlag=      100000 FMFlg1=           0
         NFxFlg=           0 DoJE=T BraDBF=F KetDBF=T FulRan=T
         wScrn=  0.000000 ICntrl=       500 IOpCl=  0 I1Cent=   200000004 NGrid=           0
         NMat0=    1 NMatS0=      1 NMatT0=    0 NMatD0=    1 NMtDS0=    0 NMtDT0=    0
 Symmetry not used in FoFCou.
 Requested convergence on RMS density matrix=1.00D-08 within 128 cycles.
 Requested convergence on MAX density matrix=1.00D-06.
 Requested convergence on             energy=1.00D-06.
 Level shift goal  0.100 maximum shift  0.100.
 No special actions if energy rises.
 Dynamic level shift is on during FON iterations.
 Inv3:  Mode=1 IEnd=     6238092.
 Iteration    1 A*A^-1 deviation from unit magnitude is 5.44D-15 for   1439.
 Iteration    1 A*A^-1 deviation from orthogonality  is 1.75D-15 for   1442   1301.
 Iteration    1 A^-1*A deviation from unit magnitude is 5.33D-15 for   1433.
 Iteration    1 A^-1*A deviation from orthogonality  is 1.55D-15 for    739    344.
 Error on total polarization charges =  0.02644
 SCF Done:  E(RM062X) =  -408.237746854     A.U. after   10 cycles
            NFock= 10  Conv=0.64D-08     -V/T= 2.0038
 SMD-CDS (non-electrostatic) energy       (kcal/mol) =      -2.49
 (included in total energy above)
 D1PCM: PCM CHGder 1st derivatives, ID1Alg=3 FixD1E=F DoIter=F DoCFld=F I1PDM=0.
 Calling FoFJK, ICntrl=      2127 FMM=F ISym2X=0 I1Cent= 0 IOpClX= 0 NMat=1 NMatS=1 NMatT=0.
 -------------------------------------------------------------------
 Center     Atomic                   Forces (Hartrees/Bohr)
 Number     Number              X              Y              Z
 -------------------------------------------------------------------
      1        8          -0.000012917    0.000024871   -0.000005674
      2        1           0.000020593   -0.000001425    0.000016972
      3        6           0.000001118   -0.000001434   -0.000005438
      4        5          -0.000003106   -0.000006205   -0.000001135
      5        8           0.000035036    0.000026452    0.000004883
      6        1          -0.000033020   -0.000030352   -0.000004783
      7        6          -0.000001470   -0.000009389    0.000002286
      8        1           0.000007684   -0.000006820   -0.000007880
      9        6           0.000001140   -0.000004741   -0.000008491
     10        1           0.000003423   -0.000007557   -0.000009187
     11        6          -0.000004514   -0.000001351   -0.000001394
     12        6          -0.000004718    0.000002685    0.000002420
     13        1          -0.000004717    0.000003916    0.000007466
     14        6           0.000003096    0.000006960    0.000004433
     15        1          -0.000006205    0.000007302    0.000007060
     16        1          -0.000001423   -0.000002911   -0.000001537
 -------------------------------------------------------------------
 Cartesian Forces:  Max     0.000035036 RMS     0.000011634

 GradGradGradGradGradGradGradGradGradGradGradGradGradGradGradGradGradGrad
 Berny optimization.
 Using GEDIIS/GDIIS optimizer.
 FormGI is forming the generalized inverse of G from B-inverse, IUseBI=4.
 Internal  Forces:  Max     0.000045818 RMS     0.000007186
 Search for a local minimum.
 Step number   2 out of a maximum of   81
 All quantities printed in internal units (Hartrees-Bohrs-Radians)
 Mixed Optimization -- En-DIIS/RFO-DIIS
 Swapping is turned off.
 Update second derivatives using D2CorX and points    1    2
 DE= -4.78D-05 DEPred=-4.77D-05 R= 1.00D+00
 TightC=F SS=  1.41D+00  RLast= 4.72D-02 DXNew= 5.0454D-01 1.4169D-01
 Trust test= 1.00D+00 RLast= 4.72D-02 DXMaxT set to 3.00D-01
 ITU=  1  0
     Eigenvalues ---    0.00129   0.01021   0.01249   0.01452   0.01719
     Eigenvalues ---    0.01789   0.02200   0.02464   0.02581   0.02763
     Eigenvalues ---    0.02870   0.02888   0.03880   0.10527   0.10688
     Eigenvalues ---    0.11234   0.11425   0.12016   0.12129   0.12724
     Eigenvalues ---    0.16018   0.18578   0.18769   0.19146   0.19420
     Eigenvalues ---    0.20202   0.27325   0.29680   0.35708   0.36327
     Eigenvalues ---    0.36379   0.36510   0.36594   0.38631   0.42132
     Eigenvalues ---    0.42482   0.47718   0.47950   0.49039   0.51933
     Eigenvalues ---    0.54465   0.55481
 En-DIIS/RFO-DIIS/Sim-DIIS IScMMF=       -3 using points:     2    1
 RFO step:  Lambda=-2.05237310D-08.
 DidBck=F Rises=F RFO-DIIS coefs:    0.97846    0.02154
 Iteration  1 RMS(Cart)=  0.00036090 RMS(Int)=  0.00000007
 Iteration  2 RMS(Cart)=  0.00000009 RMS(Int)=  0.00000002
 Variable       Old X    -DE/DX   Delta X   Delta X   Delta X     New X
                                 (Linear)    (Quad)   (Total)
    R1        1.82184   0.00003  -0.00011   0.00016   0.00005   1.82189
    R2        2.57945   0.00002  -0.00009   0.00012   0.00003   2.57948
    R3        2.96506   0.00001  -0.00009   0.00011   0.00002   2.96507
    R4        2.64662   0.00001  -0.00006   0.00008   0.00002   2.64664
    R5        2.64847   0.00001  -0.00005   0.00006   0.00001   2.64848
    R6        2.58489   0.00001   0.00005  -0.00004   0.00001   2.58490
    R7        1.81751   0.00005  -0.00014   0.00022   0.00009   1.81760
    R8        2.05401   0.00000   0.00001   0.00000   0.00001   2.05401
    R9        2.62985   0.00001  -0.00005   0.00006   0.00001   2.62986
   R10        2.04856   0.00000  -0.00002   0.00002   0.00000   2.04856
   R11        2.63116   0.00000  -0.00004   0.00005   0.00001   2.63117
   R12        2.63205   0.00000  -0.00004   0.00004   0.00000   2.63206
   R13        2.04903   0.00000  -0.00002   0.00002   0.00000   2.04904
   R14        2.04881   0.00000  -0.00002   0.00002   0.00000   2.04881
   R15        2.62832   0.00001  -0.00004   0.00005   0.00001   2.62833
   R16        2.04982   0.00000  -0.00002   0.00002   0.00000   2.04982
    A1        1.95928   0.00000  -0.00006   0.00005  -0.00001   1.95927
    A2        2.13709  -0.00001   0.00008  -0.00013  -0.00005   2.13704
    A3        2.08650   0.00001  -0.00007   0.00012   0.00004   2.08654
    A4        2.05959   0.00000   0.00000   0.00001   0.00001   2.05960
    A5        2.06332   0.00000   0.00003  -0.00001   0.00003   2.06335
    A6        2.05354   0.00000  -0.00002   0.00005   0.00002   2.05357
    A7        2.16632  -0.00001  -0.00001  -0.00004  -0.00005   2.16627
    A8        1.99891   0.00000  -0.00003  -0.00002  -0.00004   1.99886
    A9        2.10676   0.00000  -0.00005   0.00002  -0.00002   2.10674
   A10        2.11532   0.00000   0.00005  -0.00006  -0.00001   2.11531
   A11        2.06110   0.00000   0.00000   0.00004   0.00004   2.06114
   A12        2.09535   0.00000   0.00004  -0.00004   0.00000   2.09535
   A13        2.09174   0.00000  -0.00005   0.00006   0.00001   2.09175
   A14        2.09609   0.00000   0.00001  -0.00002  -0.00001   2.09608
   A15        2.09260   0.00000   0.00001  -0.00001   0.00000   2.09259
   A16        2.09468   0.00000  -0.00002   0.00002   0.00001   2.09468
   A17        2.09591   0.00000   0.00000  -0.00001   0.00000   2.09591
   A18        2.09475   0.00000  -0.00002   0.00002   0.00000   2.09475
   A19        2.09246   0.00000   0.00002  -0.00001   0.00001   2.09247
   A20        2.09597   0.00000   0.00000   0.00000  -0.00001   2.09597
   A21        2.11466   0.00000  -0.00003   0.00002  -0.00001   2.11465
   A22        2.07928   0.00000  -0.00013   0.00016   0.00003   2.07931
   A23        2.08925   0.00000   0.00016  -0.00018  -0.00002   2.08923
    D1        3.13632   0.00000  -0.00010   0.00000  -0.00010   3.13623
    D2       -0.00458   0.00000  -0.00006   0.00015   0.00008  -0.00450
    D3        3.09685   0.00000  -0.00041  -0.00003  -0.00044   3.09641
    D4       -0.04548   0.00000  -0.00044  -0.00019  -0.00063  -0.04611
    D5       -0.04405   0.00000  -0.00041  -0.00029  -0.00070  -0.04475
    D6        3.09681   0.00000  -0.00045  -0.00044  -0.00089   3.09592
    D7       -0.00299   0.00000  -0.00011  -0.00018  -0.00029  -0.00328
    D8        3.14021   0.00000  -0.00004  -0.00022  -0.00025   3.13996
    D9        3.13791   0.00000  -0.00011   0.00008  -0.00003   3.13788
   D10       -0.00207   0.00000  -0.00003   0.00004   0.00001  -0.00206
   D11       -3.13908   0.00000   0.00004   0.00026   0.00030  -3.13879
   D12        0.00133   0.00000   0.00005   0.00019   0.00024   0.00156
   D13        0.00317   0.00000   0.00003   0.00001   0.00005   0.00322
   D14       -3.13960   0.00000   0.00004  -0.00006  -0.00002  -3.13962
   D15        3.12472   0.00000  -0.00025   0.00050   0.00026   3.12498
   D16       -0.01614   0.00001  -0.00021   0.00065   0.00044  -0.01569
   D17        3.14094   0.00000  -0.00001  -0.00001  -0.00001   3.14093
   D18        0.00018   0.00000   0.00001  -0.00007  -0.00006   0.00012
   D19        0.00092   0.00000   0.00007  -0.00004   0.00002   0.00095
   D20       -3.13984   0.00000   0.00008  -0.00011  -0.00003  -3.13987
   D21        0.00067   0.00000   0.00002   0.00005   0.00007   0.00074
   D22       -3.14118   0.00000   0.00000   0.00008   0.00008  -3.14111
   D23       -3.14009   0.00000   0.00003  -0.00001   0.00002  -3.14007
   D24        0.00124   0.00000   0.00001   0.00001   0.00003   0.00127
   D25        3.14107   0.00000  -0.00002   0.00003   0.00001   3.14108
   D26        0.00042   0.00000  -0.00002   0.00000  -0.00002   0.00040
   D27       -0.00026   0.00000   0.00000   0.00001   0.00000  -0.00025
   D28       -3.14091   0.00000   0.00000  -0.00003  -0.00003  -3.14094
   D29       -0.00239   0.00000  -0.00001  -0.00003  -0.00004  -0.00243
   D30        3.14039   0.00000  -0.00002   0.00004   0.00002   3.14041
   D31        3.14014   0.00000  -0.00001  -0.00006  -0.00007   3.14007
   D32       -0.00026   0.00000  -0.00002   0.00001  -0.00001  -0.00027
         Item               Value     Threshold  Converged?
 Maximum Force            0.000046     0.000015     NO 
 RMS     Force            0.000007     0.000010     YES
 Maximum Displacement     0.001187     0.000060     NO 
 RMS     Displacement     0.000361     0.000040     NO 
 Predicted change in Energy=-1.026188D-08
 GradGradGradGradGradGradGradGradGradGradGradGradGradGradGradGradGradGrad

                          Input orientation:                          
 ---------------------------------------------------------------------
 Center     Atomic      Atomic             Coordinates (Angstroms)
 Number     Number       Type             X           Y           Z
 ---------------------------------------------------------------------
      1          8           0        8.693628    7.459710    5.559593
      2          1           0        9.506595    7.143874    5.970479
      3          6           0        6.246144    6.999686    5.173689
      4          5           0        7.643053    6.615548    5.776183
      5          8           0        7.877786    5.484621    6.508968
      6          1           0        7.104047    4.929972    6.646122
      7          6           0        5.122060    6.173307    5.296359
      8          1           0        5.186400    5.222772    5.819596
      9          6           0        3.894543    6.540673    4.753249
     10          1           0        3.036591    5.886475    4.858663
     11          6           0        3.771406    7.749636    4.073616
     12          6           0        4.876895    8.586150    3.939072
     13          1           0        4.783387    9.527764    3.409852
     14          6           0        6.100420    8.210845    4.483684
     15          1           0        6.959666    8.864107    4.376167
     16          1           0        2.816173    8.038776    3.649771
 ---------------------------------------------------------------------
                    Distance matrix (angstroms):
                    1          2          3          4          5
     1  O    0.000000
     2  H    0.964103   0.000000
     3  C    2.520064   3.359495   0.000000
     4  B    1.365002   1.946708   1.569050   0.000000
     5  O    2.338351   2.386652   2.596276   1.367870   0.000000
     6  H    3.179133   3.336179   2.681002   1.971924   0.961831
     7  C    3.805289   4.540989   1.400540   2.604076   3.088484
     8  H    4.167990   4.730485   2.167412   2.824332   2.790584
     9  C    4.952377   5.774135   2.432589   3.886300   4.479289
    10  H    5.913412   6.684171   3.411702   4.753197   5.130513
    11  C    5.149802   6.071033   2.810145   4.378875   5.284278
    12  C    4.296790   5.257461   2.432281   3.861331   5.022868
    13  H    4.918152   5.877791   3.412031   4.717861   5.960439
    14  C    2.906289   3.866654   1.401516   2.568120   3.833158
    15  H    2.525758   3.462352   2.149702   2.735522   4.100330
    16  H    6.207029   7.137806   3.894449   5.463147   6.349696
                    6          7          8          9         10
     6  H    0.000000
     7  C    2.701113   0.000000
     8  H    2.108613   1.086938   0.000000
     9  C    4.059340   1.391663   2.131397   0.000000
    10  H    4.544679   2.150124   2.446543   1.084052   0.000000
    11  C    5.067030   2.409187   3.381671   1.392357   2.151191
    12  C    5.065171   2.779235   3.865809   2.410784   3.394203
    13  H    6.082647   3.863417   4.949974   3.393740   4.290610
    14  C    4.055555   2.401913   3.398334   2.779934   3.863981
    15  H    4.544332   3.385846   4.299684   3.864650   4.948698
    16  H    6.085116   3.392395   4.272703   2.150548   2.478387
                   11         12         13         14         15
    11  C    0.000000
    12  C    1.392826   0.000000
    13  H    2.150913   1.084183   0.000000
    14  C    2.409393   1.390852   2.149876   0.000000
    15  H    3.390956   2.146217   2.471921   1.084719   0.000000
    16  H    1.084304   2.151717   2.478826   3.392829   4.286882
                   16
    16  H    0.000000
 Symmetry turned off by external request.
 Stoichiometry    C6H7BO2
 Framework group  C1[X(C6H7BO2)]
 Deg. of freedom    42
 Full point group                 C1      NOp   1
 Rotational constants (GHZ):           3.6946548           1.1276491           0.8641587
 Standard basis: 6-311+G(d,p) (5D, 7F)
   240 basis functions,   380 primitive gaussians,   249 cartesian basis functions
    32 alpha electrons       32 beta electrons
       nuclear repulsion energy       393.9280620627 Hartrees.
 NAtoms=   16 NActive=   16 NUniq=   16 SFac= 1.00D+00 NAtFMM=   60 NAOKFM=F Big=F
 Integral buffers will be    131072 words long.
 Raffenetti 2 integral format.
 Two-electron integral symmetry is turned off.
 ------------------------------------------------------------------------------
 Polarizable Continuum Model (PCM)
 =================================
 Model                : PCM.
 Atomic radii         : SMD-Coulomb.
 Polarization charges : Total charges.
 Charge compensation  : None.
 Solution method      : Matrix inversion.
 Cavity type          : VdW (van der Waals Surface) (Alpha=1.000).
 Cavity algorithm     : GePol (No added spheres)
                        Default sphere list used, NSphG=   16.
                        Lebedev-Laikov grids with approx.  5.0 points / Ang**2.
                        Smoothing algorithm: York/Karplus (Gamma=1.0000).
                        Polarization charges: spherical gaussians, with
                                              point-specific exponents (IZeta= 3).
                        Self-potential: point-specific (ISelfS= 7).
                        Self-field    : sphere-specific E.n sum rule (ISelfD= 2).
 1st derivatives      : Analytical E(r).r(x)/FMM algorithm (CHGder, D1EAlg=3).
                        Cavity 1st derivative terms included.
 Solvent              : TetraHydroFuran, Eps=   7.425700 Eps(inf)=   1.974025
 ------------------------------------------------------------------------------
 Spheres list:
 ISph  on   Nord     Re0    Alpha      Xe            Ye            Ze
    1   O      1    2.2940  1.000      8.693628      7.459710      5.559593
    2   H      2    1.2000  1.000      9.506595      7.143874      5.970479
    3   C      3    1.8500  1.000      6.246144      6.999686      5.173689
    4   B      4    1.8000  1.000      7.643053      6.615548      5.776183
    5   O      5    2.2940  1.000      7.877786      5.484621      6.508968
    6   H      6    1.2000  1.000      7.104047      4.929972      6.646122
    7   C      7    1.8500  1.000      5.122060      6.173307      5.296359
    8   H      8    1.2000  1.000      5.186400      5.222772      5.819596
    9   C      9    1.8500  1.000      3.894543      6.540673      4.753249
   10   H     10    1.2000  1.000      3.036591      5.886475      4.858663
   11   C     11    1.8500  1.000      3.771406      7.749636      4.073616
   12   C     12    1.8500  1.000      4.876895      8.586150      3.939072
   13   H     13    1.2000  1.000      4.783387      9.527764      3.409852
   14   C     14    1.8500  1.000      6.100420      8.210845      4.483684
   15   H     15    1.2000  1.000      6.959666      8.864107      4.376167
   16   H     16    1.2000  1.000      2.816173      8.038776      3.649771
 ------------------------------------------------------------------------------
 ------------------------------------------------------------------------------
 Atomic radii for non-electrostatic terms: SMD-CDS.
 ------------------------------------------------------------------------------
 Nuclear repulsion after PCM non-electrostatic terms =      393.9240968095 Hartrees.
 One-electron integrals computed using PRISM.
 NBasis=   240 RedAO= T EigKep=  2.95D-06  NBF=   240
 NBsUse=   240 1.00D-06 EigRej= -1.00D+00 NBFU=   240
 Initial guess from the checkpoint file:  "phboh2-opt-freq-thf.chk"
 B after Tr=    -0.000414   -0.000449    0.001072
         Rot=    1.000000    0.000039   -0.000003    0.000014 Ang=   0.00 deg.
 Requested convergence on RMS density matrix=1.00D-08 within 128 cycles.
 Requested convergence on MAX density matrix=1.00D-06.
 Requested convergence on             energy=1.00D-06.
 Level shift goal  0.100 maximum shift  0.100.
 No special actions if energy rises.
 Dynamic level shift is on during FON iterations.
 Inv3:  Mode=1 IEnd=     6238092.
 Iteration    1 A*A^-1 deviation from unit magnitude is 7.99D-15 for   1442.
 Iteration    1 A*A^-1 deviation from orthogonality  is 2.15D-15 for   1440   1239.
 Iteration    1 A^-1*A deviation from unit magnitude is 8.44D-15 for   1442.
 Iteration    1 A^-1*A deviation from orthogonality  is 1.83D-15 for   1433   1342.
 Error on total polarization charges =  0.02644
 SCF Done:  E(RM062X) =  -408.237746863     A.U. after    7 cycles
            NFock=  7  Conv=0.39D-08     -V/T= 2.0038
 SMD-CDS (non-electrostatic) energy       (kcal/mol) =      -2.49
 (included in total energy above)
 D1PCM: PCM CHGder 1st derivatives, ID1Alg=3 FixD1E=F DoIter=F DoCFld=F I1PDM=0.
 Calling FoFJK, ICntrl=      2127 FMM=F ISym2X=0 I1Cent= 0 IOpClX= 0 NMat=1 NMatS=1 NMatT=0.
 -------------------------------------------------------------------
 Center     Atomic                   Forces (Hartrees/Bohr)
 Number     Number              X              Y              Z
 -------------------------------------------------------------------
      1        8          -0.000001960    0.000006318    0.000006536
      2        1          -0.000002118    0.000007658    0.000006256
      3        6           0.000000054    0.000000715    0.000000514
      4        5           0.000000014    0.000002979    0.000001427
      5        8           0.000002271    0.000000205   -0.000003154
      6        1           0.000003932   -0.000002008   -0.000005601
      7        6           0.000002310   -0.000002781   -0.000004838
      8        1           0.000004404   -0.000004739   -0.000007771
      9        6           0.000002108   -0.000004997   -0.000005278
     10        1           0.000003953   -0.000007867   -0.000009163
     11        6          -0.000000200   -0.000002907   -0.000001043
     12        6          -0.000002686    0.000000781    0.000003901
     13        1          -0.000004640    0.000002544    0.000007117
     14        6          -0.000002748    0.000002813    0.000004293
     15        1          -0.000004222    0.000005535    0.000008438
     16        1          -0.000000472   -0.000004249   -0.000001635
 -------------------------------------------------------------------
 Cartesian Forces:  Max     0.000009163 RMS     0.000004353

 GradGradGradGradGradGradGradGradGradGradGradGradGradGradGradGradGradGrad
 Berny optimization.
 Using GEDIIS/GDIIS optimizer.
 FormGI is forming the generalized inverse of G from B-inverse, IUseBI=4.
 Internal  Forces:  Max     0.000000542 RMS     0.000000196
 Search for a local minimum.
 Step number   3 out of a maximum of   81
 All quantities printed in internal units (Hartrees-Bohrs-Radians)
 Mixed Optimization -- En-DIIS/RFO-DIIS
 Swapping is turned off.
 Update second derivatives using D2CorX and points    1    2    3
 DE= -9.54D-09 DEPred=-1.03D-08 R= 9.30D-01
 Trust test= 9.30D-01 RLast= 1.59D-03 DXMaxT set to 3.00D-01
 ITU=  0  1  0
     Eigenvalues ---    0.00138   0.01030   0.01258   0.01455   0.01719
     Eigenvalues ---    0.01789   0.02200   0.02464   0.02581   0.02765
     Eigenvalues ---    0.02871   0.02888   0.03881   0.10528   0.10691
     Eigenvalues ---    0.11236   0.11425   0.12016   0.12129   0.12724
     Eigenvalues ---    0.15993   0.18580   0.18745   0.19149   0.19418
     Eigenvalues ---    0.20125   0.27311   0.29680   0.35706   0.36328
     Eigenvalues ---    0.36379   0.36510   0.36594   0.38620   0.42140
     Eigenvalues ---    0.42475   0.47708   0.47954   0.49016   0.51946
     Eigenvalues ---    0.54005   0.55196
 En-DIIS/RFO-DIIS/Sim-DIIS IScMMF=       -3 using points:     3    2    1
 RFO step:  Lambda=-2.11692896D-11.
 DidBck=F Rises=F RFO-DIIS coefs:    0.88160    0.12371   -0.00531
 Iteration  1 RMS(Cart)=  0.00011294 RMS(Int)=  0.00000001
 Iteration  2 RMS(Cart)=  0.00000001 RMS(Int)=  0.00000000
 Variable       Old X    -DE/DX   Delta X   Delta X   Delta X     New X
                                 (Linear)    (Quad)   (Total)
    R1        1.82189   0.00000   0.00002  -0.00002   0.00000   1.82189
    R2        2.57948   0.00000   0.00002  -0.00002   0.00000   2.57948
    R3        2.96507   0.00000   0.00002  -0.00002   0.00000   2.96507
    R4        2.64664   0.00000   0.00001  -0.00001   0.00000   2.64664
    R5        2.64848   0.00000   0.00001  -0.00001   0.00000   2.64848
    R6        2.58490   0.00000  -0.00001   0.00001   0.00000   2.58490
    R7        1.81760   0.00000   0.00002  -0.00003   0.00000   1.81760
    R8        2.05401   0.00000   0.00000   0.00000   0.00000   2.05401
    R9        2.62986   0.00000   0.00001  -0.00001   0.00000   2.62986
   R10        2.04856   0.00000   0.00000   0.00000   0.00000   2.04856
   R11        2.63117   0.00000   0.00001  -0.00001   0.00000   2.63117
   R12        2.63206   0.00000   0.00001  -0.00001   0.00000   2.63206
   R13        2.04904   0.00000   0.00000   0.00000   0.00000   2.04904
   R14        2.04881   0.00000   0.00000   0.00000   0.00000   2.04881
   R15        2.62833   0.00000   0.00001  -0.00001   0.00000   2.62833
   R16        2.04982   0.00000   0.00000   0.00000   0.00000   2.04982
    A1        1.95927   0.00000   0.00002  -0.00002   0.00000   1.95927
    A2        2.13704   0.00000  -0.00001   0.00002   0.00000   2.13704
    A3        2.08654   0.00000   0.00001  -0.00001   0.00000   2.08654
    A4        2.05960   0.00000   0.00000   0.00000   0.00000   2.05960
    A5        2.06335   0.00000  -0.00001   0.00001   0.00000   2.06335
    A6        2.05357   0.00000   0.00000  -0.00001   0.00000   2.05356
    A7        2.16627   0.00000   0.00001   0.00000   0.00001   2.16627
    A8        1.99886   0.00000   0.00001  -0.00001   0.00000   1.99887
    A9        2.10674   0.00000   0.00001  -0.00001   0.00000   2.10674
   A10        2.11531   0.00000  -0.00001   0.00001   0.00000   2.11531
   A11        2.06114   0.00000   0.00000   0.00000   0.00000   2.06113
   A12        2.09535   0.00000  -0.00001   0.00001   0.00000   2.09535
   A13        2.09175   0.00000   0.00001  -0.00001   0.00000   2.09175
   A14        2.09608   0.00000   0.00000   0.00000   0.00000   2.09608
   A15        2.09259   0.00000   0.00000   0.00000   0.00000   2.09259
   A16        2.09468   0.00000   0.00000   0.00000   0.00000   2.09468
   A17        2.09591   0.00000   0.00000   0.00000   0.00000   2.09591
   A18        2.09475   0.00000   0.00000   0.00000   0.00000   2.09475
   A19        2.09247   0.00000  -0.00001   0.00001   0.00000   2.09247
   A20        2.09597   0.00000   0.00000   0.00000   0.00000   2.09597
   A21        2.11465   0.00000   0.00001  -0.00001   0.00000   2.11465
   A22        2.07931   0.00000   0.00003  -0.00003   0.00000   2.07931
   A23        2.08923   0.00000  -0.00004   0.00004   0.00000   2.08923
    D1        3.13623   0.00000   0.00004  -0.00001   0.00003   3.13626
    D2       -0.00450   0.00000   0.00001   0.00001   0.00002  -0.00448
    D3        3.09641   0.00000   0.00015   0.00004   0.00019   3.09660
    D4       -0.04611   0.00000   0.00018   0.00002   0.00020  -0.04590
    D5       -0.04475   0.00000   0.00018   0.00002   0.00020  -0.04455
    D6        3.09592   0.00000   0.00022   0.00000   0.00021   3.09613
    D7       -0.00328   0.00000   0.00006  -0.00004   0.00002  -0.00326
    D8        3.13996   0.00000   0.00004  -0.00003   0.00001   3.13997
    D9        3.13788   0.00000   0.00003  -0.00002   0.00001   3.13789
   D10       -0.00206   0.00000   0.00001  -0.00001   0.00000  -0.00206
   D11       -3.13879   0.00000  -0.00004   0.00003  -0.00002  -3.13880
   D12        0.00156   0.00000  -0.00004   0.00003  -0.00001   0.00155
   D13        0.00322   0.00000  -0.00001   0.00000  -0.00001   0.00321
   D14       -3.13962   0.00000  -0.00001   0.00001   0.00000  -3.13962
   D15        3.12498   0.00000   0.00003   0.00000   0.00003   3.12501
   D16       -0.01569   0.00000   0.00000   0.00002   0.00002  -0.01568
   D17        3.14093   0.00000   0.00000   0.00000   0.00001   3.14094
   D18        0.00012   0.00000   0.00001   0.00000   0.00001   0.00012
   D19        0.00095   0.00000  -0.00002   0.00002   0.00000   0.00094
   D20       -3.13987   0.00000  -0.00002   0.00001   0.00000  -3.13987
   D21        0.00074   0.00000  -0.00001   0.00001   0.00000   0.00074
   D22       -3.14111   0.00000  -0.00001   0.00000   0.00000  -3.14111
   D23       -3.14007   0.00000  -0.00001   0.00000  -0.00001  -3.14008
   D24        0.00127   0.00000  -0.00001   0.00000  -0.00001   0.00126
   D25        3.14108   0.00000   0.00000   0.00000   0.00000   3.14108
   D26        0.00040   0.00000   0.00001  -0.00001   0.00000   0.00040
   D27       -0.00025   0.00000   0.00000   0.00000   0.00000  -0.00025
   D28       -3.14094   0.00000   0.00000  -0.00001   0.00000  -3.14094
   D29       -0.00243   0.00000   0.00001   0.00000   0.00001  -0.00242
   D30        3.14041   0.00000   0.00000   0.00000   0.00000   3.14041
   D31        3.14007   0.00000   0.00001   0.00000   0.00001   3.14008
   D32       -0.00027   0.00000   0.00001   0.00000   0.00000  -0.00027
         Item               Value     Threshold  Converged?
 Maximum Force            0.000001     0.000015     YES
 RMS     Force            0.000000     0.000010     YES
 Maximum Displacement     0.000479     0.000060     NO 
 RMS     Displacement     0.000113     0.000040     NO 
 Predicted change in Energy=-1.657991D-10
 GradGradGradGradGradGradGradGradGradGradGradGradGradGradGradGradGradGrad

                          Input orientation:                          
 ---------------------------------------------------------------------
 Center     Atomic      Atomic             Coordinates (Angstroms)
 Number     Number       Type             X           Y           Z
 ---------------------------------------------------------------------
      1          8           0        8.693580    7.459810    5.559758
      2          1           0        9.506557    7.143956    5.970607
      3          6           0        6.246137    6.999695    5.173709
      4          5           0        7.643048    6.615556    5.776200
      5          8           0        7.877832    5.484540    6.508831
      6          1           0        7.104131    4.929810    6.645869
      7          6           0        5.122039    6.173343    5.296421
[...]

 Dipole orientation:
     8         11.40859024          9.58474680        -18.89396756
     1         13.07423149          9.10412496        -19.45425721
     6          8.60439689         10.35192672        -15.12213133
     5         11.20725107          9.59281901        -16.32237099
     8         13.29917311          8.93707077        -14.95285628
     1         13.07065658          8.99760564        -13.15069867
     6          8.18258260         10.32061041        -12.50951244
     1          9.67171271          9.75369285        -11.21333874
     6          5.85455687         11.00730837        -11.49713314
     1          5.56613269         10.96919516         -9.46933650
     6          3.89703477         11.74142595        -13.09470755
     6          4.27519982         11.78424670        -15.69910673
     1          2.75328856         12.35439528        -16.94663858
     6          6.60689284         11.09263350        -16.69559585
     1          6.89451335         11.12606412        -18.72486328
     1          2.08133857         12.27830595        -12.31140693

 Electric dipole moment (dipole orientation):
 (Debye = 10**-18 statcoulomb cm , SI units = C m)
                  (au)            (Debye)         (10**-30 SI)
   Tot        0.725676D+00      0.184449D+01      0.615254D+01
   x          0.000000D+00      0.000000D+00      0.000000D+00
   y          0.000000D+00      0.000000D+00      0.000000D+00
   z          0.725676D+00      0.184449D+01      0.615254D+01

 Dipole polarizability, Alpha (dipole orientation).
 (esu units = cm**3 , SI units = C**2 m**2 J**-1)
 Alpha(0;0):
               (au)            (10**-24 esu)      (10**-40 SI)
   iso        0.111182D+03      0.164755D+02      0.183314D+02
   aniso      0.686868D+02      0.101783D+02      0.113249D+02
   xx         0.131750D+03      0.195234D+02      0.217227D+02
   yx        -0.205906D+02     -0.305121D+01     -0.339493D+01
   yy         0.727208D+02      0.107761D+02      0.119900D+02
   zx        -0.586936D+01     -0.869749D+00     -0.967726D+00
   zy        -0.172158D+01     -0.255112D+00     -0.283851D+00
   zz         0.129075D+03      0.191269D+02      0.212816D+02

 ----------------------------------------------------------------------
 Unable to Open any file for archive entry.
 1\1\GINC-CN014\Freq\RM062X\6-311+G(d,p)\C6H7B1O2\TAHMINAAFROZ\21-Apr-2
 025\0\\#N Geom=AllCheck Guess=TCheck SCRF=Check GenChk RM062X/6-311+G(
 d,p) Freq\\phboh2-opt-freq-thf\\0,1\O,8.693579523,7.4598101167,5.55975
 80197\H,9.5065573107,7.1439556342,5.9706069646\C,6.2461370493,6.999694
 8447,5.1737087986\B,7.6430478305,6.6155560372,5.7762002014\O,7.8778322
 409,5.4845395496,6.5088314219\H,7.1041306874,4.9298101514,6.6458686298
 \C,5.1220394026,6.1733427243,5.2964213349\H,5.1863598138,5.2228339175,
 5.8197070131\C,3.8945247949,6.5407038544,4.7533021353\H,3.0365617509,5
 .8865275752,4.8587563408\C,3.7714063124,7.749636036,4.0736106039\C,4.8
 769095938,8.5861244082,3.939023131\H,4.7834162578,9.5277130158,3.40975
 67234\C,6.1004286769,8.210826383,4.4836521304\H,6.9596852561,8.8640697
 418,4.3761043254\H,2.816177499,8.0387710099,3.6497552257\\Version=AS64
 L-G16RevC.01\HF=-408.2377469\RMSD=1.141e-09\RMSF=4.360e-06\ZeroPoint=0
 .1255368\Thermal=0.1334032\ETot=-408.1043437\HTot=-408.1033995\GTot=-4
 08.1452723\Dipole=-0.5272044,-0.4738903,0.1552091\DipoleDeriv=-1.60548
 07,-0.365314,-0.0433753,-0.4415752,-0.8611411,0.0141356,0.0067932,0.03
 25428,-0.6536611,0.4396057,0.0428267,-0.012579,0.0497411,0.338552,0.04
 47422,-0.021682,0.0448786,0.3584304,-0.7237902,0.1556898,-0.227741,0.1
 415912,-0.2709454,0.0732605,-0.2152955,0.0810249,-0.3202181,2.295681,-
 0.0003728,0.4324203,0.1190072,1.666141,-0.553223,0.3646797,-0.5827634,
 1.1263959,-0.8302392,0.1779572,-0.1618424,0.1832777,-1.3553382,0.48075
 03,-0.168437,0.474034,-0.9524301,0.3017657,-0.0410627,0.005044,-0.0728
 123,0.4562289,-0.0668006,0.0306314,-0.0564414,0.4198108,0.0420253,-0.0
 770711,0.1023819,0.0431423,0.0201668,-0.0907378,0.0255584,-0.1280478,-
 0.1006438,0.0970662,0.0434313,-0.0426719,0.0266585,-0.0586189,0.127606
 ,-0.0338469,0.1303706,0.0858034,-0.0283292,0.1347469,-0.0323083,0.1242
 66,-0.1171774,0.0063202,-0.0237259,0.0135848,-0.1847659,-0.0155308,-0.
 0958112,-0.004855,-0.0999103,0.0504401,0.0431733,-0.0017066,0.0443096,
 0.1593523,0.0449198,0.0293542,0.0444746,0.0053643,0.0132768,-0.09462,0
 .053618,-0.0863373,-0.1054304,-0.1926201,-0.0624106,0.027265,-0.009665
 9,0.00784,-0.0978747,0.0043786,-0.1169673,-0.1083794,0.1035698,0.00507
 51,-0.0250684,0.0103528,-0.0250518,0.1133492,-0.0282527,0.1127355,0.11
 40819,0.0890836,0.1153139,0.0069034,-0.0394586,-0.0316877,-0.0825815,0
 .0889079,-0.038779,-0.1159727,0.0193552,-0.0997953,0.0121965,-0.077525
 8,0.0595558,0.0346693,-0.0008985,0.0284078,0.1482218,-0.037082,0.03744
 27,-0.0802443,0.0375471,0.1077592,0.047831,-0.0807222,0.0474476,0.1294
 05\Polar=134.2606592,3.8737547,114.6732868,17.0774733,-25.3099989,84.6
 122321\Quadrupole=-2.605791,-4.4563494,7.0621404,-11.6300084,-1.502728
 8,-5.8011271\PG=C01 [X(C6H7B1O2)]\NImag=0\\0.63688653,0.02367608,0.281
 13625,0.15075919,-0.14193046,0.15843516,-0.37185189,0.11917737,-0.1693
 5296,0.40001890,0.14968500,-0.08259470,0.08329583,-0.12743815,0.076071
 89,-0.18758437,0.07498598,-0.10803732,0.18266567,-0.07481558,0.1041499
 4,-0.02992979,-0.00181709,-0.00923986,0.00002452,-0.00221716,0.0001352
 4,0.60798226,-0.01780405,0.00739827,-0.00413399,-0.00329006,-0.0007438
 7,0.00206216,0.06677586,0.53829277,0.00012916,0.00013736,0.00856318,0.
 00075693,0.00237627,0.00304505,0.09827594,-0.19926825,0.26794264,-0.23
 196655,-0.11000200,0.01518178,-0.03325010,-0.02201955,0.00349803,-0.16
 868102,0.02680974,-0.04434095,0.52837103,-0.13362693,-0.16006905,0.030
 85795,0.00529483,0.00801155,-0.00218746,0.02629972,-0.07763139,0.01537
 844,0.07255141,0.48412660,0.02935555,0.03731875,-0.06134078,-0.0127391
 2,-0.00955723,0.00424239,-0.04422186,0.01541798,-0.08364356,0.06066157
 ,-0.18122609,0.26713081,0.00274221,-0.03521104,0.01837631,0.00489369,0
 .00183842,0.00096405,0.00148840,0.02110871,-0.01644762,-0.09009367,0.0
 2438107,-0.02693161,0.44295088,-0.02506564,-0.04593879,0.02744986,0.00
 578487,-0.00051860,0.00029774,0.00481321,-0.00721764,0.01522716,0.0552
 8328,-0.23241646,0.12739939,0.20225577,0.47284986,0.01247786,0.0247902
 3,0.00022075,-0.00143312,-0.00082436,-0.00256124,-0.00668361,0.0196271
 4,0.00288323,-0.04538542,0.11968611,-0.12516336,-0.01492991,-0.2160468
 5,0.15372575,0.00306210,0.00268422,-0.00239913,-0.00003938,0.00034722,
 0.00001250,-0.00134255,0.00118589,-0.00038019,0.00403389,0.00112315,0.
 00111557,-0.35638938,-0.24620306,0.05995498,0.35288424,0.00092224,-0.0
 0012649,0.00403964,0.00037327,-0.00051932,-0.00010425,0.00032952,0.001
 34322,-0.00221186,-0.02436697,-0.02102565,0.00457392,-0.21673685,-0.18
 618494,0.05151667,0.24005784,0.20508074,-0.00145441,0.00439868,0.00334
 668,0.00002952,-0.00008571,-0.00082052,0.00002495,-0.00196965,-0.00121
 864,0.01645746,0.01079553,-0.00521853,0.04224465,0.04451734,-0.0249905
 5,-0.05656483,-0.05752953,0.02813218,-0.00111091,0.00097700,-0.0011485
 9,-0.00059491,-0.00035176,0.00005087,-0.24923366,-0.07520789,-0.013021
 96,-0.01888133,-0.00870893,-0.00130986,0.00096891,-0.00269645,0.002184
 69,0.00099053,0.00023718,0.00009489,0.63220424,0.00528652,0.00006833,0
 .00176063,0.00041692,0.00041134,0.00005792,-0.12408114,-0.18070915,0.0
 2789759,-0.00084433,0.01074796,-0.00505743,0.00053462,-0.00374158,0.00
 171917,0.00303891,0.00013736,0.00122031,0.04839305,0.60520655,-0.00335
 542,0.00065486,-0.00047709,-0.00045749,-0.00013187,0.00037033,0.013197
 97,0.04145140,-0.08175261,-0.00536456,-0.00719804,0.00423403,0.0003681
 1,0.00051067,-0.00156671,-0.00155816,0.00029128,-0.00024546,0.11341017
 ,-0.23337387,0.29787782,0.00041656,0.00029007,-0.00011081,-0.00005123,
 -0.00004560,-0.00004358,0.00693888,-0.02026446,0.01231922,-0.00021452,
 -0.00058256,0.00113684,-0.00025769,0.00034674,-0.00095207,-0.00252952,
 0.00056654,-0.00163100,-0.05930125,0.01039362,-0.01139160,0.06081978,-
 0.00022223,0.00040502,-0.00020616,-0.00012092,0.00000232,0.00006475,0.
 00244631,-0.01138135,0.00765779,0.00149243,-0.00240280,0.00012070,0.00
 097679,0.00142186,-0.00002872,-0.00104806,0.00085501,-0.00044008,0.014
 05838,-0.26495415,0.12409138,-0.01341911,0.27767064,0.00025480,-0.0000
 2157,0.00025365,0.00000072,0.00009437,0.00012834,0.00036273,0.00123876
 ,0.00112542,0.00001652,-0.00052389,-0.00286375,-0.00132273,-0.00019559
 ,-0.00179904,-0.00070328,0.00024186,0.00057275,-0.01357663,0.12274623,
 -0.10805832,0.01835074,-0.13834070,0.10552358,-0.00267787,0.00019423,-
 0.00068046,-0.00001341,-0.00008932,0.00016582,-0.05291534,-0.03990579,
 0.00356307,0.00067624,-0.00627392,0.00176452,0.00068562,0.00087977,-0.
 00033221,-0.00042255,0.00029295,-0.00011724,-0.29173205,0.07368381,-0.
 10339724,0.00206081,-0.00191907,0.00026391,0.69110020,0.00024703,0.000
 56632,-0.00049727,-0.00036562,-0.00014081,-0.00020633,0.00661635,0.051
 71046,-0.02041997,-0.00413893,0.00046350,0.00203364,0.00003465,0.00012
 023,-0.00008938,-0.00068861,0.00002968,-0.00061948,0.00814657,-0.13071
 471,0.03737264,0.02577428,-0.00409036,0.01209547,0.09953868,0.59052740
 ,-0.00088626,-0.00046313,-0.00034192,0.00030296,-0.00021987,-0.0002933
 2,-0.02140252,-0.03323558,0.02228213,0.00057238,0.00137084,0.00579313,
 0.00019445,0.00011372,-0.00010909,0.00047077,-0.00027005,-0.00021512,-
 0.06833565,0.05579083,-0.11405313,-0.01450378,0.00419776,-0.00155358,0
 .10348151,-0.21329728,0.27994715,-0.00081736,-0.00001752,-0.00016817,-
 0.00002188,-0.00004176,0.00003615,-0.00326536,0.00180501,-0.00409253,0
 .00055162,-0.00106237,0.00065923,-0.00019244,0.00037280,-0.00027356,-0
 .00001347,-0.00013345,0.00007592,-0.01597156,-0.01784568,0.00397102,0.
 00076343,0.00064514,0.00107633,-0.23675205,-0.13913191,0.01808915,0.24
 706035,0.00009822,-0.00005641,-0.00001156,0.00004224,0.00000037,-0.000
 01862,0.00133377,0.00207780,0.00335061,0.00032481,0.00031293,0.0000509
 6,-0.00006267,0.00001189,-0.00001035,0.00002835,-0.00000755,0.00001456
 ,0.00871481,0.00886613,-0.00033067,0.00008676,-0.00030682,-0.00207251,
 -0.13923829,-0.15874996,0.02466310,0.14969181,0.16217643,-0.00024443,-
 0.00004032,-0.00017034,-0.00002035,-0.00003948,-0.00003152,-0.00377248
 ,0.00350305,0.00470277,-0.00008409,-0.00033914,0.00038911,-0.00003220,
 0.00012139,-0.00004568,-0.00002101,-0.00003611,0.00001232,-0.01020876,
 -0.00787641,0.00491125,0.00136072,-0.00190217,-0.00283414,0.01811014,0
 .02463970,-0.04645283,-0.01731067,-0.03005503,0.03732435,-0.00169357,-
 0.00006790,-0.00034059,0.00022286,-0.00001153,0.00001424,-0.01450422,-
 0.02531228,0.01161673,0.00211947,-0.00190367,0.00183259,-0.00023702,0.
 00050825,-0.00036112,0.00022458,-0.00019278,0.00017016,0.02962432,0.03
 158947,-0.01045056,-0.00435804,0.00110150,-0.00403879,-0.13074678,0.04
 112453,-0.04056703,0.00648552,-0.02243980,0.01275862,0.70408845,-0.000
 85431,0.00012985,-0.00031417,0.00006305,-0.00006616,0.00005247,-0.0261
 2313,-0.05726393,0.01950676,-0.00133813,-0.00284412,0.00070738,0.00076
 748,-0.00030893,0.00036698,0.00003520,0.00035879,-0.00007608,0.0820133
 4,0.00143961,0.02579915,0.00024127,0.00289993,0.00266649,-0.02447189,-
 0.27676376,0.10590804,0.00408146,-0.01087700,0.00899711,0.03868459,0.5
 6601366,-0.00000321,-0.00015699,-0.00005874,0.00001504,0.00007363,0.00
 005150,0.01191232,0.01950963,-0.01456041,0.00154382,0.00057152,-0.0006
 1747,-0.00047055,0.00032452,-0.00028419,-0.00002928,-0.00015200,0.0002
 4671,-0.03726048,0.01164385,-0.01018926,-0.00355273,0.00287719,0.00518
 774,-0.00554029,0.12450790,-0.13282218,-0.00140839,0.00144138,0.002583
 87,0.13811927,-0.21567882,0.29548207,0.00040905,-0.00031503,0.00027359
 ,0.00001902,0.00017208,-0.00003092,0.02555471,0.07526868,-0.03635443,0
 .00429086,0.00094000,-0.00107475,-0.00081292,0.00110192,-0.00041894,-0
 .00011408,-0.00039343,0.00012378,-0.07745577,-0.01319273,-0.01287319,-
 0.00104253,-0.00015000,0.00004858,0.04970165,-0.06314776,0.04595744,0.
 00176285,0.00087269,-0.00219318,-0.26033034,-0.07426534,-0.01555971,0.
 64087977,-0.00032677,0.00063224,-0.00053405,0.00014629,0.00012909,-0.0
 0004727,0.02953471,0.00290646,0.01250602,-0.00172057,-0.00283778,0.004
 53934,0.00168762,-0.00066662,0.00024058,-0.00008175,0.00032734,-0.0001
 8652,-0.01360422,-0.00459712,-0.00494381,-0.00004958,0.00011058,-0.000
 63133,-0.01486198,-0.03534651,0.01826098,0.00038733,-0.00211571,0.0053
 9256,-0.13966076,-0.19456682,0.02965336,0.05206721,0.62224337,0.000265
 33,-0.00053070,0.00018333,-0.00006389,-0.00006113,-0.00001992,-0.01164
 925,0.02572248,-0.00604674,0.00028755,0.00522208,0.00374827,-0.0007097
 8,-0.00013452,-0.00147506,0.00000010,-0.00018269,0.00024497,-0.0126440
 0,-0.00483520,-0.00768503,0.00002399,-0.00066240,-0.00068563,0.0200652
 6,0.00470382,0.00992020,-0.00192480,0.00551194,0.00428771,0.01948117,0
 .04814446,-0.08550705,0.11369387,-0.24313187,0.30129756,-0.00028645,-0
 .00015564,0.00000071,0.00001861,0.00000316,-0.00000325,-0.00421686,0.0
 0048275,-0.00361937,0.00090926,0.00081898,-0.00021669,-0.00054706,0.00
 039603,-0.00034685,-0.00003380,-0.00011985,0.00006289,-0.00117216,-0.0
 0028089,0.00008009,0.00010269,0.00020110,0.00028879,-0.00329075,-0.003
 65362,-0.00117407,0.00017897,-0.00111985,0.00063345,0.00641297,-0.0225
 0339,0.01276793,-0.05961140,0.01901171,-0.01611659,0.05764337,0.000309
 17,0.00008413,0.00005290,-0.00002889,0.00000295,0.00000248,0.00086350,
 0.00273958,0.00294196,-0.00075189,-0.00005292,-0.00011566,0.00024900,-
 0.00026221,0.00012322,-0.00000126,0.00007677,-0.00004053,-0.00021425,0
 .00023544,-0.00068102,0.00020661,-0.00034675,-0.00045443,-0.00411787,0
 .00109686,0.00241501,0.00024480,-0.00064190,0.00043537,0.00403191,-0.0
 1085991,0.00894532,0.01894000,-0.26989848,0.12854183,-0.01922860,0.281
 01330,-0.00024270,-0.00006995,0.00000978,0.00001467,0.00000936,0.00002
 027,-0.00384650,0.00280468,0.00520540,0.00061826,0.00032492,0.00012372
 ,-0.00022844,0.00014292,-0.00034213,-0.00000508,-0.00006089,0.00005372
 ,0.00004702,-0.00067633,-0.00054099,0.00028808,-0.00045081,-0.00098293
 ,-0.00092071,0.00253965,0.00616966,-0.00009322,0.00005397,-0.00001220,
 -0.00141841,0.00143274,0.00259918,-0.01605173,0.12860120,-0.11259825,0
 .01920862,-0.14125539,0.10770212,-0.00238834,-0.00014932,-0.00039526,0
 .00065116,0.00014738,0.00008133,-0.12438128,-0.01381131,-0.00886752,0.
 00241144,0.01981762,-0.01060950,-0.00532037,0.00251884,-0.00355167,-0.
 00033503,-0.00082830,0.00045911,0.04780016,-0.01713333,0.02111181,-0.0
 0355658,-0.00416372,-0.00099822,-0.02772250,0.03059949,-0.02231972,0.0
 0007262,0.00082735,-0.00011259,-0.05484650,-0.04317434,0.00571042,-0.2
 9191409,0.07618472,-0.10389972,0.00235320,-0.00171599,0.00045271,0.694
 74046,-0.00237506,-0.00235923,0.00045693,-0.00035400,-0.00039186,0.000
 05560,0.03651002,-0.25863543,0.11364204,0.01014500,-0.00197531,0.00502
 160,-0.00206994,0.00224462,-0.00109591,-0.00028955,-0.00044678,0.00015
 400,-0.06156585,-0.03741784,0.00559479,-0.00371536,0.00115314,0.002507
 23,0.03082630,-0.03625900,0.02447909,0.00084938,-0.00059684,0.00001263
 ,0.00607858,0.05595803,-0.02445161,0.01088740,-0.13500704,0.03918136,0
 .02487281,-0.00256381,0.01044387,0.09271284,0.57459463,0.00084708,0.00
 096204,-0.00083950,0.00038816,0.00016257,-0.00013381,-0.03597950,0.099
 43503,-0.12866266,-0.00556140,0.00788104,-0.00355697,-0.00078068,0.000
 29312,0.00098715,0.00000037,-0.00002744,0.00004783,0.04492326,0.018037
 28,0.00844017,-0.00124798,0.00238747,0.00625318,-0.02244981,0.02441495
 ,-0.02620379,-0.00014786,0.00001939,-0.00103426,-0.02075463,-0.0384736
 6,0.02167314,-0.06875970,0.05769745,-0.11707704,-0.01370325,0.00294472
 ,-0.00160239,0.10467407,-0.20294887,0.28387479,-0.00062021,0.00072414,
 -0.00067299,-0.00005527,0.00000463,0.00003863,0.00640816,0.00246017,-0
 .00016768,-0.00039006,0.00091021,0.00025574,0.00019732,-0.00041019,0.0
 0017032,0.00001230,0.00003692,-0.00000211,0.00168501,0.00069060,-0.002
 04556,0.00027936,0.00022676,-0.00009470,-0.00008965,0.00076332,-0.0001
 2745,-0.00009355,0.00003320,0.00030840,-0.00282743,0.00172897,-0.00395
 571,-0.01575188,-0.01751919,0.00357791,0.00081529,0.00069124,0.0010735
 0,-0.23580138,-0.13796096,0.01883047,0.24710001,0.00000729,0.00063110,
 -0.00029952,0.00028837,0.00032930,-0.00019465,-0.02098099,-0.01182953,
 0.00164804,-0.00147498,-0.00210506,-0.00084671,0.00021929,0.00052508,0
 .00000939,-0.00008543,0.00004741,-0.00009226,0.00083526,-0.00226963,0.
 00555591,-0.00112226,-0.00063881,0.00013081,0.00077353,-0.00046986,-0.
 00011568,0.00003140,-0.00020110,-0.00055451,0.00143354,0.00201292,0.00
 358225,0.00876297,0.00931727,0.00006437,0.00004706,-0.00043052,-0.0020
 6528,-0.13771135,-0.15790901,0.02397718,0.14846006,0.16272991,-0.00023
 734,-0.00004736,0.00017637,-0.00010818,-0.00027714,-0.00011250,0.01227
 147,0.00823707,0.00133997,0.00159212,-0.00021998,-0.00249925,-0.000220
 03,-0.00007487,0.00047336,0.00005564,-0.00006085,-0.00000618,-0.002140
 27,0.00550678,0.00411272,0.00062670,0.00051722,0.00010893,-0.00014854,
 -0.00011337,-0.00106332,0.00031376,-0.00055022,-0.00086969,-0.00379832
 ,0.00364060,0.00494021,-0.01046363,-0.00732924,0.00580231,0.00141122,-
 0.00188259,-0.00290594,0.01875423,0.02383693,-0.04818987,-0.01743463,-
 0.03072423,0.03874224,-0.00017350,0.00001244,-0.00008277,0.00002932,0.
 00001695,-0.00000041,0.00007315,-0.00030097,0.00063122,0.00011343,0.00
 002138,0.00032178,-0.00007647,0.00011387,-0.00011937,0.00001212,-0.000
 04482,0.00002626,0.00218043,-0.00064942,-0.00124540,-0.00007015,-0.000
 10530,0.00007122,0.00213842,-0.00171847,0.00024781,0.00025231,0.000806
 61,0.00082843,-0.27963427,0.06511517,-0.10228845,-0.01558488,0.0088052
 3,-0.01038715,0.00072413,0.00052253,0.00110392,-0.00176296,-0.00455159
 ,-0.00027862,-0.00086802,0.00051622,-0.00047420,0.29264693,0.00004345,
 0.00009316,0.00001343,0.00001043,0.00001652,-0.00000496,-0.00030344,-0
 .00105627,-0.00036996,0.00005067,-0.00030200,-0.00038056,0.00002708,0.
 00008225,0.00001608,-0.00010304,0.00005439,-0.00006059,-0.00102623,-0.
 00270856,0.00533720,0.00129303,-0.00039745,0.00051878,0.02468885,-0.00
 197947,0.01040223,0.00012357,0.00010774,-0.00225863,0.06503634,-0.0752
 6217,0.03730887,-0.01754865,0.00936973,-0.00755383,0.00122824,-0.00019
 252,-0.00177466,-0.00412057,-0.00038826,0.00323774,-0.00083988,0.00026
 053,-0.00045875,-0.06855984,0.07230237,-0.00008084,0.00001256,0.000076
 78,0.00000145,0.00000034,0.00000233,0.00061495,-0.00040191,-0.00120517
 ,0.00030690,-0.00039383,-0.00075779,-0.00007402,0.00005400,0.00004683,
 0.00005103,-0.00002771,0.00005784,-0.00106471,0.00543865,0.00462227,-0
 .00067273,0.00011679,-0.00037620,-0.01382772,0.00293531,-0.00100398,0.
 00119763,-0.00205695,-0.00276071,-0.10226332,0.03732055,-0.08872512,0.
 00368291,-0.00008742,0.00561038,0.00072637,-0.00197318,-0.00289904,-0.
 00048947,0.00311033,0.00602402,0.00024587,-0.00007512,-0.00004935,0.11
 164571,-0.04397240,0.08133689\\0.00000212,-0.00000671,-0.00000615,0.00
 000168,-0.00000748,-0.00000651,-0.00000003,-0.00000060,-0.00000028,-0.
 00000012,-0.00000260,-0.00000128,-0.00000255,-0.00000084,0.00000237,-0
 .00000344,0.00000243,0.00000580,-0.00000224,0.00000324,0.00000455,-0.0
 0000434,0.00000494,0.00000796,-0.00000212,0.00000493,0.00000540,-0.000
 00391,0.00000790,0.00000923,0.00000040,0.00000281,0.00000111,0.0000026
 8,-0.00000101,-0.00000382,0.00000461,-0.00000268,-0.00000713,0.0000024
 7,-0.00000277,-0.00000453,0.00000427,-0.00000570,-0.00000841,0.0000005
 2,0.00000413,0.00000169\\\@
 The archive entry for this job was punched.


  DISAPPOINTMENT IS THE NURSE OF WISDOM.               
                              SIR BOYLE ROCHE                 
 Job cpu time:       0 days  0 hours 34 minutes 33.2 seconds.
 Elapsed time:       0 days  0 hours  1 minutes  8.8 seconds.
 File lengths (MBytes):  RWF=    130 Int=      0 D2E=      0 Chk=     13 Scr=      1
 Normal termination of Gaussian 16 at Mon Apr 21 12:03:38 2025.
