/home/tahminaafroz
cn007.cluster.local
tahminaafroz
Mon Jun  2 11:45:19 CDT 2025
 Entering Gaussian System, Link 0=g16
 Initial command:
 /home/apps/g16/l1.exe "/tmp/3-OMe-ph-anion-opt-freq-thf-2/Gau-1792673.inp" -scrdir="/tmp/3-OMe-ph-anion-opt-freq-thf-2/"
 Entering Link 1 = /home/apps/g16/l1.exe PID=   1792674.
  
 Copyright (c) 1988-2019, Gaussian, Inc.  All Rights Reserved.
  
 This is part of the Gaussian(R) 16 program.  It is based on
 the Gaussian(R) 09 system (copyright 2009, Gaussian, Inc.),
 the Gaussian(R) 03 system (copyright 2003, Gaussian, Inc.),
 the Gaussian(R) 98 system (copyright 1998, Gaussian, Inc.),
 the Gaussian(R) 94 system (copyright 1995, Gaussian, Inc.),
 the Gaussian 92(TM) system (copyright 1992, Gaussian, Inc.),
 the Gaussian 90(TM) system (copyright 1990, Gaussian, Inc.),
 the Gaussian 88(TM) system (copyright 1988, Gaussian, Inc.),
 the Gaussian 86(TM) system (copyright 1986, Carnegie Mellon
 University), and the Gaussian 82(TM) system (copyright 1983,
 Carnegie Mellon University). Gaussian is a federally registered
 trademark of Gaussian, Inc.
  
 This software contains proprietary and confidential information,
 including trade secrets, belonging to Gaussian, Inc.
  
 This software is provided under written license and may be
 used, copied, transmitted, or stored only in accord with that
 written license.
  
 The following legend is applicable only to US Government
 contracts under FAR:
  
                    RESTRICTED RIGHTS LEGEND
  
 Use, reproduction and disclosure by the US Government is
 subject to restrictions as set forth in subparagraphs (a)
 and (c) of the Commercial Computer Software - Restricted
 Rights clause in FAR 52.227-19.
  
 Gaussian, Inc.
 340 Quinnipiac St., Bldg. 40, Wallingford CT 06492
  
  
 ---------------------------------------------------------------
 Warning -- This program may not be used in any manner that
 competes with the business of Gaussian, Inc. or will provide
 assistance to any competitor of Gaussian, Inc.  The licensee
 of this program is prohibited from giving any competitor of
 Gaussian, Inc. access to this program.  By using this program,
 the user acknowledges that Gaussian, Inc. is engaged in the
 business of creating and licensing software in the field of
 computational chemistry and represents and warrants to the
 licensee that it is not a competitor of Gaussian, Inc. and that
 it will not use this program in any manner prohibited above.
 ---------------------------------------------------------------
  

 Cite this work as:
 Gaussian 16, Revision C.01,
 M. J. Frisch, G. W. Trucks, H. B. Schlegel, G. E. Scuseria, 
 M. A. Robb, J. R. Cheeseman, G. Scalmani, V. Barone, 
 G. A. Petersson, H. Nakatsuji, X. Li, M. Caricato, A. V. Marenich, 
 J. Bloino, B. G. Janesko, R. Gomperts, B. Mennucci, H. P. Hratchian, 
 J. V. Ortiz, A. F. Izmaylov, J. L. Sonnenberg, D. Williams-Young, 
 F. Ding, F. Lipparini, F. Egidi, J. Goings, B. Peng, A. Petrone, 
 T. Henderson, D. Ranasinghe, V. G. Zakrzewski, J. Gao, N. Rega, 
 G. Zheng, W. Liang, M. Hada, M. Ehara, K. Toyota, R. Fukuda, 
 J. Hasegawa, M. Ishida, T. Nakajima, Y. Honda, O. Kitao, H. Nakai, 
 T. Vreven, K. Throssell, J. A. Montgomery, Jr., J. E. Peralta, 
 F. Ogliaro, M. J. Bearpark, J. J. Heyd, E. N. Brothers, K. N. Kudin, 
 V. N. Staroverov, T. A. Keith, R. Kobayashi, J. Normand, 
 K. Raghavachari, A. P. Rendell, J. C. Burant, S. S. Iyengar, 
 J. Tomasi, M. Cossi, J. M. Millam, M. Klene, C. Adamo, R. Cammi, 
 J. W. Ochterski, R. L. Martin, K. Morokuma, O. Farkas, 
 J. B. Foresman, and D. J. Fox, Gaussian, Inc., Wallingford CT, 2019.
 
 ******************************************
 Gaussian 16:  AS64L-G16RevC.01  3-Jul-2019
                 2-Jun-2025 
 ******************************************
 %oldchk=3-OMe-ph-anion-opt-freq-thf.chk
 %nprocshared=32
 Will use up to   32 processors via shared memory.
 %mem=20GB
 %chk=3-OMe-ph-anion-opt-freq-thf-2.chk
 Copying data from "3-OMe-ph-anion-opt-freq-thf.chk" to current chk file "3-OMe-ph-anion-opt-freq-thf-2.chk"
 IOpt=  2 FromEx=T IUOpen= 4 IOptOp= 5 NList=   0 IFRang= 0 IUIn= 4 IUOut= 2.
 ----------------------------------------------------------------------
 # opt=(calcfc,tight) freq 6-311+g(d,p) scrf=(smd,solvent=thf) nosymm s
 cf=(qc,fermi,xqc) geom=connectivity int=ultrafine m062x guess=read
 ----------------------------------------------------------------------
 1/7=10,10=4,18=20,19=15,26=6,38=1,57=2/1,3;
 2/9=110,12=2,15=1,17=6,18=5,40=1/2;
 3/5=4,6=6,7=111,11=2,25=1,30=1,70=32201,71=2,72=20,74=-55,75=-5,116=-2,140=1/1,2,3;
 4/5=1/1;
 5/5=2,22=13,38=6,53=20/2;
 8/6=4,10=90,11=11/1;
 11/6=1,8=1,9=11,15=111,16=1,31=1/1,2,10;
 10/6=1,13=1,31=1/2;
 6/7=2,8=2,9=2,10=2,28=1/1;
 7/10=1,25=1,30=1/1,2,3,16;
 1/7=10,10=4,18=20,19=15,26=6/3(2);
 2/9=110,15=1/2;
 99//99;
 2/9=110,15=1/2;
 3/5=4,6=6,7=111,11=2,25=1,30=1,70=32205,71=1,72=20,74=-55,75=-5/1,2,3;
 4/5=5,16=3,69=1/1;
 5/5=2,22=13,38=5,53=20/2;
 7/30=1/1,2,3,16;
 1/7=10,18=20,19=15,26=6/3(-5);
 2/9=110,15=1/2;
 6/7=2,8=2,9=2,10=2,19=2,28=1/1;
 99/9=1/99;
 ---------------------------
 3-OMe-ph-anion-opt-freq-thf
 ---------------------------
 Symbolic Z-matrix:
 Charge = -1 Multiplicity = 1
 C                     6.30598   6.87287   5.26791 
 C                     5.17153   6.05756   5.5273 
 H                     5.26319   5.20791   6.20517 
 C                     3.91848   6.27132   4.95881 
 H                     3.08624   5.61137   5.19392 
 C                     3.70196   7.33475   4.07503 
 C                     4.78232   8.1667    3.78758 
 C                     6.03421   7.9268    4.37665 
 H                     6.81619   8.63286   4.09121 
 H                     2.724     7.49164   3.6381 
 O                     4.7044    9.24179   2.93964 
 C                     3.45848   9.50248   2.32835 
 H                     3.60154   10.38234   1.70208 
 H                     3.136     8.66464   1.70103 
 H                     2.68263   9.71414   3.07176 
 

 GradGradGradGradGradGradGradGradGradGradGradGradGradGradGradGradGradGrad
 Berny optimization.
 Initialization pass.
                           ----------------------------
                           !    Initial Parameters    !
                           ! (Angstroms and Degrees)  !
 --------------------------                            --------------------------
 ! Name  Definition              Value          Derivative Info.                !
 --------------------------------------------------------------------------------
 ! R1    R(1,2)                  1.4209         calculate D2E/DX2 analytically  !
 ! R2    R(1,8)                  1.4068         calculate D2E/DX2 analytically  !
 ! R3    R(2,3)                  1.0908         calculate D2E/DX2 analytically  !
 ! R4    R(2,4)                  1.3925         calculate D2E/DX2 analytically  !
 ! R5    R(4,5)                  1.0879         calculate D2E/DX2 analytically  !
 ! R6    R(4,6)                  1.3996         calculate D2E/DX2 analytically  !
 ! R7    R(6,7)                  1.3935         calculate D2E/DX2 analytically  !
 ! R8    R(6,10)                 1.0826         calculate D2E/DX2 analytically  !
 ! R9    R(7,8)                  1.4042         calculate D2E/DX2 analytically  !
 ! R10   R(7,11)                 1.3715         calculate D2E/DX2 analytically  !
 ! R11   R(8,9)                  1.0916         calculate D2E/DX2 analytically  !
 ! R12   R(11,12)                1.4121         calculate D2E/DX2 analytically  !
 ! R13   R(12,13)                1.0894         calculate D2E/DX2 analytically  !
 ! R14   R(12,14)                1.0952         calculate D2E/DX2 analytically  !
 ! R15   R(12,15)                1.0952         calculate D2E/DX2 analytically  !
 ! A1    A(2,1,8)              113.0354         calculate D2E/DX2 analytically  !
 ! A2    A(1,2,3)              119.5581         calculate D2E/DX2 analytically  !
 ! A3    A(1,2,4)              123.7684         calculate D2E/DX2 analytically  !
 ! A4    A(3,2,4)              116.6732         calculate D2E/DX2 analytically  !
 ! A5    A(2,4,5)              120.4685         calculate D2E/DX2 analytically  !
 ! A6    A(2,4,6)              120.9076         calculate D2E/DX2 analytically  !
 ! A7    A(5,4,6)              118.6239         calculate D2E/DX2 analytically  !
 ! A8    A(4,6,7)              117.641          calculate D2E/DX2 analytically  !
 ! A9    A(4,6,10)             120.3142         calculate D2E/DX2 analytically  !
 ! A10   A(7,6,10)             122.0448         calculate D2E/DX2 analytically  !
 ! A11   A(6,7,8)              120.1752         calculate D2E/DX2 analytically  !
 ! A12   A(6,7,11)             123.469          calculate D2E/DX2 analytically  !
 ! A13   A(8,7,11)             116.3558         calculate D2E/DX2 analytically  !
 ! A14   A(1,8,7)              124.4721         calculate D2E/DX2 analytically  !
 ! A15   A(1,8,9)              120.7895         calculate D2E/DX2 analytically  !
 ! A16   A(7,8,9)              114.7385         calculate D2E/DX2 analytically  !
 ! A17   A(7,11,12)            117.5484         calculate D2E/DX2 analytically  !
 ! A18   A(11,12,13)           106.3849         calculate D2E/DX2 analytically  !
 ! A19   A(11,12,14)           111.5014         calculate D2E/DX2 analytically  !
 ! A20   A(11,12,15)           111.5242         calculate D2E/DX2 analytically  !
 ! A21   A(13,12,14)           109.1015         calculate D2E/DX2 analytically  !
 ! A22   A(13,12,15)           109.0962         calculate D2E/DX2 analytically  !
 ! A23   A(14,12,15)           109.1521         calculate D2E/DX2 analytically  !
 ! D1    D(8,1,2,3)           -179.9948         calculate D2E/DX2 analytically  !
 ! D2    D(8,1,2,4)              0.1745         calculate D2E/DX2 analytically  !
 ! D3    D(2,1,8,7)             -0.2127         calculate D2E/DX2 analytically  !
 ! D4    D(2,1,8,9)            179.8442         calculate D2E/DX2 analytically  !
 ! D5    D(1,2,4,5)            179.8765         calculate D2E/DX2 analytically  !
 ! D6    D(1,2,4,6)             -0.0757         calculate D2E/DX2 analytically  !
 ! D7    D(3,2,4,5)              0.0413         calculate D2E/DX2 analytically  !
 ! D8    D(3,2,4,6)           -179.911          calculate D2E/DX2 analytically  !
 ! D9    D(2,4,6,7)             -0.0043         calculate D2E/DX2 analytically  !
 ! D10   D(2,4,6,10)           179.9597         calculate D2E/DX2 analytically  !
 ! D11   D(5,4,6,7)           -179.9575         calculate D2E/DX2 analytically  !
 ! D12   D(5,4,6,10)             0.0065         calculate D2E/DX2 analytically  !
 ! D13   D(4,6,7,8)             -0.0303         calculate D2E/DX2 analytically  !
 ! D14   D(4,6,7,11)           179.9989         calculate D2E/DX2 analytically  !
 ! D15   D(10,6,7,8)          -179.9936         calculate D2E/DX2 analytically  !
 ! D16   D(10,6,7,11)            0.0356         calculate D2E/DX2 analytically  !
 ! D17   D(6,7,8,1)              0.1513         calculate D2E/DX2 analytically  !
 ! D18   D(6,7,8,9)           -179.9025         calculate D2E/DX2 analytically  !
 ! D19   D(11,7,8,1)          -179.8758         calculate D2E/DX2 analytically  !
 ! D20   D(11,7,8,9)             0.0703         calculate D2E/DX2 analytically  !
 ! D21   D(6,7,11,12)           -0.3184         calculate D2E/DX2 analytically  !
 ! D22   D(8,7,11,12)          179.7098         calculate D2E/DX2 analytically  !
 ! D23   D(7,11,12,13)        -179.9709         calculate D2E/DX2 analytically  !
 ! D24   D(7,11,12,14)         -61.1263         calculate D2E/DX2 analytically  !
 ! D25   D(7,11,12,15)          61.1782         calculate D2E/DX2 analytically  !
 --------------------------------------------------------------------------------
 Trust Radius=3.00D-01 FncErr=5.00D-06 GrdErr=5.00D-06 EigMax=2.50D+02 EigMin=1.00D-04
 Number of steps in this run=     73 maximum allowed number of steps=    100.
 GradGradGradGradGradGradGradGradGradGradGradGradGradGradGradGradGradGrad

                          Input orientation:                          
 ---------------------------------------------------------------------
 Center     Atomic      Atomic             Coordinates (Angstroms)
 Number     Number       Type             X           Y           Z
 ---------------------------------------------------------------------
      1          6           0        6.305978    6.872870    5.267914
      2          6           0        5.171533    6.057563    5.527303
      3          1           0        5.263191    5.207910    6.205174
      4          6           0        3.918481    6.271325    4.958812
      5          1           0        3.086239    5.611375    5.193917
      6          6           0        3.701957    7.334748    4.075029
      7          6           0        4.782317    8.166698    3.787578
      8          6           0        6.034215    7.926798    4.376652
      9          1           0        6.816194    8.632860    4.091212
     10          1           0        2.723999    7.491639    3.638097
     11          8           0        4.704401    9.241789    2.939641
     12          6           0        3.458475    9.502476    2.328351
     13          1           0        3.601542   10.382341    1.702083
     14          1           0        3.136004    8.664640    1.701032
     15          1           0        2.682629    9.714144    3.071758
 ---------------------------------------------------------------------
                    Distance matrix (angstroms):
                    1          2          3          4          5
     1  C    0.000000
     2  C    1.420907   0.000000
     3  H    2.176684   1.090788   0.000000
     4  C    2.481440   1.392485   2.119555   0.000000
     5  H    3.458839   2.158397   2.434038   1.087858   0.000000
     6  C    2.901247   2.428983   3.390930   1.399580   2.145002
     7  C    2.487354   2.761627   3.851030   2.389652   3.374039
     8  C    1.406758   2.358444   3.366054   2.748787   3.836621
     9  H    2.177731   3.376304   4.314040   3.837489   4.925231
    10  H    3.983685   3.408239   4.272329   2.158759   2.467222
    11  O    3.687503   4.129589   5.219974   3.676735   4.569476
    12  C    4.864579   5.003528   6.060532   4.191810   4.846720
    13  H    5.687312   5.983385   7.057878   5.254254   5.934691
    14  H    5.097237   5.057725   6.063102   4.117446   4.639521
    15  H    5.101431   5.059144   6.064961   4.115983   4.636721
                    6          7          8          9         10
     6  C    0.000000
     7  C    1.393537   0.000000
     8  C    2.425062   1.404211   0.000000
     9  H    3.373993   2.108592   1.091555   0.000000
    10  H    1.082555   2.171340   3.419408   4.272442   0.000000
    11  O    2.435324   1.371455   2.358517   2.481246   2.733653
    12  C    2.794496   2.380379   3.648662   3.890783   2.509653
    13  H    3.863778   3.263832   4.370459   4.370654   3.588090
    14  H    2.779348   2.704065   4.012851   4.388368   2.301717
    15  H    2.776168   2.704751   4.016277   4.392588   2.293902
                   11         12         13         14         15
    11  O    0.000000
    12  C    1.412079   0.000000
    13  H    2.012140   1.089423   0.000000
    14  H    2.080174   1.095210   1.779669   0.000000
    15  H    2.080418   1.095169   1.779577   1.784908   0.000000
 Symmetry turned off by external request.
 Stoichiometry    C7H7O(1-)
 Framework group  C1[X(C7H7O)]
 Deg. of freedom    39
 Full point group                 C1      NOp   1
 Rotational constants (GHZ):           5.1671219           1.6003644           1.2314756
 Standard basis: 6-311+G(d,p) (5D, 7F)
   218 basis functions,   344 primitive gaussians,   226 cartesian basis functions
    29 alpha electrons       29 beta electrons
       nuclear repulsion energy       334.1063031738 Hartrees.
 NAtoms=   15 NActive=   15 NUniq=   15 SFac= 1.00D+00 NAtFMM=   60 NAOKFM=F Big=F
 Integral buffers will be    131072 words long.
 Raffenetti 2 integral format.
 Two-electron integral symmetry is turned off.
 Force inversion solution in PCM.
 ------------------------------------------------------------------------------
 Polarizable Continuum Model (PCM)
 =================================
 Model                : PCM.
 Atomic radii         : SMD-Coulomb.
 Polarization charges : Total charges.
 Charge compensation  : None.
 Solution method      : Matrix inversion.
 Cavity type          : VdW (van der Waals Surface) (Alpha=1.000).
 Cavity algorithm     : GePol (No added spheres)
                        Default sphere list used, NSphG=   15.
                        Lebedev-Laikov grids with approx.  5.0 points / Ang**2.
                        Smoothing algorithm: York/Karplus (Gamma=1.0000).
                        Polarization charges: spherical gaussians, with
                                              point-specific exponents (IZeta= 3).
                        Self-potential: point-specific (ISelfS= 7).
                        Self-field    : sphere-specific E.n sum rule (ISelfD= 2).
 1st derivatives      : Analytical E(r).r(x)/FMM algorithm (CHGder, D1EAlg=3).
                        Cavity 1st derivative terms included.
 2nd derivatives      : Analytical E(r).r(xy)/FMM algorithm (CHGder, D2EAlg=3).
                        Cavity 2nd derivative terms included.
 Solvent              : TetraHydroFuran, Eps=   7.425700 Eps(inf)=   1.974025
 ------------------------------------------------------------------------------
 Spheres list:
 ISph  on   Nord     Re0    Alpha      Xe            Ye            Ze
    1   C      1    1.8500  1.000      6.305978      6.872870      5.267914
    2   C      2    1.8500  1.000      5.171533      6.057563      5.527303
    3   H      3    1.2000  1.000      5.263191      5.207910      6.205174
    4   C      4    1.8500  1.000      3.918481      6.271325      4.958812
    5   H      5    1.2000  1.000      3.086239      5.611375      5.193917
    6   C      6    1.8500  1.000      3.701957      7.334748      4.075029
    7   C      7    1.8500  1.000      4.782317      8.166698      3.787578
    8   C      8    1.8500  1.000      6.034215      7.926798      4.376652
    9   H      9    1.2000  1.000      6.816194      8.632860      4.091212
   10   H     10    1.2000  1.000      2.723999      7.491639      3.638097
   11   O     11    2.2940  1.000      4.704401      9.241789      2.939641
   12   C     12    1.8500  1.000      3.458475      9.502476      2.328351
   13   H     13    1.2000  1.000      3.601542     10.382341      1.702083
   14   H     14    1.2000  1.000      3.136004      8.664640      1.701032
   15   H     15    1.2000  1.000      2.682629      9.714144      3.071758
 ------------------------------------------------------------------------------
 ------------------------------------------------------------------------------
 Atomic radii for non-electrostatic terms: SMD-CDS.
 ------------------------------------------------------------------------------
 Nuclear repulsion after PCM non-electrostatic terms =      334.1042406728 Hartrees.
 One-electron integrals computed using PRISM.
 NBasis=   218 RedAO= T EigKep=  3.09D-06  NBF=   218
 NBsUse=   218 1.00D-06 EigRej= -1.00D+00 NBFU=   218
 Initial guess from the checkpoint file:  "3-OMe-ph-anion-opt-freq-thf-2.chk"
 B after Tr=     0.000000    0.000000    0.000000
         Rot=    1.000000    0.000000    0.000000    0.000000 Ang=   0.00 deg.
 Requested convergence on RMS density matrix=1.00D-08 within 128 cycles.
 Requested convergence on MAX density matrix=1.00D-06.
 Requested convergence on             energy=1.00D-06.
 Level shift goal  0.100 maximum shift  0.100.
 No special actions if energy rises.
 Dynamic level shift is on during FON iterations.
 Inv3:  Mode=1 IEnd=     4899852.
 Iteration    1 A*A^-1 deviation from unit magnitude is 3.00D-15 for   1277.
 Iteration    1 A*A^-1 deviation from orthogonality  is 2.02D-15 for   1271   1154.
 Iteration    1 A^-1*A deviation from unit magnitude is 3.00D-15 for   1277.
 Iteration    1 A^-1*A deviation from orthogonality  is 2.14D-15 for    840    581.
 Error on total polarization charges =  0.05714
 SCF Done:  E(RM062X) =  -346.157404163     A.U. after    1 cycles
            NFock=  1  Conv=0.23D-08     -V/T= 2.0040
 SMD-CDS (non-electrostatic) energy       (kcal/mol) =      -1.29
 (included in total energy above)
 DoSCS=F DFT=T ScalE2(SS,OS)=  1.000000  1.000000
 Range of M.O.s used for correlation:     1   218
 NBasis=   218 NAE=    29 NBE=    29 NFC=     0 NFV=     0
 NROrb=    218 NOA=    29 NOB=    29 NVA=   189 NVB=   189

 **** Warning!!: The largest alpha MO coefficient is  0.17217260D+03

 Symmetrizing basis deriv contribution to polar:
 IMax=3 JMax=2 DiffMx= 0.00D+00
 G2DrvN: will do    16 centers at a time, making    1 passes.
 Calling FoFCou, ICntrl=  3107 FMM=F I1Cent=   0 AccDes= 0.00D+00.
 NEqPCM:  Using equilibrium solvation (IEInf=0, Eps=   7.4257, EpsInf=   1.9740)
 G2PCM: DoFxE=T DoFxN=T DoGrad=T DoDP/DQ/DG/TGxP=FFFF NFrqRd=   0 IEInf=0 SqF1=F DoCFld=F IF1Alg=4.
 End of G2Drv F.D. properties file   721 does not exist.
 End of G2Drv F.D. properties file   722 does not exist.
 End of G2Drv F.D. properties file   788 does not exist.
          IDoAtm=111111111111111
 NEqPCM:  Using equilibrium solvation (IEInf=0, Eps=   7.4257, EpsInf=   1.9740)
          Differentiating once with respect to nuclear coordinates.
 Keep R1 ints in memory in canonical form, NReq=318622042.
          There are    48 degrees of freedom in the 1st order CPHF.  IDoFFX=6 NUNeed=     0.
     42 vectors produced by pass  0 Test12= 1.14D-14 2.08D-09 XBig12= 1.17D-01 6.82D-02.
 AX will form    42 AO Fock derivatives at one time.
     42 vectors produced by pass  1 Test12= 1.14D-14 2.08D-09 XBig12= 1.33D-02 3.41D-02.
     42 vectors produced by pass  2 Test12= 1.14D-14 2.08D-09 XBig12= 3.97D-04 3.69D-03.
     42 vectors produced by pass  3 Test12= 1.14D-14 2.08D-09 XBig12= 2.60D-06 2.76D-04.
     42 vectors produced by pass  4 Test12= 1.14D-14 2.08D-09 XBig12= 1.36D-08 2.08D-05.
     42 vectors produced by pass  5 Test12= 1.14D-14 2.08D-09 XBig12= 7.39D-11 1.59D-06.
     35 vectors produced by pass  6 Test12= 1.14D-14 2.08D-09 XBig12= 3.62D-13 7.99D-08.
     11 vectors produced by pass  7 Test12= 1.14D-14 2.08D-09 XBig12= 1.62D-15 4.91D-09.
 InvSVY:  IOpt=1 It=  1 EMax= 1.33D-15
 Solved reduced A of dimension   298 with    42 vectors.
 End of Minotr F.D. properties file   721 does not exist.
 End of Minotr F.D. properties file   722 does not exist.
 End of Minotr F.D. properties file   788 does not exist.

 **********************************************************************

            Population analysis using the SCF Density.

 **********************************************************************

 Alpha  occ. eigenvalues --  -19.62237 -10.56173 -10.56108 -10.50325 -10.50055
 Alpha  occ. eigenvalues --  -10.48266 -10.48263 -10.44922  -1.15992  -0.90385
 Alpha  occ. eigenvalues --   -0.81240  -0.77862  -0.74652  -0.63798  -0.61802
 Alpha  occ. eigenvalues --   -0.56198  -0.52036  -0.51027  -0.50906  -0.45151
 Alpha  occ. eigenvalues --   -0.43997  -0.41087  -0.41019  -0.37932  -0.35235
 Alpha  occ. eigenvalues --   -0.34752  -0.25498  -0.23770  -0.19491
 Alpha virt. eigenvalues --    0.03409   0.04655   0.05331   0.05888   0.06605
 Alpha virt. eigenvalues --    0.06811   0.07633   0.07905   0.08158   0.10252
 Alpha virt. eigenvalues --    0.10421   0.10687   0.11951   0.12350   0.14106
 Alpha virt. eigenvalues --    0.14989   0.16161   0.16330   0.17713   0.17760
 Alpha virt. eigenvalues --    0.18102   0.18967   0.19720   0.20901   0.21818
 Alpha virt. eigenvalues --    0.22814   0.23162   0.24654   0.25216   0.25384
 Alpha virt. eigenvalues --    0.26076   0.26301   0.26609   0.27524   0.28020
 Alpha virt. eigenvalues --    0.28740   0.29374   0.29597   0.30991   0.31149
 Alpha virt. eigenvalues --    0.35149   0.36837   0.37789   0.39582   0.41502
 Alpha virt. eigenvalues --    0.43706   0.44351   0.46282   0.48240   0.52664
 Alpha virt. eigenvalues --    0.55361   0.58416   0.60126   0.61170   0.62051
 Alpha virt. eigenvalues --    0.63537   0.64285   0.64784   0.65890   0.68116
 Alpha virt. eigenvalues --    0.68472   0.69518   0.70028   0.70562   0.73094
 Alpha virt. eigenvalues --    0.74978   0.75978   0.77599   0.78985   0.80747
 Alpha virt. eigenvalues --    0.81441   0.83773   0.85614   0.86755   0.89238
 Alpha virt. eigenvalues --    0.92012   0.92465   0.94607   0.96151   0.97844
 Alpha virt. eigenvalues --    1.01191   1.04830   1.07212   1.07884   1.08213
 Alpha virt. eigenvalues --    1.09030   1.12006   1.15283   1.19112   1.20344
 Alpha virt. eigenvalues --    1.24249   1.24400   1.29222   1.35581   1.37754
 Alpha virt. eigenvalues --    1.42234   1.49478   1.51698   1.54225   1.57653
 Alpha virt. eigenvalues --    1.60617   1.60659   1.64628   1.65151   1.66730
 Alpha virt. eigenvalues --    1.68694   1.72210   1.74831   1.75496   1.76033
 Alpha virt. eigenvalues --    1.77554   1.79578   1.82060   1.83524   1.86083
 Alpha virt. eigenvalues --    1.87406   1.96098   1.96581   1.98569   2.00256
 Alpha virt. eigenvalues --    2.02008   2.03357   2.05109   2.07401   2.10452
 Alpha virt. eigenvalues --    2.11924   2.12741   2.16198   2.17237   2.23665
 Alpha virt. eigenvalues --    2.28740   2.31621   2.40435   2.42631   2.48798
 Alpha virt. eigenvalues --    2.50052   2.51343   2.54866   2.56782   2.58085
 Alpha virt. eigenvalues --    2.59070   2.63653   2.71285   2.72952   2.75656
 Alpha virt. eigenvalues --    2.76375   2.79616   2.81439   2.82359   2.85258
 Alpha virt. eigenvalues --    2.86452   2.90079   2.90326   2.96917   2.98038
 Alpha virt. eigenvalues --    3.00661   3.15421   3.16046   3.17290   3.17721
 Alpha virt. eigenvalues --    3.21702   3.26634   3.34067   3.41707   3.47180
 Alpha virt. eigenvalues --    3.49323   3.58804   3.63942   3.70778   3.84966
 Alpha virt. eigenvalues --    3.86426   3.90692   4.08588   4.17149   4.20217
 Alpha virt. eigenvalues --    4.22040   4.29738   4.85441   5.17398   5.54395
 Alpha virt. eigenvalues --    5.90059  23.69521  24.02288  24.03272  24.05013
 Alpha virt. eigenvalues --   24.17838  24.19730  24.27081  50.10533
          Condensed to atoms (all electrons):
               1          2          3          4          5          6
     1  C    8.849921  -1.030777  -0.118120   0.884936  -0.027991  -0.683220
     2  C   -1.030777   6.290784   0.501404  -0.221856   0.053591   0.507602
     3  H   -0.118120   0.501404   0.548557  -0.101244  -0.004077   0.010916
     4  C    0.884936  -0.221856  -0.101244   6.754093   0.282339  -0.421614
     5  H   -0.027991   0.053591  -0.004077   0.282339   0.503118   0.043966
     6  C   -0.683220   0.507602   0.010916  -0.421614   0.043966   8.173843
     7  C    0.936243  -0.909207  -0.001789   0.102880  -0.007177  -0.876607
     8  C   -1.618886   0.764201   0.019897  -0.657879  -0.001578  -1.574140
     9  H   -0.119724   0.049870   0.000089  -0.035189   0.000118   0.021326
    10  H    0.011692  -0.021401  -0.000293   0.022305  -0.005643   0.418822
    11  O   -0.027231   0.022016   0.000388   0.018303  -0.000334   0.090504
    12  C    0.022836  -0.020909   0.000335  -0.120497   0.002174  -0.155235
    13  H   -0.001172   0.000112   0.000000   0.008175  -0.000002   0.001115
    14  H    0.001338  -0.000310   0.000000  -0.004210   0.000024   0.015251
    15  H    0.001344  -0.000485   0.000000  -0.004163   0.000025   0.015120
               7          8          9         10         11         12
     1  C    0.936243  -1.618886  -0.119724   0.011692  -0.027231   0.022836
     2  C   -0.909207   0.764201   0.049870  -0.021401   0.022016  -0.020909
     3  H   -0.001789   0.019897   0.000089  -0.000293   0.000388   0.000335
     4  C    0.102880  -0.657879  -0.035189   0.022305   0.018303  -0.120497
     5  H   -0.007177  -0.001578   0.000118  -0.005643  -0.000334   0.002174
     6  C   -0.876607  -1.574140   0.021326   0.418822   0.090504  -0.155235
     7  C    8.023502  -1.118683  -0.058284   0.007132   0.270283   0.055436
     8  C   -1.118683  10.339879   0.452132  -0.074633  -0.496103   0.015064
     9  H   -0.058284   0.452132   0.538844  -0.000143   0.003455   0.003404
    10  H    0.007132  -0.074633  -0.000143   0.489270  -0.014924  -0.000764
    11  O    0.270283  -0.496103   0.003455  -0.014924   8.329747   0.126791
    12  C    0.055436   0.015064   0.003404  -0.000764   0.126791   5.177221
    13  H    0.020825  -0.001365  -0.000035   0.000617  -0.065083   0.409822
    14  H   -0.024454   0.002703   0.000045  -0.001237  -0.035698   0.416245
    15  H   -0.023038   0.001303   0.000045  -0.001206  -0.035733   0.416181
              13         14         15
     1  C   -0.001172   0.001338   0.001344
     2  C    0.000112  -0.000310  -0.000485
     3  H    0.000000   0.000000   0.000000
     4  C    0.008175  -0.004210  -0.004163
     5  H   -0.000002   0.000024   0.000025
     6  C    0.001115   0.015251   0.015120
     7  C    0.020825  -0.024454  -0.023038
     8  C   -0.001365   0.002703   0.001303
     9  H   -0.000035   0.000045   0.000045
    10  H    0.000617  -0.001237  -0.001206
    11  O   -0.065083  -0.035698  -0.035733
    12  C    0.409822   0.416245   0.416181
    13  H    0.492321  -0.024146  -0.024245
    14  H   -0.024146   0.533139  -0.049097
    15  H   -0.024245  -0.049097   0.533944
 Mulliken charges:
               1
     1  C   -1.081187
     2  C    0.015364
     3  H    0.143935
     4  C   -0.506378
     5  H    0.161446
     6  C    0.412353
     7  C   -0.397061
     8  C   -0.051911
     9  H    0.144047
    10  H    0.170405
    11  O   -0.186382
    12  C   -0.348104
    13  H    0.183061
    14  H    0.170407
    15  H    0.170004
 Sum of Mulliken charges =  -1.00000
 Mulliken charges with hydrogens summed into heavy atoms:
               1
     1  C   -1.081187
     2  C    0.159300
     4  C   -0.344932
     6  C    0.582758
     7  C   -0.397061
     8  C    0.092136
    11  O   -0.186382
    12  C    0.175368
 APT charges:
               1
     1  C   -2.139886
     2  C    1.079610
     3  H    0.276302
     4  C   -0.833998
     5  H   -0.595385
     6  C   -0.352118
     7  C   -1.217823
     8  C    1.475848
     9  H    1.584232
    10  H   -0.347849
    11  O   -0.260524
    12  C   -0.347497
    13  H    1.370062
    14  H   -1.043047
    15  H    0.352073
 Sum of APT charges =  -1.00000
 APT charges with hydrogens summed into heavy atoms:
               1
     1  C   -2.139886
     2  C    1.355913
     4  C   -1.429383
     6  C   -0.699968
     7  C   -1.217823
     8  C    3.060080
    11  O   -0.260524
    12  C    0.331592
 Electronic spatial extent (au):  <R**2>=          21405.5021
 Charge=             -1.0000 electrons
 Dipole moment (field-independent basis, Debye):
    X=            -32.1929    Y=            -33.2290    Z=            -25.7675  Tot=             52.9576
 Quadrupole moment (field-independent basis, Debye-Ang):
   XX=           -263.6445   YY=           -283.6237   ZZ=           -190.9750
   XY=           -224.5983   XZ=           -168.6782   YZ=           -180.4040
 Traceless Quadrupole moment (field-independent basis, Debye-Ang):
   XX=            -17.5635   YY=            -37.5426   ZZ=             55.1061
   XY=           -224.5983   XZ=           -168.6782   YZ=           -180.4040
 Octapole moment (field-independent basis, Debye-Ang**2):
  XXX=          -2142.7416  YYY=          -2818.6346  ZZZ=          -1415.6655  XYY=          -1835.3499
  XXY=          -1870.2822  XXZ=          -1326.2614  XZZ=          -1152.7509  YZZ=          -1373.7789
  YYZ=          -1491.6766  XYZ=          -1175.8370
 Hexadecapole moment (field-independent basis, Debye-Ang**3):
 XXXX=         -16924.5614 YYYY=         -30273.0749 ZZZZ=         -10186.2757 XXXY=         -15288.7387
 XXXZ=         -10614.8470 YYYX=         -17008.8239 YYYZ=         -13881.0085 ZZZX=          -8185.8523
 ZZZY=         -10156.6548 XXYY=         -14781.4735 XXZZ=          -8225.5051 YYZZ=         -11017.3180
 XXYZ=          -9269.3080 YYXZ=          -9357.6123 ZZXY=          -8176.2626
 N-N= 3.341042406728D+02 E-N=-1.484714788192D+03  KE= 3.447742395017D+02
  Exact polarizability:       0.000       0.000       0.000       0.000       0.000       0.000
 Approx polarizability:     129.932       4.331     115.578      12.408     -24.839     104.316
 D2PCM: PCM CHGder 2nd derivatives, FixD1E=F FixD2E=F DoIter=F DoCFld=F I1PDM=0
 Calling FoFJK, ICntrl=    100127 FMM=F ISym2X=0 I1Cent= 0 IOpClX= 0 NMat=1 NMatS=1 NMatT=0.
 -------------------------------------------------------------------
 Center     Atomic                   Forces (Hartrees/Bohr)
 Number     Number              X              Y              Z
 -------------------------------------------------------------------
      1        6           0.000004123   -0.000005031   -0.000015409
      2        6           0.000003688   -0.000001344   -0.000002357
      3        1           0.000002769   -0.000000003   -0.000002272
      4        6          -0.000000984    0.000004849    0.000005859
      5        1          -0.000002234    0.000009597    0.000014043
      6        6          -0.000001201    0.000003335    0.000006437
      7        6           0.000001335   -0.000001650   -0.000004620
      8        6           0.000004692   -0.000011118   -0.000010608
      9        1           0.000005171   -0.000013370   -0.000019742
     10        1          -0.000003903    0.000008357    0.000012975
     11        8           0.000000214   -0.000004597   -0.000004579
     12        6          -0.000002705    0.000001586    0.000003192
     13        1          -0.000002800   -0.000000262    0.000000628
     14        1          -0.000012120    0.000002269    0.000007534
     15        1           0.000003956    0.000007382    0.000008918
 -------------------------------------------------------------------
 Cartesian Forces:  Max     0.000019742 RMS     0.000007122
 FormGI is forming the generalized inverse of G from B-inverse, IUseBI=4.

 GradGradGradGradGradGradGradGradGradGradGradGradGradGradGradGradGradGrad
 Berny optimization.
 Internal  Forces:  Max     0.000003990 RMS     0.000000581
 Search for a local minimum.
 Step number   1 out of a maximum of   73
 All quantities printed in internal units (Hartrees-Bohrs-Radians)
 Mixed Optimization -- En-DIIS/RFO-DIIS
 Second derivative matrix not updated -- analytic derivatives used.
 ITU=  0
     Eigenvalues ---    0.00350   0.01368   0.01583   0.01902   0.02284
     Eigenvalues ---    0.02688   0.02948   0.03063   0.03290   0.03488
     Eigenvalues ---    0.08672   0.08736   0.10758   0.11552   0.12040
     Eigenvalues ---    0.12436   0.13065   0.17993   0.18583   0.18695
     Eigenvalues ---    0.19263   0.20209   0.22329   0.26035   0.32707
     Eigenvalues ---    0.32923   0.33270   0.33987   0.34770   0.34944
     Eigenvalues ---    0.35294   0.36081   0.37493   0.38562   0.40375
     Eigenvalues ---    0.44186   0.45804   0.48757   0.56932
 RFO step:  Lambda= 0.00000000D+00 EMin= 3.50487796D-03
 Linear search not attempted -- first point.
 Iteration  1 RMS(Cart)=  0.00002294 RMS(Int)=  0.00000000
 Iteration  2 RMS(Cart)=  0.00000000 RMS(Int)=  0.00000000
 Variable       Old X    -DE/DX   Delta X   Delta X   Delta X     New X
                                 (Linear)    (Quad)   (Total)
    R1        2.68512   0.00000   0.00000   0.00000   0.00000   2.68512
    R2        2.65839   0.00000   0.00000  -0.00001  -0.00001   2.65838
    R3        2.06129   0.00000   0.00000   0.00000   0.00000   2.06129
    R4        2.63142   0.00000   0.00000   0.00000   0.00000   2.63142
    R5        2.05575   0.00000   0.00000   0.00000   0.00000   2.05575
    R6        2.64482   0.00000   0.00000   0.00000   0.00000   2.64482
    R7        2.63340   0.00000   0.00000   0.00000   0.00000   2.63340
    R8        2.04573   0.00000   0.00000   0.00000   0.00000   2.04573
    R9        2.65357   0.00000   0.00000   0.00000   0.00000   2.65357
   R10        2.59167   0.00000   0.00000   0.00000   0.00000   2.59167
   R11        2.06274   0.00000   0.00000   0.00000   0.00000   2.06274
   R12        2.66844   0.00000   0.00000   0.00000   0.00000   2.66844
   R13        2.05871   0.00000   0.00000   0.00000   0.00000   2.05871
   R14        2.06965   0.00000   0.00000   0.00000   0.00000   2.06965
   R15        2.06957   0.00000   0.00000   0.00000   0.00000   2.06957
    A1        1.97284   0.00000   0.00000   0.00000   0.00000   1.97284
    A2        2.08668   0.00000   0.00000   0.00000   0.00000   2.08669
    A3        2.16017   0.00000   0.00000   0.00000   0.00000   2.16017
    A4        2.03633   0.00000   0.00000   0.00000   0.00000   2.03633
    A5        2.10257   0.00000   0.00000   0.00000   0.00000   2.10257
    A6        2.11024   0.00000   0.00000   0.00000   0.00000   2.11023
    A7        2.07038   0.00000   0.00000   0.00000   0.00000   2.07038
    A8        2.05322   0.00000   0.00000   0.00000   0.00000   2.05322
    A9        2.09988   0.00000   0.00000   0.00000   0.00000   2.09988
   A10        2.13008   0.00000   0.00000   0.00000   0.00000   2.13008
   A11        2.09745   0.00000   0.00000   0.00000   0.00000   2.09745
   A12        2.15494   0.00000   0.00000   0.00000   0.00000   2.15494
   A13        2.03079   0.00000   0.00000   0.00000   0.00000   2.03079
   A14        2.17245   0.00000   0.00000   0.00000   0.00000   2.17245
   A15        2.10817   0.00000   0.00000   0.00000   0.00000   2.10817
   A16        2.00256   0.00000   0.00000   0.00000   0.00000   2.00256
   A17        2.05161   0.00000   0.00000   0.00000   0.00000   2.05161
   A18        1.85677   0.00000   0.00000   0.00000   0.00000   1.85677
   A19        1.94607   0.00000   0.00000   0.00000   0.00000   1.94606
   A20        1.94646   0.00000   0.00000   0.00000   0.00000   1.94646
   A21        1.90418   0.00000   0.00000   0.00000   0.00000   1.90418
   A22        1.90409   0.00000   0.00000   0.00000   0.00000   1.90409
   A23        1.90506   0.00000   0.00000   0.00000   0.00000   1.90506
    D1       -3.14150   0.00000   0.00000   0.00000   0.00000  -3.14150
    D2        0.00305   0.00000   0.00000   0.00000   0.00000   0.00304
    D3       -0.00371   0.00000   0.00000   0.00000   0.00000  -0.00372
    D4        3.13887   0.00000   0.00000  -0.00001  -0.00001   3.13887
    D5        3.13944   0.00000   0.00000   0.00001   0.00001   3.13945
    D6       -0.00132   0.00000   0.00000   0.00001   0.00001  -0.00131
    D7        0.00072   0.00000   0.00000   0.00001   0.00001   0.00073
    D8       -3.14004   0.00000   0.00000   0.00001   0.00001  -3.14003
    D9       -0.00008   0.00000   0.00000   0.00000   0.00000  -0.00008
   D10        3.14089   0.00000   0.00000   0.00000   0.00000   3.14089
   D11       -3.14085   0.00000   0.00000   0.00000   0.00000  -3.14085
   D12        0.00011   0.00000   0.00000   0.00000   0.00000   0.00011
   D13       -0.00053   0.00000   0.00000   0.00000   0.00000  -0.00053
   D14        3.14157   0.00000   0.00000   0.00000   0.00000   3.14157
   D15       -3.14148   0.00000   0.00000  -0.00001  -0.00001  -3.14149
   D16        0.00062   0.00000   0.00000   0.00000   0.00000   0.00062
   D17        0.00264   0.00000   0.00000   0.00001   0.00001   0.00265
   D18       -3.13989   0.00000   0.00000   0.00001   0.00001  -3.13988
   D19       -3.13943   0.00000   0.00000   0.00001   0.00001  -3.13942
   D20        0.00123   0.00000   0.00000   0.00001   0.00001   0.00123
   D21       -0.00556   0.00000   0.00000  -0.00005  -0.00005  -0.00561
   D22        3.13653   0.00000   0.00000  -0.00005  -0.00005   3.13648
   D23       -3.14108   0.00000   0.00000   0.00003   0.00003  -3.14106
   D24       -1.06685   0.00000   0.00000   0.00003   0.00003  -1.06683
   D25        1.06776   0.00000   0.00000   0.00003   0.00003   1.06779
         Item               Value     Threshold  Converged?
 Maximum Force            0.000004     0.000015     YES
 RMS     Force            0.000001     0.000010     YES
 Maximum Displacement     0.000060     0.000060     NO 
 RMS     Displacement     0.000023     0.000040     YES
 Predicted change in Energy=-4.786388D-11
 GradGradGradGradGradGradGradGradGradGradGradGradGradGradGradGradGradGrad

                          Input orientation:                          
 ---------------------------------------------------------------------
 Center     Atomic      Atomic             Coordinates (Angstroms)
 Number     Number       Type             X           Y           Z
 ---------------------------------------------------------------------
      1          6           0        6.305982    6.872862    5.267897
      2          6           0        5.171538    6.057554    5.527289
      3          1           0        5.263199    5.207890    6.205144
      4          6           0        3.918480    6.271329    4.958817
      5          1           0        3.086237    5.611383    5.193928
      6          6           0        3.701951    7.334762    4.075047
      7          6           0        4.782311    8.166709    3.787593
      8          6           0        6.034213    7.926798    4.376655
      9          1           0        6.816189    8.632865    4.091221
     10          1           0        2.723988    7.491662    3.638129
     11          8           0        4.704393    9.241807    2.939667
     12          6           0        3.458479    9.502469    2.328343
     13          1           0        3.601548   10.382330    1.702069
     14          1           0        3.136036    8.664621    1.701026
     15          1           0        2.682611    9.714135    3.071728
 ---------------------------------------------------------------------
                    Distance matrix (angstroms):
                    1          2          3          4          5
     1  C    0.000000
     2  C    1.420906   0.000000
     3  H    2.176685   1.090787   0.000000
     4  C    2.481439   1.392485   2.119552   0.000000
     5  H    3.458838   2.158397   2.434035   1.087858   0.000000
     6  C    2.901245   2.428982   3.390928   1.399580   2.145002
     7  C    2.487351   2.761625   3.851027   2.389651   3.374038
     8  C    1.406752   2.358440   3.366050   2.748784   3.836618
     9  H    2.177725   3.376299   4.314035   3.837485   4.925227
    10  H    3.983684   3.408239   4.272326   2.158759   2.467222
    11  O    3.687497   4.129585   5.219969   3.676733   4.569475
    12  C    4.864575   5.003526   6.060529   4.191809   4.846720
    13  H    5.687306   5.983382   7.057874   5.254253   5.934691
    14  H    5.097208   5.057703   6.063076   4.117435   4.639516
    15  H    5.101452   5.059163   6.064979   4.115992   4.636726
                    6          7          8          9         10
     6  C    0.000000
     7  C    1.393536   0.000000
     8  C    2.425061   1.404211   0.000000
     9  H    3.373991   2.108590   1.091554   0.000000
    10  H    1.082555   2.171340   3.419407   4.272440   0.000000
    11  O    2.435323   1.371454   2.358517   2.481243   2.733653
    12  C    2.794496   2.380378   3.648661   3.890780   2.509653
    13  H    3.863777   3.263830   4.370458   4.370651   3.588091
    14  H    2.779346   2.704053   4.012830   4.388345   2.301735
    15  H    2.776170   2.704761   4.016297   4.392605   2.293885
                   11         12         13         14         15
    11  O    0.000000
    12  C    1.412079   0.000000
    13  H    2.012141   1.089423   0.000000
    14  H    2.080173   1.095210   1.779670   0.000000
    15  H    2.080418   1.095169   1.779577   1.784908   0.000000
 Symmetry turned off by external request.
 Stoichiometry    C7H7O(1-)
 Framework group  C1[X(C7H7O)]
 Deg. of freedom    39
 Full point group                 C1      NOp   1
 Rotational constants (GHZ):           5.1671265           1.6003665           1.2314772
 Standard basis: 6-311+G(d,p) (5D, 7F)
   218 basis functions,   344 primitive gaussians,   226 cartesian basis functions
    29 alpha electrons       29 beta electrons
       nuclear repulsion energy       334.1065072203 Hartrees.
 NAtoms=   15 NActive=   15 NUniq=   15 SFac= 1.00D+00 NAtFMM=   60 NAOKFM=F Big=F
 Integral buffers will be    131072 words long.
 Raffenetti 2 integral format.
 Two-electron integral symmetry is turned off.
 ------------------------------------------------------------------------------
 Polarizable Continuum Model (PCM)
 =================================
 Model                : PCM.
 Atomic radii         : SMD-Coulomb.
 Polarization charges : Total charges.
 Charge compensation  : None.
 Solution method      : Matrix inversion.
 Cavity type          : VdW (van der Waals Surface) (Alpha=1.000).
 Cavity algorithm     : GePol (No added spheres)
                        Default sphere list used, NSphG=   15.
                        Lebedev-Laikov grids with approx.  5.0 points / Ang**2.
                        Smoothing algorithm: York/Karplus (Gamma=1.0000).
                        Polarization charges: spherical gaussians, with
                                              point-specific exponents (IZeta= 3).
                        Self-potential: point-specific (ISelfS= 7).
                        Self-field    : sphere-specific E.n sum rule (ISelfD= 2).
 1st derivatives      : Analytical E(r).r(x)/FMM algorithm (CHGder, D1EAlg=3).
                        Cavity 1st derivative terms included.
 Solvent              : TetraHydroFuran, Eps=   7.425700 Eps(inf)=   1.974025
 ------------------------------------------------------------------------------
 Spheres list:
 ISph  on   Nord     Re0    Alpha      Xe            Ye            Ze
    1   C      1    1.8500  1.000      6.305982      6.872862      5.267897
    2   C      2    1.8500  1.000      5.171538      6.057554      5.527289
    3   H      3    1.2000  1.000      5.263199      5.207890      6.205144
    4   C      4    1.8500  1.000      3.918480      6.271329      4.958817
    5   H      5    1.2000  1.000      3.086237      5.611383      5.193928
    6   C      6    1.8500  1.000      3.701951      7.334762      4.075047
    7   C      7    1.8500  1.000      4.782311      8.166709      3.787593
    8   C      8    1.8500  1.000      6.034213      7.926798      4.376655
    9   H      9    1.2000  1.000      6.816189      8.632865      4.091221
   10   H     10    1.2000  1.000      2.723988      7.491662      3.638129
   11   O     11    2.2940  1.000      4.704393      9.241807      2.939667
   12   C     12    1.8500  1.000      3.458479      9.502469      2.328343
   13   H     13    1.2000  1.000      3.601548     10.382330      1.702069
   14   H     14    1.2000  1.000      3.136036      8.664621      1.701026
   15   H     15    1.2000  1.000      2.682611      9.714135      3.071728
 ------------------------------------------------------------------------------
 ------------------------------------------------------------------------------
 Atomic radii for non-electrostatic terms: SMD-CDS.
 ------------------------------------------------------------------------------
 Nuclear repulsion after PCM non-electrostatic terms =      334.1044447076 Hartrees.
 One-electron integrals computed using PRISM.
 NBasis=   218 RedAO= T EigKep=  3.09D-06  NBF=   218
 NBsUse=   218 1.00D-06 EigRej= -1.00D+00 NBFU=   218
 Initial guess from the checkpoint file:  "3-OMe-ph-anion-opt-freq-thf-2.chk"
 B after Tr=    -0.000021    0.000030   -0.000020
         Rot=    1.000000   -0.000001   -0.000001    0.000000 Ang=   0.00 deg.
 Requested convergence on RMS density matrix=1.00D-08 within 128 cycles.
 Requested convergence on MAX density matrix=1.00D-06.
 Requested convergence on             energy=1.00D-06.
 Level shift goal  0.100 maximum shift  0.100.
 No special actions if energy rises.
 Dynamic level shift is on during FON iterations.
 Inv3:  Mode=1 IEnd=     4899852.
 Iteration    1 A*A^-1 deviation from unit magnitude is 3.89D-15 for   1269.
 Iteration    1 A*A^-1 deviation from orthogonality  is 1.69D-15 for    742     66.
 Iteration    1 A^-1*A deviation from unit magnitude is 3.89D-15 for   1269.
 Iteration    1 A^-1*A deviation from orthogonality  is 1.66D-15 for   1273    396.
 Error on total polarization charges =  0.05714
 SCF Done:  E(RM062X) =  -346.157404163     A.U. after    5 cycles
            NFock=  5  Conv=0.36D-08     -V/T= 2.0040
 SMD-CDS (non-electrostatic) energy       (kcal/mol) =      -1.29
 (included in total energy above)
 D1PCM: PCM CHGder 1st derivatives, ID1Alg=3 FixD1E=F DoIter=F DoCFld=F I1PDM=0.
 Calling FoFJK, ICntrl=      2127 FMM=F ISym2X=0 I1Cent= 0 IOpClX= 0 NMat=1 NMatS=1 NMatT=0.
 -------------------------------------------------------------------
 Center     Atomic                   Forces (Hartrees/Bohr)
 Number     Number              X              Y              Z
 -------------------------------------------------------------------
      1        6           0.000005075   -0.000007900   -0.000012847
      2        6           0.000002614   -0.000001231   -0.000002696
      3        1           0.000003124   -0.000000403   -0.000001697
      4        6          -0.000000502    0.000004419    0.000006349
      5        1          -0.000002315    0.000009406    0.000013925
      6        6          -0.000001434    0.000003847    0.000005891
      7        6           0.000000952   -0.000002582   -0.000003882
      8        6           0.000004081   -0.000008194   -0.000012882
      9        1           0.000005742   -0.000012999   -0.000020172
     10        1          -0.000003864    0.000008305    0.000012952
     11        8           0.000000357   -0.000003795   -0.000005443
     12        6          -0.000002844    0.000001741    0.000003445
     13        1          -0.000002791   -0.000000272    0.000000635
     14        1          -0.000012110    0.000002248    0.000007534
     15        1           0.000003914    0.000007411    0.000008887
 -------------------------------------------------------------------
 Cartesian Forces:  Max     0.000020172 RMS     0.000007066

 GradGradGradGradGradGradGradGradGradGradGradGradGradGradGradGradGradGrad
 Berny optimization.
 Using GEDIIS/GDIIS optimizer.
 FormGI is forming the generalized inverse of G from B-inverse, IUseBI=4.
 Internal  Forces:  Max     0.000000024 RMS     0.000000006
 Search for a local minimum.
 Step number   2 out of a maximum of   73
 All quantities printed in internal units (Hartrees-Bohrs-Radians)
 Mixed Optimization -- En-DIIS/RFO-DIIS
 Swapping is turned off.
 Update second derivatives using D2CorX and points    2
 DE= -5.28D-11 DEPred=-4.79D-11 R= 1.10D+00
 Trust test= 1.10D+00 RLast= 8.70D-05 DXMaxT set to 3.00D-01
 ITU=  0  0
     Eigenvalues ---    0.00350   0.01368   0.01583   0.01902   0.02284
     Eigenvalues ---    0.02688   0.02948   0.03063   0.03290   0.03488
     Eigenvalues ---    0.08672   0.08736   0.10758   0.11552   0.12040
     Eigenvalues ---    0.12436   0.13065   0.17993   0.18583   0.18695
     Eigenvalues ---    0.19263   0.20209   0.22329   0.26035   0.32707
     Eigenvalues ---    0.32923   0.33270   0.33987   0.34770   0.34944
     Eigenvalues ---    0.35294   0.36081   0.37493   0.38562   0.40375
     Eigenvalues ---    0.44186   0.45804   0.48757   0.56932
 En-DIIS/RFO-DIIS/Sim-DIIS IScMMF=       -3 using points:     2    1
 RFO step:  Lambda=-9.35009141D-15.
 DIIS inversion failure, remove point   2.
 Use linear search instead of GDIIS.
 RFO step:  Lambda= 0.00000000D+00 EMin= 3.50487796D-03
 Skip linear search -- no minimum in search direction.
 Iteration  1 RMS(Cart)=  0.00000022 RMS(Int)=  0.00000000
 Variable       Old X    -DE/DX   Delta X   Delta X   Delta X     New X
                                 (Linear)    (Quad)   (Total)
    R1        2.68512   0.00000   0.00000   0.00000   0.00000   2.68512
    R2        2.65838   0.00000   0.00000   0.00000   0.00000   2.65838
    R3        2.06129   0.00000   0.00000   0.00000   0.00000   2.06129
    R4        2.63142   0.00000   0.00000   0.00000   0.00000   2.63142
    R5        2.05575   0.00000   0.00000   0.00000   0.00000   2.05575
    R6        2.64482   0.00000   0.00000   0.00000   0.00000   2.64482
    R7        2.63340   0.00000   0.00000   0.00000   0.00000   2.63340
    R8        2.04573   0.00000   0.00000   0.00000   0.00000   2.04573
    R9        2.65357   0.00000   0.00000   0.00000   0.00000   2.65357
   R10        2.59167   0.00000   0.00000   0.00000   0.00000   2.59167
   R11        2.06274   0.00000   0.00000   0.00000   0.00000   2.06274
   R12        2.66844   0.00000   0.00000   0.00000   0.00000   2.66844
   R13        2.05871   0.00000   0.00000   0.00000   0.00000   2.05871
   R14        2.06965   0.00000   0.00000   0.00000   0.00000   2.06965
   R15        2.06957   0.00000   0.00000   0.00000   0.00000   2.06957
    A1        1.97284   0.00000   0.00000   0.00000   0.00000   1.97284
    A2        2.08669   0.00000   0.00000   0.00000   0.00000   2.08669
    A3        2.16017   0.00000   0.00000   0.00000   0.00000   2.16017
    A4        2.03633   0.00000   0.00000   0.00000   0.00000   2.03633
    A5        2.10257   0.00000   0.00000   0.00000   0.00000   2.10257
    A6        2.11023   0.00000   0.00000   0.00000   0.00000   2.11023
    A7        2.07038   0.00000   0.00000   0.00000   0.00000   2.07038
    A8        2.05322   0.00000   0.00000   0.00000   0.00000   2.05322
    A9        2.09988   0.00000   0.00000   0.00000   0.00000   2.09988
   A10        2.13008   0.00000   0.00000   0.00000   0.00000   2.13008
   A11        2.09745   0.00000   0.00000   0.00000   0.00000   2.09745
   A12        2.15494   0.00000   0.00000   0.00000   0.00000   2.15494
   A13        2.03079   0.00000   0.00000   0.00000   0.00000   2.03079
   A14        2.17245   0.00000   0.00000   0.00000   0.00000   2.17245
   A15        2.10817   0.00000   0.00000   0.00000   0.00000   2.10817
   A16        2.00256   0.00000   0.00000   0.00000   0.00000   2.00256
   A17        2.05161   0.00000   0.00000   0.00000   0.00000   2.05161
   A18        1.85677   0.00000   0.00000   0.00000   0.00000   1.85677
   A19        1.94606   0.00000   0.00000   0.00000   0.00000   1.94606
   A20        1.94646   0.00000   0.00000   0.00000   0.00000   1.94646
   A21        1.90418   0.00000   0.00000   0.00000   0.00000   1.90418
   A22        1.90409   0.00000   0.00000   0.00000   0.00000   1.90409
   A23        1.90506   0.00000   0.00000   0.00000   0.00000   1.90506
    D1       -3.14150   0.00000   0.00000   0.00000   0.00000  -3.14150
    D2        0.00304   0.00000   0.00000   0.00000   0.00000   0.00304
    D3       -0.00372   0.00000   0.00000   0.00000   0.00000  -0.00372
    D4        3.13887   0.00000   0.00000   0.00000   0.00000   3.13887
    D5        3.13945   0.00000   0.00000   0.00000   0.00000   3.13945
    D6       -0.00131   0.00000   0.00000   0.00000   0.00000  -0.00131
    D7        0.00073   0.00000   0.00000   0.00000   0.00000   0.00073
    D8       -3.14003   0.00000   0.00000   0.00000   0.00000  -3.14003
    D9       -0.00008   0.00000   0.00000   0.00000   0.00000  -0.00008
   D10        3.14089   0.00000   0.00000   0.00000   0.00000   3.14089
   D11       -3.14085   0.00000   0.00000   0.00000   0.00000  -3.14085
   D12        0.00011   0.00000   0.00000   0.00000   0.00000   0.00011
   D13       -0.00053   0.00000   0.00000   0.00000   0.00000  -0.00053
   D14        3.14157   0.00000   0.00000   0.00000   0.00000   3.14157
   D15       -3.14149   0.00000   0.00000   0.00000   0.00000  -3.14149
   D16        0.00062   0.00000   0.00000   0.00000   0.00000   0.00062
   D17        0.00265   0.00000   0.00000   0.00000   0.00000   0.00265
   D18       -3.13988   0.00000   0.00000   0.00000   0.00000  -3.13988
   D19       -3.13942   0.00000   0.00000   0.00000   0.00000  -3.13942
   D20        0.00123   0.00000   0.00000   0.00000   0.00000   0.00123
   D21       -0.00561   0.00000   0.00000   0.00000   0.00000  -0.00561
   D22        3.13648   0.00000   0.00000   0.00000   0.00000   3.13648
   D23       -3.14106   0.00000   0.00000   0.00000   0.00000  -3.14106
   D24       -1.06683   0.00000   0.00000   0.00000   0.00000  -1.06683
   D25        1.06779   0.00000   0.00000   0.00000   0.00000   1.06779
         Item               Value     Threshold  Converged?
 Maximum Force            0.000000     0.000015     YES
 RMS     Force            0.000000     0.000010     YES
 Maximum Displacement     0.000001     0.000060     YES
 RMS     Displacement     0.000000     0.000040     YES
 Predicted change in Energy=-1.171056D-14
 Optimization completed.
    -- Stationary point found.
                           ----------------------------
                           !   Optimized Parameters   !
                           ! (Angstroms and Degrees)  !
 --------------------------                            --------------------------
 ! Name  Definition              Value          Derivative Info.                !
 --------------------------------------------------------------------------------
 ! R1    R(1,2)                  1.4209         -DE/DX =    0.0                 !
 ! R2    R(1,8)                  1.4068         -DE/DX =    0.0                 !
 ! R3    R(2,3)                  1.0908         -DE/DX =    0.0                 !
 ! R4    R(2,4)                  1.3925         -DE/DX =    0.0                 !
 ! R5    R(4,5)                  1.0879         -DE/DX =    0.0                 !
 ! R6    R(4,6)                  1.3996         -DE/DX =    0.0                 !
 ! R7    R(6,7)                  1.3935         -DE/DX =    0.0                 !
 ! R8    R(6,10)                 1.0826         -DE/DX =    0.0                 !
 ! R9    R(7,8)                  1.4042         -DE/DX =    0.0                 !
 ! R10   R(7,11)                 1.3715         -DE/DX =    0.0                 !
 ! R11   R(8,9)                  1.0916         -DE/DX =    0.0                 !
 ! R12   R(11,12)                1.4121         -DE/DX =    0.0                 !
 ! R13   R(12,13)                1.0894         -DE/DX =    0.0                 !
 ! R14   R(12,14)                1.0952         -DE/DX =    0.0                 !
 ! R15   R(12,15)                1.0952         -DE/DX =    0.0                 !
 ! A1    A(2,1,8)              113.0354         -DE/DX =    0.0                 !
 ! A2    A(1,2,3)              119.5583         -DE/DX =    0.0                 !
 ! A3    A(1,2,4)              123.7684         -DE/DX =    0.0                 !
 ! A4    A(3,2,4)              116.6731         -DE/DX =    0.0                 !
 ! A5    A(2,4,5)              120.4685         -DE/DX =    0.0                 !
 ! A6    A(2,4,6)              120.9075         -DE/DX =    0.0                 !
 ! A7    A(5,4,6)              118.624          -DE/DX =    0.0                 !
 ! A8    A(4,6,7)              117.641          -DE/DX =    0.0                 !
 ! A9    A(4,6,10)             120.3142         -DE/DX =    0.0                 !
 ! A10   A(7,6,10)             122.0448         -DE/DX =    0.0                 !
 ! A11   A(6,7,8)              120.1751         -DE/DX =    0.0                 !
 ! A12   A(6,7,11)             123.4691         -DE/DX =    0.0                 !
 ! A13   A(8,7,11)             116.3558         -DE/DX =    0.0                 !
 ! A14   A(1,8,7)              124.4722         -DE/DX =    0.0                 !
 ! A15   A(1,8,9)              120.7894         -DE/DX =    0.0                 !
 ! A16   A(7,8,9)              114.7383         -DE/DX =    0.0                 !
 ! A17   A(7,11,12)            117.5484         -DE/DX =    0.0                 !
 ! A18   A(11,12,13)           106.3849         -DE/DX =    0.0                 !
 ! A19   A(11,12,14)           111.5013         -DE/DX =    0.0                 !
 ! A20   A(11,12,15)           111.5242         -DE/DX =    0.0                 !
 ! A21   A(13,12,14)           109.1015         -DE/DX =    0.0                 !
 ! A22   A(13,12,15)           109.0961         -DE/DX =    0.0                 !
 ! A23   A(14,12,15)           109.1521         -DE/DX =    0.0                 !
 ! D1    D(8,1,2,3)           -179.9949         -DE/DX =    0.0                 !
 ! D2    D(8,1,2,4)              0.1743         -DE/DX =    0.0                 !
 ! D3    D(2,1,8,7)             -0.213          -DE/DX =    0.0                 !
 ! D4    D(2,1,8,9)            179.8439         -DE/DX =    0.0                 !
 ! D5    D(1,2,4,5)            179.877          -DE/DX =    0.0                 !
 ! D6    D(1,2,4,6)             -0.0753         -DE/DX =    0.0                 !
 ! D7    D(3,2,4,5)              0.0418         -DE/DX =    0.0                 !
 ! D8    D(3,2,4,6)           -179.9106         -DE/DX =    0.0                 !
 ! D9    D(2,4,6,7)             -0.0045         -DE/DX =    0.0                 !
 ! D10   D(2,4,6,10)           179.9596         -DE/DX =    0.0                 !
 ! D11   D(5,4,6,7)           -179.9577         -DE/DX =    0.0                 !
 ! D12   D(5,4,6,10)             0.0064         -DE/DX =    0.0                 !
 ! D13   D(4,6,7,8)             -0.0305         -DE/DX =    0.0                 !
 ! D14   D(4,6,7,11)           179.9988         -DE/DX =    0.0                 !
 ! D15   D(10,6,7,8)          -179.994          -DE/DX =    0.0                 !
 ! D16   D(10,6,7,11)            0.0354         -DE/DX =    0.0                 !
 ! D17   D(6,7,8,1)              0.1518         -DE/DX =    0.0                 !
 ! D18   D(6,7,8,9)           -179.902          -DE/DX =    0.0                 !
 ! D19   D(11,7,8,1)          -179.8755         -DE/DX =    0.0                 !
 ! D20   D(11,7,8,9)             0.0707         -DE/DX =    0.0                 !
 ! D21   D(6,7,11,12)           -0.3212         -DE/DX =    0.0                 !
 ! D22   D(8,7,11,12)          179.7071         -DE/DX =    0.0                 !
 ! D23   D(7,11,12,13)        -179.9694         -DE/DX =    0.0                 !
 ! D24   D(7,11,12,14)         -61.1247         -DE/DX =    0.0                 !
 ! D25   D(7,11,12,15)          61.1797         -DE/DX =    0.0                 !
 --------------------------------------------------------------------------------
 GradGradGradGradGradGradGradGradGradGradGradGradGradGradGradGradGradGrad

                          Input orientation:                          
 ---------------------------------------------------------------------
 Center     Atomic      Atomic             Coordinates (Angstroms)
 Number     Number       Type             X           Y           Z
 ---------------------------------------------------------------------
      1          6           0        6.305982    6.872862    5.267897
      2          6           0        5.171538    6.057554    5.527289
      3          1           0        5.263199    5.207890    6.205144
      4          6           0        3.918480    6.271329    4.958817
      5          1           0        3.086237    5.611383    5.193928
      6          6           0        3.701951    7.334762    4.075047
      7          6           0        4.782311    8.166709    3.787593
      8          6           0        6.034213    7.926798    4.376655
      9          1           0        6.816189    8.632865    4.091221
     10          1           0        2.723988    7.491662    3.638129
     11          8           0        4.704393    9.241807    2.939667
     12          6           0        3.458479    9.502469    2.328343
     13          1           0        3.601548   10.382330    1.702069
     14          1           0        3.136036    8.664621    1.701026
     15          1           0        2.682611    9.714135    3.071728
 ---------------------------------------------------------------------
                    Distance matrix (angstroms):
                    1          2          3          4          5
     1  C    0.000000
     2  C    1.420906   0.000000
     3  H    2.176685   1.090787   0.000000
     4  C    2.481439   1.392485   2.119552   0.000000
     5  H    3.458838   2.158397   2.434035   1.087858   0.000000
     6  C    2.901245   2.428982   3.390928   1.399580   2.145002
     7  C    2.487351   2.761625   3.851027   2.389651   3.374038
     8  C    1.406752   2.358440   3.366050   2.748784   3.836618
     9  H    2.177725   3.376299   4.314035   3.837485   4.925227
    10  H    3.983684   3.408239   4.272326   2.158759   2.467222
    11  O    3.687497   4.129585   5.219969   3.676733   4.569475
    12  C    4.864575   5.003526   6.060529   4.191809   4.846720
    13  H    5.687306   5.983382   7.057874   5.254253   5.934691
    14  H    5.097208   5.057703   6.063076   4.117435   4.639516
    15  H    5.101452   5.059163   6.064979   4.115992   4.636726
                    6          7          8          9         10
     6  C    0.000000
     7  C    1.393536   0.000000
     8  C    2.425061   1.404211   0.000000
     9  H    3.373991   2.108590   1.091554   0.000000
    10  H    1.082555   2.171340   3.419407   4.272440   0.000000
    11  O    2.435323   1.371454   2.358517   2.481243   2.733653
    12  C    2.794496   2.380378   3.648661   3.890780   2.509653
    13  H    3.863777   3.263830   4.370458   4.370651   3.588091
    14  H    2.779346   2.704053   4.012830   4.388345   2.301735
    15  H    2.776170   2.704761   4.016297   4.392605   2.293885
                   11         12         13         14         15
    11  O    0.000000
    12  C    1.412079   0.000000
    13  H    2.012141   1.089423   0.000000
    14  H    2.080173   1.095210   1.779670   0.000000
    15  H    2.080418   1.095169   1.779577   1.784908   0.000000
 Symmetry turned off by external request.
 Stoichiometry    C7H7O(1-)
 Framework group  C1[X(C7H7O)]
 Deg. of freedom    39
 Full point group                 C1      NOp   1
 Rotational constants (GHZ):           5.1671265           1.6003665           1.2314772

 **********************************************************************

            Population analysis using the SCF Density.

 **********************************************************************

 Alpha  occ. eigenvalues --  -19.62237 -10.56173 -10.56108 -10.50325 -10.50055
 Alpha  occ. eigenvalues --  -10.48266 -10.48263 -10.44922  -1.15992  -0.90385
 Alpha  occ. eigenvalues --   -0.81240  -0.77862  -0.74652  -0.63798  -0.61802
 Alpha  occ. eigenvalues --   -0.56198  -0.52036  -0.51027  -0.50906  -0.45151
 Alpha  occ. eigenvalues --   -0.43997  -0.41087  -0.41019  -0.37932  -0.35236
 Alpha  occ. eigenvalues --   -0.34752  -0.25498  -0.23770  -0.19491
 Alpha virt. eigenvalues --    0.03409   0.04655   0.05331   0.05888   0.06605
 Alpha virt. eigenvalues --    0.06811   0.07633   0.07905   0.08158   0.10252
 Alpha virt. eigenvalues --    0.10421   0.10687   0.11951   0.12350   0.14106
 Alpha virt. eigenvalues --    0.14989   0.16161   0.16330   0.17713   0.17760
 Alpha virt. eigenvalues --    0.18102   0.18967   0.19720   0.20901   0.21818
 Alpha virt. eigenvalues --    0.22814   0.23162   0.24654   0.25216   0.25384
 Alpha virt. eigenvalues --    0.26076   0.26301   0.26610   0.27524   0.28020
 Alpha virt. eigenvalues --    0.28740   0.29374   0.29597   0.30991   0.31149
 Alpha virt. eigenvalues --    0.35149   0.36837   0.37789   0.39582   0.41502
 Alpha virt. eigenvalues --    0.43706   0.44351   0.46282   0.48240   0.52664
 Alpha virt. eigenvalues --    0.55361   0.58416   0.60126   0.61170   0.62051
 Alpha virt. eigenvalues --    0.63537   0.64285   0.64784   0.65890   0.68116
 Alpha virt. eigenvalues --    0.68472   0.69518   0.70028   0.70562   0.73094
 Alpha virt. eigenvalues --    0.74978   0.75978   0.77599   0.78985   0.80747
 Alpha virt. eigenvalues --    0.81441   0.83773   0.85614   0.86755   0.89238
 Alpha virt. eigenvalues --    0.92012   0.92465   0.94607   0.96151   0.97844
 Alpha virt. eigenvalues --    1.01191   1.04830   1.07212   1.07884   1.08213
 Alpha virt. eigenvalues --    1.09030   1.12006   1.15283   1.19112   1.20344
 Alpha virt. eigenvalues --    1.24249   1.24400   1.29222   1.35581   1.37754
 Alpha virt. eigenvalues --    1.42234   1.49478   1.51698   1.54225   1.57653
 Alpha virt. eigenvalues --    1.60618   1.60659   1.64628   1.65152   1.66730
 Alpha virt. eigenvalues --    1.68694   1.72210   1.74831   1.75496   1.76033
 Alpha virt. eigenvalues --    1.77554   1.79578   1.82060   1.83524   1.86083
 Alpha virt. eigenvalues --    1.87406   1.96098   1.96581   1.98569   2.00257
 Alpha virt. eigenvalues --    2.02008   2.03357   2.05109   2.07401   2.10452
 Alpha virt. eigenvalues --    2.11924   2.12741   2.16198   2.17237   2.23665
 Alpha virt. eigenvalues --    2.28740   2.31621   2.40435   2.42631   2.48798
 Alpha virt. eigenvalues --    2.50052   2.51343   2.54866   2.56782   2.58085
 Alpha virt. eigenvalues --    2.59070   2.63653   2.71285   2.72952   2.75656
 Alpha virt. eigenvalues --    2.76375   2.79616   2.81439   2.82359   2.85258
 Alpha virt. eigenvalues --    2.86452   2.90079   2.90326   2.96917   2.98038
 Alpha virt. eigenvalues --    3.00661   3.15421   3.16046   3.17290   3.17721
 Alpha virt. eigenvalues --    3.21702   3.26634   3.34067   3.41707   3.47180
 Alpha virt. eigenvalues --    3.49323   3.58804   3.63942   3.70778   3.84966
 Alpha virt. eigenvalues --    3.86426   3.90692   4.08588   4.17149   4.20217
 Alpha virt. eigenvalues --    4.22040   4.29738   4.85441   5.17398   5.54395
 Alpha virt. eigenvalues --    5.90060  23.69522  24.02288  24.03273  24.05013
 Alpha virt. eigenvalues --   24.17838  24.19731  24.27081  50.10533
          Condensed to atoms (all electrons):
               1          2          3          4          5          6
     1  C    8.849950  -1.030785  -0.118120   0.884944  -0.027991  -0.683234
     2  C   -1.030785   6.290784   0.501405  -0.221858   0.053591   0.507605
     3  H   -0.118120   0.501405   0.548558  -0.101245  -0.004077   0.010916
     4  C    0.884944  -0.221858  -0.101245   6.754097   0.282339  -0.421623
     5  H   -0.027991   0.053591  -0.004077   0.282339   0.503119   0.043966
     6  C   -0.683234   0.507605   0.010916  -0.421623   0.043966   8.173839
     7  C    0.936247  -0.909205  -0.001789   0.102882  -0.007177  -0.876597
     8  C   -1.618897   0.764204   0.019897  -0.657881  -0.001578  -1.574126
     9  H   -0.119727   0.049871   0.000089  -0.035190   0.000118   0.021327
    10  H    0.011692  -0.021401  -0.000293   0.022306  -0.005643   0.418821
    11  O   -0.027231   0.022016   0.000388   0.018303  -0.000334   0.090504
    12  C    0.022836  -0.020909   0.000336  -0.120497   0.002174  -0.155235
    13  H   -0.001172   0.000112   0.000000   0.008175  -0.000002   0.001115
    14  H    0.001338  -0.000310   0.000000  -0.004214   0.000024   0.015247
    15  H    0.001344  -0.000485   0.000000  -0.004159   0.000025   0.015123
               7          8          9         10         11         12
     1  C    0.936247  -1.618897  -0.119727   0.011692  -0.027231   0.022836
     2  C   -0.909205   0.764204   0.049871  -0.021401   0.022016  -0.020909
     3  H   -0.001789   0.019897   0.000089  -0.000293   0.000388   0.000336
     4  C    0.102882  -0.657881  -0.035190   0.022306   0.018303  -0.120497
     5  H   -0.007177  -0.001578   0.000118  -0.005643  -0.000334   0.002174
     6  C   -0.876597  -1.574126   0.021327   0.418821   0.090504  -0.155235
     7  C    8.023493  -1.118693  -0.058285   0.007133   0.270283   0.055435
     8  C   -1.118693  10.339878   0.452133  -0.074633  -0.496103   0.015063
     9  H   -0.058285   0.452133   0.538846  -0.000143   0.003455   0.003404
    10  H    0.007133  -0.074633  -0.000143   0.489270  -0.014924  -0.000764
    11  O    0.270283  -0.496103   0.003455  -0.014924   8.329747   0.126792
    12  C    0.055435   0.015063   0.003404  -0.000764   0.126792   5.177221
    13  H    0.020824  -0.001365  -0.000035   0.000617  -0.065083   0.409822
    14  H   -0.024455   0.002712   0.000045  -0.001237  -0.035697   0.416245
    15  H   -0.023037   0.001295   0.000045  -0.001205  -0.035733   0.416181
              13         14         15
     1  C   -0.001172   0.001338   0.001344
     2  C    0.000112  -0.000310  -0.000485
     3  H    0.000000   0.000000   0.000000
     4  C    0.008175  -0.004214  -0.004159
     5  H   -0.000002   0.000024   0.000025
     6  C    0.001115   0.015247   0.015123
     7  C    0.020824  -0.024455  -0.023037
     8  C   -0.001365   0.002712   0.001295
     9  H   -0.000035   0.000045   0.000045
    10  H    0.000617  -0.001237  -0.001205
    11  O   -0.065083  -0.035697  -0.035733
    12  C    0.409822   0.416245   0.416181
    13  H    0.492321  -0.024145  -0.024245
    14  H   -0.024145   0.533136  -0.049097
    15  H   -0.024245  -0.049097   0.533946
 Mulliken charges:
               1
     1  C   -1.081193
     2  C    0.015366
     3  H    0.143935
     4  C   -0.506379
     5  H    0.161446
     6  C    0.412352
     7  C   -0.397061
     8  C   -0.051905
     9  H    0.144046
    10  H    0.170405
    11  O   -0.186382
    12  C   -0.348104
    13  H    0.183061
    14  H    0.170408
    15  H    0.170004
 Sum of Mulliken charges =  -1.00000
 Mulliken charges with hydrogens summed into heavy atoms:
               1
     1  C   -1.081193
     2  C    0.159301
     4  C   -0.344933
     6  C    0.582757
     7  C   -0.397061
     8  C    0.092142
    11  O   -0.186382
    12  C    0.175369
 Electronic spatial extent (au):  <R**2>=          21405.5124
 Charge=             -1.0000 electrons
 Dipole moment (field-independent basis, Debye):
    X=            -32.1929    Y=            -33.2290    Z=            -25.7674  Tot=             52.9576
 Quadrupole moment (field-independent basis, Debye-Ang):
   XX=           -263.6448   YY=           -283.6235   ZZ=           -190.9744
   XY=           -224.5981   XZ=           -168.6780   YZ=           -180.4038
 Traceless Quadrupole moment (field-independent basis, Debye-Ang):
   XX=            -17.5639   YY=            -37.5426   ZZ=             55.1064
   XY=           -224.5981   XZ=           -168.6780   YZ=           -180.4038
 Octapole moment (field-independent basis, Debye-Ang**2):
  XXX=          -2142.7444  YYY=          -2818.6346  ZZZ=          -1415.6603  XYY=          -1835.3477
  XXY=          -1870.2818  XXZ=          -1326.2606  XZZ=          -1152.7472  YZZ=          -1373.7745
  YYZ=          -1491.6750  XYZ=          -1175.8350
 Hexadecapole moment (field-independent basis, Debye-Ang**3):
 XXXX=         -16924.5913 YYYY=         -30273.1116 ZZZZ=         -10186.2320 XXXY=         -15288.7431
 XXXZ=         -10614.8448 YYYX=         -17008.8074 YYYZ=         -13881.0095 ZZZX=          -8185.8155
 ZZZY=         -10156.6143 XXYY=         -14781.4603 XXZZ=          -8225.4808 YYZZ=         -11017.2865
 XXYZ=          -9269.2946 YYXZ=          -9357.5946 ZZXY=          -8176.2311
 N-N= 3.341044447076D+02 E-N=-1.484715215071D+03  KE= 3.447742603683D+02
 Unable to Open any file for archive entry.
 1\1\GINC-CN007\FOpt\RM062X\6-311+G(d,p)\C7H7O1(1-)\TAHMINAAFROZ\02-Jun
 -2025\0\\# opt=(calcfc,tight) freq 6-311+g(d,p) scrf=(smd,solvent=thf)
  nosymm scf=(qc,fermi,xqc) geom=connectivity int=ultrafine m062x guess
 =read\\3-OMe-ph-anion-opt-freq-thf\\-1,1\C,6.3059821898,6.8728621478,5
 .2678969491\C,5.1715383744,6.0575538075,5.527288785\H,5.2631993773,5.2
 078903361,6.205143795\C,3.9184799498,6.2713290271,4.9588169547\H,3.086
 2373988,5.6113827733,5.1939283829\C,3.7019506735,7.334761957,4.0750474
 784\C,4.7823109763,8.1667085385,3.7875929034\C,6.0342125076,7.92679790
 34,4.3766549955\H,6.8161892787,8.6328646818,4.091220746\H,2.7239883629
 ,7.4916622344,3.6381290636\O,4.7043934193,9.2418065115,2.9396672432\C,
 3.4584786921,9.5024689133,2.3283427724\H,3.6015480542,10.3823296412,1.
 7020691652\H,3.1360358654,8.6646213563,1.7010260721\H,2.6826108798,9.7
 141351711,3.0717276935\\Version=AS64L-G16RevC.01\HF=-346.1574042\RMSD=
 3.602e-09\RMSF=7.066e-06\Dipole=-3.8740289,1.5947762,-2.4776538\Quadru
 pole=-13.0583063,-27.9119833,40.9702896,-166.9832128,-125.4079599,-134
 .1257866\PG=C01 [X(C7H7O1)]\\@
 The archive entry for this job was punched.


 THERE ARE TWO THINGS THAT EVERYBODY THINKS THEY CAN DO BETTER THAN
 ANYONE ELSE - PUNCH THE FIRE, AND EDIT A DAILY PAPER.
 -- UNCLE ESEK, "CENTURY MAGAZINE", 1885
 Job cpu time:       0 days  0 hours 28 minutes 46.4 seconds.
 Elapsed time:       0 days  0 hours  0 minutes 57.7 seconds.
 File lengths (MBytes):  RWF=    101 Int=      0 D2E=      0 Chk=     67 Scr=      1
 Normal termination of Gaussian 16 at Mon Jun  2 11:46:18 2025.
 Link1:  Proceeding to internal job step number  2.
 ----------------------------------------------------------------------
 #N Geom=AllCheck Guess=TCheck SCRF=Check GenChk RM062X/6-311+G(d,p) Fr
 eq
 ----------------------------------------------------------------------
 1/7=10,10=4,29=7,30=1,38=1,40=1/1,3;
 2/12=2,15=1,40=1/2;
 3/5=4,6=6,7=111,11=2,14=-4,25=1,30=1,70=2,71=2,74=-55,75=-5,116=1,140=1/1,2,3;
 4/5=101/1;
 5/5=2,22=13,38=6,98=1/2;
 8/6=4,10=90,11=11/1;
 11/6=1,8=1,9=11,15=111,16=1,31=1/1,2,10;
 10/6=1,31=1/2;
 6/7=2,8=2,9=2,10=2,28=1/1;
 7/8=1,10=1,25=1,30=1/1,2,3,16;
 1/7=10,10=4,30=1/3;
 99//99;
 Structure from the checkpoint file:  "3-OMe-ph-anion-opt-freq-thf-2.chk"
 ---------------------------
 3-OMe-ph-anion-opt-freq-thf
 ---------------------------
 Charge = -1 Multiplicity = 1
 Redundant internal coordinates found in file.  (old form).
 C,0,6.3059821898,6.8728621478,5.2678969491
 C,0,5.1715383744,6.0575538075,5.527288785
 H,0,5.2631993773,5.2078903361,6.205143795
 C,0,3.9184799498,6.2713290271,4.9588169547
 H,0,3.0862373988,5.6113827733,5.1939283829
 C,0,3.7019506735,7.334761957,4.0750474784
 C,0,4.7823109763,8.1667085385,3.7875929034
 C,0,6.0342125076,7.9267979034,4.3766549955
 H,0,6.8161892787,8.6328646818,4.091220746
 H,0,2.7239883629,7.4916622344,3.6381290636
 O,0,4.7043934193,9.2418065115,2.9396672432
 C,0,3.4584786921,9.5024689133,2.3283427724
 H,0,3.6015480542,10.3823296412,1.7020691652
 H,0,3.1360358654,8.6646213563,1.7010260721
 H,0,2.6826108798,9.7141351711,3.0717276935
 Recover connectivity data from disk.

 GradGradGradGradGradGradGradGradGradGradGradGradGradGradGradGradGradGrad
 Berny optimization.
 Initialization pass.
                           ----------------------------
                           !    Initial Parameters    !
                           ! (Angstroms and Degrees)  !
 --------------------------                            --------------------------
 ! Name  Definition              Value          Derivative Info.                !
 --------------------------------------------------------------------------------
 ! R1    R(1,2)                  1.4209         calculate D2E/DX2 analytically  !
 ! R2    R(1,8)                  1.4068         calculate D2E/DX2 analytically  !
 ! R3    R(2,3)                  1.0908         calculate D2E/DX2 analytically  !
 ! R4    R(2,4)                  1.3925         calculate D2E/DX2 analytically  !
 ! R5    R(4,5)                  1.0879         calculate D2E/DX2 analytically  !
 ! R6    R(4,6)                  1.3996         calculate D2E/DX2 analytically  !
 ! R7    R(6,7)                  1.3935         calculate D2E/DX2 analytically  !
 ! R8    R(6,10)                 1.0826         calculate D2E/DX2 analytically  !
 ! R9    R(7,8)                  1.4042         calculate D2E/DX2 analytically  !
 ! R10   R(7,11)                 1.3715         calculate D2E/DX2 analytically  !
[...]
 ! D21   D(6,7,11,12)           -0.3212         -DE/DX =    0.0                 !
 ! D22   D(8,7,11,12)          179.7071         -DE/DX =    0.0                 !
 ! D23   D(7,11,12,13)        -179.9694         -DE/DX =    0.0                 !
 ! D24   D(7,11,12,14)         -61.1247         -DE/DX =    0.0                 !
 ! D25   D(7,11,12,15)          61.1797         -DE/DX =    0.0                 !
 --------------------------------------------------------------------------------
 GradGradGradGradGradGradGradGradGradGradGradGradGradGradGradGradGradGrad


 ----------------------------------------------------------------------

 Electric dipole moment (input orientation):
 (Debye = 10**-18 statcoulomb cm , SI units = C m)
                  (au)            (Debye)         (10**-30 SI)
   Tot        0.208351D+02      0.529576D+02      0.176648D+03
   x         -0.126657D+02     -0.321929D+02     -0.107384D+03
   y         -0.130733D+02     -0.332290D+02     -0.110840D+03
   z         -0.101377D+02     -0.257674D+02     -0.859509D+02

 Dipole polarizability, Alpha (input orientation).
 (esu units = cm**3 , SI units = C**2 m**2 J**-1)
 Alpha(0;0):
               (au)            (10**-24 esu)      (10**-40 SI)
   iso        0.131827D+03      0.195347D+02      0.217353D+02
   aniso      0.710591D+02      0.105299D+02      0.117161D+02
   xx         0.151386D+03      0.224330D+02      0.249601D+02
   yx        -0.102608D+01     -0.152049D+00     -0.169178D+00
   yy         0.126484D+03      0.187430D+02      0.208544D+02
   zx         0.214249D+02      0.317484D+01      0.353248D+01
   zy        -0.302731D+02     -0.448601D+01     -0.499135D+01
   zz         0.117611D+03      0.174281D+02      0.193914D+02

 ----------------------------------------------------------------------

 Dipole orientation:
     6         -0.42980871         -0.24408288        -20.23719075
     6         -1.94333159          0.64607689        -18.20574958
     1         -2.17988587          2.67466461        -17.92684424
     6         -3.17324625         -0.93254845        -16.49706530
     1         -4.30509360         -0.14048265        -14.97467466
     6         -2.98110619         -3.56281945        -16.69666646
     6         -1.52021010         -4.53559273        -18.65990393
     6         -0.30291898         -2.89680538        -20.35520186
     1          0.79299880         -3.83698608        -21.82826496
     1         -3.94394024         -4.77305567        -15.35752441
     8         -1.17807851         -7.07235793        -19.06552638
     6         -2.37135650         -8.76346886        -17.38124218
     1         -1.87539027        -10.65902984        -18.01303103
     1         -1.70231994         -8.49967456        -15.44056232
     1         -4.42966723         -8.55226986        -17.42446079

 Electric dipole moment (dipole orientation):
 (Debye = 10**-18 statcoulomb cm , SI units = C m)
                  (au)            (Debye)         (10**-30 SI)
   Tot        0.208351D+02      0.529576D+02      0.176648D+03
   x          0.000000D+00      0.000000D+00      0.000000D+00
   y          0.000000D+00      0.000000D+00      0.000000D+00
   z          0.208351D+02      0.529576D+02      0.176648D+03

 Dipole polarizability, Alpha (dipole orientation).
 (esu units = cm**3 , SI units = C**2 m**2 J**-1)
 Alpha(0;0):
               (au)            (10**-24 esu)      (10**-40 SI)
   iso        0.131827D+03      0.195347D+02      0.217353D+02
   aniso      0.710591D+02      0.105299D+02      0.117161D+02
   xx         0.108644D+03      0.160993D+02      0.179129D+02
   yx         0.692462D+01      0.102612D+01      0.114172D+01
   yy         0.159845D+03      0.236866D+02      0.263549D+02
   zx        -0.289180D+02     -0.428521D+01     -0.476793D+01
   zy        -0.112254D+02     -0.166343D+01     -0.185081D+01
   zz         0.126992D+03      0.188183D+02      0.209382D+02

 ----------------------------------------------------------------------
 Unable to Open any file for archive entry.
 1\1\GINC-CN007\Freq\RM062X\6-311+G(d,p)\C7H7O1(1-)\TAHMINAAFROZ\02-Jun
 -2025\0\\#N Geom=AllCheck Guess=TCheck SCRF=Check GenChk RM062X/6-311+
 G(d,p) Freq\\3-OMe-ph-anion-opt-freq-thf\\-1,1\C,6.3059821898,6.872862
 1478,5.2678969491\C,5.1715383744,6.0575538075,5.527288785\H,5.26319937
 73,5.2078903361,6.205143795\C,3.9184799498,6.2713290271,4.9588169547\H
 ,3.0862373988,5.6113827733,5.1939283829\C,3.7019506735,7.334761957,4.0
 750474784\C,4.7823109763,8.1667085385,3.7875929034\C,6.0342125076,7.92
 67979034,4.3766549955\H,6.8161892787,8.6328646818,4.091220746\H,2.7239
 883629,7.4916622344,3.6381290636\O,4.7043934193,9.2418065115,2.9396672
 432\C,3.4584786921,9.5024689133,2.3283427724\H,3.6015480542,10.3823296
 412,1.7020691652\H,3.1360358654,8.6646213563,1.7010260721\H,2.68261087
 98,9.7141351711,3.0717276935\\Version=AS64L-G16RevC.01\HF=-346.1574042
 \RMSD=2.298e-09\RMSF=7.067e-06\ZeroPoint=0.1200086\Thermal=0.1267953\E
 Tot=-346.0306089\HTot=-346.0296647\GTot=-346.0684392\Dipole=-3.8740288
 ,1.5947764,-2.4776537\DipoleDeriv=-0.2734266,-0.0355508,0.1972533,0.04
 89188,-0.6111262,-0.1370079,0.1392427,-0.1689218,-0.6347621,-0.4035166
 ,0.0761518,-0.1122518,0.153873,0.0236037,-0.1492029,-0.1733764,-0.1682
 035,-0.1759645,0.0584577,-0.0102063,-0.0162387,-0.0554871,-0.1368463,0
 .1900734,0.0189762,0.201996,-0.0112702,0.0773927,-0.0819087,0.1424889,
 -0.1691212,0.1121301,-0.2525423,0.2046014,-0.2246318,0.0937122,-0.1308
 575,-0.1558051,0.0225506,-0.1554034,0.0040904,0.0754223,0.0198158,0.07
 38337,0.1185129,-0.2675284,-0.1768705,0.1452733,0.16249,-0.4789192,0.1
 798222,-0.1117034,0.0687779,-0.4032281,0.4022253,-0.0045653,0.0616412,
 -0.2816567,1.1820631,-0.8369657,0.2778091,-0.7441428,0.8678235,-0.2616
 032,0.4070569,-0.3054514,0.1010453,-0.0869949,-0.1002299,-0.0776186,0.
 0029071,-0.284689,-0.0171192,-0.1543328,0.0741519,-0.1191925,-0.086559
 8,0.1137975,0.0469717,0.1012378,0.0524399,-0.0499273,0.0287792,-0.1081
 662,0.0127152,0.1340181,0.0651504,-0.0964816,0.0709883,0.1288264,-0.89
 66925,0.3487407,-0.4468631,0.4523205,-1.3838942,0.9396779,-0.524765,0.
 9032215,-1.2141057,0.8292982,-0.3806246,0.4378456,-0.1107508,0.3992209
 ,-0.0491412,0.2313385,-0.1366548,0.5656416,0.0521305,-0.0370175,0.0095
 044,0.0147204,-0.0743892,0.145321,-0.0300828,0.1275225,0.0015182,-0.01
 54649,0.0650249,-0.0898226,-0.0747093,-0.0657972,-0.1590892,-0.0622054
 ,-0.055713,-0.0273284,-0.1033682,0.111128,-0.0119153,0.0202379,0.06940
 07,-0.0250855,0.1374777,-0.0522172,-0.0771266\Polar=151.3857152,-1.026
 0786,126.4841575,21.4248555,-30.2730686,117.6108574\Quadrupole=-13.058
 3075,-27.911981,40.9702885,-166.9832095,-125.4079581,-134.1257852\PG=C
 01 [X(C7H7O1)]\NImag=0\\0.35288471,0.08066792,0.35698722,0.03044486,-0
 .19443295,0.23042295,-0.21436937,-0.07958785,0.00949652,0.57648152,-0.
 09567839,-0.14232369,0.03835113,0.04801345,0.48551716,0.02194106,0.043
 84047,-0.08040865,0.10625250,-0.25441929,0.36265159,0.00228471,-0.0187
 1690,0.01611120,-0.05534671,0.01701933,-0.01963166,0.06031070,-0.00097
 000,-0.01328762,0.00726281,0.02133920,-0.20426016,0.13518219,-0.015784
 63,0.21766074,0.00253455,0.00156522,-0.00371276,-0.02286124,0.13370868
 ,-0.14554307,0.02380920,-0.15198440,0.14875689,-0.04824129,-0.04529043
 ,0.01310679,-0.28752838,0.05075336,-0.11106217,-0.00136869,-0.00174803
 ,-0.00009965,0.66449709,-0.00342622,0.03932787,-0.01728189,-0.00848269
 ,-0.10954099,0.03133415,0.02356077,-0.00277293,0.01197166,0.10390169,0
 .49931035,-0.01872631,-0.03085187,0.03551713,-0.06586953,0.05039752,-0
 .12358028,-0.01934086,0.00374416,-0.00627105,0.09173339,-0.24478085,0.
 35298058,-0.00461860,0.00053860,-0.00388760,-0.01476693,-0.01972674,0.
 00877736,0.00074491,0.00097990,0.00079736,-0.21661394,-0.13018347,0.04
 173626,0.22635484,-0.00034345,0.00294743,0.00239376,0.00464691,0.00648
 959,0.00012943,0.00022013,-0.00096742,-0.00226801,-0.12880623,-0.15156
 166,0.04556633,0.14177273,0.15496869,-0.00322460,0.00265827,0.00314352
 ,-0.00984034,-0.00772422,0.00744645,0.00136971,-0.00202125,-0.00203889
 ,0.04068295,0.04505482,-0.05881519,-0.04353720,-0.05315869,0.05201963,
 -0.00722720,-0.01679738,0.01215317,0.01549747,0.02468582,-0.01623678,-
 0.00395746,0.00059130,-0.00416903,-0.12289812,0.04072439,-0.05265805,0
 .00607882,-0.01933068,0.01571198,0.69906227,-0.02152248,-0.04483224,0.
 02315583,0.06890183,0.00730740,0.02282865,-0.00070197,0.00370569,0.002
 59967,-0.01125090,-0.22026077,0.12092775,0.00437939,-0.01029268,0.0117
 0564,0.06766152,0.47507650,0.01581649,0.02484081,-0.01915362,-0.050155
 04,0.00863524,-0.01465322,-0.00315692,0.00306068,0.00415488,-0.0123263
 7,0.13814920,-0.16808345,-0.00242116,0.00399343,-0.00073298,0.13709165
 ,-0.25350993,0.35469533,0.02732094,0.07041504,-0.05016086,-0.07367604,
 -0.01259401,-0.01151948,-0.00177960,-0.00081744,0.00004956,0.05121699,
 -0.05159488,0.05613073,0.00226645,0.00146228,-0.00290307,-0.25668348,-
 0.06692710,-0.01117407,0.66497248,0.02392730,0.00918424,0.01318338,-0.
 01534115,-0.00281957,-0.00946958,-0.00068181,0.00068199,-0.00058444,-0
 .00960376,-0.03591677,0.02446225,0.00064607,0.00090545,0.00546169,-0.1
 2359105,-0.16452491,0.03719612,0.09609363,0.48118943,-0.01464230,0.027
 99814,-0.00993103,-0.00929057,-0.00856221,-0.00514240,-0.00010714,-0.0
 0064774,0.00061505,0.02371912,0.01054636,-0.00099941,-0.00227206,0.005
 70897,0.00263284,0.03237950,0.05578100,-0.09567788,0.09117687,-0.21623
 583,0.35342718,-0.10871392,0.00999115,-0.02924839,0.04217283,-0.012876
 14,0.02390214,-0.00136493,-0.00417406,-0.00011297,-0.03061788,0.024152
 05,-0.02658465,-0.00005871,0.00072007,-0.00049973,-0.04594802,-0.04230
 112,0.01466803,-0.26384731,0.03591289,-0.09031474,0.60629141,0.0271021
 7,-0.19848281,0.12526782,-0.03313743,-0.03455658,0.01432634,-0.0053066
 3,0.00103183,0.00434949,0.01965512,-0.02076899,0.01869074,0.00119422,-
 0.00009745,0.00026100,-0.00199270,0.03465469,-0.02090723,-0.02978833,-
 0.09982052,0.01215058,0.10693405,0.48750624,-0.04258613,0.11938949,-0.
 15233951,0.03952817,0.02135394,-0.00554168,0.00075659,0.00467089,0.005
 58289,-0.02327747,0.01998624,-0.02791993,-0.00086303,0.00010415,-0.000
 62610,-0.01587134,-0.03358428,0.02914949,-0.04003643,0.03307195,-0.109
 35871,0.07507765,-0.24091684,0.33713176,0.00884048,0.00477229,0.000736
 29,0.00294574,-0.00021798,-0.00252838,0.00016483,0.00019621,-0.0001468
 5,0.00020529,0.00127080,-0.00050045,-0.00005184,0.00013180,0.00044118,
 -0.00415384,0.00144849,-0.00426756,-0.02110838,-0.02216450,0.00831042,
 -0.19658721,-0.12117226,0.04070705,0.20855665,-0.01208873,-0.01614386,
 0.00477548,-0.00143458,0.00063413,0.00764290,-0.00087064,-0.00061124,0
 .00029372,0.00088388,-0.00084633,-0.00003347,0.00004823,-0.00061022,-0
 .00083646,-0.00010222,0.00291480,0.00201337,0.00253506,0.00282904,0.00
 295347,-0.12677427,-0.14979246,0.04587721,0.13654979,0.16153245,0.0136
 2346,0.01024430,-0.00819282,-0.00162032,0.00803708,0.00459981,0.000669
 19,0.00063466,-0.00012168,-0.00016786,0.00007441,-0.00138259,0.0005032
 4,-0.00081352,-0.00094408,-0.00308452,0.00255206,0.00265312,-0.0105804
 4,-0.00506012,0.00603911,0.04500454,0.04765842,-0.05826332,-0.04486485
 ,-0.06068976,0.05667098,-0.00004391,0.00002727,0.00092295,0.00276291,-
 0.00028011,-0.00119234,-0.00014562,-0.00014189,-0.00014120,-0.00006299
 ,-0.00070118,0.00009492,0.00048246,0.00098472,0.00072752,-0.29221890,0
 .03048997,-0.10883867,-0.01585073,0.00690804,-0.01130055,-0.00130159,-
 0.00469537,0.00119337,-0.00110841,0.00022042,-0.00057872,0.30617314,0.
 00029411,-0.00156070,-0.00095472,-0.00141606,-0.00083810,0.00560687,0.
 00100591,-0.00008675,0.00087470,0.02293659,0.00048200,0.00805846,0.000
 27111,-0.00059261,-0.00258210,0.03159809,-0.05272610,0.02855899,-0.015
 10670,0.00773780,-0.00869489,-0.00363713,-0.00011791,0.00353202,-0.001
 02723,0.00010899,-0.00029917,-0.03624422,0.05220973,0.00070358,-0.0010
 2691,-0.00190676,-0.00030510,0.00597553,0.00240848,-0.00102688,0.00050
 585,-0.00008559,-0.01800120,0.00038834,-0.00480684,0.00128031,-0.00234
 688,-0.00187153,-0.10966809,0.02816177,-0.08590840,0.00552397,-0.00155
 020,0.00573985,0.00041127,0.00319282,0.00372197,0.00038179,0.00010562,
 0.00020015,0.12007914,-0.03505739,0.08744286,-0.00755158,-0.00450304,-
 0.00039709,0.00435425,0.00188846,0.00018457,0.00041536,0.00054093,0.00
 016729,-0.00735398,-0.00009191,-0.00467403,0.00028334,-0.00109485,0.00
 081277,0.00942598,-0.02422305,0.01896392,-0.10635056,0.00100600,-0.021
 23730,-0.00115342,0.04095303,-0.03402888,0.00192693,0.00094119,0.00085
 207,0.00037604,0.00196855,-0.00051087,0.36936230,0.00036399,0.00758345
 ,-0.00232673,-0.00285880,-0.00617407,0.00328807,0.00016789,-0.00093003
 ,-0.00030723,-0.00304455,0.00240842,0.00279825,0.00006665,-0.00137630,
 0.00135445,-0.00264592,-0.02919341,0.02724462,-0.02750778,-0.19014846,
 0.10310550,0.01467255,-0.01657696,0.02326005,-0.00014956,0.00002045,-0
 .00203624,0.00131184,0.00012342,-0.00174664,-0.02417918,0.30902856,-0.
 00418539,-0.00376880,0.00606987,0.00380172,0.00464758,-0.00330339,0.00
 044055,-0.00015000,-0.00106982,-0.00239920,0.00374353,0.00381871,-0.00
 008347,0.00099041,-0.00038964,0.00260157,0.02036483,-0.00721747,0.0004
 0376,0.11264816,-0.12994968,-0.01388437,0.03174448,-0.02119975,0.00170
 633,-0.00171541,-0.00099043,0.00000907,-0.00153705,-0.00155607,0.11717
 736,-0.19204561,0.25486376,0.00028200,-0.00059341,0.00025958,0.0004888
 5,-0.00176446,0.00136455,-0.00005829,-0.00010274,0.00021465,-0.0014788
 6,0.00019352,-0.00087093,-0.00012610,-0.00054616,0.00040424,0.00280689
 ,-0.00628383,0.00596029,-0.00361252,0.01909039,-0.01423156,0.00226878,
 -0.00294747,0.00214991,0.00010070,0.00014421,0.00012324,-0.00038275,-0
 .00053439,0.00061893,-0.19738426,0.01769348,-0.05875321,0.48285824,0.0
 0116075,-0.00019521,0.00108409,0.00025675,0.00068418,0.00001845,0.0000
 8745,-0.00014324,-0.00025009,0.00082376,0.00064919,0.00024141,0.000014
 03,0.00016397,-0.00018814,0.00083831,-0.00167944,0.00115656,0.03268471
 ,-0.01508591,0.01859423,-0.00353174,-0.00183557,0.00224884,0.00041674,
 -0.00002761,-0.00029376,0.00119724,-0.00266958,0.00167434,-0.00462108,
 -0.08063472,0.01410057,0.02994271,0.60538043,-0.00103750,0.00050630,0.
 00001002,-0.00021357,-0.00064667,0.00105078,0.00008133,-0.00031828,-0.
 00024941,-0.00131170,0.00006217,0.00014991,-0.00002349,-0.00037590,0.0
 0018966,0.00038783,-0.00118967,0.00058299,-0.02455710,0.01395174,-0.02
 369650,0.00258601,0.00241548,0.00154483,-0.00010430,-0.00037684,-0.000
 31563,-0.00065933,0.00113059,-0.00209290,-0.04171510,0.02162331,-0.090
 37492,-0.05335964,-0.01342139,0.56721218,-0.00055641,-0.00011394,-0.00
 005684,0.00013544,-0.00001762,0.00007064,0.00005839,0.00001047,0.00001
 890,0.00046859,0.00022826,-0.00009722,-0.00001532,0.00004023,-0.000043
 75,-0.00104578,-0.00067693,0.00011641,-0.00476484,-0.00118131,-0.00092
 890,0.00030956,0.00136884,-0.00103739,-0.00003050,-0.00005344,0.000034
 14,0.00080783,-0.00022032,0.00050575,-0.00395699,0.03426134,-0.0275713
 7,-0.05548773,-0.04440286,0.03263409,0.06562609,0.00015567,-0.00006820
 ,0.00002983,0.00010765,-0.00009673,0.00007395,0.00001355,-0.00003394,0
 .00000962,0.00002192,0.00018238,0.00005407,-0.00001898,-0.00002567,0.0
 0003211,-0.00024678,-0.00007082,0.00010649,0.00068197,0.00260757,-0.00
 118133,-0.00010252,-0.00028579,0.00038411,0.00002198,0.00000618,-0.000
 00595,0.00032177,-0.00007162,-0.00004295,0.00350206,-0.00538972,0.0056
 4033,-0.03420368,-0.23140351,0.12607068,0.03386887,0.24505613,-0.00027
 580,-0.00005463,-0.00012886,-0.00001787,0.00002912,-0.00008555,0.00001
 653,0.00000998,-0.00002673,0.00005075,0.00012263,0.00016513,0.00000111
 ,0.00005245,-0.00001352,-0.00021510,-0.00001850,0.00012192,-0.00233625
 ,-0.00177747,0.00134445,0.00009615,0.00086528,-0.00037713,-0.00002297,
 -0.00003128,0.00000342,0.00008363,-0.00023016,-0.00004866,-0.00402900,
 0.01578821,-0.01306012,0.02484267,0.12272871,-0.13765719,-0.01959211,-
 0.14071313,0.14796223,-0.00018299,-0.00031403,0.00037223,0.00042362,0.
 00037300,-0.00015633,0.00002539,0.00000440,-0.00008292,-0.00025291,0.0
 0030095,-0.00007663,0.00002137,0.00006665,-0.00004381,0.00079747,0.000
 75506,0.00010222,0.00106022,-0.00546343,0.00377336,-0.00084058,0.00109
 921,-0.00046830,0.00017467,-0.00009192,-0.00008456,0.00010903,-0.00001
 846,-0.00008079,-0.02383868,-0.01995139,-0.02833926,-0.06535486,-0.047
 86835,-0.03392001,-0.00027266,-0.00437196,-0.00224644,0.08010520,0.000
 18334,0.00040742,-0.00025796,-0.00046263,-0.00001777,-0.00028695,0.000
 00226,0.00004752,0.00008049,0.00069139,-0.00046637,0.00015820,-0.00000
 519,0.00006053,0.00000885,-0.00135952,-0.00006801,-0.00006427,-0.00006
 255,0.00157160,0.00071407,0.00059741,-0.00042828,-0.00003127,-0.000015
 52,0.00000942,0.00003857,0.00041068,-0.00030157,0.00173276,0.00002834,
 0.01170377,0.00592690,-0.05203123,-0.21207700,-0.11588338,-0.00507723,
 -0.01753881,-0.01466612,0.05877954,0.22120715,-0.00021166,-0.00043649,
 0.00037046,0.00055998,0.00020039,0.00006454,0.00005977,-0.00002586,-0.
 00004080,-0.00009265,0.00056998,-0.00012296,-0.00000277,0.00001195,-0.
 00003726,0.00004098,-0.00025110,-0.00011849,0.00027228,-0.00422180,0.0
 0237861,-0.00062597,0.00088536,-0.00063854,0.00013587,-0.00004100,-0.0
 0002253,0.00052221,0.00039833,-0.00115949,-0.01504846,-0.00563032,-0.0
 1124897,-0.03546088,-0.11153823,-0.13249552,0.00549910,0.01399725,0.01
 273010,0.04909140,0.12436613,0.14190815,-0.00010757,-0.00049531,0.0001
 4718,0.00042478,0.00042200,-0.00016569,0.00001699,0.00007638,0.0000223
 5,0.00002909,0.00014791,-0.00029663,0.00001927,0.00007586,-0.00005784,
 0.00046390,0.00025112,-0.00037922,0.00083638,-0.00555731,0.00496585,-0
 .00060902,0.00073356,-0.00124378,0.00012490,0.00009301,0.00017139,0.00
 040348,0.00013014,0.00008820,-0.03855473,0.01179944,0.00907590,-0.1649
 2011,0.03300159,0.12121250,-0.00127565,0.00024848,0.00364469,0.0080257
 1,-0.00167908,-0.00473920,0.19512257,0.00017402,0.00045672,-0.00024989
 ,-0.00054459,-0.00000481,-0.00009566,-0.00001471,-0.00003445,-0.000059
 08,0.00007619,-0.00022541,0.00056703,0.00002344,-0.00001166,-0.0000259
 6,-0.00003317,-0.00001070,-0.00047408,0.00052608,0.00160901,-0.0022303
 4,0.00041681,-0.00042944,0.00065348,-0.00006103,-0.00002373,-0.0000409
 9,0.00019081,-0.00169701,0.00003394,0.00788457,-0.00044440,-0.00058992
 ,0.03194305,-0.06112598,-0.03354813,-0.01803437,0.00713254,0.01789491,
 0.01670071,-0.00410960,-0.01828460,-0.03924781,0.05891891,-0.00017428,
 -0.00047137,0.00024004,0.00053467,0.00001616,0.00003660,-0.00005060,0.
 00007630,0.00005009,-0.00055473,0.00005924,-0.00064977,-0.00000487,0.0
 0001213,0.00003710,0.00153622,0.00047628,0.00018779,-0.00028948,-0.001
 07585,0.00257851,-0.00047497,0.00001625,-0.00086627,0.00001645,0.00006
 244,0.00006648,-0.00092201,0.00119552,-0.00007707,-0.01651727,0.005630
 31,0.01560793,0.12673814,-0.03615559,-0.18385829,0.01044855,-0.0044550
 9,-0.01092948,0.01215986,-0.00183602,-0.01156729,-0.13244569,0.0364493
 0,0.18914364\\-0.00000507,0.00000791,0.00001285,-0.00000262,0.00000124
 ,0.00000269,-0.00000312,0.00000040,0.00000170,0.00000049,-0.00000440,-
 0.00000637,0.00000232,-0.00000941,-0.00001393,0.00000143,-0.00000386,-
 0.00000588,-0.00000095,0.00000254,0.00000391,-0.00000408,0.00000819,0.
 00001288,-0.00000574,0.00001300,0.00002017,0.00000387,-0.00000830,-0.0
 0001295,-0.00000036,0.00000382,0.00000543,0.00000284,-0.00000174,-0.00
 000345,0.00000279,0.00000027,-0.00000064,0.00001211,-0.00000225,-0.000
 00753,-0.00000391,-0.00000741,-0.00000889\\\@
 The archive entry for this job was punched.


 ERWIN WITH HIS PSI CAN DO
 CALCULATIONS QUITE A FEW.
 BUT ONE THING HAS NOT BEEN SEEN
 JUST WHAT DOES PSI REALLY MEAN.
 -- WALTER HUCKEL, TRANS. BY FELIX BLOCH
 Job cpu time:       0 days  0 hours 28 minutes 26.1 seconds.
 Elapsed time:       0 days  0 hours  0 minutes 56.4 seconds.
 File lengths (MBytes):  RWF=    102 Int=      0 D2E=      0 Chk=     67 Scr=      1
 Normal termination of Gaussian 16 at Mon Jun  2 11:47:14 2025.
