/home/tahminaafroz
cn008.cluster.local
tahminaafroz
Fri May  9 07:57:06 CDT 2025
 Entering Gaussian System, Link 0=g16
 Initial command:
 /home/apps/g16/l1.exe "/tmp/3-OMe-ph-opt-freq-thf/Gau-349570.inp" -scrdir="/tmp/3-OMe-ph-opt-freq-thf/"
 Entering Link 1 = /home/apps/g16/l1.exe PID=    349571.
  
 Copyright (c) 1988-2019, Gaussian, Inc.  All Rights Reserved.
  
 This is part of the Gaussian(R) 16 program.  It is based on
 the Gaussian(R) 09 system (copyright 2009, Gaussian, Inc.),
 the Gaussian(R) 03 system (copyright 2003, Gaussian, Inc.),
 the Gaussian(R) 98 system (copyright 1998, Gaussian, Inc.),
 the Gaussian(R) 94 system (copyright 1995, Gaussian, Inc.),
 the Gaussian 92(TM) system (copyright 1992, Gaussian, Inc.),
 the Gaussian 90(TM) system (copyright 1990, Gaussian, Inc.),
 the Gaussian 88(TM) system (copyright 1988, Gaussian, Inc.),
 the Gaussian 86(TM) system (copyright 1986, Carnegie Mellon
 University), and the Gaussian 82(TM) system (copyright 1983,
 Carnegie Mellon University). Gaussian is a federally registered
 trademark of Gaussian, Inc.
  
 This software contains proprietary and confidential information,
 including trade secrets, belonging to Gaussian, Inc.
  
 This software is provided under written license and may be
 used, copied, transmitted, or stored only in accord with that
 written license.
  
 The following legend is applicable only to US Government
 contracts under FAR:
  
                    RESTRICTED RIGHTS LEGEND
  
 Use, reproduction and disclosure by the US Government is
 subject to restrictions as set forth in subparagraphs (a)
 and (c) of the Commercial Computer Software - Restricted
 Rights clause in FAR 52.227-19.
  
 Gaussian, Inc.
 340 Quinnipiac St., Bldg. 40, Wallingford CT 06492
  
  
 ---------------------------------------------------------------
 Warning -- This program may not be used in any manner that
 competes with the business of Gaussian, Inc. or will provide
 assistance to any competitor of Gaussian, Inc.  The licensee
 of this program is prohibited from giving any competitor of
 Gaussian, Inc. access to this program.  By using this program,
 the user acknowledges that Gaussian, Inc. is engaged in the
 business of creating and licensing software in the field of
 computational chemistry and represents and warrants to the
 licensee that it is not a competitor of Gaussian, Inc. and that
 it will not use this program in any manner prohibited above.
 ---------------------------------------------------------------
  

 Cite this work as:
 Gaussian 16, Revision C.01,
 M. J. Frisch, G. W. Trucks, H. B. Schlegel, G. E. Scuseria, 
 M. A. Robb, J. R. Cheeseman, G. Scalmani, V. Barone, 
 G. A. Petersson, H. Nakatsuji, X. Li, M. Caricato, A. V. Marenich, 
 J. Bloino, B. G. Janesko, R. Gomperts, B. Mennucci, H. P. Hratchian, 
 J. V. Ortiz, A. F. Izmaylov, J. L. Sonnenberg, D. Williams-Young, 
 F. Ding, F. Lipparini, F. Egidi, J. Goings, B. Peng, A. Petrone, 
 T. Henderson, D. Ranasinghe, V. G. Zakrzewski, J. Gao, N. Rega, 
 G. Zheng, W. Liang, M. Hada, M. Ehara, K. Toyota, R. Fukuda, 
 J. Hasegawa, M. Ishida, T. Nakajima, Y. Honda, O. Kitao, H. Nakai, 
 T. Vreven, K. Throssell, J. A. Montgomery, Jr., J. E. Peralta, 
 F. Ogliaro, M. J. Bearpark, J. J. Heyd, E. N. Brothers, K. N. Kudin, 
 V. N. Staroverov, T. A. Keith, R. Kobayashi, J. Normand, 
 K. Raghavachari, A. P. Rendell, J. C. Burant, S. S. Iyengar, 
 J. Tomasi, M. Cossi, J. M. Millam, M. Klene, C. Adamo, R. Cammi, 
 J. W. Ochterski, R. L. Martin, K. Morokuma, O. Farkas, 
 J. B. Foresman, and D. J. Fox, Gaussian, Inc., Wallingford CT, 2019.
 
 ******************************************
 Gaussian 16:  AS64L-G16RevC.01  3-Jul-2019
                 9-May-2025 
 ******************************************
 %mem=20GB
 %nprocshared=32
 Will use up to   32 processors via shared memory.
 %chk=3-OMe-ph-opt-freq-thf.chk
 ----------------------------------------------------------------------
 # opt=(calcfc,tight) freq 6-311+g(d,p) scrf=(smd,solvent=thf) nosymm s
 cf=(qc,fermi,xqc) geom=connectivity int=ultrafine m062x
 ----------------------------------------------------------------------
 1/7=10,10=4,18=20,19=15,26=6,38=1,57=2/1,3;
 2/9=110,12=2,15=1,17=6,18=5,40=1/2;
 3/5=4,6=6,7=111,11=2,25=1,30=1,70=32201,71=2,72=20,74=-55,75=-5,140=1/1,2,3;
 4//1;
 5/5=2,22=13,38=5,53=20/2;
 8/6=4,10=90,11=11/1;
 11/6=1,8=1,9=11,15=111,16=1,31=1/1,2,10;
 10/6=1,13=1,31=1/2;
 6/7=2,8=2,9=2,10=2,28=1/1;
 7/10=1,25=1,30=1/1,2,3,16;
 1/7=10,10=4,18=20,19=15,26=6/3(2);
 2/9=110,15=1/2;
 99//99;
 2/9=110,15=1/2;
 3/5=4,6=6,7=111,11=2,25=1,30=1,70=32205,71=1,72=20,74=-55,75=-5/1,2,3;
 4/5=5,16=3,69=1/1;
 5/5=2,22=13,38=5,53=20/2;
 7/30=1/1,2,3,16;
 1/7=10,18=20,19=15,26=6/3(-5);
 2/9=110,15=1/2;
 6/7=2,8=2,9=2,10=2,19=2,28=1/1;
 99/9=1/99;
 ---------------------
 3-OMe-ph-opt-freq-thf
 ---------------------
 Symbolic Z-matrix:
 Charge =  0 Multiplicity = 2
 C                     6.24287   6.88602   5.23619 
 C                     5.16141   6.04165   5.53364 
 H                     5.27466   5.20629   6.21834 
 C                     3.919     6.26686   4.95956 
 H                     3.08546   5.6139    5.19268 
 C                     3.71892   7.3307    4.07911 
 C                     4.78673   8.17694   3.77832 
 C                     6.03721   7.94997   4.36057 
 H                     6.85051   8.62329   4.11223 
 H                     2.74061   7.48539   3.64336 
 O                     4.7044    9.23822   2.9385 
 C                     3.45086   9.50172   2.32792 
 H                     3.59939   10.38037   1.70341 
 H                     3.1316    8.66246   1.70307 
 H                     2.68353   9.71539   3.07767 
 

 GradGradGradGradGradGradGradGradGradGradGradGradGradGradGradGradGradGrad
 Berny optimization.
 Initialization pass.
                           ----------------------------
                           !    Initial Parameters    !
                           ! (Angstroms and Degrees)  !
 --------------------------                            --------------------------
 ! Name  Definition              Value          Derivative Info.                !
 --------------------------------------------------------------------------------
 ! R1    R(1,2)                  1.4039         calculate D2E/DX2 analytically  !
 ! R2    R(1,8)                  1.3932         calculate D2E/DX2 analytically  !
 ! R3    R(2,3)                  1.086          calculate D2E/DX2 analytically  !
 ! R4    R(2,4)                  1.387          calculate D2E/DX2 analytically  !
 ! R5    R(4,5)                  1.0842         calculate D2E/DX2 analytically  !
 ! R6    R(4,6)                  1.3953         calculate D2E/DX2 analytically  !
 ! R7    R(6,7)                  1.3953         calculate D2E/DX2 analytically  !
 ! R8    R(6,10)                 1.0821         calculate D2E/DX2 analytically  !
 ! R9    R(7,8)                  1.3979         calculate D2E/DX2 analytically  !
 ! R10   R(7,11)                 1.3559         calculate D2E/DX2 analytically  !
 ! R11   R(8,9)                  1.0847         calculate D2E/DX2 analytically  !
 ! R12   R(11,12)                1.419          calculate D2E/DX2 analytically  !
 ! R13   R(12,13)                1.0882         calculate D2E/DX2 analytically  !
 ! R14   R(12,14)                1.094          calculate D2E/DX2 analytically  !
 ! R15   R(12,15)                1.0939         calculate D2E/DX2 analytically  !
 ! A1    A(2,1,8)              118.604          calculate D2E/DX2 analytically  !
 ! A2    A(1,2,3)              121.0551         calculate D2E/DX2 analytically  !
 ! A3    A(1,2,4)              120.308          calculate D2E/DX2 analytically  !
 ! A4    A(3,2,4)              118.6358         calculate D2E/DX2 analytically  !
 ! A5    A(2,4,5)              120.1233         calculate D2E/DX2 analytically  !
 ! A6    A(2,4,6)              120.8903         calculate D2E/DX2 analytically  !
 ! A7    A(5,4,6)              118.9863         calculate D2E/DX2 analytically  !
 ! A8    A(4,6,7)              119.2548         calculate D2E/DX2 analytically  !
 ! A9    A(4,6,10)             119.5206         calculate D2E/DX2 analytically  !
 ! A10   A(7,6,10)             121.2246         calculate D2E/DX2 analytically  !
 ! A11   A(6,7,8)              119.7566         calculate D2E/DX2 analytically  !
 ! A12   A(6,7,11)             124.1789         calculate D2E/DX2 analytically  !
 ! A13   A(8,7,11)             116.0645         calculate D2E/DX2 analytically  !
 ! A14   A(1,8,7)              121.1854         calculate D2E/DX2 analytically  !
 ! A15   A(1,8,9)              120.4824         calculate D2E/DX2 analytically  !
 ! A16   A(7,8,9)              118.332          calculate D2E/DX2 analytically  !
 ! A17   A(7,11,12)            117.7428         calculate D2E/DX2 analytically  !
 ! A18   A(11,12,13)           106.0401         calculate D2E/DX2 analytically  !
 ! A19   A(11,12,14)           111.1693         calculate D2E/DX2 analytically  !
 ! A20   A(11,12,15)           111.1636         calculate D2E/DX2 analytically  !
 ! A21   A(13,12,14)           109.359          calculate D2E/DX2 analytically  !
 ! A22   A(13,12,15)           109.3533         calculate D2E/DX2 analytically  !
 ! A23   A(14,12,15)           109.6713         calculate D2E/DX2 analytically  !
 ! D1    D(8,1,2,3)           -179.4017         calculate D2E/DX2 analytically  !
 ! D2    D(8,1,2,4)              0.2173         calculate D2E/DX2 analytically  !
 ! D3    D(2,1,8,7)             -0.3748         calculate D2E/DX2 analytically  !
 ! D4    D(2,1,8,9)            179.786          calculate D2E/DX2 analytically  !
 ! D5    D(1,2,4,5)           -179.8967         calculate D2E/DX2 analytically  !
 ! D6    D(1,2,4,6)              0.0251         calculate D2E/DX2 analytically  !
 ! D7    D(3,2,4,5)             -0.2685         calculate D2E/DX2 analytically  !
 ! D8    D(3,2,4,6)            179.6533         calculate D2E/DX2 analytically  !
 ! D9    D(2,4,6,7)             -0.1155         calculate D2E/DX2 analytically  !
 ! D10   D(2,4,6,10)           179.9497         calculate D2E/DX2 analytically  !
 ! D11   D(5,4,6,7)            179.8072         calculate D2E/DX2 analytically  !
 ! D12   D(5,4,6,10)            -0.1277         calculate D2E/DX2 analytically  !
 ! D13   D(4,6,7,8)             -0.039          calculate D2E/DX2 analytically  !
 ! D14   D(4,6,7,11)          -179.9869         calculate D2E/DX2 analytically  !
 ! D15   D(10,6,7,8)           179.8947         calculate D2E/DX2 analytically  !
 ! D16   D(10,6,7,11)           -0.0532         calculate D2E/DX2 analytically  !
 ! D17   D(6,7,8,1)              0.2885         calculate D2E/DX2 analytically  !
 ! D18   D(6,7,8,9)           -179.869          calculate D2E/DX2 analytically  !
 ! D19   D(11,7,8,1)          -179.7595         calculate D2E/DX2 analytically  !
 ! D20   D(11,7,8,9)             0.083          calculate D2E/DX2 analytically  !
 ! D21   D(6,7,11,12)           -0.0275         calculate D2E/DX2 analytically  !
 ! D22   D(8,7,11,12)         -179.9771         calculate D2E/DX2 analytically  !
 ! D23   D(7,11,12,13)         179.9948         calculate D2E/DX2 analytically  !
 ! D24   D(7,11,12,14)         -61.2406         calculate D2E/DX2 analytically  !
 ! D25   D(7,11,12,15)          61.2402         calculate D2E/DX2 analytically  !
 --------------------------------------------------------------------------------
 Trust Radius=3.00D-01 FncErr=5.00D-06 GrdErr=5.00D-06 EigMax=2.50D+02 EigMin=1.00D-04
 Number of steps in this run=     73 maximum allowed number of steps=    100.
 GradGradGradGradGradGradGradGradGradGradGradGradGradGradGradGradGradGrad

                          Input orientation:                          
 ---------------------------------------------------------------------
 Center     Atomic      Atomic             Coordinates (Angstroms)
 Number     Number       Type             X           Y           Z
 ---------------------------------------------------------------------
      1          6           0        6.242866    6.886021    5.236193
      2          6           0        5.161410    6.041652    5.533641
      3          1           0        5.274664    5.206294    6.218337
      4          6           0        3.918997    6.266864    4.959561
      5          1           0        3.085459    5.613900    5.192677
      6          6           0        3.718916    7.330699    4.079108
      7          6           0        4.786732    8.176938    3.778319
      8          6           0        6.037209    7.949969    4.360568
      9          1           0        6.850514    8.623291    4.112230
     10          1           0        2.740614    7.485389    3.643356
     11          8           0        4.704399    9.238222    2.938501
     12          6           0        3.450861    9.501722    2.327923
     13          1           0        3.599387   10.380369    1.703407
     14          1           0        3.131597    8.662459    1.703066
     15          1           0        2.683529    9.715385    3.077668
 ---------------------------------------------------------------------
                    Distance matrix (angstroms):
                    1          2          3          4          5
     1  C    0.000000
     2  C    1.403916   0.000000
     3  H    2.173363   1.086029   0.000000
     4  C    2.420795   1.387039   2.132407   0.000000
     5  H    3.404321   2.146812   2.451681   1.084200   0.000000
     6  C    2.811922   2.420351   3.392602   1.395340   2.142126
     7  C    2.431499   2.789442   3.875112   2.407629   3.385838
     8  C    1.393198   2.405161   3.400078   2.771003   3.855185
     9  H    2.156533   3.396813   4.312176   3.855452   4.939579
    10  H    3.893859   3.393790   4.271558   2.146109   2.453932
    11  O    3.630306   4.142665   5.228668   3.678384   4.564864
    12  C    4.805748   5.017439   6.075548   4.196305   4.843087
    13  H    5.628412   5.994587   7.068394   5.256007   5.929448
    14  H    5.031770   5.065775   6.076634   4.118693   4.633921
    15  H    5.033231   5.066361   6.075334   4.118276   4.632169
                    6          7          8          9         10
     6  C    0.000000
     7  C    1.395287   0.000000
     8  C    2.416029   1.397935   0.000000
     9  H    3.388037   2.137738   1.084666   0.000000
    10  H    1.082074   2.164036   3.405549   4.290215   0.000000
    11  O    2.431215   1.355875   2.336290   2.522219   2.725013
    12  C    2.802114   2.375553   3.637139   3.938659   2.510062
    13  H    3.867652   3.251178   4.348600   4.411301   3.589123
    14  H    2.786414   2.698495   4.001567   4.431247   2.302843
    15  H    2.785971   2.698369   4.001212   4.430209   2.301335
                   11         12         13         14         15
    11  O    0.000000
    12  C    1.419012   0.000000
    13  H    2.012712   1.088164   0.000000
    14  H    2.081228   1.093955   1.780461   0.000000
    15  H    2.081098   1.093877   1.780335   1.788561   0.000000
 Symmetry turned off by external request.
 Stoichiometry    C7H7O(2)
 Framework group  C1[X(C7H7O)]
 Deg. of freedom    39
 Full point group                 C1      NOp   1
 Rotational constants (GHZ):           5.2225175           1.6079660           1.2391543
 Standard basis: 6-311+G(d,p) (5D, 7F)
   218 basis functions,   344 primitive gaussians,   226 cartesian basis functions
    29 alpha electrons       28 beta electrons
       nuclear repulsion energy       335.2645201679 Hartrees.
 NAtoms=   15 NActive=   15 NUniq=   15 SFac= 1.00D+00 NAtFMM=   60 NAOKFM=F Big=F
 Integral buffers will be    131072 words long.
 Raffenetti 2 integral format.
 Two-electron integral symmetry is turned off.
 Force inversion solution in PCM.
 ------------------------------------------------------------------------------
 Polarizable Continuum Model (PCM)
 =================================
 Model                : PCM.
 Atomic radii         : SMD-Coulomb.
 Polarization charges : Total charges.
 Charge compensation  : None.
 Solution method      : Matrix inversion.
 Cavity type          : VdW (van der Waals Surface) (Alpha=1.000).
 Cavity algorithm     : GePol (No added spheres)
                        Default sphere list used, NSphG=   15.
                        Lebedev-Laikov grids with approx.  5.0 points / Ang**2.
                        Smoothing algorithm: York/Karplus (Gamma=1.0000).
                        Polarization charges: spherical gaussians, with
                                              point-specific exponents (IZeta= 3).
                        Self-potential: point-specific (ISelfS= 7).
                        Self-field    : sphere-specific E.n sum rule (ISelfD= 2).
 1st derivatives      : Analytical E(r).r(x)/FMM algorithm (CHGder, D1EAlg=3).
                        Cavity 1st derivative terms included.
 2nd derivatives      : Analytical E(r).r(xy)/FMM algorithm (CHGder, D2EAlg=3).
                        Cavity 2nd derivative terms included.
 Solvent              : TetraHydroFuran, Eps=   7.425700 Eps(inf)=   1.974025
 ------------------------------------------------------------------------------
 Spheres list:
 ISph  on   Nord     Re0    Alpha      Xe            Ye            Ze
    1   C      1    1.8500  1.000      6.242866      6.886021      5.236193
    2   C      2    1.8500  1.000      5.161410      6.041652      5.533641
    3   H      3    1.2000  1.000      5.274664      5.206294      6.218337
    4   C      4    1.8500  1.000      3.918997      6.266864      4.959561
    5   H      5    1.2000  1.000      3.085459      5.613900      5.192677
    6   C      6    1.8500  1.000      3.718916      7.330699      4.079108
    7   C      7    1.8500  1.000      4.786732      8.176938      3.778319
    8   C      8    1.8500  1.000      6.037209      7.949969      4.360568
    9   H      9    1.2000  1.000      6.850514      8.623291      4.112230
   10   H     10    1.2000  1.000      2.740614      7.485389      3.643356
   11   O     11    2.2940  1.000      4.704399      9.238222      2.938501
   12   C     12    1.8500  1.000      3.450861      9.501722      2.327923
   13   H     13    1.2000  1.000      3.599387     10.380369      1.703407
   14   H     14    1.2000  1.000      3.131597      8.662459      1.703066
   15   H     15    1.2000  1.000      2.683529      9.715385      3.077668
 ------------------------------------------------------------------------------
 ------------------------------------------------------------------------------
 Atomic radii for non-electrostatic terms: SMD-CDS.
 ------------------------------------------------------------------------------
 Nuclear repulsion after PCM non-electrostatic terms =      335.2623699584 Hartrees.
 One-electron integrals computed using PRISM.
 NBasis=   218 RedAO= T EigKep=  3.01D-06  NBF=   218
 NBsUse=   218 1.00D-06 EigRej= -1.00D+00 NBFU=   218
 ExpMin= 4.38D-02 ExpMax= 8.59D+03 ExpMxC= 1.30D+03 IAcc=3 IRadAn=         5 AccDes= 0.00D+00
 Harris functional with IExCor= 1009 and IRadAn=       5 diagonalized for initial guess.
 HarFok:  IExCor= 1009 AccDes= 0.00D+00 IRadAn=         5 IDoV= 1 UseB2=F ITyADJ=14
 ICtDFT=  3500011 ScaDFX=  1.000000  1.000000  1.000000  1.000000
 FoFCou: FMM=F IPFlag=           0 FMFlag=      100000 FMFlg1=           0
         NFxFlg=           0 DoJE=T BraDBF=F KetDBF=T FulRan=T
         wScrn=  0.000000 ICntrl=       500 IOpCl=  0 I1Cent=   200000004 NGrid=           0
         NMat0=    1 NMatS0=      1 NMatT0=    0 NMatD0=    1 NMtDS0=    0 NMtDT0=    0
 Symmetry not used in FoFCou.
 Initial guess <Sx>= 0.0000 <Sy>= 0.0000 <Sz>= 0.5000 <S**2>= 0.7500 S= 0.5000
 Requested convergence on RMS density matrix=1.00D-08 within 128 cycles.
 Requested convergence on MAX density matrix=1.00D-06.
 Requested convergence on             energy=1.00D-06.
 Level shift goal  0.100 maximum shift  0.100.
 No special actions if energy rises.
 Dynamic level shift is on during FON iterations.
 Inv3:  Mode=1 IEnd=     4907523.
 Iteration    1 A*A^-1 deviation from unit magnitude is 3.44D-15 for   1277.
 Iteration    1 A*A^-1 deviation from orthogonality  is 1.84D-15 for    698     80.
 Iteration    1 A^-1*A deviation from unit magnitude is 3.66D-15 for   1277.
 Iteration    1 A^-1*A deviation from orthogonality  is 1.81D-15 for    836    213.
 Error on total polarization charges =  0.03493
 SCF Done:  E(UM062X) =  -346.030600721     A.U. after   17 cycles
            NFock= 17  Conv=0.23D-08     -V/T= 2.0041
 <Sx>= 0.0000 <Sy>= 0.0000 <Sz>= 0.5000 <S**2>= 0.7630 S= 0.5065
 <L.S>=  0.00000000000    
 SMD-CDS (non-electrostatic) energy       (kcal/mol) =      -1.35
 (included in total energy above)
 Annihilation of the first spin contaminant:
 S**2 before annihilation     0.7630,   after     0.7501
 DoSCS=F DFT=T ScalE2(SS,OS)=  1.000000  1.000000
 Range of M.O.s used for correlation:     1   218
 NBasis=   218 NAE=    29 NBE=    28 NFC=     0 NFV=     0
 NROrb=    218 NOA=    29 NOB=    28 NVA=   189 NVB=   190

 **** Warning!!: The largest alpha MO coefficient is  0.17819988D+03


 **** Warning!!: The largest beta MO coefficient is  0.16046865D+03

 Symmetrizing basis deriv contribution to polar:
 IMax=3 JMax=2 DiffMx= 0.00D+00
 G2DrvN: will do    16 centers at a time, making    1 passes.
 Calling FoFCou, ICntrl=  3107 FMM=F I1Cent=   0 AccDes= 0.00D+00.
 NEqPCM:  Using equilibrium solvation (IEInf=0, Eps=   7.4257, EpsInf=   1.9740)
 G2PCM: DoFxE=T DoFxN=T DoGrad=T DoDP/DQ/DG/TGxP=FFFF NFrqRd=   0 IEInf=0 SqF1=F DoCFld=F IF1Alg=4.
 End of G2Drv F.D. properties file   721 does not exist.
 End of G2Drv F.D. properties file   722 does not exist.
 End of G2Drv F.D. properties file   788 does not exist.
          IDoAtm=111111111111111
 NEqPCM:  Using equilibrium solvation (IEInf=0, Eps=   7.4257, EpsInf=   1.9740)
          Differentiating once with respect to nuclear coordinates.
 Keep R1 and R2 ints in memory in canonical form, NReq=603546516.
          There are    48 degrees of freedom in the 1st order CPHF.  IDoFFX=6 NUNeed=     0.
     42 vectors produced by pass  0 Test12= 2.25D-14 2.08D-09 XBig12= 2.48D-01 1.11D-01.
 AX will form    42 AO Fock derivatives at one time.
     42 vectors produced by pass  1 Test12= 2.25D-14 2.08D-09 XBig12= 2.75D-02 4.89D-02.
     42 vectors produced by pass  2 Test12= 2.25D-14 2.08D-09 XBig12= 6.81D-04 5.92D-03.
     42 vectors produced by pass  3 Test12= 2.25D-14 2.08D-09 XBig12= 1.38D-05 1.20D-03.
     42 vectors produced by pass  4 Test12= 2.25D-14 2.08D-09 XBig12= 1.93D-07 1.07D-04.
     42 vectors produced by pass  5 Test12= 2.25D-14 2.08D-09 XBig12= 2.07D-09 7.09D-06.
     40 vectors produced by pass  6 Test12= 2.25D-14 2.08D-09 XBig12= 1.41D-11 4.12D-07.
     23 vectors produced by pass  7 Test12= 2.25D-14 2.08D-09 XBig12= 7.57D-14 2.27D-08.
 InvSVY:  IOpt=1 It=  1 EMax= 1.55D-15
 Solved reduced A of dimension   315 with    42 vectors.
 End of Minotr F.D. properties file   721 does not exist.
 End of Minotr F.D. properties file   722 does not exist.
 End of Minotr F.D. properties file   788 does not exist.

 **********************************************************************

            Population analysis using the SCF Density.

 **********************************************************************

 Alpha  occ. eigenvalues --  -19.65659 -10.61371 -10.58253 -10.58235 -10.55253
 Alpha  occ. eigenvalues --  -10.54842 -10.54644 -10.54392  -1.19744  -0.96730
 Alpha  occ. eigenvalues --   -0.86140  -0.84704  -0.78870  -0.69726  -0.67085
 Alpha  occ. eigenvalues --   -0.60957  -0.56150  -0.55947  -0.54921  -0.50402
 Alpha  occ. eigenvalues --   -0.48518  -0.46650  -0.45604  -0.43354  -0.40414
 Alpha  occ. eigenvalues --   -0.39789  -0.32699  -0.32149  -0.28370
 Alpha virt. eigenvalues --    0.00980   0.01886   0.02628   0.03063   0.03465
 Alpha virt. eigenvalues --    0.05063   0.05154   0.05422   0.06276   0.07991
 Alpha virt. eigenvalues --    0.08289   0.08700   0.09615   0.10583   0.11959
 Alpha virt. eigenvalues --    0.12988   0.13696   0.14259   0.15300   0.15591
 Alpha virt. eigenvalues --    0.15639   0.16926   0.17538   0.18798   0.19717
 Alpha virt. eigenvalues --    0.20476   0.21281   0.21310   0.23106   0.23320
 Alpha virt. eigenvalues --    0.23764   0.24377   0.24460   0.24518   0.25850
 Alpha virt. eigenvalues --    0.26243   0.27421   0.27861   0.28830   0.28992
 Alpha virt. eigenvalues --    0.31848   0.33881   0.34833   0.35726   0.38185
 Alpha virt. eigenvalues --    0.40165   0.41184   0.42256   0.46658   0.48932
 Alpha virt. eigenvalues --    0.51658   0.54914   0.55609   0.57607   0.58199
 Alpha virt. eigenvalues --    0.59855   0.60042   0.60614   0.61863   0.64506
 Alpha virt. eigenvalues --    0.64622   0.65790   0.65927   0.67836   0.68266
 Alpha virt. eigenvalues --    0.71597   0.71898   0.72707   0.74837   0.77069
 Alpha virt. eigenvalues --    0.78904   0.80389   0.81491   0.82583   0.86325
 Alpha virt. eigenvalues --    0.88389   0.89110   0.90874   0.91319   0.94484
 Alpha virt. eigenvalues --    0.97132   1.00121   1.03644   1.03999   1.04636
 Alpha virt. eigenvalues --    1.05427   1.07715   1.12265   1.14833   1.15036
 Alpha virt. eigenvalues --    1.18668   1.22263   1.24064   1.32450   1.33660
 Alpha virt. eigenvalues --    1.38077   1.45856   1.49857   1.50824   1.52062
 Alpha virt. eigenvalues --    1.55401   1.58336   1.60615   1.61423   1.61620
 Alpha virt. eigenvalues --    1.64590   1.67331   1.68714   1.72391   1.73688
 Alpha virt. eigenvalues --    1.73746   1.76097   1.77818   1.79775   1.81990
 Alpha virt. eigenvalues --    1.83508   1.90716   1.92306   1.93852   1.95505
 Alpha virt. eigenvalues --    1.98197   2.00236   2.00410   2.02105   2.04413
 Alpha virt. eigenvalues --    2.07570   2.08809   2.12206   2.15224   2.21046
 Alpha virt. eigenvalues --    2.24993   2.26865   2.35381   2.38764   2.45231
 Alpha virt. eigenvalues --    2.47185   2.49292   2.53105   2.53165   2.55233
 Alpha virt. eigenvalues --    2.55482   2.61738   2.68303   2.70082   2.70343
 Alpha virt. eigenvalues --    2.73277   2.75662   2.77130   2.78830   2.81296
 Alpha virt. eigenvalues --    2.81918   2.83519   2.86408   2.92987   2.93730
 Alpha virt. eigenvalues --    2.94443   3.06846   3.12138   3.12537   3.14107
 Alpha virt. eigenvalues --    3.17383   3.21529   3.31411   3.37065   3.42365
 Alpha virt. eigenvalues --    3.46417   3.54849   3.62271   3.66843   3.78582
 Alpha virt. eigenvalues --    3.83369   3.88905   4.05109   4.13571   4.15301
 Alpha virt. eigenvalues --    4.18029   4.26324   4.83680   5.14133   5.51247
 Alpha virt. eigenvalues --    5.87526  23.62460  23.97415  24.00189  24.00793
 Alpha virt. eigenvalues --   24.13467  24.15290  24.23813  50.07567
  Beta  occ. eigenvalues --  -19.65644 -10.61287 -10.58233 -10.57198 -10.55176
  Beta  occ. eigenvalues --  -10.54845 -10.54637 -10.54424  -1.19669  -0.95971
  Beta  occ. eigenvalues --   -0.85841  -0.83310  -0.78679  -0.69000  -0.65899
  Beta  occ. eigenvalues --   -0.60109  -0.55799  -0.55410  -0.54864  -0.49814
  Beta  occ. eigenvalues --   -0.47993  -0.45265  -0.45194  -0.42831  -0.39975
  Beta  occ. eigenvalues --   -0.39341  -0.31019  -0.28379
  Beta virt. eigenvalues --   -0.06480   0.01659   0.01888   0.03074   0.03300
  Beta virt. eigenvalues --    0.03606   0.05079   0.05230   0.05702   0.06615
  Beta virt. eigenvalues --    0.07959   0.08610   0.09140   0.09542   0.10801
  Beta virt. eigenvalues --    0.11967   0.12689   0.13689   0.14478   0.15301
  Beta virt. eigenvalues --    0.15520   0.15550   0.17015   0.17710   0.18816
  Beta virt. eigenvalues --    0.19663   0.20677   0.21212   0.21931   0.22981
  Beta virt. eigenvalues --    0.23456   0.24012   0.24367   0.24643   0.24948
  Beta virt. eigenvalues --    0.26014   0.26280   0.27259   0.27528   0.28887
  Beta virt. eigenvalues --    0.29079   0.32167   0.33994   0.34907   0.35844
  Beta virt. eigenvalues --    0.38915   0.40412   0.41158   0.43251   0.46658
  Beta virt. eigenvalues --    0.47986   0.50376   0.53904   0.55777   0.57613
  Beta virt. eigenvalues --    0.57893   0.59285   0.60038   0.60143   0.61897
  Beta virt. eigenvalues --    0.64350   0.64697   0.65966   0.65991   0.67822
  Beta virt. eigenvalues --    0.68341   0.71657   0.71960   0.73152   0.74783
  Beta virt. eigenvalues --    0.77062   0.78847   0.80177   0.81535   0.82959
  Beta virt. eigenvalues --    0.85402   0.88399   0.89137   0.90449   0.91487
  Beta virt. eigenvalues --    0.94242   0.97102   1.00713   1.03825   1.04133
  Beta virt. eigenvalues --    1.05039   1.05382   1.07878   1.12429   1.14857
  Beta virt. eigenvalues --    1.15386   1.19222   1.21802   1.25682   1.32501
  Beta virt. eigenvalues --    1.33931   1.38512   1.45701   1.49860   1.51106
  Beta virt. eigenvalues --    1.54019   1.55959   1.58423   1.60753   1.61704
  Beta virt. eigenvalues --    1.61845   1.64782   1.68124   1.68980   1.72594
  Beta virt. eigenvalues --    1.73709   1.73758   1.76256   1.78105   1.79811
  Beta virt. eigenvalues --    1.82728   1.83675   1.91357   1.92327   1.94272
  Beta virt. eigenvalues --    1.95758   1.98300   2.00326   2.00449   2.02602
  Beta virt. eigenvalues --    2.04785   2.07732   2.08963   2.12256   2.15256
  Beta virt. eigenvalues --    2.21121   2.25201   2.27424   2.35644   2.39389
  Beta virt. eigenvalues --    2.45362   2.47331   2.49319   2.53170   2.53764
  Beta virt. eigenvalues --    2.55242   2.55468   2.61758   2.68513   2.70249
  Beta virt. eigenvalues --    2.70386   2.73491   2.75697   2.77397   2.79260
  Beta virt. eigenvalues --    2.81641   2.81970   2.83755   2.86508   2.92806
  Beta virt. eigenvalues --    2.93789   2.94500   3.08891   3.12184   3.12623
  Beta virt. eigenvalues --    3.14139   3.17619   3.21969   3.31468   3.37444
  Beta virt. eigenvalues --    3.42686   3.46629   3.54958   3.62945   3.66833
  Beta virt. eigenvalues --    3.79119   3.83375   3.88932   4.05193   4.13543
  Beta virt. eigenvalues --    4.15350   4.18342   4.26369   4.83948   5.14183
  Beta virt. eigenvalues --    5.51264   5.87564  23.62724  23.97951  24.00203
  Beta virt. eigenvalues --   24.00861  24.13596  24.15372  24.23876  50.07560
          Condensed to atoms (all electrons):
               1          2          3          4          5          6
     1  C    5.315346   0.319754   0.022235   0.337362  -0.003550  -0.377731
     2  C    0.319754   5.533578   0.358837   0.204080  -0.000532   0.316657
     3  H    0.022235   0.358837   0.461422   0.007182  -0.005589  -0.032249
     4  C    0.337362   0.204080   0.007182   6.585837   0.351025  -0.416005
     5  H   -0.003550  -0.000532  -0.005589   0.351025   0.454097   0.009592
     6  C   -0.377731   0.316657  -0.032249  -0.416005   0.009592   8.023167
     7  C    0.316213  -0.524773   0.022505  -0.222216   0.013619  -0.686285
     8  C   -0.124046   0.171897  -0.033062  -0.342191  -0.014829  -1.669593
     9  H    0.028159  -0.015423  -0.000050   0.000929   0.000039  -0.026104
    10  H    0.015123  -0.024167  -0.000150   0.011821  -0.004505   0.423391
    11  O    0.013936  -0.004239   0.000177   0.040634  -0.000403   0.078032
    12  C   -0.007349   0.007615   0.000159  -0.183194   0.002044  -0.116575
    13  H   -0.000223  -0.000573   0.000000   0.010990  -0.000003   0.006245
    14  H    0.000689   0.000159   0.000000  -0.007145   0.000022   0.010362
    15  H    0.000782   0.000074   0.000000  -0.007649   0.000022   0.009170
               7          8          9         10         11         12
     1  C    0.316213  -0.124046   0.028159   0.015123   0.013936  -0.007349
     2  C   -0.524773   0.171897  -0.015423  -0.024167  -0.004239   0.007615
     3  H    0.022505  -0.033062  -0.000050  -0.000150   0.000177   0.000159
     4  C   -0.222216  -0.342191   0.000929   0.011821   0.040634  -0.183194
     5  H    0.013619  -0.014829   0.000039  -0.004505  -0.000403   0.002044
     6  C   -0.686285  -1.669593  -0.026104   0.423391   0.078032  -0.116575
     7  C    7.693052  -0.697774   0.044295   0.017662   0.345929   0.039166
     8  C   -0.697774   9.363823   0.316948  -0.077696  -0.553881   0.037354
     9  H    0.044295   0.316948   0.454047   0.000000  -0.003624   0.001762
    10  H    0.017662  -0.077696   0.000000   0.454600  -0.014194   0.000679
    11  O    0.345929  -0.553881  -0.003624  -0.014194   8.258888   0.128368
    12  C    0.039166   0.037354   0.001762   0.000679   0.128368   5.201934
    13  H    0.018394  -0.008965  -0.000019   0.000574  -0.058549   0.407111
    14  H   -0.017848   0.004091   0.000039  -0.000977  -0.034555   0.415853
    15  H   -0.017081   0.004871   0.000039  -0.000938  -0.034574   0.416048
              13         14         15
     1  C   -0.000223   0.000689   0.000782
     2  C   -0.000573   0.000159   0.000074
     3  H    0.000000   0.000000   0.000000
     4  C    0.010990  -0.007145  -0.007649
     5  H   -0.000003   0.000022   0.000022
     6  C    0.006245   0.010362   0.009170
     7  C    0.018394  -0.017848  -0.017081
     8  C   -0.008965   0.004091   0.004871
     9  H   -0.000019   0.000039   0.000039
    10  H    0.000574  -0.000977  -0.000938
    11  O   -0.058549  -0.034555  -0.034574
    12  C    0.407111   0.415853   0.416048
    13  H    0.471415  -0.021292  -0.021310
    14  H   -0.021292   0.511576  -0.044305
    15  H   -0.021310  -0.044305   0.511748
          Atomic-Atomic Spin Densities.
               1          2          3          4          5          6
     1  C    1.133332  -0.232762   0.013942   0.199584   0.006415  -0.224132
     2  C   -0.232762   0.346431  -0.013971  -0.278990  -0.009416   0.269576
     3  H    0.013942  -0.013971   0.020711   0.012784   0.001183  -0.017021
     4  C    0.199584  -0.278990   0.012784   0.363524   0.010985  -0.288492
     5  H    0.006415  -0.009416   0.001183   0.010985   0.006310  -0.010141
     6  C   -0.224132   0.269576  -0.017021  -0.288492  -0.010141   0.241027
     7  C    0.049225  -0.092382   0.002212   0.101450   0.002317  -0.117578
     8  C   -0.101571   0.120002  -0.006416  -0.098444  -0.001750   0.110031
     9  H    0.004535  -0.017167   0.000111   0.010478   0.000016  -0.012811
    10  H   -0.000311  -0.000734  -0.000019  -0.002796  -0.000544   0.005712
    11  O    0.009533  -0.007990   0.000051   0.008207   0.000073  -0.010924
    12  C   -0.018792   0.018304  -0.000186  -0.026736  -0.000201   0.030378
    13  H    0.000327  -0.000275   0.000000   0.000575   0.000000  -0.000896
    14  H   -0.000024   0.000008   0.000000   0.000035   0.000002   0.000110
    15  H   -0.000019   0.000011   0.000000  -0.000011   0.000002   0.000036
               7          8          9         10         11         12
     1  C    0.049225  -0.101571   0.004535  -0.000311   0.009533  -0.018792
     2  C   -0.092382   0.120002  -0.017167  -0.000734  -0.007990   0.018304
     3  H    0.002212  -0.006416   0.000111  -0.000019   0.000051  -0.000186
     4  C    0.101450  -0.098444   0.010478  -0.002796   0.008207  -0.026736
     5  H    0.002317  -0.001750   0.000016  -0.000544   0.000073  -0.000201
     6  C   -0.117578   0.110031  -0.012811   0.005712  -0.010924   0.030378
     7  C    0.160238  -0.055710  -0.006350  -0.000239  -0.007399  -0.027753
     8  C   -0.055710   0.031892   0.012440  -0.001336  -0.007752   0.019560
     9  H   -0.006350   0.012440   0.023269  -0.000016   0.003358  -0.001536
    10  H   -0.000239  -0.001336  -0.000016   0.004918  -0.000833  -0.000031
    11  O   -0.007399  -0.007752   0.003358  -0.000833   0.016803  -0.001532
    12  C   -0.027753   0.019560  -0.001536  -0.000031  -0.001532   0.012175
    13  H    0.002024  -0.001037   0.000022  -0.000004  -0.000245  -0.000690
    14  H   -0.000157   0.000274   0.000000   0.000001   0.000039  -0.000292
    15  H   -0.000136   0.000357   0.000000  -0.000002   0.000051  -0.000289
              13         14         15
     1  C    0.000327  -0.000024  -0.000019
     2  C   -0.000275   0.000008   0.000011
     3  H    0.000000   0.000000   0.000000
     4  C    0.000575   0.000035  -0.000011
     5  H    0.000000   0.000002   0.000002
     6  C   -0.000896   0.000110   0.000036
     7  C    0.002024  -0.000157  -0.000136
     8  C   -0.001037   0.000274   0.000357
     9  H    0.000022   0.000000   0.000000
    10  H   -0.000004   0.000001  -0.000002
    11  O   -0.000245   0.000039   0.000051
    12  C   -0.000690  -0.000292  -0.000289
    13  H    0.000246   0.000048   0.000049
    14  H    0.000048   0.000102  -0.000130
    15  H    0.000049  -0.000130   0.000095
 Mulliken charges and spin densities:
               1          2
     1  C    0.143300   0.839283
     2  C   -0.342944   0.100644
     3  H    0.198582   0.013382
     4  C   -0.371460   0.012151
     5  H    0.198950   0.005252
     6  C    0.447924  -0.025126
     7  C   -0.344859   0.009762
     8  C   -0.376949   0.020539
     9  H    0.198962   0.016350
    10  H    0.198778   0.003765
    11  O   -0.161946   0.001441
    12  C   -0.350977   0.002380
    13  H    0.196203   0.000146
    14  H    0.183331   0.000017
    15  H    0.183102   0.000015
 Sum of Mulliken charges =   0.00000   1.00000
 Mulliken charges and spin densities with hydrogens summed into heavy atoms:
               1          2
     1  C    0.143300   0.839283
     2  C   -0.144361   0.114026
     4  C   -0.172510   0.017403
     6  C    0.646702  -0.021361
     7  C   -0.344859   0.009762
     8  C   -0.177986   0.036889
    11  O   -0.161946   0.001441
    12  C    0.211659   0.002557
 APT charges:
               1
     1  C    1.453581
     2  C   -1.220379
     3  H    0.219994
     4  C   -0.088617
     5  H   -0.646950
     6  C   -0.844417
     7  C   -1.064169
     8  C    0.593900
     9  H    1.787498
    10  H   -0.364585
    11  O   -0.202764
    12  C   -0.336394
    13  H    1.418874
    14  H   -1.082357
    15  H    0.376785
 Sum of APT charges =   0.00000
 APT charges with hydrogens summed into heavy atoms:
               1
     1  C    1.453581
     2  C   -1.000385
     4  C   -0.735566
     6  C   -1.209002
     7  C   -1.064169
     8  C    2.381397
    11  O   -0.202764
    12  C    0.376908
 Electronic spatial extent (au):  <R**2>=          20966.1591
 Charge=              0.0000 electrons
 Dipole moment (field-independent basis, Debye):
    X=             -2.8847    Y=              0.1633    Z=             -1.0469  Tot=              3.0731
 Quadrupole moment (field-independent basis, Debye-Ang):
   XX=            -70.4601   YY=            -43.0814   ZZ=            -55.5156
   XY=            -21.8077   XZ=            -13.8876   YZ=            -11.9698
 Traceless Quadrupole moment (field-independent basis, Debye-Ang):
   XX=            -14.1077   YY=             13.2710   ZZ=              0.8368
   XY=            -21.8077   XZ=            -13.8876   YZ=            -11.9698
 Octapole moment (field-independent basis, Debye-Ang**2):
  XXX=           -808.0325  YYY=          -1024.4477  ZZZ=           -641.2321  XYY=           -387.8619
  XXY=           -537.0116  XXZ=           -290.9507  XZZ=           -292.6098  YZZ=           -461.3402
  YYZ=           -307.0633  XYZ=           -120.3441
 Hexadecapole moment (field-independent basis, Debye-Ang**3):
 XXXX=          -7409.9722 YYYY=         -16425.0506 ZZZZ=          -5609.4148 XXXY=          -6093.5030
 XXXZ=          -3401.6391 YYYX=          -6356.7538 YYYZ=          -5288.7347 ZZZX=          -3226.6722
 ZZZY=          -4977.3540 XXYY=          -5318.6774 XXZZ=          -2430.0938 YYZZ=          -4687.0821
 XXYZ=          -2202.5673 YYXZ=          -1954.8507 ZZXY=          -2361.3745
 N-N= 3.352623699584D+02 E-N=-1.476095024937D+03  KE= 3.446119765303D+02
  Exact polarizability:       0.000       0.000       0.000       0.000       0.000       0.000
 Approx polarizability:     112.431       5.698     103.758      10.580     -26.792      90.189
                          Isotropic Fermi Contact Couplings
        Atom                 a.u.       MegaHertz       Gauss      10(-4) cm-1
     1  C(13)              0.53974     606.77567     216.51265     202.39858
     2  C(13)              0.02090      23.49059       8.38203       7.83562
     3  H(1)               0.00872      38.97999      13.90903      13.00233
     4  C(13)              0.04370      49.12420      17.52874      16.38607
     5  H(1)               0.00271      12.10508       4.31939       4.03782
     6  C(13)             -0.00888      -9.98586      -3.56320      -3.33092
     7  C(13)              0.04895      55.02839      19.63550      18.35550
     8  C(13)              0.02302      25.88011       9.23467       8.63267
     9  H(1)               0.01086      48.54648      17.32259      16.19336
    10  H(1)               0.00110       4.93731       1.76175       1.64691
    11  O(17)              0.00956      -5.79245      -2.06689      -1.93215
    12  C(13)              0.00132       1.48903       0.53132       0.49669
    13  H(1)               0.00007       0.29242       0.10434       0.09754
    14  H(1)              -0.00004      -0.16763      -0.05981      -0.05591
    15  H(1)              -0.00004      -0.16784      -0.05989      -0.05598
 --------------------------------------------------------
       Center         ----  Spin Dipole Couplings  ----
                      3XX-RR        3YY-RR        3ZZ-RR
 --------------------------------------------------------
     1   Atom        0.648425     -0.449330     -0.199095
     2   Atom        0.087862     -0.021934     -0.065928
     3   Atom       -0.000087      0.007013     -0.006925
     4   Atom        0.039790     -0.028731     -0.011059
     5   Atom        0.006290     -0.001560     -0.004729
     6   Atom        0.025233     -0.004505     -0.020728
     7   Atom        0.034346     -0.025651     -0.008695
     8   Atom        0.003390      0.013898     -0.017288
     9   Atom       -0.010772      0.011287     -0.000515
    10   Atom        0.000715      0.000124     -0.000839
    11   Atom       -0.008987      0.001162      0.007825
    12   Atom        0.002444     -0.001777     -0.000667
    13   Atom       -0.000208      0.000121      0.000087
    14   Atom        0.000402     -0.000769      0.000366
    15   Atom        0.001024     -0.000463     -0.000561
 --------------------------------------------------------
                        XY            XZ            YZ
 --------------------------------------------------------
     1   Atom       -0.214519      0.494476     -0.005345
     2   Atom        0.063406      0.011637     -0.040590
     3   Atom        0.014618     -0.007130     -0.010676
     4   Atom       -0.009203      0.023122      0.011744
     5   Atom        0.005915     -0.000892     -0.000747
     6   Atom        0.009203      0.018119     -0.033495
     7   Atom       -0.011991      0.023562      0.007960
     8   Atom       -0.016609      0.048288     -0.096804
     9   Atom        0.003776     -0.002189     -0.017082
    10   Atom        0.000473      0.000638     -0.001782
    11   Atom       -0.011729      0.003598      0.001117
    12   Atom       -0.002286      0.003661     -0.001977
    13   Atom       -0.000714      0.000814     -0.001112
    14   Atom       -0.000520      0.001616     -0.000413
    15   Atom       -0.001313      0.000813     -0.000566
 --------------------------------------------------------


 ---------------------------------------------------------------------------------
              Anisotropic Spin Dipole Couplings in Principal Axis System
 ---------------------------------------------------------------------------------

       Atom             a.u.   MegaHertz   Gauss  10(-4) cm-1        Axes

              Baa    -0.5401   -72.475   -25.861   -24.175  0.3492  0.7963 -0.4939
     1 C(13)  Bbb    -0.3646   -48.926   -17.458   -16.320 -0.2512  0.5874  0.7694
              Bcc     0.9047   121.401    43.319    40.495  0.9028 -0.1446  0.4051
 
              Baa    -0.1009   -13.546    -4.834    -4.519 -0.2460  0.5918  0.7676
     2 C(13)  Bbb    -0.0161    -2.162    -0.772    -0.721 -0.3466  0.6859 -0.6398
              Bcc     0.1171    15.709     5.605     5.240  0.9052  0.4235 -0.0364
 
              Baa    -0.0129    -6.880    -2.455    -2.295 -0.2598  0.5976  0.7585
     3 H(1)   Bbb    -0.0109    -5.838    -2.083    -1.947  0.7852 -0.3265  0.5262
              Bcc     0.0238    12.718     4.538     4.242  0.5621  0.7323 -0.3844
 
              Baa    -0.0394    -5.291    -1.888    -1.765  0.2504  0.8053 -0.5374
     4 C(13)  Bbb    -0.0096    -1.282    -0.457    -0.428 -0.2497  0.5900  0.7678
              Bcc     0.0490     6.573     2.345     2.193  0.9354 -0.0581  0.3488
 
              Baa    -0.0050    -2.677    -0.955    -0.893 -0.2500  0.5932  0.7653
     5 H(1)   Bbb    -0.0045    -2.421    -0.864    -0.808 -0.4087  0.6518 -0.6388
              Bcc     0.0096     5.098     1.819     1.700  0.8777  0.4725 -0.0795
 
              Baa    -0.0522    -7.008    -2.501    -2.338 -0.2498  0.5881  0.7692
     6 C(13)  Bbb     0.0204     2.735     0.976     0.912  0.3448  0.7964 -0.4969
              Bcc     0.0318     4.273     1.525     1.425  0.9048 -0.1411  0.4018
 
              Baa    -0.0354    -4.751    -1.695    -1.585  0.3108  0.8004 -0.5127
     7 C(13)  Bbb    -0.0102    -1.369    -0.489    -0.457 -0.2482  0.5890  0.7691
              Bcc     0.0456     6.120     2.184     2.042  0.9175 -0.1117  0.3817
 
              Baa    -0.1065   -14.288    -5.098    -4.766 -0.2504  0.5855  0.7710
     8 C(13)  Bbb    -0.0078    -1.048    -0.374    -0.350  0.8916  0.4498 -0.0521
              Bcc     0.1143    15.337     5.472     5.116 -0.3773  0.6744 -0.6347
 
              Baa    -0.0128    -6.828    -2.436    -2.278 -0.2617  0.5853  0.7674
     9 H(1)   Bbb    -0.0112    -5.978    -2.133    -1.994  0.9572  0.0552  0.2843
              Bcc     0.0240    12.806     4.570     4.272  0.1240  0.8089 -0.5747
 
              Baa    -0.0024    -1.283    -0.458    -0.428 -0.2467  0.5886  0.7698
    10 H(1)   Bbb     0.0009     0.489     0.175     0.163  0.9689  0.1662  0.1833
              Bcc     0.0015     0.794     0.283     0.265 -0.0200  0.7911 -0.6113
 
              Baa    -0.0172     1.246     0.445     0.416  0.8303  0.5386 -0.1433
    11 O(17)  Bbb     0.0075    -0.546    -0.195    -0.182 -0.2401  0.5777  0.7802
              Bcc     0.0097    -0.700    -0.250    -0.233 -0.5030  0.6134 -0.6090
 
              Baa    -0.0034    -0.454    -0.162    -0.151 -0.2527  0.5874  0.7688
    12 C(13)  Bbb    -0.0026    -0.354    -0.126    -0.118  0.5862  0.7251 -0.3613
              Bcc     0.0060     0.808     0.288     0.270  0.7697 -0.3594  0.5276
 
              Baa    -0.0010    -0.549    -0.196    -0.183 -0.2517  0.5875  0.7691
    13 H(1)   Bbb    -0.0008    -0.410    -0.146    -0.137  0.8435  0.5228 -0.1233
              Bcc     0.0018     0.959     0.342     0.320  0.4745 -0.6177  0.6272
 
              Baa    -0.0012    -0.665    -0.237    -0.222  0.7172  0.2049 -0.6660
    14 H(1)   Bbb    -0.0009    -0.482    -0.172    -0.161  0.0071  0.9536  0.3010
              Bcc     0.0021     1.147     0.409     0.383  0.6968 -0.2206  0.6825
 
              Baa    -0.0012    -0.665    -0.237    -0.222  0.4314  0.8769  0.2121
    15 H(1)   Bbb    -0.0009    -0.482    -0.172    -0.161 -0.4021 -0.0236  0.9153
              Bcc     0.0021     1.147     0.409     0.382  0.8076 -0.4801  0.3425
 

 ---------------------------------------------------------------------------------

 D2PCM: PCM CHGder 2nd derivatives, FixD1E=F FixD2E=F DoIter=F DoCFld=F I1PDM=0
 Calling FoFJK, ICntrl=    100127 FMM=F ISym2X=0 I1Cent= 0 IOpClX= 1 NMat=1 NMatS=1 NMatT=0.
 -------------------------------------------------------------------
 Center     Atomic                   Forces (Hartrees/Bohr)
 Number     Number              X              Y              Z
 -------------------------------------------------------------------
      1        6          -0.047170728    0.008449238   -0.021156838
      2        6           0.022761981   -0.007756450    0.013694543
      3        1           0.001150248    0.000457380   -0.000338883
      4        6           0.000614879    0.007355155   -0.005459054
      5        1           0.001246748   -0.000703871    0.000905447
      6        6          -0.000801111   -0.000420266   -0.000020350
      7        6          -0.005643051   -0.002214008   -0.000061275
      8        6           0.025717253   -0.005738429    0.012181087
      9        1          -0.000125701    0.001572925   -0.001308432
     10        1           0.000290096    0.000060446    0.000077995
     11        8           0.002402652   -0.000896880    0.001509077
     12        6          -0.000890985   -0.000129476   -0.000189124
     13        1           0.000168078   -0.000053335    0.000086279
     14        1           0.000127393    0.000036362    0.000082172
     15        1           0.000152247   -0.000018791   -0.000002644
 -------------------------------------------------------------------
 Cartesian Forces:  Max     0.047170728 RMS     0.009992243
 FormGI is forming the generalized inverse of G from B-inverse, IUseBI=4.

 GradGradGradGradGradGradGradGradGradGradGradGradGradGradGradGradGradGrad
 Berny optimization.
 Internal  Forces:  Max     0.028525592 RMS     0.005944363
 Search for a local minimum.
 Step number   1 out of a maximum of   73
 All quantities printed in internal units (Hartrees-Bohrs-Radians)
 Mixed Optimization -- RFO/linear search
 Second derivative matrix not updated -- analytic derivatives used.
 ITU=  0
     Eigenvalues ---    0.00390   0.01535   0.01816   0.02005   0.02074
     Eigenvalues ---    0.02395   0.02482   0.02670   0.03045   0.03338
     Eigenvalues ---    0.08621   0.08690   0.10576   0.10831   0.11437
     Eigenvalues ---    0.12080   0.13314   0.17160   0.18680   0.18757
     Eigenvalues ---    0.18830   0.19642   0.21814   0.26227   0.33042
     Eigenvalues ---    0.33701   0.33892   0.35206   0.35620   0.36242
     Eigenvalues ---    0.36354   0.36712   0.37949   0.39207   0.41545
     Eigenvalues ---    0.44799   0.47314   0.50287   0.57182
 RFO step:  Lambda=-9.10261973D-03 EMin= 3.90266062D-03
 Linear search not attempted -- first point.
 Iteration  1 RMS(Cart)=  0.02412347 RMS(Int)=  0.00107505
 Iteration  2 RMS(Cart)=  0.00163740 RMS(Int)=  0.00037678
 Iteration  3 RMS(Cart)=  0.00000087 RMS(Int)=  0.00037678
 Variable       Old X    -DE/DX   Delta X   Delta X   Delta X     New X
                                 (Linear)    (Quad)   (Total)
    R1        2.65302  -0.01909   0.00000  -0.05322  -0.05260   2.60042
    R2        2.63276  -0.01917   0.00000  -0.05241  -0.05180   2.58096
    R3        2.05230  -0.00045   0.00000  -0.00541  -0.00541   2.04688
    R4        2.62112   0.00209   0.00000   0.01301   0.01301   2.63413
    R5        2.04884  -0.00034   0.00000   0.00078   0.00078   2.04962
    R6        2.63681   0.00229   0.00000   0.00026  -0.00033   2.63648
    R7        2.63671   0.00213   0.00000   0.00430   0.00370   2.64041
    R8        2.04482  -0.00028   0.00000  -0.00094  -0.00094   2.04388
    R9        2.64171   0.00174   0.00000   0.01357   0.01356   2.65528
   R10        2.56223  -0.00187   0.00000  -0.00619  -0.00619   2.55604
   R11        2.04972   0.00118   0.00000  -0.00045  -0.00045   2.04927
   R12        2.68154   0.00037   0.00000   0.00293   0.00293   2.68447
   R13        2.05633  -0.00007   0.00000  -0.00028  -0.00028   2.05605
   R14        2.06728  -0.00012   0.00000  -0.00067  -0.00067   2.06661
   R15        2.06713  -0.00011   0.00000  -0.00063  -0.00063   2.06650
    A1        2.07003   0.02853   0.00000   0.12715   0.12875   2.19878
    A2        2.11281   0.00649   0.00000   0.03012   0.02985   2.14266
    A3        2.09977  -0.01538   0.00000  -0.07782  -0.07729   2.02248
    A4        2.07059   0.00889   0.00000   0.04773   0.04746   2.11805
    A5        2.09655  -0.00210   0.00000  -0.00953  -0.00919   2.08736
    A6        2.10993   0.00080   0.00000   0.00888   0.00821   2.11814
    A7        2.07670   0.00130   0.00000   0.00064   0.00098   2.07769
    A8        2.08139   0.00054   0.00000   0.01273   0.01144   2.09283
    A9        2.08603  -0.00015   0.00000  -0.00557  -0.00492   2.08110
   A10        2.11577  -0.00038   0.00000  -0.00716  -0.00652   2.10925
   A11        2.09015  -0.00093   0.00000   0.00115   0.00046   2.09060
   A12        2.16733   0.00264   0.00000   0.00275   0.00310   2.17043
   A13        2.02571  -0.00171   0.00000  -0.00390  -0.00355   2.02215
   A14        2.11508  -0.01355   0.00000  -0.07207  -0.07155   2.04354
   A15        2.10281   0.00849   0.00000   0.04795   0.04769   2.15051
   A16        2.06528   0.00506   0.00000   0.02412   0.02386   2.08914
   A17        2.05500  -0.00058   0.00000   0.00129   0.00129   2.05629
   A18        1.85075  -0.00025   0.00000  -0.00120  -0.00120   1.84955
   A19        1.94027  -0.00009   0.00000  -0.00147  -0.00147   1.93880
   A20        1.94017  -0.00008   0.00000  -0.00153  -0.00153   1.93864
   A21        1.90867   0.00014   0.00000   0.00122   0.00122   1.90989
   A22        1.90858   0.00013   0.00000   0.00119   0.00118   1.90976
   A23        1.91413   0.00014   0.00000   0.00178   0.00178   1.91591
    D1       -3.13115  -0.00020   0.00000  -0.00714  -0.00723  -3.13838
    D2        0.00379  -0.00004   0.00000  -0.00260  -0.00267   0.00112
    D3       -0.00654   0.00012   0.00000   0.00517   0.00521  -0.00133
    D4        3.13786   0.00001   0.00000   0.00197   0.00208   3.13994
    D5       -3.13979  -0.00003   0.00000  -0.00135  -0.00140  -3.14119
    D6        0.00044   0.00000   0.00000  -0.00058  -0.00070  -0.00027
    D7       -0.00469   0.00012   0.00000   0.00304   0.00303  -0.00166
    D8        3.13554   0.00015   0.00000   0.00381   0.00373   3.13927
    D9       -0.00202   0.00008   0.00000   0.00176   0.00174  -0.00027
   D10        3.14071   0.00003   0.00000   0.00118   0.00125  -3.14122
   D11        3.13823   0.00010   0.00000   0.00251   0.00243   3.14066
   D12       -0.00223   0.00005   0.00000   0.00193   0.00194  -0.00029
   D13       -0.00068  -0.00002   0.00000   0.00061   0.00074   0.00006
   D14       -3.14136  -0.00004   0.00000   0.00001   0.00014  -3.14122
   D15        3.13976   0.00003   0.00000   0.00121   0.00124   3.14100
   D16       -0.00093   0.00001   0.00000   0.00060   0.00065  -0.00028
   D17        0.00503  -0.00016   0.00000  -0.00452  -0.00435   0.00068
   D18       -3.13931  -0.00005   0.00000  -0.00135  -0.00129  -3.14060
   D19       -3.13740  -0.00014   0.00000  -0.00396  -0.00380  -3.14120
   D20        0.00145  -0.00003   0.00000  -0.00079  -0.00074   0.00071
   D21       -0.00048   0.00003   0.00000   0.00107   0.00107   0.00059
   D22       -3.14119   0.00001   0.00000   0.00049   0.00049  -3.14070
   D23        3.14150   0.00000   0.00000  -0.00042  -0.00042   3.14108
   D24       -1.06885  -0.00003   0.00000  -0.00047  -0.00047  -1.06932
   D25        1.06884   0.00003   0.00000  -0.00030  -0.00030   1.06854
         Item               Value     Threshold  Converged?
 Maximum Force            0.028526     0.000015     NO 
 RMS     Force            0.005944     0.000010     NO 
 Maximum Displacement     0.147207     0.000060     NO 
 RMS     Displacement     0.024005     0.000040     NO 
 Predicted change in Energy=-4.733823D-03
 GradGradGradGradGradGradGradGradGradGradGradGradGradGradGradGradGradGrad

                          Input orientation:                          
 ---------------------------------------------------------------------
 Center     Atomic      Atomic             Coordinates (Angstroms)
 Number     Number       Type             X           Y           Z
 ---------------------------------------------------------------------
      1          6           0        6.164967    6.897686    5.206722
      2          6           0        5.158381    6.024190    5.549342
      3          1           0        5.306885    5.198128    6.234039
      4          6           0        3.917768    6.264592    4.961035
      5          1           0        3.081353    5.612920    5.189325
      6          6           0        3.725670    7.330199    4.081224
      7          6           0        4.790377    8.181709    3.775244
      8          6           0        6.050523    7.959967    4.355937
      9          1           0        6.875677    8.622231    4.118228
     10          1           0        2.748357    7.485197    3.644601
     11          8           0        4.705078    9.239588    2.936708
     12          6           0        3.449221    9.502733    2.327139
     13          1           0        3.597751   10.381256    1.702711
     14          1           0        3.130925    8.662715    1.703424
     15          1           0        2.684222    9.716062    3.078877
 ---------------------------------------------------------------------
                    Distance matrix (angstroms):
                    1          2          3          4          5
     1  C    0.000000
     2  C    1.376081   0.000000
     3  H    2.163373   1.083163   0.000000
     4  C    2.347567   1.393922   2.165070   0.000000
     5  H    3.340599   2.147743   2.493286   1.084612   0.000000
     6  C    2.721026   2.431808   3.417686   1.395166   2.142914
     7  C    2.363756   2.817399   3.900540   2.417206   3.393975
     8  C    1.365787   2.442819   3.421698   2.790893   3.875453
     9  H    2.159626   3.427391   4.319982   3.875308   4.959849
    10  H    3.802448   3.401586   4.299062   2.142521   2.449995
    11  O    3.573338   4.167748   5.250520   3.683525   4.567656
    12  C    4.738518   5.040246   6.102820   4.200298   4.843354
    13  H    5.568119   6.017986   7.093581   5.259849   5.929601
    14  H    4.959217   5.085615   6.104477   4.120940   4.631977
    15  H    4.958483   5.084740   6.102880   4.120292   4.631142
                    6          7          8          9         10
     6  C    0.000000
     7  C    1.397245   0.000000
     8  C    2.424255   1.405113   0.000000
     9  H    3.404887   2.158744   1.084426   0.000000
    10  H    1.081575   2.161490   3.411114   4.307196   0.000000
    11  O    2.432061   1.352600   2.337062   2.547276   2.721720
    12  C    2.805912   2.375039   3.641829   3.965336   2.509456
    13  H    3.870741   3.248962   4.349521   4.435503   3.588811
    14  H    2.789848   2.697700   4.006711   4.456017   2.302407
    15  H    2.789563   2.697231   4.005838   4.454774   2.302373
                   11         12         13         14         15
    11  O    0.000000
    12  C    1.420563   0.000000
    13  H    2.013039   1.088014   0.000000
    14  H    2.081281   1.093601   1.780818   0.000000
    15  H    2.081129   1.093546   1.780688   1.789122   0.000000
 Symmetry turned off by external request.
 Stoichiometry    C7H7O(2)
 Framework group  C1[X(C7H7O)]
 Deg. of freedom    39
 Full point group                 C1      NOp   1
 Rotational constants (GHZ):           5.2816812           1.6107437           1.2441193
 Standard basis: 6-311+G(d,p) (5D, 7F)
   218 basis functions,   344 primitive gaussians,   226 cartesian basis functions
    29 alpha electrons       28 beta electrons
       nuclear repulsion energy       336.0762791457 Hartrees.
 NAtoms=   15 NActive=   15 NUniq=   15 SFac= 1.00D+00 NAtFMM=   60 NAOKFM=F Big=F
 Integral buffers will be    131072 words long.
 Raffenetti 2 integral format.
 Two-electron integral symmetry is turned off.
 ------------------------------------------------------------------------------
 Polarizable Continuum Model (PCM)
 =================================
 Model                : PCM.
 Atomic radii         : SMD-Coulomb.
 Polarization charges : Total charges.
 Charge compensation  : None.
 Solution method      : Matrix inversion.
 Cavity type          : VdW (van der Waals Surface) (Alpha=1.000).
 Cavity algorithm     : GePol (No added spheres)
                        Default sphere list used, NSphG=   15.
                        Lebedev-Laikov grids with approx.  5.0 points / Ang**2.
                        Smoothing algorithm: York/Karplus (Gamma=1.0000).
                        Polarization charges: spherical gaussians, with
                                              point-specific exponents (IZeta= 3).
                        Self-potential: point-specific (ISelfS= 7).
                        Self-field    : sphere-specific E.n sum rule (ISelfD= 2).
 1st derivatives      : Analytical E(r).r(x)/FMM algorithm (CHGder, D1EAlg=3).
                        Cavity 1st derivative terms included.
 Solvent              : TetraHydroFuran, Eps=   7.425700 Eps(inf)=   1.974025
 ------------------------------------------------------------------------------
 Spheres list:
 ISph  on   Nord     Re0    Alpha      Xe            Ye            Ze
    1   C      1    1.8500  1.000      6.164967      6.897686      5.206722
    2   C      2    1.8500  1.000      5.158381      6.024190      5.549342
    3   H      3    1.2000  1.000      5.306885      5.198128      6.234039
    4   C      4    1.8500  1.000      3.917768      6.264592      4.961035
    5   H      5    1.2000  1.000      3.081353      5.612920      5.189325
    6   C      6    1.8500  1.000      3.725670      7.330199      4.081224
    7   C      7    1.8500  1.000      4.790377      8.181709      3.775244
    8   C      8    1.8500  1.000      6.050523      7.959967      4.355937
    9   H      9    1.2000  1.000      6.875677      8.622231      4.118228
   10   H     10    1.2000  1.000      2.748357      7.485197      3.644601
   11   O     11    2.2940  1.000      4.705078      9.239588      2.936708
   12   C     12    1.8500  1.000      3.449221      9.502733      2.327139
   13   H     13    1.2000  1.000      3.597751     10.381256      1.702711
   14   H     14    1.2000  1.000      3.130925      8.662715      1.703424
   15   H     15    1.2000  1.000      2.684222      9.716062      3.078877
 ------------------------------------------------------------------------------
 ------------------------------------------------------------------------------
 Atomic radii for non-electrostatic terms: SMD-CDS.
 ------------------------------------------------------------------------------
 Nuclear repulsion after PCM non-electrostatic terms =      336.0740554399 Hartrees.
 One-electron integrals computed using PRISM.
 NBasis=   218 RedAO= T EigKep=  3.17D-06  NBF=   218
 NBsUse=   218 1.00D-06 EigRej= -1.00D+00 NBFU=   218
 Initial guess from the checkpoint file:  "3-OMe-ph-opt-freq-thf.chk"
 B after Tr=    -0.016640    0.010814   -0.013482
         Rot=    1.000000   -0.000024    0.000528    0.000509 Ang=  -0.08 deg.
 Initial guess <Sx>= 0.0000 <Sy>= 0.0000 <Sz>= 0.5000 <S**2>= 0.7626 S= 0.5063
 ExpMin= 4.38D-02 ExpMax= 8.59D+03 ExpMxC= 1.30D+03 IAcc=3 IRadAn=         5 AccDes= 0.00D+00
 Harris functional with IExCor= 1009 and IRadAn=       5 diagonalized for initial guess.
 HarFok:  IExCor= 1009 AccDes= 0.00D+00 IRadAn=         5 IDoV= 1 UseB2=F ITyADJ=14
 ICtDFT=  3500011 ScaDFX=  1.000000  1.000000  1.000000  1.000000
 FoFCou: FMM=F IPFlag=           0 FMFlag=      100000 FMFlg1=           0
         NFxFlg=           0 DoJE=T BraDBF=F KetDBF=T FulRan=T
         wScrn=  0.000000 ICntrl=       500 IOpCl=  0 I1Cent=   200000004 NGrid=           0
         NMat0=    1 NMatS0=      1 NMatT0=    0 NMatD0=    1 NMtDS0=    0 NMtDT0=    0
 Symmetry not used in FoFCou.
 Requested convergence on RMS density matrix=1.00D-08 within 128 cycles.
 Requested convergence on MAX density matrix=1.00D-06.
 Requested convergence on             energy=1.00D-06.
 Level shift goal  0.100 maximum shift  0.100.
 No special actions if energy rises.
 Dynamic level shift is on during FON iterations.
 Inv3:  Mode=1 IEnd=     4922883.
 Iteration    1 A*A^-1 deviation from unit magnitude is 4.88D-15 for   1277.
 Iteration    1 A*A^-1 deviation from orthogonality  is 1.94D-15 for    494    245.
 Iteration    1 A^-1*A deviation from unit magnitude is 5.11D-15 for   1277.
 Iteration    1 A^-1*A deviation from orthogonality  is 1.85D-15 for    823    781.
 Error on total polarization charges =  0.03502
 SCF Done:  E(UM062X) =  -346.035331895     A.U. after   15 cycles
            NFock= 15  Conv=0.50D-08     -V/T= 2.0038
 <Sx>= 0.0000 <Sy>= 0.0000 <Sz>= 0.5000 <S**2>= 0.7614 S= 0.5057
 <L.S>=  0.00000000000    
 SMD-CDS (non-electrostatic) energy       (kcal/mol) =      -1.40
 (included in total energy above)
 Annihilation of the first spin contaminant:
 S**2 before annihilation     0.7614,   after     0.7501
 D1PCM: PCM CHGder 1st derivatives, ID1Alg=3 FixD1E=F DoIter=F DoCFld=F I1PDM=0.
 Calling FoFJK, ICntrl=      2127 FMM=F ISym2X=0 I1Cent= 0 IOpClX= 1 NMat=1 NMatS=1 NMatT=0.
 -------------------------------------------------------------------
 Center     Atomic                   Forces (Hartrees/Bohr)
 Number     Number              X              Y              Z
 -------------------------------------------------------------------
      1        6          -0.001179043    0.000199591   -0.000419657
      2        6           0.000479503   -0.001843683    0.001682533
      3        1           0.000037184   -0.000154264    0.000035573
      4        6          -0.000593874    0.000129180   -0.000266171
      5        1          -0.000032017   -0.000053738    0.000031388
      6        6          -0.000371044    0.000010217   -0.000167256
      7        6          -0.000366030    0.000369066   -0.000375958
      8        6           0.002083989    0.001107603   -0.000264974
      9        1          -0.000034312    0.000236763   -0.000238359
     10        1           0.000012467    0.000011473    0.000011010
     11        8           0.000011423    0.000005105   -0.000003822
     12        6          -0.000072205    0.000004835   -0.000025086
     13        1           0.000004850   -0.000005742   -0.000005840
     14        1           0.000008300   -0.000010938    0.000002018
     15        1           0.000010811   -0.000005469    0.000004601
 -------------------------------------------------------------------
 Cartesian Forces:  Max     0.002083989 RMS     0.000574957

 GradGradGradGradGradGradGradGradGradGradGradGradGradGradGradGradGradGrad
 Berny optimization.
 Using GEDIIS/GDIIS optimizer.
 FormGI is forming the generalized inverse of G from B-inverse, IUseBI=4.
 Internal  Forces:  Max     0.001512932 RMS     0.000425649
 Search for a local minimum.
 Step number   2 out of a maximum of   73
 All quantities printed in internal units (Hartrees-Bohrs-Radians)
 Mixed Optimization -- En-DIIS/RFO-DIIS
 Update second derivatives using D2CorX and points    1    2
 DE= -4.73D-03 DEPred=-4.73D-03 R= 9.99D-01
 TightC=F SS=  1.41D+00  RLast= 2.00D-01 DXNew= 5.0454D-01 6.0083D-01
 Trust test= 9.99D-01 RLast= 2.00D-01 DXMaxT set to 5.05D-01
 ITU=  1  0
 Use linear search instead of GDIIS.
     Eigenvalues ---    0.00390   0.01535   0.01815   0.02004   0.02073
     Eigenvalues ---    0.02394   0.02481   0.02666   0.03044   0.03337
     Eigenvalues ---    0.08621   0.08690   0.10572   0.10831   0.11438
     Eigenvalues ---    0.12081   0.13314   0.17156   0.18606   0.18717
     Eigenvalues ---    0.18826   0.19275   0.21743   0.26227   0.33040
     Eigenvalues ---    0.33701   0.33892   0.35207   0.35638   0.36249
     Eigenvalues ---    0.36356   0.36736   0.37955   0.39613   0.41749
     Eigenvalues ---    0.44856   0.47440   0.50645   0.57206
 RFO step:  Lambda=-2.72763182D-05 EMin= 3.90266035D-03
 Quartic linear search produced a step of  0.04162.
 Iteration  1 RMS(Cart)=  0.00221405 RMS(Int)=  0.00001760
 Iteration  2 RMS(Cart)=  0.00000578 RMS(Int)=  0.00001699
 Iteration  3 RMS(Cart)=  0.00000000 RMS(Int)=  0.00001699
 Variable       Old X    -DE/DX   Delta X   Delta X   Delta X     New X
                                 (Linear)    (Quad)   (Total)
    R1        2.60042   0.00107  -0.00219   0.00418   0.00202   2.60244
    R2        2.58096   0.00111  -0.00216   0.00406   0.00193   2.58289
    R3        2.04688   0.00015  -0.00023   0.00019  -0.00003   2.04685
    R4        2.63413   0.00088   0.00054   0.00169   0.00223   2.63636
    R5        2.04962   0.00006   0.00003   0.00025   0.00028   2.04990
    R6        2.63648   0.00077  -0.00001   0.00093   0.00089   2.63738
    R7        2.64041   0.00080   0.00015   0.00125   0.00137   2.64178
    R8        2.04388  -0.00001  -0.00004  -0.00002  -0.00006   2.04382
    R9        2.65528   0.00077   0.00056   0.00160   0.00217   2.65745
   R10        2.55604   0.00001  -0.00026  -0.00007  -0.00033   2.55571
   R11        2.04927   0.00017  -0.00002   0.00011   0.00009   2.04936
   R12        2.68447   0.00004   0.00012   0.00017   0.00029   2.68477
   R13        2.05605   0.00000  -0.00001   0.00000  -0.00002   2.05603
   R14        2.06661   0.00000  -0.00003  -0.00002  -0.00004   2.06656
   R15        2.06650   0.00000  -0.00003  -0.00003  -0.00006   2.06645
    A1        2.19878   0.00151   0.00536   0.00239   0.00782   2.20661
    A2        2.14266   0.00057   0.00124   0.00094   0.00217   2.14483
    A3        2.02248  -0.00112  -0.00322  -0.00235  -0.00554   2.01693
    A4        2.11805   0.00056   0.00198   0.00141   0.00338   2.12142
    A5        2.08736  -0.00008  -0.00038   0.00031  -0.00006   2.08730
    A6        2.11814   0.00011   0.00034   0.00034   0.00065   2.11879
    A7        2.07769  -0.00003   0.00004  -0.00065  -0.00060   2.07709
    A8        2.09283   0.00049   0.00048   0.00165   0.00207   2.09490
    A9        2.08110  -0.00024  -0.00020  -0.00084  -0.00102   2.08009
   A10        2.10925  -0.00026  -0.00027  -0.00081  -0.00105   2.10820
   A11        2.09060   0.00004   0.00002   0.00029   0.00028   2.09089
   A12        2.17043  -0.00008   0.00013  -0.00073  -0.00059   2.16984
   A13        2.02215   0.00004  -0.00015   0.00044   0.00030   2.02246
   A14        2.04354  -0.00103  -0.00298  -0.00234  -0.00529   2.03825
   A15        2.15051   0.00081   0.00198   0.00250   0.00448   2.15498
   A16        2.08914   0.00022   0.00099  -0.00017   0.00081   2.08996
   A17        2.05629  -0.00005   0.00005   0.00027   0.00033   2.05662
   A18        1.84955   0.00000  -0.00005  -0.00008  -0.00013   1.84942
   A19        1.93880  -0.00002  -0.00006  -0.00012  -0.00018   1.93862
   A20        1.93864  -0.00001  -0.00006  -0.00010  -0.00016   1.93848
   A21        1.90989   0.00001   0.00005   0.00007   0.00012   1.91002
   A22        1.90976   0.00001   0.00005   0.00008   0.00013   1.90989
   A23        1.91591   0.00001   0.00007   0.00014   0.00021   1.91612
    D1       -3.13838  -0.00006  -0.00030  -0.00254  -0.00285  -3.14123
    D2        0.00112  -0.00001  -0.00011  -0.00071  -0.00082   0.00029
    D3       -0.00133   0.00003   0.00022   0.00122   0.00144   0.00010
    D4        3.13994   0.00002   0.00009   0.00107   0.00116   3.14110
    D5       -3.14119  -0.00002  -0.00006  -0.00053  -0.00059   3.14140
    D6       -0.00027  -0.00001  -0.00003  -0.00009  -0.00013  -0.00039
    D7       -0.00166   0.00003   0.00013   0.00128   0.00140  -0.00026
    D8        3.13927   0.00004   0.00016   0.00171   0.00187   3.14113
    D9       -0.00027   0.00001   0.00007   0.00030   0.00038   0.00010
   D10       -3.14122   0.00001   0.00005   0.00027   0.00033  -3.14089
   D11        3.14066   0.00002   0.00010   0.00074   0.00084   3.14149
   D12       -0.00029   0.00002   0.00008   0.00071   0.00079   0.00050
   D13        0.00006   0.00000   0.00003   0.00022   0.00026   0.00032
   D14       -3.14122   0.00000   0.00001  -0.00004  -0.00002  -3.14124
   D15        3.14100   0.00001   0.00005   0.00025   0.00031   3.14130
   D16       -0.00028   0.00000   0.00003   0.00000   0.00003  -0.00026
   D17        0.00068  -0.00002  -0.00018  -0.00092  -0.00109  -0.00041
   D18       -3.14060  -0.00002  -0.00005  -0.00078  -0.00083  -3.14143
   D19       -3.14120  -0.00002  -0.00016  -0.00069  -0.00084   3.14115
   D20        0.00071  -0.00001  -0.00003  -0.00055  -0.00058   0.00013
   D21        0.00059   0.00000   0.00004   0.00018   0.00023   0.00082
   D22       -3.14070   0.00000   0.00002  -0.00007  -0.00004  -3.14075
   D23        3.14108   0.00000  -0.00002  -0.00042  -0.00044   3.14065
   D24       -1.06932   0.00000  -0.00002  -0.00044  -0.00046  -1.06978
   D25        1.06854  -0.00001  -0.00001  -0.00041  -0.00042   1.06812
         Item               Value     Threshold  Converged?
 Maximum Force            0.001513     0.000015     NO 
 RMS     Force            0.000426     0.000010     NO 
 Maximum Displacement     0.006140     0.000060     NO 
 RMS     Displacement     0.002212     0.000040     NO 
 Predicted change in Energy=-2.121325D-05
 GradGradGradGradGradGradGradGradGradGradGradGradGradGradGradGradGradGrad

                          Input orientation:                          
 ---------------------------------------------------------------------
 Center     Atomic      Atomic             Coordinates (Angstroms)
 Number     Number       Type             X           Y           Z
 ---------------------------------------------------------------------
      1          6           0        6.161718    6.898220    5.206659
      2          6           0        5.157379    6.021577    5.552123
      3          1           0        5.307557    5.194937    6.235731
      4          6           0        3.917005    6.264203    4.961432
      5          1           0        3.079343    5.613213    5.187792
      6          6           0        3.726880    7.330621    4.081425
      7          6           0        4.791665    8.182984    3.774772
      8          6           0        6.053328    7.961914    4.355206
      9          1           0        6.878690    8.623756    4.116831
     10          1           0        2.749810    7.485937    3.644449
     11          8           0        4.704900    9.240298    2.935954
     12          6           0        3.448405    9.502602    2.326976
     13          1           0        3.596123   10.381251    1.702547
     14          1           0        3.130564    8.662313    1.703435
     15          1           0        2.683787    9.715348    3.079223
 ---------------------------------------------------------------------
                    Distance matrix (angstroms):
                    1          2          3          4          5
     1  C    0.000000
     2  C    1.377151   0.000000
     3  H    2.165584   1.083147   0.000000
     4  C    2.345390   1.395103   2.168134   0.000000
     5  H    3.339556   2.148891   2.497613   1.084759   0.000000
     6  C    2.716902   2.433696   3.420632   1.395639   2.143091
     7  C    2.361771   2.822127   3.905238   2.419693   3.395938
     8  C    1.366808   2.449539   3.427639   2.795283   3.879971
     9  H    2.163158   3.434285   4.326083   3.879746   4.964410
    10  H    3.798293   3.402934   4.301802   2.142294   2.448999
    11  O    3.572639   4.172438   5.255156   3.685170   4.568254
    12  C    4.736819   5.043779   6.106619   4.200854   4.842295
    13  H    5.567098   6.021919   7.097649   5.260550   5.928590
    14  H    4.957065   5.088602   6.107676   4.121161   4.630375
    15  H    4.955623   5.087026   6.105884   4.119944   4.629259
                    6          7          8          9         10
     6  C    0.000000
     7  C    1.397972   0.000000
     8  C    2.426076   1.406260   0.000000
     9  H    3.406958   2.160315   1.084473   0.000000
    10  H    1.081544   2.161488   3.412471   4.308762   0.000000
    11  O    2.432178   1.352426   2.338119   2.549502   2.720683
    12  C    2.805912   2.375259   3.643221   3.967721   2.508128
    13  H    3.870724   3.248971   4.350591   4.437657   3.587488
    14  H    2.789952   2.698046   4.008116   4.458073   2.301384
    15  H    2.789153   2.697235   4.007052   4.457063   2.300893
                   11         12         13         14         15
    11  O    0.000000
    12  C    1.420717   0.000000
    13  H    2.013071   1.088005   0.000000
    14  H    2.081274   1.093578   1.780869   0.000000
    15  H    2.081128   1.093516   1.780737   1.789213   0.000000
 Symmetry turned off by external request.
 Stoichiometry    C7H7O(2)
 Framework group  C1[X(C7H7O)]
 Deg. of freedom    39
 Full point group                 C1      NOp   1
 Rotational constants (GHZ):           5.2769920           1.6095644           1.2431565
 Standard basis: 6-311+G(d,p) (5D, 7F)
   218 basis functions,   344 primitive gaussians,   226 cartesian basis functions
    29 alpha electrons       28 beta electrons
       nuclear repulsion energy       335.9449949769 Hartrees.
 NAtoms=   15 NActive=   15 NUniq=   15 SFac= 1.00D+00 NAtFMM=   60 NAOKFM=F Big=F
 Integral buffers will be    131072 words long.
 Raffenetti 2 integral format.
 Two-electron integral symmetry is turned off.
 ------------------------------------------------------------------------------
 Polarizable Continuum Model (PCM)
 =================================
 Model                : PCM.
 Atomic radii         : SMD-Coulomb.
 Polarization charges : Total charges.
 Charge compensation  : None.
 Solution method      : Matrix inversion.
 Cavity type          : VdW (van der Waals Surface) (Alpha=1.000).
 Cavity algorithm     : GePol (No added spheres)
                        Default sphere list used, NSphG=   15.
                        Lebedev-Laikov grids with approx.  5.0 points / Ang**2.
                        Smoothing algorithm: York/Karplus (Gamma=1.0000).
                        Polarization charges: spherical gaussians, with
                                              point-specific exponents (IZeta= 3).
                        Self-potential: point-specific (ISelfS= 7).
                        Self-field    : sphere-specific E.n sum rule (ISelfD= 2).
 1st derivatives      : Analytical E(r).r(x)/FMM algorithm (CHGder, D1EAlg=3).
                        Cavity 1st derivative terms included.
 Solvent              : TetraHydroFuran, Eps=   7.425700 Eps(inf)=   1.974025
 ------------------------------------------------------------------------------
 Spheres list:
 ISph  on   Nord     Re0    Alpha      Xe            Ye            Ze
    1   C      1    1.8500  1.000      6.161718      6.898220      5.206659
    2   C      2    1.8500  1.000      5.157379      6.021577      5.552123
    3   H      3    1.2000  1.000      5.307557      5.194937      6.235731
    4   C      4    1.8500  1.000      3.917005      6.264203      4.961432
    5   H      5    1.2000  1.000      3.079343      5.613213      5.187792
    6   C      6    1.8500  1.000      3.726880      7.330621      4.081425
    7   C      7    1.8500  1.000      4.791665      8.182984      3.774772
    8   C      8    1.8500  1.000      6.053328      7.961914      4.355206
    9   H      9    1.2000  1.000      6.878690      8.623756      4.116831
   10   H     10    1.2000  1.000      2.749810      7.485937      3.644449
   11   O     11    2.2940  1.000      4.704900      9.240298      2.935954
   12   C     12    1.8500  1.000      3.448405      9.502602      2.326976
   13   H     13    1.2000  1.000      3.596123     10.381251      1.702547
   14   H     14    1.2000  1.000      3.130564      8.662313      1.703435
   15   H     15    1.2000  1.000      2.683787      9.715348      3.079223
 ------------------------------------------------------------------------------
 ------------------------------------------------------------------------------
 Atomic radii for non-electrostatic terms: SMD-CDS.
[...]
 ! D20   D(11,7,8,9)             0.0036         -DE/DX =    0.0                 !
 ! D21   D(6,7,11,12)            0.0487         -DE/DX =    0.0                 !
 ! D22   D(8,7,11,12)         -179.9488         -DE/DX =    0.0                 !
 ! D23   D(7,11,12,13)         179.9431         -DE/DX =    0.0                 !
 ! D24   D(7,11,12,14)         -61.2965         -DE/DX =    0.0                 !
 ! D25   D(7,11,12,15)          61.1958         -DE/DX =    0.0                 !
 --------------------------------------------------------------------------------
 GradGradGradGradGradGradGradGradGradGradGradGradGradGradGradGradGradGrad


 ----------------------------------------------------------------------

 Electric dipole moment (input orientation):
 (Debye = 10**-18 statcoulomb cm , SI units = C m)
                  (au)            (Debye)         (10**-30 SI)
   Tot        0.120776D+01      0.306983D+01      0.102398D+02
   x         -0.112675D+01     -0.286392D+01     -0.955300D+01
   y          0.807220D-01      0.205175D+00      0.684390D+00
   z         -0.427325D+00     -0.108615D+01     -0.362301D+01

 Dipole polarizability, Alpha (input orientation).
 (esu units = cm**3 , SI units = C**2 m**2 J**-1)
 Alpha(0;0):
               (au)            (10**-24 esu)      (10**-40 SI)
   iso        0.107372D+03      0.159109D+02      0.177033D+02
   aniso      0.623542D+02      0.923993D+01      0.102808D+02
   xx         0.115219D+03      0.170737D+02      0.189971D+02
   yx         0.298117D+01      0.441764D+00      0.491529D+00
   yy         0.110459D+03      0.163684D+02      0.182123D+02
   zx         0.132284D+02      0.196025D+01      0.218108D+01
   zy        -0.318874D+02     -0.472522D+01     -0.525752D+01
   zz         0.964382D+02      0.142907D+02      0.159005D+02

 ----------------------------------------------------------------------

 Dipole orientation:
     6         -4.42063596        -14.18668758        -13.47256185
     6         -5.78362996        -12.49181620        -12.04415485
     1         -6.95937899        -11.03419546        -12.87049243
     6         -5.55836500        -12.76603442         -9.43158409
     1         -6.57938399        -11.49563362         -8.18832105
     6         -4.04232064        -14.64700351         -8.37335891
     6         -2.70888472        -16.30644007         -9.93793564
     6         -2.90021458        -16.07298782        -12.57836572
     1         -1.86519627        -17.36134041        -13.79038043
     1         -3.91775280        -14.79930824         -6.33902852
     8         -1.19659793        -18.18434554         -9.09056545
     6         -0.94816606        -18.49211805         -6.43508996
     1          0.32879712        -20.08106744         -6.16699204
     1         -0.13649048        -16.80303474         -5.56396282
     1         -2.77187827        -18.92122204         -5.56322775

 Electric dipole moment (dipole orientation):
 (Debye = 10**-18 statcoulomb cm , SI units = C m)
                  (au)            (Debye)         (10**-30 SI)
   Tot        0.120776D+01      0.306983D+01      0.102398D+02
   x          0.000000D+00      0.000000D+00      0.000000D+00
   y          0.000000D+00      0.000000D+00      0.000000D+00
   z          0.120776D+01      0.306983D+01      0.102398D+02

 Dipole polarizability, Alpha (dipole orientation).
 (esu units = cm**3 , SI units = C**2 m**2 J**-1)
 Alpha(0;0):
               (au)            (10**-24 esu)      (10**-40 SI)
   iso        0.107372D+03      0.159109D+02      0.177033D+02
   aniso      0.623542D+02      0.923993D+01      0.102808D+02
   xx         0.928870D+02      0.137644D+02      0.153150D+02
   yx        -0.313195D+02     -0.464107D+01     -0.516389D+01
   yy         0.106514D+03      0.157837D+02      0.175617D+02
   zx         0.607894D+01      0.900807D+00      0.100228D+01
   zy        -0.742636D+01     -0.110047D+01     -0.122444D+01
   zz         0.122716D+03      0.181847D+02      0.202332D+02

 ----------------------------------------------------------------------
 Unable to Open any file for archive entry.
 1\1\GINC-CN008\Freq\UM062X\6-311+G(d,p)\C7H7O1(2)\TAHMINAAFROZ\09-May-
 2025\0\\#N Geom=AllCheck Guess=TCheck SCRF=Check GenChk UM062X/6-311+G
 (d,p) Freq\\3-OMe-ph-opt-freq-thf\\0,2\C,6.1615325039,6.8982609207,5.2
 066228552\C,5.1574708406,6.0216335098,5.5521230125\H,5.3077041504,5.19
 49571528,6.2357321376\C,3.9169439166,6.2641565369,4.9614587782\H,3.079
 2552627,5.6131947055,5.1878092313\C,3.7268577177,7.3306152269,4.081408
 3739\C,4.7916945577,8.1830167485,3.7747424153\C,6.0533816454,7.9618367
 137,4.3553114255\H,6.8787266235,8.6237132729,4.116834028\H,2.749797126
 8,7.4859318164,3.644409042\O,4.7049189877,9.2403104821,2.9359172356\C,
 3.4484065618,9.502613178,2.3269695689\H,3.5960942509,10.3812793357,1.7
 025572493\H,3.1305672525,8.6623306028,1.7034183049\H,2.683802602,9.715
 3237973,3.0792413419\\Version=AS64L-G16RevC.01\HF=-346.0353533\S2=0.76
 1431\S2-1=0.\S2A=0.750062\RMSD=2.607e-09\RMSF=5.539e-06\ZeroPoint=0.12
 08959\Thermal=0.1276704\ETot=-345.9076829\HTot=-345.9067387\GTot=-345.
 946045\Dipole=-1.1267523,0.080722,-0.4273246\DipoleDeriv=0.0093845,0.1
 271618,-0.0564456,0.2167938,0.211804,-0.1848606,-0.1250964,-0.2140998,
 0.0054821,-0.4437377,-0.0582203,-0.0447064,0.0139788,-0.1977172,0.0245
 549,-0.0996664,0.0045016,-0.2103126,0.1344394,-0.0014326,-0.0261717,0.
 0020088,0.0709909,0.1133845,-0.0289281,0.1111574,0.1240709,0.239514,-0
 .0062522,0.1473893,-0.1687302,0.0775704,-0.2612425,0.2723153,-0.207523
 6,0.0572666,-0.0010658,-0.0989059,0.0179985,-0.0748701,0.0659457,0.060
 5096,-0.0019865,0.0511184,0.1367628,-0.1125676,-0.22484,0.2138442,0.18
 29807,-0.4565154,0.2232095,-0.0978593,0.0886123,-0.3444533,0.3092956,-
 0.0788157,0.1200628,-0.3542111,1.3145507,-1.0277086,0.3328262,-0.93760
 17,0.9495306,-0.2057791,0.3027751,-0.2325576,-0.0098462,-0.3006591,0.0
 781653,0.0059507,0.1794003,-0.3300493,0.0932121,-0.0593887,0.0049554,-
 0.0752494,0.1089863,0.0598828,0.0159099,0.0644203,0.1749047,0.0252858,
 0.0194854,-0.0796157,0.0078457,0.1483757,0.0566964,-0.0718689,0.061348
 1,0.151032,-0.8420211,0.3394771,-0.4196257,0.4324559,-1.4289682,0.9617
 677,-0.489293,0.9327437,-1.2333152,0.8026466,-0.4009138,0.4504464,-0.1
 330601,0.3976084,-0.0762924,0.2454628,-0.1606799,0.561428,0.0600184,-0
 .0372419,0.0094438,0.0076065,-0.03846,0.1230977,-0.0250582,0.1075227,0
 .0284768,0.0003236,0.0753951,-0.0821469,-0.0602211,-0.0553209,-0.13433
 24,-0.0538379,-0.0426822,-0.0003946,-0.0689487,0.1017166,-0.0228707,0.
 0125178,0.0818088,-0.0168319,0.1211299,-0.0382377,-0.0704294\Polar=115
 .2191915,2.9811713,110.4594916,13.2284448,-31.8873807,96.4382192\Quadr
 upole=-10.6852127,10.4058016,0.2794111,-15.9093325,-10.4993724,-9.1185
 757\PG=C01 [X(C7H7O1)]\NImag=0\\0.36921885,0.13194730,0.47092034,-0.00
 530092,-0.26055743,0.27331153,-0.22156585,-0.10802550,0.02731565,0.577
 70463,-0.13616618,-0.18891605,0.06143953,0.07268992,0.53202610,0.04881
 179,0.07064856,-0.08911576,0.09467956,-0.29422197,0.37410455,0.0058846
 2,-0.01610536,0.01500457,-0.05705054,0.02599856,-0.02840417,0.05690801
 ,0.00138393,-0.01264009,0.00845453,0.03016725,-0.21557346,0.15081460,-
 0.02767820,0.22448957,0.00159161,0.00278924,-0.00383421,-0.03157980,0.
 14944793,-0.15671019,0.03272781,-0.16413701,0.15886745,-0.06384395,-0.
 05743884,0.01939838,-0.27935261,0.05843303,-0.11619719,0.00083532,-0.0
 0163507,0.00008985,0.67272400,-0.00451075,0.03777769,-0.02167549,-0.00
 687951,-0.10619755,0.03250540,0.02216678,0.00097050,0.00990808,0.11329
 672,0.50222511,-0.02101969,-0.03890212,0.03443303,-0.06624341,0.053814
 57,-0.12378807,-0.01818656,0.00213838,-0.00312192,0.08910925,-0.245639
 77,0.35213517,-0.00477994,-0.00037355,-0.00349512,-0.01567698,-0.01686
 605,0.00612301,0.00099195,0.00083451,0.00112226,-0.22648878,-0.1357952
 8,0.04270409,0.23622801,0.00040553,0.00348574,0.00269319,0.00604867,0.
 00694405,0.00063523,0.00016307,-0.00123177,-0.00238066,-0.13487746,-0.
 15381313,0.04452379,0.14566279,0.15599533,-0.00410601,0.00243249,0.003
 61603,-0.01144275,-0.00681274,0.00671062,0.00164012,-0.00216410,-0.002
 21400,0.04201815,0.04419850,-0.05896754,-0.04299469,-0.05229182,0.0522
 8974,-0.01437430,-0.01869396,0.01059132,0.01691592,0.02541735,-0.01597
 966,-0.00380304,-0.00021123,-0.00330027,-0.12529968,0.03873205,-0.0516
 7061,0.00684983,-0.01847518,0.01505659,0.69646323,-0.02449869,-0.05073
 988,0.02869448,0.07012093,0.01068404,0.01931885,-0.00077814,0.00349799
 ,0.00224934,-0.01609689,-0.22538226,0.12318684,0.00443082,-0.00927309,
 0.01165278,0.06201542,0.48261789,0.01502555,0.03062150,-0.02150143,-0.
 05025053,0.00474545,-0.01392114,-0.00285142,0.00244682,0.00396922,-0.0
 0961298,0.14110683,-0.16975835,-0.00249209,0.00417287,0.00001825,0.139
 60654,-0.25614871,0.36428289,0.03017890,0.08193637,-0.05544943,-0.0788
 7222,-0.02117216,-0.00896707,-0.00160363,-0.00071215,-0.00000523,0.054
 90691,-0.05226794,0.05854871,0.00150518,0.00093337,-0.00247895,-0.2465
 8765,-0.06110300,-0.01222187,0.65431750,0.02940516,0.00370769,0.012644
 96,-0.02243178,0.00087969,-0.00924655,-0.00017217,0.00015431,-0.000083
 74,-0.00668959,-0.03948363,0.02673473,0.00064776,0.00051095,0.00514369
 ,-0.11489990,-0.16221146,0.03723782,0.08111434,0.49670711,-0.01524578,
 0.02962385,-0.02008957,-0.00801944,-0.00871801,0.00253741,-0.00041260,
 -0.00027776,0.00015493,0.02362183,0.01186514,-0.00320560,-0.00227317,0
 .00523112,0.00216920,0.02896512,0.05484423,-0.09742112,0.09957888,-0.2
 3331433,0.36939782,-0.09962907,-0.00802038,-0.01089360,0.04620261,-0.0
 1083628,0.02174526,-0.00276718,-0.00253243,-0.00067031,-0.02463034,0.0
 2323825,-0.02595568,0.00066252,0.00055045,0.00023381,-0.04261463,-0.03
 630238,0.01199714,-0.26900464,0.03156111,-0.09041103,0.61803748,0.0165
 4480,-0.25521154,0.16468058,-0.04104989,-0.03285965,0.01562936,-0.0040
 5302,0.00087550,0.00193254,0.02488822,-0.02065671,0.02438931,0.0009768
 2,-0.00075543,-0.00014000,-0.00081876,0.03603654,-0.02340606,-0.029599
 88,-0.09514240,0.01249787,0.13060509,0.53659933,-0.02970253,0.15664870
 ,-0.17748643,0.04490765,0.02546544,0.00007549,0.00052565,0.00246127,0.
 00345434,-0.02724999,0.02385102,-0.02663830,-0.00009151,-0.00027932,-0
 .00116524,-0.01516424,-0.03494512,0.02773075,-0.04366006,0.03240351,-0
 .10546329,0.06417267,-0.28047002,0.35149538,0.00730538,0.00144198,0.00
 207196,0.00163542,0.00154379,-0.00258894,0.00033060,0.00019857,-0.0001
 0640,-0.00041646,0.00094578,-0.00066324,-0.00003859,-0.00000512,0.0001
 0986,-0.00347021,0.00090001,-0.00343317,-0.01609671,-0.01858651,0.0066
 2592,-0.22098947,-0.13451511,0.04134369,0.22985945,-0.01474642,-0.0129
 1334,0.00324263,-0.00017741,-0.00022234,0.00466195,-0.00064329,-0.0002
 2666,0.00011457,0.00087139,-0.00035560,0.00007557,-0.00004127,-0.00011
 340,-0.00020823,0.00049520,0.00217056,0.00230333,0.00419814,0.00696803
 ,0.00158327,-0.13973865,-0.15094611,0.04565633,0.14894721,0.15620300,0
 .01448359,0.00856435,-0.00425737,-0.00125126,0.00518969,0.00153538,0.0
 0053147,0.00039011,0.00007658,-0.00058999,0.00010884,-0.00090460,0.000
 13983,-0.00019781,-0.00017041,-0.00312955,0.00244048,0.00207344,-0.010
 82224,-0.00582855,0.00817190,0.04530939,0.04731548,-0.05343566,-0.0460
 1263,-0.05504056,0.04823413,0.00027445,-0.00080637,0.00101108,0.002463
 21,-0.00052979,-0.00092552,-0.00001679,-0.00011887,0.00002390,0.000852
 31,-0.00072135,0.00004005,0.00034952,0.00082656,0.00086341,-0.29703597
 ,0.03199338,-0.11061155,-0.01521757,0.00538063,-0.01009858,-0.00189753
 ,-0.00358226,0.00040249,-0.00071325,0.00036662,-0.00041837,0.30959197,
 -0.00047186,-0.00152491,0.00030832,-0.00026589,-0.00078521,0.00555064,
 0.00094475,-0.00003199,0.00048651,0.02220352,0.00004582,0.00903225,0.0
 0044591,-0.00070669,-0.00256657,0.03261043,-0.05408211,0.02696506,-0.0
 1604565,0.00768039,-0.00863066,-0.00379588,-0.00019891,0.00295760,-0.0
 0078377,0.00008789,-0.00055183,-0.03637001,0.05394479,0.00074343,0.000
 20351,-0.00083201,-0.00111487,0.00545252,0.00200387,-0.00079818,0.0001
 3935,-0.00016891,-0.01755314,0.00157250,-0.00450088,0.00116247,-0.0024
 4437,-0.00199126,-0.11101660,0.02670526,-0.08869751,0.00631542,-0.0016
 4812,0.00653493,0.00055131,0.00303300,0.00312354,0.00046759,-0.0001763
 2,-0.00000839,0.12105034,-0.03488434,0.08944377,-0.00782783,-0.0041754
 5,-0.00090760,0.00541933,0.00218880,0.00044572,0.00025083,0.00026486,0
 .00007186,-0.00747238,0.00019719,-0.00478032,0.00046644,-0.00094584,0.
 00092951,0.01057389,-0.02375929,0.01869870,-0.10703571,0.00652966,-0.0
 2497500,-0.00536717,0.04105069,-0.03559432,0.00251733,0.00038414,0.001
 53940,0.00015829,0.00205302,-0.00068255,0.38396722,-0.00083730,0.00523
 054,-0.00064708,0.00109432,-0.00632118,0.00438154,0.00009854,-0.000207
 65,-0.00027615,-0.00489884,0.00556840,-0.00066974,0.00011289,-0.001249
 69,0.00086826,-0.00571322,-0.03263900,0.03009852,-0.02096606,-0.208442
 71,0.11809433,0.01725670,-0.01554587,0.02312773,-0.00042498,-0.0004792
 5,-0.00202928,0.00140135,-0.00002694,-0.00139820,-0.03332047,0.3269394
 6,-0.00346714,-0.00174692,0.00499439,0.00130912,0.00468646,-0.00437855
 ,0.00019848,-0.00020592,-0.00035373,-0.00090797,0.00099283,0.00573684,
 0.00011546,0.00053286,-0.00051158,0.00492695,0.02424898,-0.00808949,-0
 .00395159,0.12705753,-0.14405229,-0.01735455,0.03090597,-0.02204097,0.
 00216252,-0.00176888,-0.00087641,-0.00022221,-0.00124610,-0.00161324,0
 .12722636,-0.20778096,0.27058062,-0.00017080,-0.00082184,0.00016608,0.
 00156005,-0.00149827,0.00164539,-0.00002977,0.00001314,0.00003713,-0.0
 0231113,0.00130416,-0.00183252,-0.00010502,-0.00042686,0.00028688,0.00
 214887,-0.00778611,0.00675227,-0.00365163,0.01995480,-0.01490614,0.003
 74426,-0.00339746,0.00288379,-0.00024600,0.00014551,0.00007850,-0.0001
 1494,-0.00039123,0.00040551,-0.21015933,0.01960244,-0.06372500,0.49592
 449,0.00087447,-0.00015611,0.00134845,-0.00013578,0.00062213,-0.000431
 42,0.00006099,-0.00006340,-0.00007349,0.00101744,0.00003041,0.00045754
 ,-0.00003579,0.00017987,-0.00014356,0.00114637,-0.00098169,0.00063551,
 0.03251382,-0.01712981,0.01994087,-0.00283949,-0.00109970,0.00214434,0
 .00039318,-0.00017739,-0.00036164,0.00148036,-0.00234546,0.00144988,-0
 .00270423,-0.07819807,0.01316272,0.02963536,0.61334935,-0.00112644,0.0
 0080014,0.00024490,0.00056399,-0.00087450,0.00097966,0.00000624,-0.000
 09293,-0.00012142,-0.00158198,0.00054976,-0.00072308,-0.00000908,-0.00
 026926,0.00020955,-0.00013628,-0.00208578,0.00113306,-0.02450758,0.015
 73231,-0.02493761,0.00242781,0.00198881,0.00216084,-0.00011248,-0.0004
 4293,-0.00051181,-0.00091868,0.00094398,-0.00202638,-0.04667540,0.0205
 1529,-0.09058877,-0.05128649,-0.01177491,0.57744982,-0.00048052,-0.000
 13169,-0.00003296,0.00021105,0.00001615,0.00007251,0.00003860,0.000007
 73,0.00001500,0.00045359,0.00021377,-0.00007210,0.00000155,0.00003278,
 -0.00003655,-0.00102454,-0.00058177,0.00005006,-0.00482222,-0.00052332
 ,-0.00135909,-0.00007556,0.00123731,-0.00105913,0.00001836,-0.00003759
 ,0.00003809,0.00073680,-0.00014651,0.00040622,-0.00392617,0.03410672,-
 0.02759298,-0.05581471,-0.04635416,0.03404901,0.06591992,0.00013344,-0
 .00006329,0.00003845,0.00007274,-0.00010252,0.00006278,0.00001472,-0.0
 0001468,-0.00000401,0.00001784,0.00014889,0.00002734,-0.00001476,-0.00
 000521,0.00002657,-0.00028585,-0.00006589,0.00010157,0.00057372,0.0023
 6473,-0.00115611,-0.00000143,-0.00019466,0.00034580,-0.00000309,-0.000
 00379,-0.00000601,0.00029107,-0.00005208,-0.00004870,0.00296059,-0.004
 86320,0.00503052,-0.03493325,-0.23500995,0.12864996,0.03510441,0.24753
 851,-0.00023424,-0.00004531,-0.00011022,0.00002979,0.00004092,-0.00007
 758,0.00000930,-0.00000596,-0.00001767,0.00007327,0.00009145,0.0001314
 2,-0.00000017,0.00004233,0.00000441,-0.00016735,0.00002256,0.00011190,
 -0.00220528,-0.00148105,0.00103289,-0.00010539,0.00074298,-0.00034481,
 0.00001116,-0.00001725,0.00000583,0.00006402,-0.00020930,-0.00004394,-
 0.00373857,0.01511156,-0.01231431,0.02529812,0.12496860,-0.13931009,-0
 .02034446,-0.14234826,0.14877550,-0.00016152,-0.00025676,0.00040657,0.
 00023821,0.00034889,-0.00025924,0.00001351,-0.00000396,-0.00003290,-0.
 00011067,0.00010782,0.00004017,0.00001556,0.00005619,-0.00002882,0.000
 71769,0.00092156,-0.00008921,0.00114511,-0.00575472,0.00375532,-0.0009
 3267,0.00105588,-0.00047771,0.00018345,-0.00010952,-0.00008391,0.00012
 171,0.00002997,-0.00006160,-0.02390876,-0.01943754,-0.02803809,-0.0657
 1346,-0.04850563,-0.03412156,-0.00015621,-0.00424879,-0.00220426,0.080
 22540,0.00032719,0.00048818,-0.00036515,-0.00063666,-0.00010345,-0.000
 21365,-0.00000072,0.00002847,0.00006898,0.00079453,-0.00061949,0.00028
 031,-0.00000447,0.00004360,0.00002453,-0.00129559,0.00026691,-0.000224
 83,-0.00002269,0.00185466,0.00060871,0.00047866,-0.00049460,-0.0000288
 6,-0.00001323,0.00003254,0.00006058,0.00040005,-0.00028673,0.00172949,
 0.00162684,0.01122188,0.00689689,-0.05403983,-0.21729699,-0.11875133,-
 0.00503770,-0.01713216,-0.01481387,0.05914837,0.22570729,-0.00019797,-
 0.00046424,0.00040525,0.00048234,0.00020598,-0.00000123,0.00004422,-0.
 00001845,-0.00001601,-0.00003582,0.00041045,-0.00008517,-0.00000261,0.
 00001071,-0.00002571,0.00000633,-0.00027895,-0.00027854,0.00019460,-0.
 00412577,0.00227004,-0.00065671,0.00084561,-0.00059151,0.00012083,-0.0
 0005756,-0.00002588,0.00046832,0.00045602,-0.00125773,-0.01393189,-0.0
 0543394,-0.01107934,-0.03624574,-0.11375277,-0.13421824,0.00554783,0.0
 1399648,0.01291885,0.04932512,0.12613464,0.14301735,-0.00002841,-0.000
 47595,0.00011401,0.00016775,0.00043224,-0.00020145,0.00001752,0.000021
 94,0.00001549,0.00015387,-0.00002768,-0.00001815,0.00001876,0.00005107
 ,-0.00005055,0.00054059,0.00052415,-0.00056743,0.00083836,-0.00553548,
 0.00515376,-0.00073861,0.00065757,-0.00123648,0.00012070,0.00008594,0.
 00018768,0.00044780,-0.00001679,0.00012465,-0.03765598,0.01192546,0.00
 932062,-0.16506087,0.03345309,0.12342889,-0.00107993,0.00031865,0.0035
 1405,0.00832266,-0.00172476,-0.00511884,0.19393578,0.00020940,0.000555
 04,-0.00029996,-0.00059140,-0.00007458,-0.00009531,-0.00001651,-0.0000
 2664,-0.00004213,0.00011399,-0.00025842,0.00055101,0.00001968,-0.00001
 112,-0.00001979,-0.00002312,0.00010146,-0.00065567,0.00061979,0.001582
 47,-0.00219253,0.00037667,-0.00040578,0.00066159,-0.00003872,-0.000024
 13,-0.00005388,-0.00001135,-0.00171785,0.00031454,0.00764948,-0.000986
 71,-0.00076596,0.03263942,-0.06172320,-0.03488861,-0.01790613,0.007455
 30,0.01790060,0.01664826,-0.00371010,-0.01792820,-0.03968947,0.0592442
 6,-0.00025527,-0.00061634,0.00022189,0.00061396,0.00013873,0.00004554,
 -0.00003493,0.00005708,0.00003554,-0.00058168,0.00015447,-0.00074295,-
 0.00000869,0.00002114,0.00002795,0.00141173,0.00009478,0.00034809,-0.0
 0036830,-0.00122644,0.00290038,-0.00039011,0.00005457,-0.00087412,0.00
 000332,0.00007409,0.00009329,-0.00072872,0.00138842,0.00003414,-0.0176
 2591,0.00603814,0.01458682,0.13044220,-0.03757013,-0.18974043,0.010318
 55,-0.00471640,-0.01076217,0.01187010,-0.00140643,-0.01103216,-0.13466
 626,0.03751431,0.19485820\\-0.00001523,0.00000078,-0.00000463,0.000008
 19,0.00000339,-0.00000740,-0.00000078,-0.00000784,-0.00000625,0.000000
 37,-0.00000502,-0.00000580,-0.00000026,-0.00000667,-0.00001117,-0.0000
 0041,-0.00000114,-0.00000395,0.00000068,0.00000151,0.00000267,0.000001
 09,-0.00000934,0.00001310,-0.00000102,0.00000368,0.00000885,0.00000119
 ,-0.00000142,-0.00000515,0.,0.00000427,0.00000575,0.00000121,0.0000044
 2,0.00000382,0.00000156,0.00000683,0.00000738,0.00000422,0.00000610,0.
 00000005,-0.00000080,0.00000045,0.00000274\\\@
 The archive entry for this job was punched.


 YOU SHOULDN'T LET PEOPLE DRIVE YOU CRAZY
 WHEN YOU KNOW IT'S WITHIN WALKING DISTANCE.
 Job cpu time:       0 days  0 hours 50 minutes 17.5 seconds.
 Elapsed time:       0 days  0 hours  1 minutes 38.8 seconds.
 File lengths (MBytes):  RWF=    165 Int=      0 D2E=      0 Chk=     14 Scr=      1
 Normal termination of Gaussian 16 at Fri May  9 08:01:08 2025.
